 Entering Gaussian System, Link 0=/home/steboss/Software/g09/g09
 Initial command:
 /home/steboss/Software/g09/l1.exe /tmp/17748/Gau-21971.inp -scrdir=/tmp/17748/
 Entering Link 1 = /home/steboss/Software/g09/l1.exe PID=     21993.
  
 Copyright (c) 1988,1990,1992,1993,1995,1998,2003,2009, Gaussian, Inc.
                  All Rights Reserved.
  
 This is part of the Gaussian(R) 09 program.  It is based on
 the Gaussian(R) 03 system (copyright 2003, Gaussian, Inc.),
 the Gaussian(R) 98 system (copyright 1998, Gaussian, Inc.),
 the Gaussian(R) 94 system (copyright 1995, Gaussian, Inc.),
 the Gaussian 92(TM) system (copyright 1992, Gaussian, Inc.),
 the Gaussian 90(TM) system (copyright 1990, Gaussian, Inc.),
 the Gaussian 88(TM) system (copyright 1988, Gaussian, Inc.),
 the Gaussian 86(TM) system (copyright 1986, Carnegie Mellon
 University), and the Gaussian 82(TM) system (copyright 1983,
 Carnegie Mellon University). Gaussian is a federally registered
 trademark of Gaussian, Inc.
  
 This software contains proprietary and confidential information,
 including trade secrets, belonging to Gaussian, Inc.
  
 This software is provided under written license and may be
 used, copied, transmitted, or stored only in accord with that
 written license.
  
 The following legend is applicable only to US Government
 contracts under FAR:
  
                    RESTRICTED RIGHTS LEGEND
  
 Use, reproduction and disclosure by the US Government is
 subject to restrictions as set forth in subparagraphs (a)
 and (c) of the Commercial Computer Software - Restricted
 Rights clause in FAR 52.227-19.
  
 Gaussian, Inc.
 340 Quinnipiac St., Bldg. 40, Wallingford CT 06492
  
  
 ---------------------------------------------------------------
 Warning -- This program may not be used in any manner that
 competes with the business of Gaussian, Inc. or will provide
 assistance to any competitor of Gaussian, Inc.  The licensee
 of this program is prohibited from giving any competitor of
 Gaussian, Inc. access to this program.  By using this program,
 the user acknowledges that Gaussian, Inc. is engaged in the
 business of creating and licensing software in the field of
 computational chemistry and represents and warrants to the
 licensee that it is not a competitor of Gaussian, Inc. and that
 it will not use this program in any manner prohibited above.
 ---------------------------------------------------------------
  

 Cite this work as:
 Gaussian 09, Revision A.02,
 M. J. Frisch, G. W. Trucks, H. B. Schlegel, G. E. Scuseria, 
 M. A. Robb, J. R. Cheeseman, G. Scalmani, V. Barone, B. Mennucci, 
 G. A. Petersson, H. Nakatsuji, M. Caricato, X. Li, H. P. Hratchian, 
 A. F. Izmaylov, J. Bloino, G. Zheng, J. L. Sonnenberg, M. Hada, 
 M. Ehara, K. Toyota, R. Fukuda, J. Hasegawa, M. Ishida, T. Nakajima, 
 Y. Honda, O. Kitao, H. Nakai, T. Vreven, J. A. Montgomery, Jr., 
 J. E. Peralta, F. Ogliaro, M. Bearpark, J. J. Heyd, E. Brothers, 
 K. N. Kudin, V. N. Staroverov, R. Kobayashi, J. Normand, 
 K. Raghavachari, A. Rendell, J. C. Burant, S. S. Iyengar, J. Tomasi, 
 M. Cossi, N. Rega, J. M. Millam, M. Klene, J. E. Knox, J. B. Cross, 
 V. Bakken, C. Adamo, J. Jaramillo, R. Gomperts, R. E. Stratmann, 
 O. Yazyev, A. J. Austin, R. Cammi, C. Pomelli, J. W. Ochterski, 
 R. L. Martin, K. Morokuma, V. G. Zakrzewski, G. A. Voth, 
 P. Salvador, J. J. Dannenberg, S. Dapprich, A. D. Daniels, 
 O. Farkas, J. B. Foresman, J. V. Ortiz, J. Cioslowski, 
 and D. J. Fox, Gaussian, Inc., Wallingford CT, 2009.
 
 ******************************************
 Gaussian 09:  EM64L-G09RevA.02 11-Jun-2009
                16-Mar-2017 
 ******************************************
 %nproc=8
 Will use up to    8 processors via shared memory.
 %mem=4096MB
 %chk=IPolQout.solv.chk
 ----------------------------------------------------------------------
 #MP2/cc-pvTZ density=MP2, charge, maxdisk=16GB, pop=(minimal, MK), 5d,
  punch=mo
 ----------------------------------------------------------------------
 1/18=10,28=-2,30=1,38=1,125=101/1;
 2/12=2,17=6,18=5,40=1/2;
 3/5=16,6=1,8=1,11=9,16=1,25=1,30=1,71=1/1,2,3;
 4//1;
 5/5=2,38=5/2;
 8/6=4,10=1/1;
 9/15=1,16=-3/6;
 10/5=1,13=10/2;
 6/7=2,8=2,9=2,10=2,15=8,20=1,22=2/1,2;
 99/5=1,9=1,10=32/99;
 -----------------
 Generated by mdgx
 -----------------
 Symbolic Z-matrix:
 Charge =  0 Multiplicity = 1
 H                    -2.86964  -1.95042   0.69732 
 C                    -2.77964  -1.23563  -0.12065 
 H                    -3.73052  -0.70734  -0.19025 
 H                    -2.49682  -1.78383  -1.0193 
 C                    -1.66527  -0.31653   0.21017 
 O                    -1.1561   -0.32966   1.33831 
 N                    -1.13725   0.40149  -0.80723 
 H                    -1.80998   0.65526  -1.51654 
 C                     0.11014   1.12759  -0.64193 
 H                     0.37306   1.56048  -1.60712 
 C                    -0.13191   2.37355   0.22427 
 H                    -1.01495   2.90831  -0.12555 
 H                    -0.35464   2.00124   1.22421 
 H                     0.60406   3.17705   0.25294 
 C                     1.30875   0.35189  -0.16621 
 O                     2.20837   0.89643   0.46422 
 N                     1.27443  -0.97515  -0.48316 
 H                     0.38995  -1.41529  -0.69312 
 C                     2.20603  -1.9982    0.01127 
 H                     3.16233  -1.6187    0.37122 
 H                     1.75524  -2.43086   0.90441 
 H                     2.3249   -2.73051  -0.78728 
 
 Background charge distribution read from input stream:
 Point Charges:
 XYZ=    3.2225    0.3686    2.9056 Q=    0.0099 A=    0.0000 R=    0.0000 C=    0.0000
 XYZ=    4.6817    1.1748   -0.7439 Q=   -0.0198 A=    0.0000 R=    0.0000 C=    0.0000
 XYZ=    3.9278    1.1586   -0.1544 Q=    0.0099 A=    0.0000 R=    0.0000 C=    0.0000
 XYZ=    4.7492    0.2778   -1.0712 Q=    0.0099 A=    0.0000 R=    0.0000 C=    0.0000
 XYZ=    2.6737    2.2108   -3.2746 Q=    0.0099 A=    0.0000 R=    0.0000 C=    0.0000
 XYZ=    5.4931   -1.5794    1.9471 Q=   -0.0198 A=    0.0000 R=    0.0000 C=    0.0000
 XYZ=    4.3508    1.0925   -0.1546 Q=    0.0099 A=    0.0000 R=    0.0000 C=    0.0000
 XYZ=    2.3434    1.3830   -2.9434 Q=   -0.0198 A=    0.0000 R=    0.0000 C=    0.0000
 XYZ=    2.9710    1.7394   -2.3147 Q=    0.0099 A=    0.0000 R=    0.0000 C=    0.0000
 XYZ=    1.6718    2.0605   -3.0218 Q=    0.0099 A=    0.0000 R=    0.0000 C=    0.0000
 XYZ=    5.1305   -1.7089    2.0557 Q=   -0.0198 A=    0.0000 R=    0.0000 C=    0.0000
 XYZ=    0.6878    2.9011   -3.7663 Q=   -0.0198 A=    0.0000 R=    0.0000 C=    0.0000
 XYZ=    4.9508    0.8752   -0.7343 Q=   -0.0198 A=    0.0000 R=    0.0000 C=    0.0000
 XYZ=    4.4211    0.4825   -0.0405 Q=    0.0099 A=    0.0000 R=    0.0000 C=    0.0000
 XYZ=    2.7966    1.3321   -2.9275 Q=   -0.0198 A=    0.0000 R=    0.0000 C=    0.0000
 XYZ=    2.0453    1.8381   -3.2368 Q=    0.0099 A=    0.0000 R=    0.0000 C=    0.0000
 XYZ=    4.8775   -1.5506    2.2270 Q=   -0.0198 A=    0.0000 R=    0.0000 C=    0.0000
 XYZ=    4.6257   -0.4025   -1.3002 Q=    0.0099 A=    0.0000 R=    0.0000 C=    0.0000
 XYZ=    2.4900    1.2036   -2.9431 Q=   -0.0198 A=    0.0000 R=    0.0000 C=    0.0000
 XYZ=    1.7754    1.7911   -3.1892 Q=    0.0099 A=    0.0000 R=    0.0000 C=    0.0000
 XYZ=    5.1635   -0.2404   -1.1381 Q=   -0.0198 A=    0.0000 R=    0.0000 C=    0.0000
 XYZ=    4.5798   -0.8785   -1.5485 Q=    0.0099 A=    0.0000 R=    0.0000 C=    0.0000
 XYZ=    2.5123    1.0934   -3.4591 Q=   -0.0198 A=    0.0000 R=    0.0000 C=    0.0000
 XYZ=    1.8092    1.7171   -3.6409 Q=    0.0099 A=    0.0000 R=    0.0000 C=    0.0000
 XYZ=    4.6290   -1.1624    2.3112 Q=   -0.0198 A=    0.0000 R=    0.0000 C=    0.0000
 XYZ=    5.4145   -1.7081    2.3479 Q=    0.0099 A=    0.0000 R=    0.0000 C=    0.0000
 XYZ=    5.4269   -0.7349   -0.8467 Q=   -0.0198 A=    0.0000 R=    0.0000 C=    0.0000
 XYZ=    4.4997   -0.6981   -1.0815 Q=    0.0099 A=    0.0000 R=    0.0000 C=    0.0000
 XYZ=    2.1177    1.9516   -3.8107 Q=    0.0099 A=    0.0000 R=    0.0000 C=    0.0000
 XYZ=    5.0016   -1.1174    1.5481 Q=    0.0099 A=    0.0000 R=    0.0000 C=    0.0000
 XYZ=    5.4618   -0.3426   -0.8647 Q=   -0.0198 A=    0.0000 R=    0.0000 C=    0.0000
 XYZ=    4.7801   -0.9521   -1.1475 Q=    0.0099 A=    0.0000 R=    0.0000 C=    0.0000
 XYZ=    0.5017    2.4719   -4.3624 Q=   -0.0198 A=    0.0000 R=    0.0000 C=    0.0000
 XYZ=    5.1101   -0.1391   -0.6583 Q=   -0.0198 A=    0.0000 R=    0.0000 C=    0.0000
 XYZ=    4.1880   -0.3311   -0.8292 Q=    0.0099 A=    0.0000 R=    0.0000 C=    0.0000
 XYZ=    5.5384   -0.9951   -0.6662 Q=    0.0099 A=    0.0000 R=    0.0000 C=    0.0000
 XYZ=    2.6060    0.9674    3.1487 Q=    0.0099 A=    0.0000 R=    0.0000 C=    0.0000
 XYZ=    0.6036    2.8360   -3.7963 Q=    0.0099 A=    0.0000 R=    0.0000 C=    0.0000
 XYZ=    5.0610    0.4706   -0.2741 Q=   -0.0198 A=    0.0000 R=    0.0000 C=    0.0000
 XYZ=    4.1662    0.5899    0.0442 Q=    0.0099 A=    0.0000 R=    0.0000 C=    0.0000
 XYZ=    5.0321   -0.3486   -0.7684 Q=    0.0099 A=    0.0000 R=    0.0000 C=    0.0000
 XYZ=    2.1067    1.7309   -3.7918 Q=    0.0099 A=    0.0000 R=    0.0000 C=    0.0000
 XYZ=    4.9930    0.3469   -0.3322 Q=   -0.0198 A=    0.0000 R=    0.0000 C=    0.0000
 XYZ=    4.1190    0.2251    0.0387 Q=    0.0099 A=    0.0000 R=    0.0000 C=    0.0000
 XYZ=    5.1232   -0.4169   -0.8942 Q=    0.0099 A=    0.0000 R=    0.0000 C=    0.0000
 XYZ=    2.2634    1.2249   -3.7494 Q=    0.0099 A=    0.0000 R=    0.0000 C=    0.0000
 XYZ=    2.6695    1.2543    2.2724 Q=    0.0099 A=    0.0000 R=    0.0000 C=    0.0000
 XYZ=    5.1363    0.2181   -0.5648 Q=   -0.0198 A=    0.0000 R=    0.0000 C=    0.0000
 XYZ=    4.3082    0.0545   -0.1133 Q=    0.0099 A=    0.0000 R=    0.0000 C=    0.0000
 XYZ=    5.4098   -0.6424   -0.8827 Q=    0.0099 A=    0.0000 R=    0.0000 C=    0.0000
 XYZ=    5.4721   -1.8930    2.0861 Q=   -0.0198 A=    0.0000 R=    0.0000 C=    0.0000
 XYZ=    5.9395   -1.8183    1.2542 Q=    0.0099 A=    0.0000 R=    0.0000 C=    0.0000
 XYZ=    4.3023    1.4705   -1.5979 Q=    0.0099 A=    0.0000 R=    0.0000 C=    0.0000
 XYZ=    4.4633   -1.1651    2.5165 Q=    0.0099 A=    0.0000 R=    0.0000 C=    0.0000
 XYZ=    4.6363    0.1007   -0.5136 Q=   -0.0198 A=    0.0000 R=    0.0000 C=    0.0000
 XYZ=    3.8327    0.0817    0.0060 Q=    0.0099 A=    0.0000 R=    0.0000 C=    0.0000
 XYZ=    4.9076   -0.8156   -0.5687 Q=    0.0099 A=    0.0000 R=    0.0000 C=    0.0000
 XYZ=    3.7160    1.0765    2.6985 Q=    0.0099 A=    0.0000 R=    0.0000 C=    0.0000
 XYZ=    4.2431    0.1643   -0.5417 Q=    0.0099 A=    0.0000 R=    0.0000 C=    0.0000
 XYZ=    5.4422   -0.5987   -1.0623 Q=    0.0099 A=    0.0000 R=    0.0000 C=    0.0000
 XYZ=    5.4361   -1.9237    1.5583 Q=   -0.0198 A=    0.0000 R=    0.0000 C=    0.0000
 XYZ=    3.1313    1.9541   -2.4348 Q=   -0.0198 A=    0.0000 R=    0.0000 C=    0.0000
 XYZ=    3.5597    1.1899   -2.0491 Q=    0.0099 A=    0.0000 R=    0.0000 C=    0.0000
 XYZ=    4.3494   -0.1226   -1.2934 Q=   -0.0198 A=    0.0000 R=    0.0000 C=    0.0000
 XYZ=    3.9452   -0.2304   -0.4325 Q=    0.0099 A=    0.0000 R=    0.0000 C=    0.0000
 XYZ=    4.8015   -0.9514   -1.4513 Q=    0.0099 A=    0.0000 R=    0.0000 C=    0.0000
 XYZ=    5.7476   -1.7106    1.3120 Q=   -0.0198 A=    0.0000 R=    0.0000 C=    0.0000
 XYZ=    5.7440   -2.2188    0.5009 Q=    0.0099 A=    0.0000 R=    0.0000 C=    0.0000
 XYZ=    4.6967   -0.5968   -1.4775 Q=   -0.0198 A=    0.0000 R=    0.0000 C=    0.0000
 XYZ=    3.8029   -0.3951   -1.2008 Q=    0.0099 A=    0.0000 R=    0.0000 C=    0.0000
 XYZ=    4.8809   -1.4516   -1.0881 Q=    0.0099 A=    0.0000 R=    0.0000 C=    0.0000
 XYZ=    2.2462    2.9438   -2.9705 Q=    0.0099 A=    0.0000 R=    0.0000 C=    0.0000
 XYZ=    3.1950    1.5053    2.0750 Q=    0.0099 A=    0.0000 R=    0.0000 C=    0.0000
 XYZ=    5.5171   -1.9026    1.3356 Q=   -0.0198 A=    0.0000 R=    0.0000 C=    0.0000
 XYZ=    4.4194   -0.6191   -1.6478 Q=   -0.0198 A=    0.0000 R=    0.0000 C=    0.0000
 XYZ=    4.3055    1.4312    2.5255 Q=   -0.0198 A=    0.0000 R=    0.0000 C=    0.0000
 XYZ=    3.4517    1.2641    2.1262 Q=    0.0099 A=    0.0000 R=    0.0000 C=    0.0000
 XYZ=    5.6214   -1.8251    1.3639 Q=   -0.0198 A=    0.0000 R=    0.0000 C=    0.0000
 XYZ=    4.3759    1.1915    1.9133 Q=   -0.0198 A=    0.0000 R=    0.0000 C=    0.0000
 XYZ=    3.4490    1.0771    1.7035 Q=    0.0099 A=    0.0000 R=    0.0000 C=    0.0000
 XYZ=    5.5836   -1.6454    1.0183 Q=   -0.0198 A=    0.0000 R=    0.0000 C=    0.0000
 XYZ=    5.7461   -2.2199    1.7665 Q=    0.0099 A=    0.0000 R=    0.0000 C=    0.0000
 XYZ=    4.3826   -0.6080   -1.9639 Q=   -0.0198 A=    0.0000 R=    0.0000 C=    0.0000
 XYZ=    2.0145    2.7906   -3.7613 Q=    0.0099 A=    0.0000 R=    0.0000 C=    0.0000
 XYZ=    4.4115    0.9302    1.8180 Q=   -0.0198 A=    0.0000 R=    0.0000 C=    0.0000
 XYZ=    3.7201    0.7122    1.1930 Q=    0.0099 A=    0.0000 R=    0.0000 C=    0.0000
 XYZ=    4.4640   -0.7772   -1.7946 Q=   -0.0198 A=    0.0000 R=    0.0000 C=    0.0000
 XYZ=    4.1053   -0.0730   -1.2545 Q=    0.0099 A=    0.0000 R=    0.0000 C=    0.0000
 XYZ=    4.4300    0.8704    2.0548 Q=   -0.0198 A=    0.0000 R=    0.0000 C=    0.0000
 XYZ=    3.5442    0.8462    1.6929 Q=    0.0099 A=    0.0000 R=    0.0000 C=    0.0000
 XYZ=    5.1001    1.4647    0.7452 Q=    0.0099 A=    0.0000 R=    0.0000 C=    0.0000
 XYZ=    4.4104   -0.6966   -1.7216 Q=   -0.0198 A=    0.0000 R=    0.0000 C=    0.0000
 XYZ=    2.0148    3.0659   -3.4178 Q=    0.0099 A=    0.0000 R=    0.0000 C=    0.0000
 XYZ=    4.0665    0.7869    2.3680 Q=   -0.0198 A=    0.0000 R=    0.0000 C=    0.0000
 XYZ=    3.6031    0.7043    1.5345 Q=    0.0099 A=    0.0000 R=    0.0000 C=    0.0000
 XYZ=    3.9993   -0.0809    2.7664 Q=    0.0099 A=    0.0000 R=    0.0000 C=    0.0000
 XYZ=    4.7079   -0.3420   -1.6584 Q=   -0.0198 A=    0.0000 R=    0.0000 C=    0.0000
 XYZ=    3.3195    2.5146   -0.5769 Q=    0.0099 A=    0.0000 R=    0.0000 C=    0.0000
 XYZ=    4.0847    1.0567    2.1707 Q=   -0.0198 A=    0.0000 R=    0.0000 C=    0.0000
 XYZ=    3.3684    0.8632    1.5660 Q=    0.0099 A=    0.0000 R=    0.0000 C=    0.0000
 XYZ=    5.0208    1.0299    1.0754 Q=    0.0099 A=    0.0000 R=    0.0000 C=    0.0000
 XYZ=    3.9215    0.6647    2.4327 Q=   -0.0198 A=    0.0000 R=    0.0000 C=    0.0000
 XYZ=    3.2515    0.6253    1.7502 Q=    0.0099 A=    0.0000 R=    0.0000 C=    0.0000
 XYZ=    5.1499    0.5470   -0.0419 Q=    0.0099 A=    0.0000 R=    0.0000 C=    0.0000
 XYZ=    4.9606    0.9610    1.4016 Q=    0.0099 A=    0.0000 R=    0.0000 C=    0.0000
 XYZ=    4.7193   -0.1815   -1.5583 Q=   -0.0198 A=    0.0000 R=    0.0000 C=    0.0000
 XYZ=    3.2060    2.3353   -0.6158 Q=    0.0099 A=    0.0000 R=    0.0000 C=    0.0000
 XYZ=    3.6763    0.7257    2.7121 Q=   -0.0198 A=    0.0000 R=    0.0000 C=    0.0000
 XYZ=    3.0352    0.6415    2.0063 Q=    0.0099 A=    0.0000 R=    0.0000 C=    0.0000
 XYZ=    4.9864   -0.0602   -0.8095 Q=   -0.0198 A=    0.0000 R=    0.0000 C=    0.0000
 XYZ=    4.2962   -0.4110   -1.3723 Q=    0.0099 A=    0.0000 R=    0.0000 C=    0.0000
 XYZ=    3.9919    0.6376    2.8115 Q=   -0.0198 A=    0.0000 R=    0.0000 C=    0.0000
 XYZ=    3.2822    0.8011    2.1903 Q=    0.0099 A=    0.0000 R=    0.0000 C=    0.0000
 XYZ=    4.8371    0.3691   -0.9016 Q=   -0.0198 A=    0.0000 R=    0.0000 C=    0.0000
 XYZ=    3.9537    0.0948   -1.1478 Q=    0.0099 A=    0.0000 R=    0.0000 C=    0.0000
 XYZ=    1.3633    2.4334   -3.5476 Q=    0.0099 A=    0.0000 R=    0.0000 C=    0.0000
 XYZ=    3.6913    0.4562    2.7910 Q=   -0.0198 A=    0.0000 R=    0.0000 C=    0.0000
 XYZ=    3.2216    0.5591    1.9633 Q=    0.0099 A=    0.0000 R=    0.0000 C=    0.0000
 XYZ=    3.6898   -0.4875    2.9514 Q=    0.0099 A=    0.0000 R=    0.0000 C=    0.0000
 XYZ=    4.4744    0.6855   -1.1115 Q=   -0.0198 A=    0.0000 R=    0.0000 C=    0.0000
 XYZ=    3.7353    0.1551   -0.8137 Q=    0.0099 A=    0.0000 R=    0.0000 C=    0.0000
 XYZ=    1.4152    2.7770   -3.8477 Q=    0.0099 A=    0.0000 R=    0.0000 C=    0.0000
 XYZ=    3.7527    2.6730   -1.3787 Q=    0.0099 A=    0.0000 R=    0.0000 C=    0.0000
 XYZ=    3.5387    0.7437    2.0583 Q=    0.0099 A=    0.0000 R=    0.0000 C=    0.0000
 XYZ=    3.8018   -0.2746   -1.7092 Q=    0.0099 A=    0.0000 R=    0.0000 C=    0.0000
 XYZ=    3.0578    2.2777   -0.6188 Q=    0.0099 A=    0.0000 R=    0.0000 C=    0.0000
 XYZ=    2.9324    2.9685   -1.9597 Q=    0.0099 A=    0.0000 R=    0.0000 C=    0.0000
 XYZ=    4.7485    0.6841    1.9944 Q=   -0.0198 A=    0.0000 R=    0.0000 C=    0.0000
 XYZ=    3.8974    0.8075    1.5741 Q=    0.0099 A=    0.0000 R=    0.0000 C=    0.0000
 XYZ=    1.1301    2.4783   -4.3583 Q=    0.0099 A=    0.0000 R=    0.0000 C=    0.0000
 XYZ=    3.3804    1.9230   -1.1959 Q=    0.0099 A=    0.0000 R=    0.0000 C=    0.0000
 XYZ=    4.4497    0.5153    1.9098 Q=   -0.0198 A=    0.0000 R=    0.0000 C=    0.0000
 XYZ=    3.6821    0.5497    1.3390 Q=    0.0099 A=    0.0000 R=    0.0000 C=    0.0000
 XYZ=    4.1967   -0.0795    2.6159 Q=    0.0099 A=    0.0000 R=    0.0000 C=    0.0000
 XYZ=    4.7546    2.3563    0.3951 Q=    0.0099 A=    0.0000 R=    0.0000 C=    0.0000
 XYZ=    4.9269    1.2403    1.4030 Q=    0.0099 A=    0.0000 R=    0.0000 C=    0.0000
 XYZ=    0.4152    2.7575   -4.2775 Q=   -0.0198 A=    0.0000 R=    0.0000 C=    0.0000
 XYZ=    1.1946    2.2018   -4.2759 Q=    0.0099 A=    0.0000 R=    0.0000 C=    0.0000
 XYZ=    4.0436   -0.0901    1.9900 Q=   -0.0198 A=    0.0000 R=    0.0000 C=    0.0000
 XYZ=    3.3785    0.0660    1.3195 Q=    0.0099 A=    0.0000 R=    0.0000 C=    0.0000
 XYZ=    3.5447   -0.2216    2.7962 Q=    0.0099 A=    0.0000 R=    0.0000 C=    0.0000
 XYZ=    4.4509    2.3272    0.2435 Q=    0.0099 A=    0.0000 R=    0.0000 C=    0.0000
 XYZ=    0.2400    2.7473   -4.2554 Q=   -0.0198 A=    0.0000 R=    0.0000 C=    0.0000
 XYZ=    3.8102    1.8659   -1.5288 Q=    0.0099 A=    0.0000 R=    0.0000 C=    0.0000
 XYZ=    4.2307    0.0903    2.4075 Q=   -0.0198 A=    0.0000 R=    0.0000 C=    0.0000
 XYZ=    3.7615   -0.3290    1.6862 Q=    0.0099 A=    0.0000 R=    0.0000 C=    0.0000
 XYZ=    4.5166    0.1644    1.9103 Q=   -0.0198 A=    0.0000 R=    0.0000 C=    0.0000
 XYZ=    3.6020    0.3353    1.6853 Q=    0.0099 A=    0.0000 R=    0.0000 C=    0.0000
 XYZ=    4.6133   -0.7832    1.8161 Q=    0.0099 A=    0.0000 R=    0.0000 C=    0.0000
 XYZ=    4.2340    0.4660    1.6387 Q=    0.0099 A=    0.0000 R=    0.0000 C=    0.0000
 XYZ=    5.3281   -0.5723    1.7645 Q=    0.0099 A=    0.0000 R=    0.0000 C=    0.0000
 XYZ=    4.1186    1.2743   -1.8122 Q=   -0.0198 A=    0.0000 R=    0.0000 C=    0.0000
 XYZ=    3.7553    0.9552   -0.9861 Q=    0.0099 A=    0.0000 R=    0.0000 C=    0.0000
 XYZ=    4.0765    0.1126    1.6274 Q=    0.0099 A=    0.0000 R=    0.0000 C=    0.0000
 XYZ=    5.5127   -0.3275    1.4411 Q=    0.0099 A=    0.0000 R=    0.0000 C=    0.0000
 XYZ=    4.3421    1.4830   -1.4669 Q=   -0.0198 A=    0.0000 R=    0.0000 C=    0.0000
 XYZ=    4.1826    1.2261   -0.5587 Q=    0.0099 A=    0.0000 R=    0.0000 C=    0.0000
 XYZ=    4.4212    0.1884    1.9313 Q=    0.0099 A=    0.0000 R=    0.0000 C=    0.0000
 XYZ=    5.5297   -0.3127    1.0306 Q=    0.0099 A=    0.0000 R=    0.0000 C=    0.0000
 XYZ=    5.8987   -1.9857    0.5760 Q=   -0.0198 A=    0.0000 R=    0.0000 C=    0.0000
 XYZ=    2.6105    1.4132   -3.2672 Q=   -0.0198 A=    0.0000 R=    0.0000 C=    0.0000
 XYZ=    4.5212    1.5213   -1.2750 Q=   -0.0198 A=    0.0000 R=    0.0000 C=    0.0000
 XYZ=    4.0104    1.2287   -0.5202 Q=    0.0099 A=    0.0000 R=    0.0000 C=    0.0000
 XYZ=    4.7157    0.1491    1.4294 Q=   -0.0198 A=    0.0000 R=    0.0000 C=    0.0000
 XYZ=    3.9436   -0.0166    1.9703 Q=    0.0099 A=    0.0000 R=    0.0000 C=    0.0000
 XYZ=    5.1051   -0.7152    1.2966 Q=    0.0099 A=    0.0000 R=    0.0000 C=    0.0000
 XYZ=    3.7784    0.8799   -1.7792 Q=    0.0099 A=    0.0000 R=    0.0000 C=    0.0000
 XYZ=    5.0674    1.3242    0.6444 Q=    0.0099 A=    0.0000 R=    0.0000 C=    0.0000
 XYZ=    0.1645    2.8965   -4.2304 Q=   -0.0198 A=    0.0000 R=    0.0000 C=    0.0000
 XYZ=    0.9372    2.9226   -3.6661 Q=    0.0099 A=    0.0000 R=    0.0000 C=    0.0000
 XYZ=    4.2446    0.3929    2.5848 Q=    0.0099 A=    0.0000 R=    0.0000 C=    0.0000
 XYZ=    5.1406   -0.7422    2.1380 Q=    0.0099 A=    0.0000 R=    0.0000 C=    0.0000
 XYZ=    3.1959    1.3149   -2.1910 Q=   -0.0198 A=    0.0000 R=    0.0000 C=    0.0000
 XYZ=    3.0451    0.8833   -1.3500 Q=    0.0099 A=    0.0000 R=    0.0000 C=    0.0000
 XYZ=    5.2313   -0.9287    1.9109 Q=    0.0099 A=    0.0000 R=    0.0000 C=    0.0000
 XYZ=    6.0537   -2.2296    0.1899 Q=    0.0099 A=    0.0000 R=    0.0000 C=    0.0000
 XYZ=    3.3346    1.3681   -1.5234 Q=    0.0099 A=    0.0000 R=    0.0000 C=    0.0000
 XYZ=    2.2917    3.0470   -3.2834 Q=    0.0099 A=    0.0000 R=    0.0000 C=    0.0000
 XYZ=    4.7151   -0.6651    2.3253 Q=   -0.0198 A=    0.0000 R=    0.0000 C=    0.0000
 XYZ=    5.2208   -1.4430    2.0902 Q=    0.0099 A=    0.0000 R=    0.0000 C=    0.0000
 XYZ=    3.7138    1.9011   -1.6602 Q=   -0.0198 A=    0.0000 R=    0.0000 C=    0.0000
 XYZ=    3.3912    1.5880   -0.8152 Q=    0.0099 A=    0.0000 R=    0.0000 C=    0.0000
 XYZ=    4.6417   -1.1957   -2.1572 Q=    0.0099 A=    0.0000 R=    0.0000 C=    0.0000
 XYZ=    4.6522    1.1735    1.0096 Q=    0.0099 A=    0.0000 R=    0.0000 C=    0.0000
 XYZ=    5.0837   -1.3426    2.1901 Q=    0.0099 A=    0.0000 R=    0.0000 C=    0.0000
 XYZ=    4.2104    2.2394   -1.1794 Q=   -0.0198 A=    0.0000 R=    0.0000 C=    0.0000
 XYZ=    3.5394    1.7417   -0.7121 Q=    0.0099 A=    0.0000 R=    0.0000 C=    0.0000
 XYZ=    4.5461   -0.9375    2.4136 Q=   -0.0198 A=    0.0000 R=    0.0000 C=    0.0000
 XYZ=    4.7297    1.5857   -0.6513 Q=   -0.0198 A=    0.0000 R=    0.0000 C=    0.0000
 XYZ=    3.8093    1.6180   -0.3905 Q=    0.0099 A=    0.0000 R=    0.0000 C=    0.0000
 XYZ=    5.0907   -1.4762    2.5109 Q=   -0.0198 A=    0.0000 R=    0.0000 C=    0.0000
 XYZ=    4.7942    1.1353   -0.5622 Q=   -0.0198 A=    0.0000 R=    0.0000 C=    0.0000
 XYZ=    3.9610    0.7796   -0.2532 Q=    0.0099 A=    0.0000 R=    0.0000 C=    0.0000
 XYZ=    3.6803    0.8592   -1.1516 Q=    0.0099 A=    0.0000 R=    0.0000 C=    0.0000
 XYZ=    0.6828    2.5065   -4.3683 Q=   -0.0198 A=    0.0000 R=    0.0000 C=    0.0000
 XYZ=    5.2870   -1.7241    1.5982 Q=   -0.0198 A=    0.0000 R=    0.0000 C=    0.0000
 XYZ=    2.7672    2.1891   -1.5686 Q=    0.0099 A=    0.0000 R=    0.0000 C=    0.0000
 XYZ=    4.6682    1.9146    1.7635 Q=    0.0099 A=    0.0000 R=    0.0000 C=    0.0000
 XYZ=    1.0629    2.4647   -4.0477 Q=   -0.0198 A=    0.0000 R=    0.0000 C=    0.0000
 XYZ=    1.8930    2.4476   -3.5713 Q=    0.0099 A=    0.0000 R=    0.0000 C=    0.0000
 XYZ=    5.1894   -1.0292    1.5770 Q=   -0.0198 A=    0.0000 R=    0.0000 C=    0.0000
 XYZ=    5.6379   -1.8705    1.4923 Q=    0.0099 A=    0.0000 R=    0.0000 C=    0.0000
 XYZ=    3.6104    2.3668   -1.6555 Q=    0.0099 A=    0.0000 R=    0.0000 C=    0.0000
 XYZ=    4.8665    1.8996    1.2965 Q=   -0.0198 A=    0.0000 R=    0.0000 C=    0.0000
 XYZ=    4.8482    0.9551    1.1421 Q=    0.0099 A=    0.0000 R=    0.0000 C=    0.0000
 XYZ=    1.7998    2.8147   -3.2449 Q=    0.0099 A=    0.0000 R=    0.0000 C=    0.0000
 XYZ=    5.3450   -0.8413    1.1687 Q=   -0.0198 A=    0.0000 R=    0.0000 C=    0.0000
 XYZ=    4.7648   -0.9999    1.9133 Q=    0.0099 A=    0.0000 R=    0.0000 C=    0.0000
 XYZ=    5.9203   -1.6061    1.1462 Q=    0.0099 A=    0.0000 R=    0.0000 C=    0.0000
 XYZ=    3.4900    2.5791   -1.2223 Q=    0.0099 A=    0.0000 R=    0.0000 C=    0.0000
 XYZ=    4.7126    1.9194    0.5717 Q=   -0.0198 A=    0.0000 R=    0.0000 C=    0.0000
 XYZ=    5.1328    1.0599    0.5412 Q=    0.0099 A=    0.0000 R=    0.0000 C=    0.0000
 XYZ=    3.7761    1.7304    0.5128 Q=    0.0099 A=    0.0000 R=    0.0000 C=    0.0000
 XYZ=    5.2817   -0.6866    1.2953 Q=   -0.0198 A=    0.0000 R=    0.0000 C=    0.0000
 XYZ=    4.6311   -0.8519    1.9775 Q=    0.0099 A=    0.0000 R=    0.0000 C=    0.0000
 XYZ=    3.2464    2.0174   -1.2133 Q=    0.0099 A=    0.0000 R=    0.0000 C=    0.0000
 XYZ=    2.0747    3.0726   -3.2362 Q=    0.0099 A=    0.0000 R=    0.0000 C=    0.0000
 XYZ=    5.8908   -0.8112    0.8441 Q=   -0.0198 A=    0.0000 R=    0.0000 C=    0.0000
 XYZ=    5.2547   -1.2232    1.4288 Q=    0.0099 A=    0.0000 R=    0.0000 C=    0.0000
 XYZ=    2.9356    2.2403   -1.2651 Q=    0.0099 A=    0.0000 R=    0.0000 C=    0.0000
 XYZ=    1.5238    2.7910   -3.9897 Q=   -0.0198 A=    0.0000 R=    0.0000 C=    0.0000
 XYZ=    2.0356    2.6286   -3.1973 Q=    0.0099 A=    0.0000 R=    0.0000 C=    0.0000
 XYZ=    5.7780   -1.1322    0.7006 Q=   -0.0198 A=    0.0000 R=    0.0000 C=    0.0000
 XYZ=    5.3515   -1.4024    1.5138 Q=    0.0099 A=    0.0000 R=    0.0000 C=    0.0000
 XYZ=    4.7281    1.5412    0.4385 Q=   -0.0198 A=    0.0000 R=    0.0000 C=    0.0000
 XYZ=    3.8687    1.3120    0.0849 Q=    0.0099 A=    0.0000 R=    0.0000 C=    0.0000
 XYZ=    1.1941    2.4520   -3.8510 Q=   -0.0198 A=    0.0000 R=    0.0000 C=    0.0000
 XYZ=    1.9134    2.5139   -3.2225 Q=    0.0099 A=    0.0000 R=    0.0000 C=    0.0000
 XYZ=    5.5781   -1.5703    1.3285 Q=    0.0099 A=    0.0000 R=    0.0000 C=    0.0000
 XYZ=    5.1427    1.3853    0.6364 Q=   -0.0198 A=    0.0000 R=    0.0000 C=    0.0000
 XYZ=    4.4195    1.2775    0.0187 Q=    0.0099 A=    0.0000 R=    0.0000 C=    0.0000
 XYZ=    5.8826   -1.0239    1.0810 Q=   -0.0198 A=    0.0000 R=    0.0000 C=    0.0000
 XYZ=    5.3045   -1.3795    1.7560 Q=    0.0099 A=    0.0000 R=    0.0000 C=    0.0000
 XYZ=    4.4523    1.6406   -1.3070 Q=    0.0099 A=    0.0000 R=    0.0000 C=    0.0000
 XYZ=    4.7568    1.8180    0.4148 Q=   -0.0198 A=    0.0000 R=    0.0000 C=    0.0000
 XYZ=    5.1979    0.9734    0.5063 Q=    0.0099 A=    0.0000 R=    0.0000 C=    0.0000
 XYZ=    3.8328    1.6240    0.5723 Q=    0.0099 A=    0.0000 R=    0.0000 C=    0.0000
 XYZ=    5.5394   -1.4745    1.3780 Q=    0.0099 A=    0.0000 R=    0.0000 C=    0.0000
 XYZ=   -3.6933   -3.2109   -3.1781 Q=    0.0099 A=    0.0000 R=    0.0000 C=    0.0000
 XYZ=    4.4949   -3.4588   -2.2564 Q=   -0.0198 A=    0.0000 R=    0.0000 C=    0.0000
 XYZ=    4.6570   -2.5293   -2.4178 Q=    0.0099 A=    0.0000 R=    0.0000 C=    0.0000
 XYZ=    0.9165   -5.1079    0.3477 Q=   -0.0198 A=    0.0000 R=    0.0000 C=    0.0000
 XYZ=    0.9690   -5.1271    1.3032 Q=    0.0099 A=    0.0000 R=    0.0000 C=    0.0000
 XYZ=    1.8270   -5.0455    0.0589 Q=    0.0099 A=    0.0000 R=    0.0000 C=    0.0000
 XYZ=   -1.7138   -4.3636    1.4501 Q=   -0.0198 A=    0.0000 R=    0.0000 C=    0.0000
 XYZ=   -2.4939   -4.2994    0.8990 Q=    0.0099 A=    0.0000 R=    0.0000 C=    0.0000
 XYZ=    0.8307   -4.8253   -2.1291 Q=    0.0099 A=    0.0000 R=    0.0000 C=    0.0000
 XYZ=   -3.9123    0.2913   -3.3935 Q=    0.0099 A=    0.0000 R=    0.0000 C=    0.0000
 XYZ=   -0.0180   -2.3675    2.8625 Q=   -0.0198 A=    0.0000 R=    0.0000 C=    0.0000
 XYZ=   -0.3039   -1.5708    2.4156 Q=    0.0099 A=    0.0000 R=    0.0000 C=    0.0000
 XYZ=   -0.5402   -3.0650    2.4662 Q=    0.0099 A=    0.0000 R=    0.0000 C=    0.0000
 XYZ=   -0.4623   -2.6850   -2.5295 Q=   -0.0198 A=    0.0000 R=    0.0000 C=    0.0000
 XYZ=   -0.4464   -1.9759   -3.1722 Q=    0.0099 A=    0.0000 R=    0.0000 C=    0.0000
 XYZ=    3.6442   -4.8989   -0.0400 Q=   -0.0198 A=    0.0000 R=    0.0000 C=    0.0000
 XYZ=    3.9414   -4.5446    0.7980 Q=    0.0099 A=    0.0000 R=    0.0000 C=    0.0000
 XYZ=    4.1190   -4.3901   -0.6972 Q=    0.0099 A=    0.0000 R=    0.0000 C=    0.0000
 XYZ=    2.6106   -2.6195    3.4010 Q=   -0.0198 A=    0.0000 R=    0.0000 C=    0.0000
 XYZ=    3.0121   -3.3533    2.9357 Q=    0.0099 A=    0.0000 R=    0.0000 C=    0.0000
 XYZ=    1.7010   -2.6157    3.1031 Q=    0.0099 A=    0.0000 R=    0.0000 C=    0.0000
 XYZ=   -4.0826   -4.1872   -0.8223 Q=    0.0099 A=    0.0000 R=    0.0000 C=    0.0000
 XYZ=    4.4804   -3.2640   -2.2148 Q=   -0.0198 A=    0.0000 R=    0.0000 C=    0.0000
 XYZ=    4.7738   -2.3548   -2.2740 Q=    0.0099 A=    0.0000 R=    0.0000 C=    0.0000
 XYZ=    2.5728    0.3539    2.4889 Q=    0.0099 A=    0.0000 R=    0.0000 C=    0.0000
 XYZ=    0.8057   -4.8057    0.3709 Q=   -0.0198 A=    0.0000 R=    0.0000 C=    0.0000
 XYZ=    0.5297   -4.9181    1.2805 Q=    0.0099 A=    0.0000 R=    0.0000 C=    0.0000
 XYZ=    1.7531   -4.9409    0.3896 Q=    0.0099 A=    0.0000 R=    0.0000 C=    0.0000
 XYZ=   -2.0000   -4.4559    1.7126 Q=   -0.0198 A=    0.0000 R=    0.0000 C=    0.0000
 XYZ=   -2.3293   -4.2581    0.8359 Q=    0.0099 A=    0.0000 R=    0.0000 C=    0.0000
 XYZ=   -0.9846   -1.9915    2.8845 Q=    0.0099 A=    0.0000 R=    0.0000 C=    0.0000
 XYZ=   -0.1408   -2.5561   -3.0083 Q=   -0.0198 A=    0.0000 R=    0.0000 C=    0.0000
 XYZ=   -0.6352   -1.7578   -3.1940 Q=    0.0099 A=    0.0000 R=    0.0000 C=    0.0000
 XYZ=    3.6603   -4.7010   -0.0634 Q=   -0.0198 A=    0.0000 R=    0.0000 C=    0.0000
 XYZ=    3.8928   -4.1095   -0.7791 Q=    0.0099 A=    0.0000 R=    0.0000 C=    0.0000
 XYZ=   -1.5406   -0.2923   -3.8835 Q=   -0.0198 A=    0.0000 R=    0.0000 C=    0.0000
 XYZ=   -2.4728   -0.1813   -3.6963 Q=    0.0099 A=    0.0000 R=    0.0000 C=    0.0000
 XYZ=    5.6412   -2.2039    1.4151 Q=    0.0099 A=    0.0000 R=    0.0000 C=    0.0000
 XYZ=    2.4747   -2.7092    3.2543 Q=   -0.0198 A=    0.0000 R=    0.0000 C=    0.0000
 XYZ=    3.1132   -3.1191    2.6707 Q=    0.0099 A=    0.0000 R=    0.0000 C=    0.0000
 XYZ=    1.6391   -3.1097    3.0143 Q=    0.0099 A=    0.0000 R=    0.0000 C=    0.0000
 XYZ=   -3.9480   -4.5725   -0.1269 Q=   -0.0198 A=    0.0000 R=    0.0000 C=    0.0000
 XYZ=   -3.9075   -4.3486   -1.0566 Q=    0.0099 A=    0.0000 R=    0.0000 C=    0.0000
 XYZ=    4.4805   -3.5858   -2.6077 Q=   -0.0198 A=    0.0000 R=    0.0000 C=    0.0000
 XYZ=    1.9726   -0.3490    3.1468 Q=   -0.0198 A=    0.0000 R=    0.0000 C=    0.0000
 XYZ=    2.4421   -0.4184    2.3156 Q=    0.0099 A=    0.0000 R=    0.0000 C=    0.0000
 XYZ=    1.8624   -1.2548    3.4360 Q=    0.0099 A=    0.0000 R=    0.0000 C=    0.0000
 XYZ=    0.2090    2.3192   -4.3565 Q=    0.0099 A=    0.0000 R=    0.0000 C=    0.0000
 XYZ=   -6.1178   -1.9883    0.2506 Q=   -0.0198 A=    0.0000 R=    0.0000 C=    0.0000
 XYZ=   -5.8843   -1.2213   -0.2723 Q=    0.0099 A=    0.0000 R=    0.0000 C=    0.0000
 XYZ=   -6.1823   -1.6569    1.1463 Q=    0.0099 A=    0.0000 R=    0.0000 C=    0.0000
 XYZ=    2.1786   -5.2867    0.5423 Q=    0.0099 A=    0.0000 R=    0.0000 C=    0.0000
 XYZ=   -2.4369   -4.7409    1.4045 Q=    0.0099 A=    0.0000 R=    0.0000 C=    0.0000
 XYZ=   -4.9440   -0.2906   -2.8824 Q=    0.0099 A=    0.0000 R=    0.0000 C=    0.0000
 XYZ=   -1.5508   -2.1996    3.2339 Q=    0.0099 A=    0.0000 R=    0.0000 C=    0.0000
 XYZ=   -0.0499   -2.6812   -2.9955 Q=   -0.0198 A=    0.0000 R=    0.0000 C=    0.0000
 XYZ=   -0.2832   -1.7649   -3.1449 Q=    0.0099 A=    0.0000 R=    0.0000 C=    0.0000
 XYZ=    3.9934   -4.9231    0.3606 Q=   -0.0198 A=    0.0000 R=    0.0000 C=    0.0000
 XYZ=    4.5092   -4.5923   -0.3747 Q=    0.0099 A=    0.0000 R=    0.0000 C=    0.0000
 XYZ=   -1.6652   -0.4133   -3.9053 Q=   -0.0198 A=    0.0000 R=    0.0000 C=    0.0000
 XYZ=   -2.5783   -0.1351   -3.9761 Q=    0.0099 A=    0.0000 R=    0.0000 C=    0.0000
 XYZ=    5.2623   -2.0701    1.5211 Q=    0.0099 A=    0.0000 R=    0.0000 C=    0.0000
 XYZ=    1.7207   -3.0128    3.6105 Q=   -0.0198 A=    0.0000 R=    0.0000 C=    0.0000
 XYZ=    0.7771   -2.9423    3.4661 Q=    0.0099 A=    0.0000 R=    0.0000 C=    0.0000
 XYZ=   -4.0173   -4.2136   -0.1277 Q=   -0.0198 A=    0.0000 R=    0.0000 C=    0.0000
 XYZ=   -3.8735   -4.2363   -1.0738 Q=    0.0099 A=    0.0000 R=    0.0000 C=    0.0000
 XYZ=   -4.5427   -3.4264    0.0159 Q=    0.0099 A=    0.0000 R=    0.0000 C=    0.0000
 XYZ=    2.4111   -0.7612    2.9043 Q=    0.0099 A=    0.0000 R=    0.0000 C=    0.0000
 XYZ=    1.6756   -1.8809    3.6088 Q=    0.0099 A=    0.0000 R=    0.0000 C=    0.0000
 XYZ=   -5.7595   -1.7694    1.1133 Q=   -0.0198 A=    0.0000 R=    0.0000 C=    0.0000
 XYZ=   -5.2022   -1.0598    0.7938 Q=    0.0099 A=    0.0000 R=    0.0000 C=    0.0000
 XYZ=    1.3746   -5.2573    0.8386 Q=   -0.0198 A=    0.0000 R=    0.0000 C=    0.0000
 XYZ=    1.0359   -4.6876    1.5291 Q=    0.0099 A=    0.0000 R=    0.0000 C=    0.0000
 XYZ=    2.2808   -4.9738    0.7172 Q=    0.0099 A=    0.0000 R=    0.0000 C=    0.0000
 XYZ=   -0.9238   -2.5963    2.5775 Q=   -0.0198 A=    0.0000 R=    0.0000 C=    0.0000
 XYZ=   -0.6481   -1.7467    2.2334 Q=    0.0099 A=    0.0000 R=    0.0000 C=    0.0000
 XYZ=   -1.7799   -2.7501    2.1778 Q=    0.0099 A=    0.0000 R=    0.0000 C=    0.0000
 XYZ=    0.3582   -2.8216   -2.8496 Q=   -0.0198 A=    0.0000 R=    0.0000 C=    0.0000
 XYZ=   -0.2029   -2.0723   -3.0492 Q=    0.0099 A=    0.0000 R=    0.0000 C=    0.0000
 XYZ=    4.2006   -4.4654    0.7740 Q=   -0.0198 A=    0.0000 R=    0.0000 C=    0.0000
 XYZ=    4.5917   -3.6322    0.5111 Q=    0.0099 A=    0.0000 R=    0.0000 C=    0.0000
 XYZ=   -1.0469   -0.6651   -3.9079 Q=   -0.0198 A=    0.0000 R=    0.0000 C=    0.0000
 XYZ=   -1.9947   -0.6248   -4.0351 Q=    0.0099 A=    0.0000 R=    0.0000 C=    0.0000
 XYZ=    4.2695   -1.7651    2.7354 Q=   -0.0198 A=    0.0000 R=    0.0000 C=    0.0000
 XYZ=    4.9024   -2.2070    2.1694 Q=    0.0099 A=    0.0000 R=    0.0000 C=    0.0000
 XYZ=   -4.7870   -4.0901    0.1135 Q=   -0.0198 A=    0.0000 R=    0.0000 C=    0.0000
 XYZ=   -5.1825   -3.3320    0.5437 Q=    0.0099 A=    0.0000 R=    0.0000 C=    0.0000
 XYZ=   -3.9895   -1.3806   -3.2417 Q=    0.0099 A=    0.0000 R=    0.0000 C=    0.0000
 XYZ=    2.2581   -5.1352    0.6721 Q=    0.0099 A=    0.0000 R=    0.0000 C=    0.0000
 XYZ=   -3.3070   -4.6244    1.8138 Q=   -0.0198 A=    0.0000 R=    0.0000 C=    0.0000
 XYZ=   -4.1057   -4.3784    1.3472 Q=    0.0099 A=    0.0000 R=    0.0000 C=    0.0000
 XYZ=    2.0610   -2.5992   -3.7311 Q=    0.0099 A=    0.0000 R=    0.0000 C=    0.0000
 XYZ=   -1.1755   -4.3522   -0.7138 Q=   -0.0198 A=    0.0000 R=    0.0000 C=    0.0000
 XYZ=   -0.7808   -3.5375   -1.0250 Q=    0.0099 A=    0.0000 R=    0.0000 C=    0.0000
 XYZ=   -0.9037   -2.3025    3.3330 Q=    0.0099 A=    0.0000 R=    0.0000 C=    0.0000
 XYZ=   -1.7931   -3.4069    2.8037 Q=    0.0099 A=    0.0000 R=    0.0000 C=    0.0000
 XYZ=   -0.3182   -2.7247   -2.5436 Q=   -0.0198 A=    0.0000 R=    0.0000 C=    0.0000
 XYZ=   -0.4559   -1.8160   -2.8110 Q=    0.0099 A=    0.0000 R=    0.0000 C=    0.0000
 XYZ=    4.2204   -3.8536    1.6432 Q=    0.0099 A=    0.0000 R=    0.0000 C=    0.0000
 XYZ=   -1.0651   -0.5775   -3.8744 Q=   -0.0198 A=    0.0000 R=    0.0000 C=    0.0000
 XYZ=   -1.9935   -0.6843   -4.0815 Q=    0.0099 A=    0.0000 R=    0.0000 C=    0.0000
 XYZ=   -5.4806   -0.1476   -2.0397 Q=   -0.0198 A=    0.0000 R=    0.0000 C=    0.0000
 XYZ=    1.7174   -2.2788    3.7474 Q=    0.0099 A=    0.0000 R=    0.0000 C=    0.0000
 XYZ=   -4.0929    0.9173   -2.3928 Q=    0.0099 A=    0.0000 R=    0.0000 C=    0.0000
 XYZ=    2.2572   -5.1986    1.1842 Q=    0.0099 A=    0.0000 R=    0.0000 C=    0.0000
 XYZ=   -3.0880   -4.5359    1.4707 Q=   -0.0198 A=    0.0000 R=    0.0000 C=    0.0000
 XYZ=   -3.8723   -4.2231    1.0199 Q=    0.0099 A=    0.0000 R=    0.0000 C=    0.0000
 XYZ=   -2.5339   -4.8854    0.7728 Q=    0.0099 A=    0.0000 R=    0.0000 C=    0.0000
 XYZ=   -0.3255   -4.2303   -0.7848 Q=    0.0099 A=    0.0000 R=    0.0000 C=    0.0000
 XYZ=   -1.3831   -2.9018    2.8171 Q=   -0.0198 A=    0.0000 R=    0.0000 C=    0.0000
 XYZ=   -1.4341   -2.0588    2.3665 Q=    0.0099 A=    0.0000 R=    0.0000 C=    0.0000
 XYZ=   -1.9804   -3.4700    2.3306 Q=    0.0099 A=    0.0000 R=    0.0000 C=    0.0000
 XYZ=    0.1275   -3.1349   -2.4086 Q=   -0.0198 A=    0.0000 R=    0.0000 C=    0.0000
 XYZ=    0.2731   -2.2778   -2.8092 Q=    0.0099 A=    0.0000 R=    0.0000 C=    0.0000
 XYZ=    4.0968   -3.6669    1.2674 Q=    0.0099 A=    0.0000 R=    0.0000 C=    0.0000
 XYZ=   -0.8829   -0.1436   -3.6681 Q=   -0.0198 A=    0.0000 R=    0.0000 C=    0.0000
 XYZ=   -0.4985    0.5939   -4.1419 Q=    0.0099 A=    0.0000 R=    0.0000 C=    0.0000
 XYZ=   -1.7251   -0.2919   -4.0983 Q=    0.0099 A=    0.0000 R=    0.0000 C=    0.0000
 XYZ=   -5.5930    0.0312   -2.1717 Q=   -0.0198 A=    0.0000 R=    0.0000 C=    0.0000
 XYZ=    4.9248   -1.9162    2.0699 Q=   -0.0198 A=    0.0000 R=    0.0000 C=    0.0000
 XYZ=   -3.5333   -1.7149   -3.6740 Q=   -0.0198 A=    0.0000 R=    0.0000 C=    0.0000
 XYZ=   -3.8441   -0.8241   -3.5124 Q=    0.0099 A=    0.0000 R=    0.0000 C=    0.0000
 XYZ=   -1.9078   -4.5194   -1.9270 Q=    0.0099 A=    0.0000 R=    0.0000 C=    0.0000
 XYZ=    2.3091   -1.3720    3.4777 Q=   -0.0198 A=    0.0000 R=    0.0000 C=    0.0000
 XYZ=    3.1241   -1.7385    3.1345 Q=    0.0099 A=    0.0000 R=    0.0000 C=    0.0000
 XYZ=    1.6581   -1.5616    2.8022 Q=    0.0099 A=    0.0000 R=    0.0000 C=    0.0000
 XYZ=    0.3335    2.3369   -4.1166 Q=   -0.0198 A=    0.0000 R=    0.0000 C=    0.0000
 XYZ=   -6.4036   -1.1654    0.9676 Q=   -0.0198 A=    0.0000 R=    0.0000 C=    0.0000
 XYZ=   -2.7798   -4.4301    1.6485 Q=   -0.0198 A=    0.0000 R=    0.0000 C=    0.0000
 XYZ=   -3.4958   -4.0688    1.1261 Q=    0.0099 A=    0.0000 R=    0.0000 C=    0.0000
 XYZ=   -2.1400   -4.7302    1.0029 Q=    0.0099 A=    0.0000 R=    0.0000 C=    0.0000
 XYZ=   -0.0905   -4.3477   -0.9957 Q=    0.0099 A=    0.0000 R=    0.0000 C=    0.0000
 XYZ=   -0.0131   -2.6573    2.2329 Q=   -0.0198 A=    0.0000 R=    0.0000 C=    0.0000
 XYZ=   -0.3895   -1.7986    2.0403 Q=    0.0099 A=    0.0000 R=    0.0000 C=    0.0000
 XYZ=   -0.3047   -3.2141    1.5109 Q=    0.0099 A=    0.0000 R=    0.0000 C=    0.0000
 XYZ=   -0.1179   -2.9098   -2.5340 Q=   -0.0198 A=    0.0000 R=    0.0000 C=    0.0000
 XYZ=   -0.0853   -2.1073   -3.0546 Q=    0.0099 A=    0.0000 R=    0.0000 C=    0.0000
 XYZ=   -0.2477    0.2020   -3.9262 Q=    0.0099 A=    0.0000 R=    0.0000 C=    0.0000
 XYZ=   -1.3652   -0.7719   -3.6199 Q=    0.0099 A=    0.0000 R=    0.0000 C=    0.0000
 XYZ=   -5.1985   -3.8176    0.5667 Q=   -0.0198 A=    0.0000 R=    0.0000 C=    0.0000
 XYZ=   -5.6234   -3.0215    0.8859 Q=    0.0099 A=    0.0000 R=    0.0000 C=    0.0000
 XYZ=   -2.4465   -4.3397   -2.5459 Q=   -0.0198 A=    0.0000 R=    0.0000 C=    0.0000
 XYZ=   -3.0636   -0.6756   -3.7729 Q=   -0.0198 A=    0.0000 R=    0.0000 C=    0.0000
 XYZ=   -1.8499   -3.7285   -2.1138 Q=    0.0099 A=    0.0000 R=    0.0000 C=    0.0000
 XYZ=    4.6369   -3.1854   -2.1309 Q=   -0.0198 A=    0.0000 R=    0.0000 C=    0.0000
 XYZ=    4.2215   -3.8322   -2.7013 Q=    0.0099 A=    0.0000 R=    0.0000 C=    0.0000
 XYZ=    2.7508   -1.4162    3.3309 Q=   -0.0198 A=    0.0000 R=    0.0000 C=    0.0000
 XYZ=    3.5764   -1.8859    3.2126 Q=    0.0099 A=    0.0000 R=    0.0000 C=    0.0000
 XYZ=   -5.8768   -1.4777    0.9590 Q=   -0.0198 A=    0.0000 R=    0.0000 C=    0.0000
 XYZ=   -2.7909   -4.5770    1.5510 Q=   -0.0198 A=    0.0000 R=    0.0000 C=    0.0000
 XYZ=   -3.3895   -4.3658    0.8345 Q=    0.0099 A=    0.0000 R=    0.0000 C=    0.0000
 XYZ=   -1.9359   -4.6671    1.1301 Q=    0.0099 A=    0.0000 R=    0.0000 C=    0.0000
 XYZ=   -0.3969   -3.9269    0.3662 Q=   -0.0198 A=    0.0000 R=    0.0000 C=    0.0000
 XYZ=   -0.1397   -3.7349   -0.5356 Q=    0.0099 A=    0.0000 R=    0.0000 C=    0.0000
 XYZ=    0.2333   -4.5847    0.6602 Q=    0.0099 A=    0.0000 R=    0.0000 C=    0.0000
 XYZ=   -3.8001   -0.8421   -3.1846 Q=    0.0099 A=    0.0000 R=    0.0000 C=    0.0000
 XYZ=   -0.2090   -2.3062    3.1574 Q=   -0.0198 A=    0.0000 R=    0.0000 C=    0.0000
 XYZ=   -0.5257   -1.4433    2.8903 Q=    0.0099 A=    0.0000 R=    0.0000 C=    0.0000
 XYZ=   -0.4274   -2.8795    2.4225 Q=    0.0099 A=    0.0000 R=    0.0000 C=    0.0000
 XYZ=    0.0658   -3.1251   -2.6373 Q=   -0.0198 A=    0.0000 R=    0.0000 C=    0.0000
 XYZ=   -0.1480   -2.4559   -3.2875 Q=    0.0099 A=    0.0000 R=    0.0000 C=    0.0000
 XYZ=   -0.2512   -0.6798   -3.6440 Q=   -0.0198 A=    0.0000 R=    0.0000 C=    0.0000
 XYZ=   -0.0555    0.1742   -4.0296 Q=    0.0099 A=    0.0000 R=    0.0000 C=    0.0000
 XYZ=   -1.2071   -0.7284   -3.6421 Q=    0.0099 A=    0.0000 R=    0.0000 C=    0.0000
 XYZ=   -4.8099   -3.8602    0.1363 Q=   -0.0198 A=    0.0000 R=    0.0000 C=    0.0000
 XYZ=   -5.1382   -3.0027    0.4065 Q=    0.0099 A=    0.0000 R=    0.0000 C=    0.0000
 XYZ=   -4.3751   -3.8172   -2.0913 Q=    0.0099 A=    0.0000 R=    0.0000 C=    0.0000
 XYZ=   -3.6787   -0.7994   -3.5894 Q=    0.0099 A=    0.0000 R=    0.0000 C=    0.0000
 XYZ=    4.6331   -2.0649   -1.6183 Q=   -0.0198 A=    0.0000 R=    0.0000 C=    0.0000
 XYZ=    3.7591   -2.1097   -2.0061 Q=    0.0099 A=    0.0000 R=    0.0000 C=    0.0000
 XYZ=    0.2242    2.0118   -4.1011 Q=   -0.0198 A=    0.0000 R=    0.0000 C=    0.0000
 XYZ=   -0.6799    2.2326   -4.3251 Q=    0.0099 A=    0.0000 R=    0.0000 C=    0.0000
 XYZ=   -6.4650   -1.1544    0.6016 Q=    0.0099 A=    0.0000 R=    0.0000 C=    0.0000
 XYZ=    1.9501   -5.2205    1.5900 Q=    0.0099 A=    0.0000 R=    0.0000 C=    0.0000
 XYZ=   -0.6540   -3.7126    0.2588 Q=   -0.0198 A=    0.0000 R=    0.0000 C=    0.0000
 XYZ=   -0.6700   -3.4230   -0.6534 Q=    0.0099 A=    0.0000 R=    0.0000 C=    0.0000
 XYZ=    0.2238   -4.0748    0.3798 Q=    0.0099 A=    0.0000 R=    0.0000 C=    0.0000
 XYZ=   -1.0777   -2.6020    2.6602 Q=   -0.0198 A=    0.0000 R=    0.0000 C=    0.0000
 XYZ=   -0.9053   -1.6719    2.5141 Q=    0.0099 A=    0.0000 R=    0.0000 C=    0.0000
 XYZ=   -0.8916   -3.0154    1.8172 Q=    0.0099 A=    0.0000 R=    0.0000 C=    0.0000
 XYZ=    0.2214   -3.1456   -2.4581 Q=   -0.0198 A=    0.0000 R=    0.0000 C=    0.0000
 XYZ=   -0.1475   -2.3916   -2.9181 Q=    0.0099 A=    0.0000 R=    0.0000 C=    0.0000
 XYZ=    4.6999   -4.0822   -0.9750 Q=    0.0099 A=    0.0000 R=    0.0000 C=    0.0000
 XYZ=    3.7578   -3.9384    2.5146 Q=    0.0099 A=    0.0000 R=    0.0000 C=    0.0000
 XYZ=   -0.2234   -0.8532   -3.5499 Q=   -0.0198 A=    0.0000 R=    0.0000 C=    0.0000
 XYZ=    0.1715    0.0091   -3.4205 Q=    0.0099 A=    0.0000 R=    0.0000 C=    0.0000
 XYZ=   -1.1450   -0.6696   -3.7324 Q=    0.0099 A=    0.0000 R=    0.0000 C=    0.0000
 XYZ=   -5.9120   -0.0740   -2.0998 Q=    0.0099 A=    0.0000 R=    0.0000 C=    0.0000
 XYZ=    4.8544   -2.6645    2.5232 Q=   -0.0198 A=    0.0000 R=    0.0000 C=    0.0000
 XYZ=    5.3014   -2.7222    1.6787 Q=    0.0099 A=    0.0000 R=    0.0000 C=    0.0000
 XYZ=   -2.2909   -4.2048   -2.5716 Q=    0.0099 A=    0.0000 R=    0.0000 C=    0.0000
 XYZ=    5.1057   -2.1247   -1.4113 Q=   -0.0198 A=    0.0000 R=    0.0000 C=    0.0000
 XYZ=    5.2010   -3.0765   -1.3765 Q=    0.0099 A=    0.0000 R=    0.0000 C=    0.0000
 XYZ=    4.7900   -1.9479   -2.2976 Q=    0.0099 A=    0.0000 R=    0.0000 C=    0.0000
 XYZ=   -1.0118   -4.1267    0.3414 Q=   -0.0198 A=    0.0000 R=    0.0000 C=    0.0000
 XYZ=   -0.9442   -3.8886   -0.5832 Q=    0.0099 A=    0.0000 R=    0.0000 C=    0.0000
 XYZ=   -3.1339   -1.0520   -3.4307 Q=   -0.0198 A=    0.0000 R=    0.0000 C=    0.0000
 XYZ=   -4.0268   -0.8573   -3.1459 Q=    0.0099 A=    0.0000 R=    0.0000 C=    0.0000
 XYZ=   -0.6626   -2.6232    2.7113 Q=   -0.0198 A=    0.0000 R=    0.0000 C=    0.0000
 XYZ=   -0.7591   -1.7426    2.3488 Q=    0.0099 A=    0.0000 R=    0.0000 C=    0.0000
 XYZ=   -0.7710   -3.2052    1.9591 Q=    0.0099 A=    0.0000 R=    0.0000 C=    0.0000
 XYZ=   -0.8146   -3.4711   -2.6841 Q=   -0.0198 A=    0.0000 R=    0.0000 C=    0.0000
 XYZ=   -0.7903   -2.6053   -3.0916 Q=    0.0099 A=    0.0000 R=    0.0000 C=    0.0000
 XYZ=   -0.7085    0.3310   -3.9507 Q=    0.0099 A=    0.0000 R=    0.0000 C=    0.0000
 XYZ=   -1.5309   -0.9386   -3.8980 Q=    0.0099 A=    0.0000 R=    0.0000 C=    0.0000
 XYZ=    4.6682   -2.2867    2.1505 Q=   -0.0198 A=    0.0000 R=    0.0000 C=    0.0000
 XYZ=    4.8097   -2.0553    1.2326 Q=    0.0099 A=    0.0000 R=    0.0000 C=    0.0000
 XYZ=   -2.9213   -0.4345   -3.8887 Q=   -0.0198 A=    0.0000 R=    0.0000 C=    0.0000
 XYZ=   -2.3966   -3.9955   -2.4402 Q=    0.0099 A=    0.0000 R=    0.0000 C=    0.0000
 XYZ=    5.2816   -2.4446   -1.3170 Q=   -0.0198 A=    0.0000 R=    0.0000 C=    0.0000
 XYZ=    4.9254   -3.3242   -1.1921 Q=    0.0099 A=    0.0000 R=    0.0000 C=    0.0000
 XYZ=    0.4019    2.3550   -4.0156 Q=    0.0099 A=    0.0000 R=    0.0000 C=    0.0000
 XYZ=    2.1363    0.4693   -3.1187 Q=    0.0099 A=    0.0000 R=    0.0000 C=    0.0000
 XYZ=   -3.6251   -0.1842   -3.2901 Q=    0.0099 A=    0.0000 R=    0.0000 C=    0.0000
 XYZ=   -0.7413   -2.9251    2.2813 Q=   -0.0198 A=    0.0000 R=    0.0000 C=    0.0000
 XYZ=   -0.8594   -2.1135    1.7878 Q=    0.0099 A=    0.0000 R=    0.0000 C=    0.0000
 XYZ=   -0.5888   -3.5923    1.6121 Q=    0.0099 A=    0.0000 R=    0.0000 C=    0.0000
 XYZ=   -1.3076   -0.4875    4.0427 Q=    0.0099 A=    0.0000 R=    0.0000 C=    0.0000
 XYZ=   -0.9798   -3.0926   -3.1171 Q=   -0.0198 A=    0.0000 R=    0.0000 C=    0.0000
 XYZ=    3.0444   -4.0303    2.4946 Q=   -0.0198 A=    0.0000 R=    0.0000 C=    0.0000
 XYZ=    2.6481   -3.5685    3.2335 Q=    0.0099 A=    0.0000 R=    0.0000 C=    0.0000
 XYZ=    3.9455   -3.7085    2.4665 Q=    0.0099 A=    0.0000 R=    0.0000 C=    0.0000
 XYZ=   -1.2720   -0.7227   -4.0709 Q=    0.0099 A=    0.0000 R=    0.0000 C=    0.0000
 XYZ=   -5.2286    0.2364   -2.5853 Q=   -0.0198 A=    0.0000 R=    0.0000 C=    0.0000
 XYZ=   -5.7616   -0.4812   -2.2431 Q=    0.0099 A=    0.0000 R=    0.0000 C=    0.0000
 XYZ=   -2.8531   -0.7014   -3.9085 Q=   -0.0198 A=    0.0000 R=    0.0000 C=    0.0000
 XYZ=   -2.9261   -4.1124   -2.3300 Q=   -0.0198 A=    0.0000 R=    0.0000 C=    0.0000
 XYZ=   -2.1240   -3.6864   -2.0279 Q=    0.0099 A=    0.0000 R=    0.0000 C=    0.0000
 XYZ=    3.6300   -0.7574    2.7526 Q=   -0.0198 A=    0.0000 R=    0.0000 C=    0.0000
 XYZ=   -1.4065   -4.2006   -0.0102 Q=   -0.0198 A=    0.0000 R=    0.0000 C=    0.0000
 XYZ=   -2.3270   -4.4570    0.0453 Q=    0.0099 A=    0.0000 R=    0.0000 C=    0.0000
 XYZ=   -3.4370   -0.5078   -3.1751 Q=    0.0099 A=    0.0000 R=    0.0000 C=    0.0000
 XYZ=   -0.3160   -3.0142    2.0828 Q=   -0.0198 A=    0.0000 R=    0.0000 C=    0.0000
 XYZ=   -0.5735   -2.0926    2.0595 Q=    0.0099 A=    0.0000 R=    0.0000 C=    0.0000
 XYZ=   -0.6917   -3.3881    1.2857 Q=    0.0099 A=    0.0000 R=    0.0000 C=    0.0000
 XYZ=   -0.3867   -2.7897   -2.7801 Q=   -0.0198 A=    0.0000 R=    0.0000 C=    0.0000
 XYZ=   -0.2725   -1.8774   -3.0463 Q=    0.0099 A=    0.0000 R=    0.0000 C=    0.0000
 XYZ=    3.0816   -3.7885    2.9665 Q=   -0.0198 A=    0.0000 R=    0.0000 C=    0.0000
 XYZ=    2.5716   -2.9790    2.9950 Q=    0.0099 A=    0.0000 R=    0.0000 C=    0.0000
 XYZ=   -0.2254    0.0022   -3.7455 Q=   -0.0198 A=    0.0000 R=    0.0000 C=    0.0000
 XYZ=   -0.1331    0.9068   -4.0444 Q=    0.0099 A=    0.0000 R=    0.0000 C=    0.0000
 XYZ=   -1.1701   -0.1519   -3.7363 Q=    0.0099 A=    0.0000 R=    0.0000 C=    0.0000
 XYZ=   -4.8558    0.0867   -2.1723 Q=   -0.0198 A=    0.0000 R=    0.0000 C=    0.0000
 XYZ=   -5.7159   -0.2901   -1.9863 Q=    0.0099 A=    0.0000 R=    0.0000 C=    0.0000
 XYZ=   -4.0639   -3.7547   -2.0836 Q=    0.0099 A=    0.0000 R=    0.0000 C=    0.0000
 XYZ=   -2.3479   -4.0663   -2.5389 Q=   -0.0198 A=    0.0000 R=    0.0000 C=    0.0000
 XYZ=   -1.5087   -3.6060   -2.5312 Q=    0.0099 A=    0.0000 R=    0.0000 C=    0.0000
 XYZ=    4.1078   -1.0872    2.7739 Q=    0.0099 A=    0.0000 R=    0.0000 C=    0.0000
 XYZ=   -0.9343   -3.9961    0.1884 Q=   -0.0198 A=    0.0000 R=    0.0000 C=    0.0000
 XYZ=   -1.4828   -3.8464   -0.5816 Q=    0.0099 A=    0.0000 R=    0.0000 C=    0.0000
 XYZ=   -2.6141   -0.5212   -3.6756 Q=   -0.0198 A=    0.0000 R=    0.0000 C=    0.0000
 XYZ=   -3.3562   -0.2057   -3.1599 Q=    0.0099 A=    0.0000 R=    0.0000 C=    0.0000
 XYZ=   -0.3200   -2.8108    2.5073 Q=   -0.0198 A=    0.0000 R=    0.0000 C=    0.0000
 XYZ=   -0.3078   -1.8984    2.2182 Q=    0.0099 A=    0.0000 R=    0.0000 C=    0.0000
 XYZ=   -0.2779   -3.3192    1.6974 Q=    0.0099 A=    0.0000 R=    0.0000 C=    0.0000
 XYZ=   -0.1965   -2.4676   -2.6070 Q=   -0.0198 A=    0.0000 R=    0.0000 C=    0.0000
 XYZ=    0.4734   -3.0530   -2.9602 Q=    0.0099 A=    0.0000 R=    0.0000 C=    0.0000
 XYZ=   -0.1785   -1.7059   -3.1864 Q=    0.0099 A=    0.0000 R=    0.0000 C=    0.0000
 XYZ=    3.4073   -4.0181    2.8129 Q=   -0.0198 A=    0.0000 R=    0.0000 C=    0.0000
 XYZ=   -5.0402    0.2683   -2.6023 Q=   -0.0198 A=    0.0000 R=    0.0000 C=    0.0000
 XYZ=   -5.5932   -0.3129   -2.0802 Q=    0.0099 A=    0.0000 R=    0.0000 C=    0.0000
 XYZ=    5.0771   -2.3926    0.8050 Q=    0.0099 A=    0.0000 R=    0.0000 C=    0.0000
 XYZ=   -3.5315   -3.9581   -2.4892 Q=    0.0099 A=    0.0000 R=    0.0000 C=    0.0000
 XYZ=   -1.7563   -4.4253   -1.9181 Q=   -0.0198 A=    0.0000 R=    0.0000 C=    0.0000
 XYZ=   -1.2165   -3.6705   -2.1528 Q=    0.0099 A=    0.0000 R=    0.0000 C=    0.0000
 XYZ=    5.1654   -3.0184   -0.9634 Q=   -0.0198 A=    0.0000 R=    0.0000 C=    0.0000
 XYZ=    4.5903   -3.7485   -0.7343 Q=    0.0099 A=    0.0000 R=    0.0000 C=    0.0000
 XYZ=   -0.3455   -4.1274    0.5618 Q=   -0.0198 A=    0.0000 R=    0.0000 C=    0.0000
 XYZ=   -1.2186   -3.8865    0.2522 Q=    0.0099 A=    0.0000 R=    0.0000 C=    0.0000
 XYZ=   -2.4811   -0.2778   -3.5412 Q=   -0.0198 A=    0.0000 R=    0.0000 C=    0.0000
 XYZ=   -3.3259    0.0811   -3.2696 Q=    0.0099 A=    0.0000 R=    0.0000 C=    0.0000
 XYZ=   -0.2159   -2.3447    3.0323 Q=   -0.0198 A=    0.0000 R=    0.0000 C=    0.0000
 XYZ=   -0.2337   -1.5234    2.5411 Q=    0.0099 A=    0.0000 R=    0.0000 C=    0.0000
 XYZ=   -0.4371   -3.0153    2.3861 Q=    0.0099 A=    0.0000 R=    0.0000 C=    0.0000
 XYZ=   -0.0153   -2.6812   -2.7170 Q=   -0.0198 A=    0.0000 R=    0.0000 C=    0.0000
 XYZ=    0.0107   -1.7780   -3.0328 Q=    0.0099 A=    0.0000 R=    0.0000 C=    0.0000
 XYZ=    3.2671   -4.3788    2.0163 Q=   -0.0198 A=    0.0000 R=    0.0000 C=    0.0000
 XYZ=    3.4400   -3.9196    2.8381 Q=    0.0099 A=    0.0000 R=    0.0000 C=    0.0000
 XYZ=    0.3809   -0.0736   -4.0918 Q=   -0.0198 A=    0.0000 R=    0.0000 C=    0.0000
 XYZ=    0.7882    0.7748   -4.2670 Q=    0.0099 A=    0.0000 R=    0.0000 C=    0.0000
 XYZ=   -0.5597    0.0996   -4.1308 Q=    0.0099 A=    0.0000 R=    0.0000 C=    0.0000
 XYZ=   -5.4457   -0.1232   -2.4279 Q=    0.0099 A=    0.0000 R=    0.0000 C=    0.0000
 XYZ=    1.4004   -2.8131    3.7501 Q=    0.0099 A=    0.0000 R=    0.0000 C=    0.0000
 XYZ=   -4.5950   -3.4036   -2.1053 Q=   -0.0198 A=    0.0000 R=    0.0000 C=    0.0000
 XYZ=   -4.1328   -2.9008   -2.7759 Q=    0.0099 A=    0.0000 R=    0.0000 C=    0.0000
 XYZ=   -2.6442   -1.1038   -3.8797 Q=    0.0099 A=    0.0000 R=    0.0000 C=    0.0000
 XYZ=   -1.6095   -4.4106   -1.7529 Q=   -0.0198 A=    0.0000 R=    0.0000 C=    0.0000
 XYZ=   -1.0514   -3.7044   -2.0785 Q=    0.0099 A=    0.0000 R=    0.0000 C=    0.0000
 XYZ=    5.1352   -3.3457   -0.8825 Q=   -0.0198 A=    0.0000 R=    0.0000 C=    0.0000
 XYZ=   -3.8992   -3.7863   -1.5708 Q=    0.0099 A=    0.0000 R=    0.0000 C=    0.0000
 XYZ=   -2.6956   -0.2419   -3.4665 Q=   -0.0198 A=    0.0000 R=    0.0000 C=    0.0000
 XYZ=   -3.6304   -0.0360   -3.4576 Q=    0.0099 A=    0.0000 R=    0.0000 C=    0.0000
 XYZ=   -0.2069   -2.4368    2.8935 Q=   -0.0198 A=    0.0000 R=    0.0000 C=    0.0000
 XYZ=   -0.6145   -1.7498    2.3660 Q=    0.0099 A=    0.0000 R=    0.0000 C=    0.0000
 XYZ=   -0.2329   -3.2142    2.3357 Q=    0.0099 A=    0.0000 R=    0.0000 C=    0.0000
 XYZ=   -0.0994   -2.5798   -2.6521 Q=   -0.0198 A=    0.0000 R=    0.0000 C=    0.0000
 XYZ=    0.0869   -1.6565   -2.8223 Q=    0.0099 A=    0.0000 R=    0.0000 C=    0.0000
 XYZ=    3.1257   -4.1246    1.5005 Q=    0.0099 A=    0.0000 R=    0.0000 C=    0.0000
 XYZ=    0.2801    0.0369   -3.8003 Q=   -0.0198 A=    0.0000 R=    0.0000 C=    0.0000
 XYZ=    0.4475    0.9793   -3.8113 Q=    0.0099 A=    0.0000 R=    0.0000 C=    0.0000
 XYZ=   -0.6723   -0.0366   -3.7393 Q=    0.0099 A=    0.0000 R=    0.0000 C=    0.0000
 XYZ=    5.2405   -2.6151    0.7593 Q=    0.0099 A=    0.0000 R=    0.0000 C=    0.0000
 XYZ=   -4.3234   -2.9730   -2.4140 Q=   -0.0198 A=    0.0000 R=    0.0000 C=    0.0000
 XYZ=   -3.8277   -2.8882   -3.2285 Q=    0.0099 A=    0.0000 R=    0.0000 C=    0.0000
 XYZ=   -2.7518   -1.3637   -3.8020 Q=    0.0099 A=    0.0000 R=    0.0000 C=    0.0000
 XYZ=   -1.7810   -4.2870   -1.9161 Q=   -0.0198 A=    0.0000 R=    0.0000 C=    0.0000
 XYZ=   -1.1808   -3.7075   -2.3854 Q=    0.0099 A=    0.0000 R=    0.0000 C=    0.0000
 XYZ=    3.4903   -0.5246   -1.8575 Q=    0.0099 A=    0.0000 R=    0.0000 C=    0.0000
 XYZ=    4.4786   -1.4604   -1.1952 Q=    0.0099 A=    0.0000 R=    0.0000 C=    0.0000
 XYZ=   -0.9731   -4.1187    0.7025 Q=   -0.0198 A=    0.0000 R=    0.0000 C=    0.0000
 XYZ=   -1.3785   -4.2869   -0.1482 Q=    0.0099 A=    0.0000 R=    0.0000 C=    0.0000
 XYZ=   -3.6788   -3.2684   -1.7710 Q=    0.0099 A=    0.0000 R=    0.0000 C=    0.0000
 XYZ=   -2.5326   -0.4570   -3.5872 Q=   -0.0198 A=    0.0000 R=    0.0000 C=    0.0000
 XYZ=   -3.3699    0.0058   -3.6186 Q=    0.0099 A=    0.0000 R=    0.0000 C=    0.0000
 XYZ=   -0.4737   -2.4839    2.6994 Q=   -0.0198 A=    0.0000 R=    0.0000 C=    0.0000
 XYZ=   -0.8667   -1.6659    2.3949 Q=    0.0099 A=    0.0000 R=    0.0000 C=    0.0000
 XYZ=   -0.6087   -3.0977    1.9774 Q=    0.0099 A=    0.0000 R=    0.0000 C=    0.0000
 XYZ=    2.6638   -4.6240    2.7270 Q=    0.0099 A=    0.0000 R=    0.0000 C=    0.0000
 XYZ=   -0.5666   -0.4220   -3.9956 Q=    0.0099 A=    0.0000 R=    0.0000 C=    0.0000
 XYZ=   -5.6708   -2.1968   -1.8575 Q=    0.0099 A=    0.0000 R=    0.0000 C=    0.0000
 XYZ=    5.8061   -2.3596    0.5916 Q=    0.0099 A=    0.0000 R=    0.0000 C=    0.0000
 XYZ=   -4.6303   -3.1293   -2.3448 Q=   -0.0198 A=    0.0000 R=    0.0000 C=    0.0000
 XYZ=   -4.2578   -2.4164   -2.8638 Q=    0.0099 A=    0.0000 R=    0.0000 C=    0.0000
 XYZ=   -1.9826   -4.2422   -1.4981 Q=   -0.0198 A=    0.0000 R=    0.0000 C=    0.0000
 XYZ=   -1.4729   -3.6263   -2.0245 Q=    0.0099 A=    0.0000 R=    0.0000 C=    0.0000
 XYZ=    4.4179   -1.1241   -1.2365 Q=    0.0099 A=    0.0000 R=    0.0000 C=    0.0000
 XYZ=   -0.7305   -3.9792    0.9293 Q=   -0.0198 A=    0.0000 R=    0.0000 C=    0.0000
 XYZ=   -0.0005   -4.5832    0.7935 Q=    0.0099 A=    0.0000 R=    0.0000 C=    0.0000
 XYZ=   -1.2955   -4.1114    0.1680 Q=    0.0099 A=    0.0000 R=    0.0000 C=    0.0000
 XYZ=   -3.8749   -3.5382   -1.9225 Q=    0.0099 A=    0.0000 R=    0.0000 C=    0.0000
 XYZ=   -2.7534   -0.6223   -3.5763 Q=   -0.0198 A=    0.0000 R=    0.0000 C=    0.0000
 XYZ=   -3.5133   -0.0546   -3.7046 Q=    0.0099 A=    0.0000 R=    0.0000 C=    0.0000
 XYZ=   -0.0560   -1.9389    3.1524 Q=    0.0099 A=    0.0000 R=    0.0000 C=    0.0000
 XYZ=   -0.3774   -3.2789    2.5260 Q=    0.0099 A=    0.0000 R=    0.0000 C=    0.0000
 XYZ=    0.0757   -2.9379   -3.2302 Q=   -0.0198 A=    0.0000 R=    0.0000 C=    0.0000
 XYZ=    0.2901   -2.0762   -3.5877 Q=    0.0099 A=    0.0000 R=    0.0000 C=    0.0000
 XYZ=    2.3167   -4.9866    2.0331 Q=   -0.0198 A=    0.0000 R=    0.0000 C=    0.0000
 XYZ=    2.0239   -4.5366    2.8255 Q=    0.0099 A=    0.0000 R=    0.0000 C=    0.0000
 XYZ=    2.8251   -4.3291    1.5583 Q=    0.0099 A=    0.0000 R=    0.0000 C=    0.0000
 XYZ=    5.5642   -2.2343    0.2639 Q=    0.0099 A=    0.0000 R=    0.0000 C=    0.0000
 XYZ=   -4.4585   -2.9916   -2.4749 Q=   -0.0198 A=    0.0000 R=    0.0000 C=    0.0000
 XYZ=   -4.1203   -2.4837   -3.2125 Q=    0.0099 A=    0.0000 R=    0.0000 C=    0.0000
 XYZ=   -2.2313   -4.4384   -1.3962 Q=   -0.0198 A=    0.0000 R=    0.0000 C=    0.0000
 XYZ=   -1.5677   -4.1253   -2.0108 Q=    0.0099 A=    0.0000 R=    0.0000 C=    0.0000
 XYZ=    3.9403   -0.9591   -1.1910 Q=    0.0099 A=    0.0000 R=    0.0000 C=    0.0000
 XYZ=   -0.6815   -3.9886    1.2997 Q=   -0.0198 A=    0.0000 R=    0.0000 C=    0.0000
 XYZ=   -0.0366   -4.3809    0.7111 Q=    0.0099 A=    0.0000 R=    0.0000 C=    0.0000
 XYZ=   -1.5181   -4.1028    0.8488 Q=    0.0099 A=    0.0000 R=    0.0000 C=    0.0000
 XYZ=   -3.6868   -3.4215   -2.1063 Q=    0.0099 A=    0.0000 R=    0.0000 C=    0.0000
 XYZ=    0.8754   -3.2159    3.5062 Q=   -0.0198 A=    0.0000 R=    0.0000 C=    0.0000
 XYZ=    0.7491   -2.2876    3.7022 Q=    0.0099 A=    0.0000 R=    0.0000 C=    0.0000
 XYZ=    0.2457   -3.4016    2.8097 Q=    0.0099 A=    0.0000 R=    0.0000 C=    0.0000
 XYZ=    2.3551   -4.7492    1.6222 Q=   -0.0198 A=    0.0000 R=    0.0000 C=    0.0000
 XYZ=    1.6399   -4.5162    2.2141 Q=    0.0099 A=    0.0000 R=    0.0000 C=    0.0000
 XYZ=    3.1362   -4.7411    2.1755 Q=    0.0099 A=    0.0000 R=    0.0000 C=    0.0000
 XYZ=   -0.5096   -0.3306   -3.8247 Q=   -0.0198 A=    0.0000 R=    0.0000 C=    0.0000
 XYZ=   -1.4450   -0.5256   -3.8819 Q=    0.0099 A=    0.0000 R=    0.0000 C=    0.0000
 XYZ=    5.7326   -2.2817    0.7790 Q=   -0.0198 A=    0.0000 R=    0.0000 C=    0.0000
 XYZ=    5.3302   -2.8948    0.1638 Q=    0.0099 A=    0.0000 R=    0.0000 C=    0.0000
 XYZ=   -4.3737   -3.4542   -2.4647 Q=   -0.0198 A=    0.0000 R=    0.0000 C=    0.0000
 XYZ=   -3.9503   -2.8185   -3.0417 Q=    0.0099 A=    0.0000 R=    0.0000 C=    0.0000
 XYZ=   -3.2328   -1.1692   -3.7360 Q=   -0.0198 A=    0.0000 R=    0.0000 C=    0.0000
 XYZ=   -2.2325   -4.1392   -0.9816 Q=   -0.0198 A=    0.0000 R=    0.0000 C=    0.0000
 XYZ=   -1.6387   -3.6147   -1.5188 Q=    0.0099 A=    0.0000 R=    0.0000 C=    0.0000
 XYZ=    4.5006   -4.3408   -1.2905 Q=   -0.0198 A=    0.0000 R=    0.0000 C=    0.0000
 XYZ=    4.9778   -3.6473   -1.7461 Q=    0.0099 A=    0.0000 R=    0.0000 C=    0.0000
 XYZ=    3.7967   -0.9295   -2.4637 Q=    0.0099 A=    0.0000 R=    0.0000 C=    0.0000
 XYZ=   -0.6737   -3.9264    1.3091 Q=   -0.0198 A=    0.0000 R=    0.0000 C=    0.0000
 XYZ=   -1.2877   -3.7345    0.6003 Q=    0.0099 A=    0.0000 R=    0.0000 C=    0.0000
 XYZ=   -3.7240   -3.6296   -1.7839 Q=    0.0099 A=    0.0000 R=    0.0000 C=    0.0000
 XYZ=    0.6956   -2.7994    3.6048 Q=   -0.0198 A=    0.0000 R=    0.0000 C=    0.0000
 XYZ=    0.2848   -2.6101    2.7612 Q=    0.0099 A=    0.0000 R=    0.0000 C=    0.0000
 XYZ=   -0.0626   -2.8197   -2.4046 Q=   -0.0198 A=    0.0000 R=    0.0000 C=    0.0000
 XYZ=    0.5118   -3.4189   -2.8813 Q=    0.0099 A=    0.0000 R=    0.0000 C=    0.0000
 XYZ=   -0.0778   -2.0260   -2.9394 Q=    0.0099 A=    0.0000 R=    0.0000 C=    0.0000
 XYZ=    3.0188   -4.5916    1.6272 Q=    0.0099 A=    0.0000 R=    0.0000 C=    0.0000
 XYZ=   -1.0549   -0.6410   -4.0804 Q=    0.0099 A=    0.0000 R=    0.0000 C=    0.0000
 XYZ=    5.6877   -2.4830    0.6180 Q=   -0.0198 A=    0.0000 R=    0.0000 C=    0.0000
 XYZ=    5.2661   -3.1013    0.0213 Q=    0.0099 A=    0.0000 R=    0.0000 C=    0.0000
 XYZ=    5.5157   -2.8369    1.4905 Q=    0.0099 A=    0.0000 R=    0.0000 C=    0.0000
 XYZ=   -2.4328   -4.4529   -0.4642 Q=   -0.0198 A=    0.0000 R=    0.0000 C=    0.0000
 XYZ=   -1.8280   -4.1747   -1.1520 Q=    0.0099 A=    0.0000 R=    0.0000 C=    0.0000
 XYZ=    4.4019   -4.7497   -1.0375 Q=   -0.0198 A=    0.0000 R=    0.0000 C=    0.0000
 XYZ=    3.7072   -4.7930   -1.6946 Q=    0.0099 A=    0.0000 R=    0.0000 C=    0.0000
 XYZ=    3.6013   -0.9835   -2.1449 Q=    0.0099 A=    0.0000 R=    0.0000 C=    0.0000
 XYZ=   -0.7684   -3.8054    1.7629 Q=   -0.0198 A=    0.0000 R=    0.0000 C=    0.0000
 XYZ=   -0.1443   -4.5193    1.8937 Q=    0.0099 A=    0.0000 R=    0.0000 C=    0.0000
 XYZ=   -1.2745   -4.0677    0.9939 Q=    0.0099 A=    0.0000 R=    0.0000 C=    0.0000
 XYZ=   -4.8848   -2.9132   -1.6177 Q=   -0.0198 A=    0.0000 R=    0.0000 C=    0.0000
 XYZ=   -4.3428   -2.6865   -2.3734 Q=    0.0099 A=    0.0000 R=    0.0000 C=    0.0000
 XYZ=   -4.2626   -3.2314   -0.9636 Q=    0.0099 A=    0.0000 R=    0.0000 C=    0.0000
 XYZ=   -3.9929   -0.8314   -3.2635 Q=   -0.0198 A=    0.0000 R=    0.0000 C=    0.0000
 XYZ=   -3.6247    0.0417   -3.1284 Q=    0.0099 A=    0.0000 R=    0.0000 C=    0.0000
 XYZ=    0.8471   -2.2908    3.5595 Q=   -0.0198 A=    0.0000 R=    0.0000 C=    0.0000
 XYZ=    1.5535   -1.7320    3.2356 Q=    0.0099 A=    0.0000 R=    0.0000 C=    0.0000
 XYZ=    0.1283   -2.1495    2.9434 Q=    0.0099 A=    0.0000 R=    0.0000 C=    0.0000
 XYZ=   -0.8069   -2.5587   -2.5787 Q=   -0.0198 A=    0.0000 R=    0.0000 C=    0.0000
 XYZ=   -0.0651   -3.0471   -2.9357 Q=    0.0099 A=    0.0000 R=    0.0000 C=    0.0000
 XYZ=   -0.9191   -1.8213   -3.1786 Q=    0.0099 A=    0.0000 R=    0.0000 C=    0.0000
 XYZ=   -5.1475   -1.9952   -2.4424 Q=    0.0099 A=    0.0000 R=    0.0000 C=    0.0000
 XYZ=   -2.2772   -4.4450   -1.0936 Q=   -0.0198 A=    0.0000 R=    0.0000 C=    0.0000
 XYZ=   -1.9594   -3.7895   -1.7146 Q=    0.0099 A=    0.0000 R=    0.0000 C=    0.0000
 XYZ=    4.2486   -4.7994   -1.6075 Q=   -0.0198 A=    0.0000 R=    0.0000 C=    0.0000
 XYZ=   -1.3953   -4.5464    0.5132 Q=    0.0099 A=    0.0000 R=    0.0000 C=    0.0000
 XYZ=   -5.4677   -2.3798   -1.6264 Q=   -0.0198 A=    0.0000 R=    0.0000 C=    0.0000
 XYZ=   -4.8536   -3.0897   -1.4390 Q=    0.0099 A=    0.0000 R=    0.0000 C=    0.0000
 XYZ=   -0.4917   -1.3031    3.5972 Q=    0.0099 A=    0.0000 R=    0.0000 C=    0.0000
 XYZ=    0.7841   -1.6441    2.8576 Q=    0.0099 A=    0.0000 R=    0.0000 C=    0.0000
 XYZ=   -5.2383   -1.8947   -2.4610 Q=    0.0099 A=    0.0000 R=    0.0000 C=    0.0000
 XYZ=   -1.2951   -4.1777   -1.1841 Q=   -0.0198 A=    0.0000 R=    0.0000 C=    0.0000
 XYZ=   -0.7083   -3.9481   -1.9047 Q=    0.0099 A=    0.0000 R=    0.0000 C=    0.0000
 XYZ=   -4.7926   -2.9544   -1.4765 Q=    0.0099 A=    0.0000 R=    0.0000 C=    0.0000
 XYZ=   -3.9188    0.1989   -3.1683 Q=    0.0099 A=    0.0000 R=    0.0000 C=    0.0000
 XYZ=    0.1098   -1.4269    2.8744 Q=    0.0099 A=    0.0000 R=    0.0000 C=    0.0000
 XYZ=    0.4916   -2.3320   -3.4268 Q=    0.0099 A=    0.0000 R=    0.0000 C=    0.0000
 XYZ=   -3.6403   -0.7185   -3.4794 Q=   -0.0198 A=    0.0000 R=    0.0000 C=    0.0000
 XYZ=   -0.0182   -4.4143   -0.7929 Q=   -0.0198 A=    0.0000 R=    0.0000 C=    0.0000
 XYZ=    0.4685   -4.0174   -1.5153 Q=    0.0099 A=    0.0000 R=    0.0000 C=    0.0000
 XYZ=    4.4352   -3.9585   -1.8571 Q=   -0.0198 A=    0.0000 R=    0.0000 C=    0.0000
 XYZ=    3.7436   -3.8718   -2.5132 Q=    0.0099 A=    0.0000 R=    0.0000 C=    0.0000
 XYZ=    2.0706   -1.3197   -2.9982 Q=    0.0099 A=    0.0000 R=    0.0000 C=    0.0000
 XYZ=   -4.7622   -2.5102   -2.2544 Q=    0.0099 A=    0.0000 R=    0.0000 C=    0.0000
 XYZ=   -3.6656   -0.3164   -2.6111 Q=    0.0099 A=    0.0000 R=    0.0000 C=    0.0000
 XYZ=   -0.3919   -1.8633    3.4506 Q=   -0.0198 A=    0.0000 R=    0.0000 C=    0.0000
 XYZ=   -0.6028   -1.3401    2.6773 Q=    0.0099 A=    0.0000 R=    0.0000 C=    0.0000
 XYZ=    0.7923   -2.8784   -3.3480 Q=   -0.0198 A=    0.0000 R=    0.0000 C=    0.0000
 XYZ=    3.3427   -4.2660    1.9777 Q=   -0.0198 A=    0.0000 R=    0.0000 C=    0.0000
 XYZ=    2.5555   -4.2167    2.5200 Q=    0.0099 A=    0.0000 R=    0.0000 C=    0.0000
 XYZ=    3.9437   -3.6326    2.3698 Q=    0.0099 A=    0.0000 R=    0.0000 C=    0.0000
 XYZ=   -6.1939   -1.3897   -0.5941 Q=    0.0099 A=    0.0000 R=    0.0000 C=    0.0000
 XYZ=   -3.3044   -0.3465   -3.7652 Q=   -0.0198 A=    0.0000 R=    0.0000 C=    0.0000
 XYZ=   -2.8726    0.3731   -4.2258 Q=    0.0099 A=    0.0000 R=    0.0000 C=    0.0000
 XYZ=   -0.0080   -4.4601   -0.2772 Q=   -0.0198 A=    0.0000 R=    0.0000 C=    0.0000
 XYZ=    0.5262   -3.8672   -0.8057 Q=    0.0099 A=    0.0000 R=    0.0000 C=    0.0000
 XYZ=    4.4352   -3.5439   -2.0770 Q=   -0.0198 A=    0.0000 R=    0.0000 C=    0.0000
 XYZ=    3.6026   -3.2092   -2.4100 Q=    0.0099 A=    0.0000 R=    0.0000 C=    0.0000
 XYZ=   -4.6169   -3.7971    2.1741 Q=    0.0099 A=    0.0000 R=    0.0000 C=    0.0000
 XYZ=    2.1363   -1.2664   -2.9730 Q=    0.0099 A=    0.0000 R=    0.0000 C=    0.0000
 XYZ=   -5.1941   -2.4796   -1.8459 Q=   -0.0198 A=    0.0000 R=    0.0000 C=    0.0000
 XYZ=   -4.4828   -1.9618   -2.2228 Q=    0.0099 A=    0.0000 R=    0.0000 C=    0.0000
 XYZ=   -3.8412    0.0832   -3.0993 Q=    0.0099 A=    0.0000 R=    0.0000 C=    0.0000
 XYZ=   -0.6311   -1.9952    3.7146 Q=   -0.0198 A=    0.0000 R=    0.0000 C=    0.0000
 XYZ=   -0.6510   -1.5610    2.8617 Q=    0.0099 A=    0.0000 R=    0.0000 C=    0.0000
 XYZ=    0.6907   -2.9894   -2.5646 Q=   -0.0198 A=    0.0000 R=    0.0000 C=    0.0000
 XYZ=    0.9512   -3.6629   -3.1928 Q=    0.0099 A=    0.0000 R=    0.0000 C=    0.0000
 XYZ=    0.4159   -2.2497   -3.1065 Q=    0.0099 A=    0.0000 R=    0.0000 C=    0.0000
 XYZ=    3.0846   -4.6812    1.9422 Q=   -0.0198 A=    0.0000 R=    0.0000 C=    0.0000
 XYZ=    2.2002   -4.8614    2.2610 Q=    0.0099 A=    0.0000 R=    0.0000 C=    0.0000
 XYZ=    3.3243   -3.8523    2.3566 Q=    0.0099 A=    0.0000 R=    0.0000 C=    0.0000
 XYZ=   -6.4326   -1.5481    0.2890 Q=   -0.0198 A=    0.0000 R=    0.0000 C=    0.0000
 XYZ=   -5.7776   -1.9192   -0.3022 Q=    0.0099 A=    0.0000 R=    0.0000 C=    0.0000
 XYZ=   -2.9105   -2.2347   -3.8082 Q=    0.0099 A=    0.0000 R=    0.0000 C=    0.0000
 XYZ=   -0.4485   -3.9176   -1.0806 Q=    0.0099 A=    0.0000 R=    0.0000 C=    0.0000
 XYZ=    4.2334   -3.6279   -2.1319 Q=   -0.0198 A=    0.0000 R=    0.0000 C=    0.0000
 XYZ=    3.6768   -4.4036   -2.2010 Q=    0.0099 A=    0.0000 R=    0.0000 C=    0.0000
 XYZ=    3.9088   -3.0388   -2.8129 Q=    0.0099 A=    0.0000 R=    0.0000 C=    0.0000
 XYZ=   -0.5427    1.4774   -4.1591 Q=    0.0099 A=    0.0000 R=    0.0000 C=    0.0000
 XYZ=   -4.3630   -1.4548   -2.6871 Q=    0.0099 A=    0.0000 R=    0.0000 C=    0.0000
 XYZ=   -2.9404   -0.3493   -3.0943 Q=   -0.0198 A=    0.0000 R=    0.0000 C=    0.0000
 XYZ=   -3.4385    0.4465   -2.9076 Q=    0.0099 A=    0.0000 R=    0.0000 C=    0.0000
 XYZ=   -2.3229   -0.0905   -3.7783 Q=    0.0099 A=    0.0000 R=    0.0000 C=    0.0000
 XYZ=   -0.8773   -1.7806    3.6710 Q=   -0.0198 A=    0.0000 R=    0.0000 C=    0.0000
 XYZ=   -1.3857   -1.1203    4.1419 Q=    0.0099 A=    0.0000 R=    0.0000 C=    0.0000
 XYZ=   -0.6649   -1.3674    2.8340 Q=    0.0099 A=    0.0000 R=    0.0000 C=    0.0000
 XYZ=   -0.0743   -3.0711   -2.7627 Q=   -0.0198 A=    0.0000 R=    0.0000 C=    0.0000
 XYZ=    1.9349   -4.5753    2.2490 Q=   -0.0198 A=    0.0000 R=    0.0000 C=    0.0000
 XYZ=    1.9639   -3.9728    2.9922 Q=    0.0099 A=    0.0000 R=    0.0000 C=    0.0000
 XYZ=   -6.2297   -1.6829    0.0326 Q=   -0.0198 A=    0.0000 R=    0.0000 C=    0.0000
 XYZ=   -5.7998   -1.5085   -0.8047 Q=    0.0099 A=    0.0000 R=    0.0000 C=    0.0000
 XYZ=   -0.5176   -3.9264   -1.4725 Q=    0.0099 A=    0.0000 R=    0.0000 C=    0.0000
 XYZ=    4.6026   -3.2819   -1.7080 Q=   -0.0198 A=    0.0000 R=    0.0000 C=    0.0000
 XYZ=    4.4037   -4.1987   -1.8985 Q=    0.0099 A=    0.0000 R=    0.0000 C=    0.0000
 XYZ=    3.8250   -2.8034   -1.9954 Q=    0.0099 A=    0.0000 R=    0.0000 C=    0.0000
 XYZ=    2.5569   -2.0854   -3.3555 Q=   -0.0198 A=    0.0000 R=    0.0000 C=    0.0000
 XYZ=   -3.1602   -0.2862   -3.5890 Q=   -0.0198 A=    0.0000 R=    0.0000 C=    0.0000
 XYZ=   -3.5742    0.5016   -3.2366 Q=    0.0099 A=    0.0000 R=    0.0000 C=    0.0000
 XYZ=   -2.3301    0.0218   -3.9528 Q=    0.0099 A=    0.0000 R=    0.0000 C=    0.0000
 XYZ=   -0.7151   -1.9488    2.8425 Q=    0.0099 A=    0.0000 R=    0.0000 C=    0.0000
 XYZ=   -0.0973   -2.8277   -2.7163 Q=   -0.0198 A=    0.0000 R=    0.0000 C=    0.0000
 XYZ=    0.7695   -2.6444   -3.0786 Q=    0.0099 A=    0.0000 R=    0.0000 C=    0.0000
 XYZ=   -0.7005   -2.3480   -3.2840 Q=    0.0099 A=    0.0000 R=    0.0000 C=    0.0000
 XYZ=    1.6685   -3.9838    3.1743 Q=    0.0099 A=    0.0000 R=    0.0000 C=    0.0000
 XYZ=   -5.9923   -1.9950    0.0193 Q=   -0.0198 A=    0.0000 R=    0.0000 C=    0.0000
 XYZ=   -5.6742   -1.6427   -0.8120 Q=    0.0099 A=    0.0000 R=    0.0000 C=    0.0000
 XYZ=   -2.9297    0.0478   -4.0552 Q=    0.0099 A=    0.0000 R=    0.0000 C=    0.0000
 XYZ=   -0.7162   -4.1147   -1.3277 Q=    0.0099 A=    0.0000 R=    0.0000 C=    0.0000
 XYZ=    4.8154   -2.8202   -1.4105 Q=   -0.0198 A=    0.0000 R=    0.0000 C=    0.0000
 XYZ=    4.6464   -3.7613   -1.3653 Q=    0.0099 A=    0.0000 R=    0.0000 C=    0.0000
 XYZ=    4.2448   -2.5078   -2.1127 Q=    0.0099 A=    0.0000 R=    0.0000 C=    0.0000
 XYZ=    3.2033   -2.2132   -3.4879 Q=   -0.0198 A=    0.0000 R=    0.0000 C=    0.0000
 XYZ=   -5.0787   -2.8302   -1.9350 Q=   -0.0198 A=    0.0000 R=    0.0000 C=    0.0000
 XYZ=   -4.3876   -2.2442   -2.2437 Q=    0.0099 A=    0.0000 R=    0.0000 C=    0.0000
 XYZ=   -3.4198   -0.3705   -3.3474 Q=   -0.0198 A=    0.0000 R=    0.0000 C=    0.0000
 XYZ=   -3.9644    0.3293   -2.9869 Q=    0.0099 A=    0.0000 R=    0.0000 C=    0.0000
 XYZ=   -1.5039   -2.3061    3.5368 Q=   -0.0198 A=    0.0000 R=    0.0000 C=    0.0000
 XYZ=   -1.2524   -1.7995    2.7645 Q=    0.0099 A=    0.0000 R=    0.0000 C=    0.0000
 XYZ=   -0.2097   -2.8022   -2.2714 Q=   -0.0198 A=    0.0000 R=    0.0000 C=    0.0000
 XYZ=    0.7062   -2.5277   -2.2267 Q=    0.0099 A=    0.0000 R=    0.0000 C=    0.0000
 XYZ=   -0.5396   -2.4052   -3.0775 Q=    0.0099 A=    0.0000 R=    0.0000 C=    0.0000
 XYZ=    1.3781   -4.2836    3.1020 Q=    0.0099 A=    0.0000 R=    0.0000 C=    0.0000
 XYZ=   -6.1950   -2.1004   -0.8908 Q=    0.0099 A=    0.0000 R=    0.0000 C=    0.0000
 XYZ=   -3.4460   -3.5042    2.9759 Q=    0.0099 A=    0.0000 R=    0.0000 C=    0.0000
 XYZ=   -0.8281   -3.9233   -1.2656 Q=    0.0099 A=    0.0000 R=    0.0000 C=    0.0000
 XYZ=    4.7232   -2.2534   -1.7957 Q=    0.0099 A=    0.0000 R=    0.0000 C=    0.0000
 XYZ=    3.8684   -0.7603   -2.3168 Q=    0.0099 A=    0.0000 R=    0.0000 C=    0.0000
 XYZ=    3.4460   -2.5377   -3.4261 Q=   -0.0198 A=    0.0000 R=    0.0000 C=    0.0000
 XYZ=   -4.5287   -2.1451   -2.2883 Q=    0.0099 A=    0.0000 R=    0.0000 C=    0.0000
 XYZ=   -3.4382   -0.7444   -3.1255 Q=   -0.0198 A=    0.0000 R=    0.0000 C=    0.0000
 XYZ=   -4.0113   -0.0472   -2.8065 Q=    0.0099 A=    0.0000 R=    0.0000 C=    0.0000
 XYZ=   -2.8260   -0.3013   -3.7128 Q=    0.0099 A=    0.0000 R=    0.0000 C=    0.0000
 XYZ=   -1.4179   -1.6308    3.6002 Q=   -0.0198 A=    0.0000 R=    0.0000 C=    0.0000
 XYZ=   -1.3152   -0.9929    2.8940 Q=    0.0099 A=    0.0000 R=    0.0000 C=    0.0000
 XYZ=   -0.7890   -2.7212   -2.6954 Q=   -0.0198 A=    0.0000 R=    0.0000 C=    0.0000
 XYZ=   -0.1955   -2.1936   -3.2298 Q=    0.0099 A=    0.0000 R=    0.0000 C=    0.0000
 XYZ=   -1.4792   -2.9923   -3.3005 Q=    0.0099 A=    0.0000 R=    0.0000 C=    0.0000
 XYZ=    1.6909   -4.1743    3.0347 Q=    0.0099 A=    0.0000 R=    0.0000 C=    0.0000
 XYZ=   -6.4841   -1.7127   -0.6054 Q=    0.0099 A=    0.0000 R=    0.0000 C=    0.0000
 XYZ=   -3.4629   -3.7752    2.6386 Q=   -0.0198 A=    0.0000 R=    0.0000 C=    0.0000
 XYZ=   -3.0041   -4.4438    2.1299 Q=    0.0099 A=    0.0000 R=    0.0000 C=    0.0000
 XYZ=   -2.7662   -3.2932    3.0841 Q=    0.0099 A=    0.0000 R=    0.0000 C=    0.0000
 XYZ=   -2.6600   -0.1344   -4.1341 Q=    0.0099 A=    0.0000 R=    0.0000 C=    0.0000
 XYZ=   -1.2514   -4.2948   -0.9707 Q=   -0.0198 A=    0.0000 R=    0.0000 C=    0.0000
 XYZ=   -1.0342   -3.4974   -1.4536 Q=    0.0099 A=    0.0000 R=    0.0000 C=    0.0000
 XYZ=    5.2705   -3.1720   -0.9839 Q=   -0.0198 A=    0.0000 R=    0.0000 C=    0.0000
 XYZ=    4.6544   -2.5249   -1.3272 Q=    0.0099 A=    0.0000 R=    0.0000 C=    0.0000
 XYZ=   -1.2091    1.7559   -4.1668 Q=    0.0099 A=    0.0000 R=    0.0000 C=    0.0000
 XYZ=    4.0261   -0.8125   -2.3673 Q=    0.0099 A=    0.0000 R=    0.0000 C=    0.0000
 XYZ=    3.2847   -2.6909   -3.1096 Q=   -0.0198 A=    0.0000 R=    0.0000 C=    0.0000
 XYZ=    2.5020   -2.4950   -3.6246 Q=    0.0099 A=    0.0000 R=    0.0000 C=    0.0000
 XYZ=   -4.1211   -2.5067   -2.3872 Q=    0.0099 A=    0.0000 R=    0.0000 C=    0.0000
 XYZ=   -3.1448   -0.7455   -3.5794 Q=   -0.0198 A=    0.0000 R=    0.0000 C=    0.0000
 XYZ=   -3.7065   -0.1871   -3.0419 Q=    0.0099 A=    0.0000 R=    0.0000 C=    0.0000
 XYZ=   -1.3243   -2.3132    3.1361 Q=   -0.0198 A=    0.0000 R=    0.0000 C=    0.0000
 XYZ=   -1.2927   -1.7797    3.9302 Q=    0.0099 A=    0.0000 R=    0.0000 C=    0.0000
 XYZ=   -1.0496   -1.7195    2.4375 Q=    0.0099 A=    0.0000 R=    0.0000 C=    0.0000
 XYZ=   -0.7570   -2.0834   -2.8651 Q=   -0.0198 A=    0.0000 R=    0.0000 C=    0.0000
 XYZ=   -0.1214   -1.8690   -3.5479 Q=    0.0099 A=    0.0000 R=    0.0000 C=    0.0000
 XYZ=   -1.5513   -1.6150   -3.1216 Q=    0.0099 A=    0.0000 R=    0.0000 C=    0.0000
 XYZ=    2.0888   -4.7418    2.5574 Q=   -0.0198 A=    0.0000 R=    0.0000 C=    0.0000
 XYZ=    1.8415   -3.9799    3.0814 Q=    0.0099 A=    0.0000 R=    0.0000 C=    0.0000
 XYZ=   -6.3099   -1.8151   -1.0443 Q=    0.0099 A=    0.0000 R=    0.0000 C=    0.0000
 XYZ=   -3.4689   -3.9606    2.7204 Q=   -0.0198 A=    0.0000 R=    0.0000 C=    0.0000
 XYZ=   -2.9672   -4.5459    2.1530 Q=    0.0099 A=    0.0000 R=    0.0000 C=    0.0000
 XYZ=   -2.9095   -3.1911    2.8254 Q=    0.0099 A=    0.0000 R=    0.0000 C=    0.0000
 XYZ=   -0.8963   -4.0929   -1.0598 Q=   -0.0198 A=    0.0000 R=    0.0000 C=    0.0000
 XYZ=   -0.5739   -3.4787   -1.7193 Q=    0.0099 A=    0.0000 R=    0.0000 C=    0.0000
 XYZ=    5.1986   -2.9731   -0.8828 Q=   -0.0198 A=    0.0000 R=    0.0000 C=    0.0000
 XYZ=    4.6777   -3.7759   -0.8674 Q=    0.0099 A=    0.0000 R=    0.0000 C=    0.0000
 XYZ=    4.7699   -2.4219   -1.5374 Q=    0.0099 A=    0.0000 R=    0.0000 C=    0.0000
 XYZ=   -4.5612   -3.9278    1.9489 Q=    0.0099 A=    0.0000 R=    0.0000 C=    0.0000
 XYZ=    3.5272   -2.0770   -3.0289 Q=   -0.0198 A=    0.0000 R=    0.0000 C=    0.0000
 XYZ=   -4.5799   -1.7785   -2.6089 Q=    0.0099 A=    0.0000 R=    0.0000 C=    0.0000
 XYZ=   -3.0129   -0.4389   -3.2318 Q=   -0.0198 A=    0.0000 R=    0.0000 C=    0.0000
 XYZ=   -3.7591    0.0614   -2.9015 Q=    0.0099 A=    0.0000 R=    0.0000 C=    0.0000
 XYZ=   -2.6669    0.0924   -3.9489 Q=    0.0099 A=    0.0000 R=    0.0000 C=    0.0000
 XYZ=   -1.0073   -1.8339    3.5031 Q=   -0.0198 A=    0.0000 R=    0.0000 C=    0.0000
 XYZ=   -1.0662   -1.2355    2.7584 Q=    0.0099 A=    0.0000 R=    0.0000 C=    0.0000
 XYZ=   -0.3091   -1.9992   -2.7597 Q=   -0.0198 A=    0.0000 R=    0.0000 C=    0.0000
 XYZ=   -0.3849   -1.0469   -2.8203 Q=    0.0099 A=    0.0000 R=    0.0000 C=    0.0000
 XYZ=    2.1844   -4.4635    2.4973 Q=   -0.0198 A=    0.0000 R=    0.0000 C=    0.0000
 XYZ=    2.2488   -3.6825    3.0469 Q=    0.0099 A=    0.0000 R=    0.0000 C=    0.0000
 XYZ=    0.6181    1.8828   -4.0943 Q=    0.0099 A=    0.0000 R=    0.0000 C=    0.0000
 XYZ=   -3.1091   -3.7153    2.8795 Q=   -0.0198 A=    0.0000 R=    0.0000 C=    0.0000
 XYZ=   -2.7662   -4.4126    2.3206 Q=    0.0099 A=    0.0000 R=    0.0000 C=    0.0000
 XYZ=   -2.3637   -3.1310    3.0181 Q=    0.0099 A=    0.0000 R=    0.0000 C=    0.0000
 XYZ=   -0.8158   -4.0005   -1.0670 Q=   -0.0198 A=    0.0000 R=    0.0000 C=    0.0000
 XYZ=   -0.4948   -3.4035   -1.7429 Q=    0.0099 A=    0.0000 R=    0.0000 C=    0.0000
 XYZ=    5.1031   -3.2123   -0.7213 Q=   -0.0198 A=    0.0000 R=    0.0000 C=    0.0000
 XYZ=    4.6205   -4.0106   -0.9359 Q=    0.0099 A=    0.0000 R=    0.0000 C=    0.0000
 XYZ=    4.6216   -2.5145   -1.1657 Q=    0.0099 A=    0.0000 R=    0.0000 C=    0.0000
 XYZ=   -4.6900   -3.7618    2.2061 Q=    0.0099 A=    0.0000 R=    0.0000 C=    0.0000
 XYZ=    3.5265   -1.6490   -2.9057 Q=   -0.0198 A=    0.0000 R=    0.0000 C=    0.0000
 XYZ=    2.6219   -1.7372   -2.6055 Q=    0.0099 A=    0.0000 R=    0.0000 C=    0.0000
 XYZ=   -3.5780   -0.3708   -3.4609 Q=   -0.0198 A=    0.0000 R=    0.0000 C=    0.0000
 XYZ=   -2.8802    0.1453   -3.8646 Q=    0.0099 A=    0.0000 R=    0.0000 C=    0.0000
 XYZ=   -1.0612   -1.6713    3.7661 Q=   -0.0198 A=    0.0000 R=    0.0000 C=    0.0000
 XYZ=   -1.0019   -1.3997    2.8502 Q=    0.0099 A=    0.0000 R=    0.0000 C=    0.0000
 XYZ=   -0.6362   -2.4400   -3.2769 Q=   -0.0198 A=    0.0000 R=    0.0000 C=    0.0000
 XYZ=   -1.1968   -1.7440   -3.6195 Q=    0.0099 A=    0.0000 R=    0.0000 C=    0.0000
 XYZ=    2.1941   -4.4379    2.6747 Q=   -0.0198 A=    0.0000 R=    0.0000 C=    0.0000
 XYZ=    2.2918   -3.8895    3.4532 Q=    0.0099 A=    0.0000 R=    0.0000 C=    0.0000
 XYZ=   -6.1334   -2.0863   -0.7730 Q=    0.0099 A=    0.0000 R=    0.0000 C=    0.0000
 XYZ=   -2.3577   -2.7891    3.5274 Q=    0.0099 A=    0.0000 R=    0.0000 C=    0.0000
 XYZ=   -4.5000   -3.3539   -2.1926 Q=    0.0099 A=    0.0000 R=    0.0000 C=    0.0000
 XYZ=   -3.0941   -0.3088   -3.8919 Q=    0.0099 A=    0.0000 R=    0.0000 C=    0.0000
 XYZ=   -1.2602   -4.2892   -0.7406 Q=   -0.0198 A=    0.0000 R=    0.0000 C=    0.0000
 XYZ=   -0.8634   -3.7283   -1.4071 Q=    0.0099 A=    0.0000 R=    0.0000 C=    0.0000
 XYZ=    5.1418   -2.8686   -1.3941 Q=   -0.0198 A=    0.0000 R=    0.0000 C=    0.0000
 XYZ=    4.9626   -3.7907   -1.2100 Q=    0.0099 A=    0.0000 R=    0.0000 C=    0.0000
 XYZ=    4.4410   -2.6026   -1.9894 Q=    0.0099 A=    0.0000 R=    0.0000 C=    0.0000
 XYZ=    3.2197   -5.1028   -1.0713 Q=   -0.0198 A=    0.0000 R=    0.0000 C=    0.0000
 XYZ=    2.3044   -5.3818   -1.0930 Q=    0.0099 A=    0.0000 R=    0.0000 C=    0.0000
 XYZ=    2.3920   -1.2945    3.5768 Q=    0.0099 A=    0.0000 R=    0.0000 C=    0.0000
 XYZ=   -5.3310   -3.1813    1.1229 Q=    0.0099 A=    0.0000 R=    0.0000 C=    0.0000
 XYZ=   -4.5647   -3.8980    2.2138 Q=    0.0099 A=    0.0000 R=    0.0000 C=    0.0000
 XYZ=    3.2842   -1.8257   -3.0522 Q=   -0.0198 A=    0.0000 R=    0.0000 C=    0.0000
 XYZ=    2.5905   -2.4788   -3.1439 Q=    0.0099 A=    0.0000 R=    0.0000 C=    0.0000
 XYZ=   -5.0565   -2.5995   -1.9993 Q=   -0.0198 A=    0.0000 R=    0.0000 C=    0.0000
 XYZ=   -4.5493   -1.8449   -2.2986 Q=    0.0099 A=    0.0000 R=    0.0000 C=    0.0000
 XYZ=   -3.7106   -0.7509   -3.3082 Q=   -0.0198 A=    0.0000 R=    0.0000 C=    0.0000
 XYZ=   -1.1477   -1.7784    3.5420 Q=   -0.0198 A=    0.0000 R=    0.0000 C=    0.0000
 XYZ=   -1.4504   -0.9979    4.0062 Q=    0.0099 A=    0.0000 R=    0.0000 C=    0.0000
 XYZ=   -1.1151   -1.5129    2.6229 Q=    0.0099 A=    0.0000 R=    0.0000 C=    0.0000
 XYZ=   -0.5802   -2.8659   -2.8569 Q=   -0.0198 A=    0.0000 R=    0.0000 C=    0.0000
 XYZ=   -1.4907   -2.7795   -3.1392 Q=    0.0099 A=    0.0000 R=    0.0000 C=    0.0000
 XYZ=    1.4311   -4.6258    2.0086 Q=   -0.0198 A=    0.0000 R=    0.0000 C=    0.0000
 XYZ=    1.3878   -3.8258    2.5324 Q=    0.0099 A=    0.0000 R=    0.0000 C=    0.0000
[...]
 Alpha virt. eigenvalues --    0.73892   0.74324   0.76354   0.76779   0.78161
 Alpha virt. eigenvalues --    0.79283   0.80566   0.81521   0.82654   0.84171
 Alpha virt. eigenvalues --    0.84370   0.88377   0.88800   0.91313   0.91783
 Alpha virt. eigenvalues --    0.93291   0.94450   0.95446   0.99047   0.99506
 Alpha virt. eigenvalues --    1.02416   1.03533   1.04717   1.05141   1.06300
 Alpha virt. eigenvalues --    1.08708   1.09284   1.09759   1.12653   1.14186
 Alpha virt. eigenvalues --    1.14492   1.16988   1.17496   1.17807   1.18474
 Alpha virt. eigenvalues --    1.19738   1.20842   1.21131   1.23122   1.23603
 Alpha virt. eigenvalues --    1.25106   1.26777   1.28098   1.28791   1.30843
 Alpha virt. eigenvalues --    1.32249   1.33699   1.34794   1.36648   1.37185
 Alpha virt. eigenvalues --    1.38507   1.38894   1.39656   1.41309   1.42852
 Alpha virt. eigenvalues --    1.45349   1.46265   1.48329   1.49421   1.50244
 Alpha virt. eigenvalues --    1.51138   1.52050   1.52699   1.53606   1.54445
 Alpha virt. eigenvalues --    1.56832   1.57490   1.58521   1.60107   1.60902
 Alpha virt. eigenvalues --    1.63672   1.64384   1.65247   1.66171   1.67308
 Alpha virt. eigenvalues --    1.69030   1.71577   1.72344   1.74442   1.76404
 Alpha virt. eigenvalues --    1.77262   1.78499   1.80505   1.84664   1.85437
 Alpha virt. eigenvalues --    1.87144   1.88697   1.92065   1.94862   1.98423
 Alpha virt. eigenvalues --    2.00375   2.04139   2.06920   2.09962   2.11772
 Alpha virt. eigenvalues --    2.14152   2.16254   2.19712   2.25266   2.30702
 Alpha virt. eigenvalues --    2.32816   2.40910   2.42300   2.44096   2.46460
 Alpha virt. eigenvalues --    2.50258   2.50491   2.55208   2.56662   2.57684
 Alpha virt. eigenvalues --    2.60411   2.63606   2.65729   2.67822   2.70727
 Alpha virt. eigenvalues --    2.72102   2.74342   2.76441   2.80392   2.82138
 Alpha virt. eigenvalues --    2.84281   2.86117   2.86789   2.88126   2.89836
 Alpha virt. eigenvalues --    2.90827   2.91652   2.93070   2.96032   2.99676
 Alpha virt. eigenvalues --    3.00481   3.02400   3.03308   3.04502   3.06044
 Alpha virt. eigenvalues --    3.06604   3.09150   3.09351   3.10059   3.11150
 Alpha virt. eigenvalues --    3.11785   3.13412   3.14981   3.15343   3.16828
 Alpha virt. eigenvalues --    3.18045   3.19285   3.20774   3.23143   3.24174
 Alpha virt. eigenvalues --    3.25196   3.26052   3.27162   3.29576   3.30151
 Alpha virt. eigenvalues --    3.31264   3.31601   3.32668   3.33151   3.35028
 Alpha virt. eigenvalues --    3.35842   3.37437   3.38839   3.39428   3.41022
 Alpha virt. eigenvalues --    3.43090   3.44159   3.45699   3.46414   3.47813
 Alpha virt. eigenvalues --    3.49617   3.50197   3.51606   3.53015   3.55190
 Alpha virt. eigenvalues --    3.56735   3.57504   3.58340   3.59325   3.59570
 Alpha virt. eigenvalues --    3.61126   3.62477   3.63520   3.64572   3.65704
 Alpha virt. eigenvalues --    3.67039   3.69208   3.69353   3.71391   3.71687
 Alpha virt. eigenvalues --    3.72603   3.74127   3.76304   3.76563   3.77265
 Alpha virt. eigenvalues --    3.78318   3.79398   3.81650   3.82437   3.83914
 Alpha virt. eigenvalues --    3.84690   3.86701   3.87853   3.89209   3.90795
 Alpha virt. eigenvalues --    3.91671   3.96211   3.97154   3.98086   3.99044
 Alpha virt. eigenvalues --    4.00215   4.02639   4.03407   4.04911   4.06410
 Alpha virt. eigenvalues --    4.08906   4.10142   4.11191   4.13268   4.13905
 Alpha virt. eigenvalues --    4.15241   4.17178   4.19177   4.19353   4.21033
 Alpha virt. eigenvalues --    4.22361   4.22880   4.23706   4.24697   4.26587
 Alpha virt. eigenvalues --    4.29009   4.29489   4.31039   4.31835   4.32912
 Alpha virt. eigenvalues --    4.34011   4.35003   4.36382   4.36423   4.38045
 Alpha virt. eigenvalues --    4.40011   4.40954   4.42959   4.44008   4.45928
 Alpha virt. eigenvalues --    4.47584   4.48170   4.50104   4.50465   4.51604
 Alpha virt. eigenvalues --    4.54653   4.55374   4.57016   4.60212   4.60748
 Alpha virt. eigenvalues --    4.62517   4.63672   4.64862   4.67197   4.68668
 Alpha virt. eigenvalues --    4.69460   4.71122   4.73013   4.75773   4.77201
 Alpha virt. eigenvalues --    4.78659   4.81026   4.85980   4.88645   4.91245
 Alpha virt. eigenvalues --    4.93601   4.95710   4.97778   5.02303   5.04607
 Alpha virt. eigenvalues --    5.05358   5.07416   5.10822   5.13127   5.14518
 Alpha virt. eigenvalues --    5.15912   5.17315   5.19985   5.20455   5.23273
 Alpha virt. eigenvalues --    5.26039   5.27997   5.28899   5.32027   5.34798
 Alpha virt. eigenvalues --    5.35752   5.36766   5.38904   5.40449   5.41795
 Alpha virt. eigenvalues --    5.44091   5.46875   5.48902   5.51062   5.52603
 Alpha virt. eigenvalues --    5.54461   5.55466   5.56398   5.56913   5.57428
 Alpha virt. eigenvalues --    5.58571   5.59811   5.60619   5.62435   5.63633
 Alpha virt. eigenvalues --    5.64787   5.65725   5.66960   5.68777   5.70354
 Alpha virt. eigenvalues --    5.70813   5.75466   5.75889   5.77571   5.79189
 Alpha virt. eigenvalues --    5.81110   5.83710   5.85049   5.85793   5.93190
 Alpha virt. eigenvalues --    5.97417   5.99470   6.01993   6.03411   6.07796
 Alpha virt. eigenvalues --    6.09010   6.11616   6.13328   6.18078   6.19157
 Alpha virt. eigenvalues --    6.23982   6.25488   6.27562   6.29301   6.35178
 Alpha virt. eigenvalues --    6.37598   6.41881   6.43376   6.46764   6.50052
 Alpha virt. eigenvalues --    6.53739   6.66063   6.69513   6.75023   6.82134
 Alpha virt. eigenvalues --    6.89515   6.92449   6.96505   6.97167   7.05357
 Alpha virt. eigenvalues --    7.06496   7.27018   7.33093   7.33986   7.37227
 Alpha virt. eigenvalues --    7.55030   7.57096   7.58899   7.59755  10.02076
 Alpha virt. eigenvalues --   10.53841  12.73040  13.23138  13.39741  13.79121
 Alpha virt. eigenvalues --   14.04638  14.22585  14.25054  14.54842
          Condensed to atoms (all electrons):
              1          2          3          4          5          6
     1  H    0.568923   0.376700  -0.021885  -0.021603  -0.050058   0.007085
     2  C    0.376700   5.092284   0.372276   0.375328   0.311099  -0.068884
     3  H   -0.021885   0.372276   0.539037  -0.019122  -0.032268   0.001470
     4  H   -0.021603   0.375328  -0.019122   0.547681  -0.047826   0.001716
     5  C   -0.050058   0.311099  -0.032268  -0.047826   4.781738   0.642779
     6  O    0.007085  -0.068884   0.001470   0.001716   0.642779   7.996242
     7  N    0.007882  -0.086418   0.002448   0.013426   0.265389  -0.147455
     8  H   -0.000104  -0.001925  -0.000194  -0.001803  -0.006336   0.003996
     9  C   -0.000210   0.001280  -0.000051   0.000972  -0.075546  -0.005274
    10  H    0.000022  -0.000227   0.000022  -0.000036   0.006693   0.000071
    11  C   -0.000022  -0.000975  -0.000004   0.000109  -0.014662  -0.010930
    12  H    0.000009  -0.000067   0.000029  -0.000019  -0.000295  -0.000928
    13  H   -0.000004   0.000727  -0.000165  -0.000043   0.001609   0.020247
    14  H   -0.000002   0.000017  -0.000003  -0.000003   0.000500   0.000250
    15  C   -0.000150   0.001717  -0.000062  -0.000632   0.003814   0.023836
    16  O    0.000001  -0.000012   0.000000   0.000004  -0.000487  -0.001051
    17  N    0.000084   0.000244   0.000023   0.000245   0.010024  -0.012546
    18  H    0.000052  -0.001970   0.000098   0.000746  -0.000865  -0.003299
    19  C    0.000002   0.000133   0.000001   0.000016  -0.000416  -0.000160
    20  H    0.000001   0.000006   0.000000  -0.000002   0.000038   0.000017
    21  H    0.000012  -0.000017   0.000003  -0.000106  -0.000356   0.002632
    22  H    0.000002   0.000000   0.000000   0.000017   0.000129  -0.000035
              7          8          9         10         11         12
     1  H    0.007882  -0.000104  -0.000210   0.000022  -0.000022   0.000009
     2  C   -0.086418  -0.001925   0.001280  -0.000227  -0.000975  -0.000067
     3  H    0.002448  -0.000194  -0.000051   0.000022  -0.000004   0.000029
     4  H    0.013426  -0.001803   0.000972  -0.000036   0.000109  -0.000019
     5  C    0.265389  -0.006336  -0.075546   0.006693  -0.014662  -0.000295
     6  O   -0.147455   0.003996  -0.005274   0.000071  -0.010930  -0.000928
     7  N    6.648994   0.324293   0.235672  -0.017592  -0.061311   0.004014
     8  H    0.324293   0.465165  -0.018170  -0.005900   0.000481   0.000346
     9  C    0.235672  -0.018170   5.451928   0.346650   0.275705  -0.042703
    10  H   -0.017592  -0.005900   0.346650   0.549218  -0.042507  -0.003363
    11  C   -0.061311   0.000481   0.275705  -0.042507   5.211844   0.370456
    12  H    0.004014   0.000346  -0.042703  -0.003363   0.370456   0.586413
    13  H   -0.006088  -0.000334  -0.053017   0.006310   0.373499  -0.023061
    14  H    0.006217  -0.000171  -0.022576  -0.003652   0.360868  -0.033885
    15  C   -0.022166   0.001602   0.128911  -0.006851  -0.075655   0.009608
    16  O    0.004542  -0.000181  -0.124397  -0.000164   0.011181   0.000934
    17  N   -0.004196  -0.000292  -0.092134  -0.001777   0.004768  -0.000157
    18  H    0.012097  -0.000210  -0.002728   0.000119   0.000933  -0.000081
    19  C   -0.001203   0.000070   0.009750  -0.000150  -0.000683   0.000020
    20  H   -0.000215   0.000008   0.002553  -0.000017  -0.000197   0.000000
    21  H   -0.000294  -0.000006  -0.000280  -0.000027   0.000158   0.000002
    22  H    0.000045   0.000000  -0.000341   0.000036  -0.000007  -0.000001
             13         14         15         16         17         18
     1  H   -0.000004  -0.000002  -0.000150   0.000001   0.000084   0.000052
     2  C    0.000727   0.000017   0.001717  -0.000012   0.000244  -0.001970
     3  H   -0.000165  -0.000003  -0.000062   0.000000   0.000023   0.000098
     4  H   -0.000043  -0.000003  -0.000632   0.000004   0.000245   0.000746
     5  C    0.001609   0.000500   0.003814  -0.000487   0.010024  -0.000865
     6  O    0.020247   0.000250   0.023836  -0.001051  -0.012546  -0.003299
     7  N   -0.006088   0.006217  -0.022166   0.004542  -0.004196   0.012097
     8  H   -0.000334  -0.000171   0.001602  -0.000181  -0.000292  -0.000210
     9  C   -0.053017  -0.022576   0.128911  -0.124397  -0.092134  -0.002728
    10  H    0.006310  -0.003652  -0.006851  -0.000164  -0.001777   0.000119
    11  C    0.373499   0.360868  -0.075655   0.011181   0.004768   0.000933
    12  H   -0.023061  -0.033885   0.009608   0.000934  -0.000157  -0.000081
    13  H    0.564135  -0.022035   0.001916   0.002987  -0.000642  -0.000028
    14  H   -0.022035   0.567379  -0.000001   0.006086   0.000522  -0.000091
    15  C    0.001916  -0.000001   4.758762   0.739748   0.348423  -0.026626
    16  O    0.002987   0.006086   0.739748   7.909369  -0.133742   0.004039
    17  N   -0.000642   0.000522   0.348423  -0.133742   6.534059   0.345357
    18  H   -0.000028  -0.000091  -0.026626   0.004039   0.345357   0.485117
    19  C   -0.000024  -0.000019  -0.047044  -0.003067   0.257293  -0.034335
    20  H   -0.000028  -0.000008  -0.007691   0.015419  -0.029013   0.005050
    21  H    0.000024   0.000000   0.006492   0.000790  -0.049824  -0.003014
    22  H    0.000001   0.000000   0.001382   0.000046  -0.035166  -0.006142
             19         20         21         22
     1  H    0.000002   0.000001   0.000012   0.000002
     2  C    0.000133   0.000006  -0.000017   0.000000
     3  H    0.000001   0.000000   0.000003   0.000000
     4  H    0.000016  -0.000002  -0.000106   0.000017
     5  C   -0.000416   0.000038  -0.000356   0.000129
     6  O   -0.000160   0.000017   0.002632  -0.000035
     7  N   -0.001203  -0.000215  -0.000294   0.000045
     8  H    0.000070   0.000008  -0.000006   0.000000
     9  C    0.009750   0.002553  -0.000280  -0.000341
    10  H   -0.000150  -0.000017  -0.000027   0.000036
    11  C   -0.000683  -0.000197   0.000158  -0.000007
    12  H    0.000020   0.000000   0.000002  -0.000001
    13  H   -0.000024  -0.000028   0.000024   0.000001
    14  H   -0.000019  -0.000008   0.000000   0.000000
    15  C   -0.047044  -0.007691   0.006492   0.001382
    16  O   -0.003067   0.015419   0.000790   0.000046
    17  N    0.257293  -0.029013  -0.049824  -0.035166
    18  H   -0.034335   0.005050  -0.003014  -0.006142
    19  C    4.948243   0.378080   0.378016   0.400651
    20  H    0.378080   0.556925  -0.039594  -0.023314
    21  H    0.378016  -0.039594   0.603220  -0.028873
    22  H    0.400651  -0.023314  -0.028873   0.542056
 Mulliken atomic charges:
              1
     1  H    0.133265
     2  C   -0.371315
     3  H    0.158348
     4  H    0.150936
     5  C    0.205304
     6  O   -0.449777
     7  N   -0.178080
     8  H    0.239666
     9  C   -0.015993
    10  H    0.173123
    11  C   -0.403048
    12  H    0.132729
    13  H    0.134016
    14  H    0.140607
    15  C    0.160666
    16  O   -0.432042
    17  N   -0.141551
    18  H    0.225782
    19  C   -0.285175
    20  H    0.141982
    21  H    0.131042
    22  H    0.149513
 Sum of Mulliken atomic charges =   0.00000
 Mulliken charges with hydrogens summed into heavy atoms:
              1
     2  C    0.071234
     5  C    0.205304
     6  O   -0.449777
     7  N    0.061586
     9  C    0.157130
    11  C    0.004304
    15  C    0.160666
    16  O   -0.432042
    17  N    0.084231
    19  C    0.137362
 Sum of Mulliken charges with hydrogens summed into heavy atoms =   0.00000
 Electronic spatial extent (au):  <R**2>=           1569.2264
 Charge=              0.0000 electrons
 Dipole moment (field-independent basis, Debye):
    X=             -5.0405    Y=             -2.5940    Z=             -6.4963  Tot=              8.6219
 Quadrupole moment (field-independent basis, Debye-Ang):
   XX=            -60.6659   YY=            -53.8908   ZZ=            -64.1037
   XY=             -7.8197   XZ=              3.8749   YZ=             -1.8130
 Traceless Quadrupole moment (field-independent basis, Debye-Ang):
   XX=             -1.1125   YY=              5.6627   ZZ=             -4.5502
   XY=             -7.8197   XZ=              3.8749   YZ=             -1.8130
 Octapole moment (field-independent basis, Debye-Ang**2):
  XXX=            -42.9406  YYY=            -10.8829  ZZZ=            -13.4494  XYY=             -0.1643
  XXY=            -21.4782  XXZ=            -15.0523  XZZ=             -0.3165  YZZ=              2.8180
  YYZ=             -7.4336  XYZ=             -2.8370
 Hexadecapole moment (field-independent basis, Debye-Ang**3):
 XXXX=          -1078.2885 YYYY=           -699.5550 ZZZZ=           -220.8205 XXXY=            -43.5412
 XXXZ=              7.7813 YYYX=            -16.2728 YYYZ=             -0.0403 ZZZX=             20.0290
 ZZZY=             -4.9693 XXYY=           -295.4195 XXZZ=           -223.2172 YYZZ=           -151.8508
 XXYZ=            -13.4627 YYXZ=             -2.6427 ZZXY=             -7.6002
 N-N= 5.757859149222D+02 E-N=-2.305713389855D+03  KE= 4.946165910255D+02
 Merz-Kollman atomic radii used.

 **********************************************************************

          Electrostatic Properties Using The MP2 Density

 **********************************************************************

       Atomic Center    1 is at  -2.869643 -1.950422  0.697318
       Atomic Center    2 is at  -2.779644 -1.235626 -0.120647
       Atomic Center    3 is at  -3.730524 -0.707341 -0.190246
       Atomic Center    4 is at  -2.496817 -1.783828 -1.019304
       Atomic Center    5 is at  -1.665268 -0.316530  0.210166
       Atomic Center    6 is at  -1.156099 -0.329656  1.338309
       Atomic Center    7 is at  -1.137248  0.401488 -0.807226
       Atomic Center    8 is at  -1.809981  0.655257 -1.516544
       Atomic Center    9 is at   0.110137  1.127592 -0.641933
       Atomic Center   10 is at   0.373059  1.560483 -1.607116
       Atomic Center   11 is at  -0.131908  2.373545  0.224265
       Atomic Center   12 is at  -1.014949  2.908307 -0.125547
       Atomic Center   13 is at  -0.354636  2.001240  1.224206
       Atomic Center   14 is at   0.604061  3.177054  0.252945
       Atomic Center   15 is at   1.308751  0.351891 -0.166208
       Atomic Center   16 is at   2.208370  0.896428  0.464224
       Atomic Center   17 is at   1.274427 -0.975149 -0.483160
       Atomic Center   18 is at   0.389953 -1.415290 -0.693117
       Atomic Center   19 is at   2.206029 -1.998196  0.011272
       Atomic Center   20 is at   3.162333 -1.618698  0.371223
       Atomic Center   21 is at   1.755244 -2.430861  0.904409
       Atomic Center   22 is at   2.324903 -2.730510 -0.787281
     960 points will be used for fitting atomic charges
 Fitting point charges to electrostatic potential
 Charges from ESP fit, RMS=   0.00211 RRMS=   0.06248:
 Charge=   0.00000 Dipole=    -5.0361    -2.6027    -6.4416 Tot=     8.5808
              1
     1  H    0.153860
     2  C   -0.615860
     3  H    0.186391
     4  H    0.186259
     5  C    0.834263
     6  O   -0.654242
     7  N   -0.852258
     8  H    0.476693
     9  C    0.124722
    10  H    0.107520
    11  C   -0.197166
    12  H    0.098997
    13  H    0.077991
    14  H    0.038315
    15  C    0.578461
    16  O   -0.617987
    17  N   -0.520780
    18  H    0.392302
    19  C   -0.069056
    20  H    0.097831
    21  H    0.086732
    22  H    0.087010
 -----------------------------------------------------------------

              Electrostatic Properties (Atomic Units)

 -----------------------------------------------------------------
    Center     Electric         -------- Electric Field --------
               Potential          X             Y             Z
 -----------------------------------------------------------------
    1 Atom     -1.090408
    2 Atom    -14.738066
    3 Atom     -1.055745
    4 Atom     -1.051897
    5 Atom    -14.644021
    6 Atom    -22.409353
    7 Atom    -18.310568
    8 Atom     -0.942130
    9 Atom    -14.698368
   10 Atom     -1.070784
   11 Atom    -14.783606
   12 Atom     -1.108512
   13 Atom     -1.147230
   14 Atom     -1.129430
   15 Atom    -14.671594
   16 Atom    -22.430783
   17 Atom    -18.344729
   18 Atom     -0.988467
   19 Atom    -14.728427
   20 Atom     -1.110318
   21 Atom     -1.107186
   22 Atom     -1.083785
 -----------------------------------------------------------------

 Test job not archived.
 1\1\GINC-NODE002\SP\RMP2-FC\CC-pVTZ\C6H12N2O2\STEBOSS\16-Mar-2017\0\\#
 MP2/cc-pvTZ density=MP2, charge, maxdisk=16GB, pop=(minimal, MK), 5d, 
 punch=mo\\Generated by mdgx\\0,1\H,0,-2.8696426,-1.9504221,0.697318\C,
 0,-2.7796444,-1.2356257,-0.1206475\H,0,-3.7305239,-0.7073412,-0.190245
 9\H,0,-2.4968175,-1.7838282,-1.0193036\C,0,-1.6652684,-0.3165296,0.210
 166\O,0,-1.1560994,-0.329656,1.338309\N,0,-1.137248,0.4014883,-0.80722
 63\H,0,-1.8099815,0.6552569,-1.5165437\C,0,0.1101369,1.1275917,-0.6419
 333\H,0,0.373059,1.5604833,-1.6071156\C,0,-0.1319083,2.373545,0.224265
 2\H,0,-1.0149489,2.9083075,-0.1255466\H,0,-0.3546358,2.0012401,1.22420
 6\H,0,0.6040611,3.177054,0.2529449\C,0,1.3087512,0.351891,-0.1662078\O
 ,0,2.20837,0.8964281,0.4642243\N,0,1.274427,-0.9751485,-0.4831599\H,0,
 0.3899534,-1.4152898,-0.6931174\C,0,2.2060292,-1.9981964,0.0112715\H,0
 ,3.1623325,-1.6186981,0.3712228\H,0,1.7552436,-2.4308612,0.9044085\H,0
 ,2.3249027,-2.7305102,-0.7872806\\Version=EM64L-G09RevA.02\State=1-A\H
 F=-492.487262\MP2=-494.3698026\RMSD=4.715e-09\Dipole=-1.9830677,-1.020
 5778,-2.5558505\Quadrupole=-0.8270926,4.2100702,-3.3829776,-5.8137429,
 2.8808915,-1.3479186\PG=C01 [X(C6H12N2O2)]\\@


 SLITHERY-DITHERY
 FRIEDRICH A. KEKULE
 DREAMT ON A BUS OF THINGS
 FREUD WOULD THINK KEEN.
 MOST OF THE TIME THEY WERE
 HERPETOLOGICAL
 BITING THEIR TAILS IN THE
 SHAPE OF BENZENE.
 Job cpu time:  1 days  3 hours 39 minutes 22.3 seconds.
 File lengths (MBytes):  RWF=  13701 Int=      0 D2E=      0 Chk=     15 Scr=      1
 Normal termination of Gaussian 09 at Thu Mar 16 18:44:50 2017.
