 Entering Gaussian System, Link 0=g09
 Initial command:
 /home/steboss/Software/g09/l1.exe /home/steboss/projects/phi_psi_scan/alanine/240/4399/Gau-23166.inp -scrdir=/home/steboss/projects/phi_psi_scan/alanine/240/4399/
 Entering Link 1 = /home/steboss/Software/g09/l1.exe PID=     23168.
  
 Copyright (c) 1988,1990,1992,1993,1995,1998,2003,2009, Gaussian, Inc.
                  All Rights Reserved.
  
 This is part of the Gaussian(R) 09 program.  It is based on
 the Gaussian(R) 03 system (copyright 2003, Gaussian, Inc.),
 the Gaussian(R) 98 system (copyright 1998, Gaussian, Inc.),
 the Gaussian(R) 94 system (copyright 1995, Gaussian, Inc.),
 the Gaussian 92(TM) system (copyright 1992, Gaussian, Inc.),
 the Gaussian 90(TM) system (copyright 1990, Gaussian, Inc.),
 the Gaussian 88(TM) system (copyright 1988, Gaussian, Inc.),
 the Gaussian 86(TM) system (copyright 1986, Carnegie Mellon
 University), and the Gaussian 82(TM) system (copyright 1983,
 Carnegie Mellon University). Gaussian is a federally registered
 trademark of Gaussian, Inc.
  
 This software contains proprietary and confidential information,
 including trade secrets, belonging to Gaussian, Inc.
  
 This software is provided under written license and may be
 used, copied, transmitted, or stored only in accord with that
 written license.
  
 The following legend is applicable only to US Government
 contracts under FAR:
  
                    RESTRICTED RIGHTS LEGEND
  
 Use, reproduction and disclosure by the US Government is
 subject to restrictions as set forth in subparagraphs (a)
 and (c) of the Commercial Computer Software - Restricted
 Rights clause in FAR 52.227-19.
  
 Gaussian, Inc.
 340 Quinnipiac St., Bldg. 40, Wallingford CT 06492
  
  
 ---------------------------------------------------------------
 Warning -- This program may not be used in any manner that
 competes with the business of Gaussian, Inc. or will provide
 assistance to any competitor of Gaussian, Inc.  The licensee
 of this program is prohibited from giving any competitor of
 Gaussian, Inc. access to this program.  By using this program,
 the user acknowledges that Gaussian, Inc. is engaged in the
 business of creating and licensing software in the field of
 computational chemistry and represents and warrants to the
 licensee that it is not a competitor of Gaussian, Inc. and that
 it will not use this program in any manner prohibited above.
 ---------------------------------------------------------------
  

 Cite this work as:
 Gaussian 09, Revision A.02,
 M. J. Frisch, G. W. Trucks, H. B. Schlegel, G. E. Scuseria, 
 M. A. Robb, J. R. Cheeseman, G. Scalmani, V. Barone, B. Mennucci, 
 G. A. Petersson, H. Nakatsuji, M. Caricato, X. Li, H. P. Hratchian, 
 A. F. Izmaylov, J. Bloino, G. Zheng, J. L. Sonnenberg, M. Hada, 
 M. Ehara, K. Toyota, R. Fukuda, J. Hasegawa, M. Ishida, T. Nakajima, 
 Y. Honda, O. Kitao, H. Nakai, T. Vreven, J. A. Montgomery, Jr., 
 J. E. Peralta, F. Ogliaro, M. Bearpark, J. J. Heyd, E. Brothers, 
 K. N. Kudin, V. N. Staroverov, R. Kobayashi, J. Normand, 
 K. Raghavachari, A. Rendell, J. C. Burant, S. S. Iyengar, J. Tomasi, 
 M. Cossi, N. Rega, J. M. Millam, M. Klene, J. E. Knox, J. B. Cross, 
 V. Bakken, C. Adamo, J. Jaramillo, R. Gomperts, R. E. Stratmann, 
 O. Yazyev, A. J. Austin, R. Cammi, C. Pomelli, J. W. Ochterski, 
 R. L. Martin, K. Morokuma, V. G. Zakrzewski, G. A. Voth, 
 P. Salvador, J. J. Dannenberg, S. Dapprich, A. D. Daniels, 
 O. Farkas, J. B. Foresman, J. V. Ortiz, J. Cioslowski, 
 and D. J. Fox, Gaussian, Inc., Wallingford CT, 2009.
 
 ******************************************
 Gaussian 09:  EM64L-G09RevA.02 11-Jun-2009
                10-Feb-2017 
 ******************************************
 %chk=structure_195.chk
 %NProcShared=8
 Will use up to    8 processors via shared memory.
 ----------------------------------------------------------------------
 # b3lyp/6-31G* Opt=(ModRedundant, maxcycles=1000, calcfc) geom=nocrowd
 ----------------------------------------------------------------------
 1/6=1000,10=4,14=-1,18=120,19=15,26=3,38=1/1,3;
 2/9=110,12=1,17=6,18=5,40=1/2;
 3/5=1,6=6,7=1,11=2,16=1,25=1,30=1,71=2,74=-5/1,2,3;
 4//1;
 5/5=2,38=5/2;
 8/6=4,10=90,11=11/1;
 11/6=1,8=1,9=11,15=111,16=1/1,2,10;
 10/6=1,7=6,13=1/2;
 6/7=2,8=2,9=2,10=2,28=1/1;
 7/10=1,18=20,25=1/1,2,3,16;
 1/6=1000,10=4,14=-1,18=20,19=15/3(2);
 2/9=110,12=1/2;
 99//99;
 2/9=110,12=1/2;
 3/5=1,6=6,7=1,11=2,16=1,25=1,30=1,71=1,74=-5/1,2,3;
 4/5=5,16=3/1;
 5/5=2,38=5/2;
 7//1,2,3,16;
 1/6=1000,14=-1,18=20,19=15/3(-5);
 2/9=110,12=1/2;
 6/7=2,8=2,9=2,10=2,19=2,28=1/1;
 99/9=1/99;
 ------------------
 Phi Psi fixed scan
 ------------------
 Symbolic Z-matrix:
 Charge =  0 Multiplicity = 1
 H                     1.5624    1.8816    1.7047 
 C                     1.7794    2.5343    0.8591 
 H                     1.0463    3.3401    0.824 
 H                     1.7316    1.9596   -0.0658 
 C                     3.1755    3.1484    0.9815 
 O                     3.8914    2.883     1.9446 
 N                     3.5554    3.9697    0. 
 H                     2.9312    4.1571   -0.7716 
 C                     4.8533    4.6139    0. 
 H                     5.4076    4.3155    0.8898 
 C                     5.6613    4.2208   -1.2322 
 H                     5.1233    4.5214   -2.1312 
 H                     6.6305    4.7189   -1.2058 
 H                     5.8085    3.1409   -1.2414 
 C                     4.7127    6.1294    0. 
 O                     3.6366    6.656     0.2741 
 N                     5.8056    6.8311   -0.3089 
 H                     6.6679    6.3528   -0.5272 
 C                     5.801     8.2797   -0.3436 
 H                     4.8071    8.6467   -0.0875 
 H                     6.5256    8.6631    0.3748 
 H                     6.0669    8.6206   -1.3442 
 
 The following ModRedundant input section has been read:
 D    5    7    9   15 F                                                       
 D    7    9   15   17 F                                                       

 GradGradGradGradGradGradGradGradGradGradGradGradGradGradGradGradGradGrad
 Berny optimization.
 Initialization pass.
                           ----------------------------
                           !    Initial Parameters    !
                           ! (Angstroms and Degrees)  !
 --------------------------                            --------------------------
 ! Name  Definition              Value          Derivative Info.                !
 --------------------------------------------------------------------------------
 ! R1    R(1,2)                  1.09           calculate D2E/DX2 analytically  !
 ! R2    R(2,3)                  1.0899         calculate D2E/DX2 analytically  !
 ! R3    R(2,4)                  1.09           calculate D2E/DX2 analytically  !
 ! R4    R(2,5)                  1.5301         calculate D2E/DX2 analytically  !
 ! R5    R(5,6)                  1.229          calculate D2E/DX2 analytically  !
 ! R6    R(5,7)                  1.335          calculate D2E/DX2 analytically  !
 ! R7    R(7,8)                  1.01           calculate D2E/DX2 analytically  !
 ! R8    R(7,9)                  1.449          calculate D2E/DX2 analytically  !
 ! R9    R(9,10)                 1.09           calculate D2E/DX2 analytically  !
 ! R10   R(9,11)                 1.525          calculate D2E/DX2 analytically  !
 ! R11   R(9,15)                 1.522          calculate D2E/DX2 analytically  !
 ! R12   R(11,12)                1.09           calculate D2E/DX2 analytically  !
 ! R13   R(11,13)                1.09           calculate D2E/DX2 analytically  !
 ! R14   R(11,14)                1.0899         calculate D2E/DX2 analytically  !
 ! R15   R(15,16)                1.229          calculate D2E/DX2 analytically  !
 ! R16   R(15,17)                1.335          calculate D2E/DX2 analytically  !
 ! R17   R(17,18)                1.0099         calculate D2E/DX2 analytically  !
 ! R18   R(17,19)                1.449          calculate D2E/DX2 analytically  !
 ! R19   R(19,20)                1.09           calculate D2E/DX2 analytically  !
 ! R20   R(19,21)                1.09           calculate D2E/DX2 analytically  !
 ! R21   R(19,22)                1.09           calculate D2E/DX2 analytically  !
 ! A1    A(1,2,3)              109.4979         calculate D2E/DX2 analytically  !
 ! A2    A(1,2,4)              109.5015         calculate D2E/DX2 analytically  !
 ! A3    A(1,2,5)              111.0948         calculate D2E/DX2 analytically  !
 ! A4    A(3,2,4)              109.4502         calculate D2E/DX2 analytically  !
 ! A5    A(3,2,5)              108.6362         calculate D2E/DX2 analytically  !
 ! A6    A(4,2,5)              108.6335         calculate D2E/DX2 analytically  !
 ! A7    A(2,5,6)              120.4974         calculate D2E/DX2 analytically  !
 ! A8    A(2,5,7)              116.5994         calculate D2E/DX2 analytically  !
 ! A9    A(6,5,7)              122.9032         calculate D2E/DX2 analytically  !
 ! A10   A(5,7,8)              119.9965         calculate D2E/DX2 analytically  !
 ! A11   A(5,7,9)              121.8985         calculate D2E/DX2 analytically  !
 ! A12   A(8,7,9)              118.105          calculate D2E/DX2 analytically  !
 ! A13   A(7,9,10)             109.5            calculate D2E/DX2 analytically  !
 ! A14   A(7,9,11)             111.0992         calculate D2E/DX2 analytically  !
 ! A15   A(7,9,15)             111.0966         calculate D2E/DX2 analytically  !
 ! A16   A(10,9,11)            108.6382         calculate D2E/DX2 analytically  !
 ! A17   A(10,9,15)            108.6373         calculate D2E/DX2 analytically  !
 ! A18   A(11,9,15)            107.7947         calculate D2E/DX2 analytically  !
 ! A19   A(9,11,12)            109.5007         calculate D2E/DX2 analytically  !
 ! A20   A(9,11,13)            109.4959         calculate D2E/DX2 analytically  !
 ! A21   A(9,11,14)            109.4978         calculate D2E/DX2 analytically  !
 ! A22   A(12,11,13)           109.441          calculate D2E/DX2 analytically  !
 ! A23   A(12,11,14)           109.4482         calculate D2E/DX2 analytically  !
 ! A24   A(13,11,14)           109.4436         calculate D2E/DX2 analytically  !
 ! A25   A(9,15,16)            120.4997         calculate D2E/DX2 analytically  !
 ! A26   A(9,15,17)            116.599          calculate D2E/DX2 analytically  !
 ! A27   A(16,15,17)           122.9013         calculate D2E/DX2 analytically  !
 ! A28   A(15,17,18)           120.0038         calculate D2E/DX2 analytically  !
 ! A29   A(15,17,19)           121.8978         calculate D2E/DX2 analytically  !
 ! A30   A(18,17,19)           118.0984         calculate D2E/DX2 analytically  !
 ! A31   A(17,19,20)           109.5036         calculate D2E/DX2 analytically  !
 ! A32   A(17,19,21)           109.496          calculate D2E/DX2 analytically  !
 ! A33   A(17,19,22)           109.5037         calculate D2E/DX2 analytically  !
 ! A34   A(20,19,21)           109.443          calculate D2E/DX2 analytically  !
 ! A35   A(20,19,22)           109.4397         calculate D2E/DX2 analytically  !
 ! A36   A(21,19,22)           109.4414         calculate D2E/DX2 analytically  !
 ! D1    D(1,2,5,6)              0.0016         calculate D2E/DX2 analytically  !
 ! D2    D(1,2,5,7)           -179.9943         calculate D2E/DX2 analytically  !
 ! D3    D(3,2,5,6)            120.5083         calculate D2E/DX2 analytically  !
 ! D4    D(3,2,5,7)            -59.4876         calculate D2E/DX2 analytically  !
 ! D5    D(4,2,5,6)           -120.5076         calculate D2E/DX2 analytically  !
 ! D6    D(4,2,5,7)             59.4965         calculate D2E/DX2 analytically  !
 ! D7    D(2,5,7,8)             -0.0085         calculate D2E/DX2 analytically  !
 ! D8    D(2,5,7,9)           -179.9978         calculate D2E/DX2 analytically  !
 ! D9    D(6,5,7,8)            179.9958         calculate D2E/DX2 analytically  !
 ! D10   D(6,5,7,9)              0.0064         calculate D2E/DX2 analytically  !
 ! D11   D(5,7,9,10)            -0.0045         calculate D2E/DX2 analytically  !
 ! D12   D(5,7,9,11)           119.9981         calculate D2E/DX2 analytically  !
 ! D13   D(5,7,9,15)          -120.0043         frozen, calculate D2E/DX2 analyt!
 ! D14   D(8,7,9,10)          -179.994          calculate D2E/DX2 analytically  !
 ! D15   D(8,7,9,11)           -59.9914         calculate D2E/DX2 analytically  !
 ! D16   D(8,7,9,15)            60.0061         calculate D2E/DX2 analytically  !
 ! D17   D(7,9,11,12)           60.0024         calculate D2E/DX2 analytically  !
 ! D18   D(7,9,11,13)          179.9986         calculate D2E/DX2 analytically  !
 ! D19   D(7,9,11,14)          -60.0038         calculate D2E/DX2 analytically  !
 ! D20   D(10,9,11,12)        -179.4843         calculate D2E/DX2 analytically  !
 ! D21   D(10,9,11,13)         -59.4881         calculate D2E/DX2 analytically  !
 ! D22   D(10,9,11,14)          60.5095         calculate D2E/DX2 analytically  !
 ! D23   D(15,9,11,12)         -61.938          calculate D2E/DX2 analytically  !
 ! D24   D(15,9,11,13)          58.0582         calculate D2E/DX2 analytically  !
 ! D25   D(15,9,11,14)         178.0558         calculate D2E/DX2 analytically  !
 ! D26   D(7,9,15,16)           15.0014         calculate D2E/DX2 analytically  !
 ! D27   D(7,9,15,17)         -165.0027         frozen, calculate D2E/DX2 analyt!
 ! D28   D(10,9,15,16)        -105.5096         calculate D2E/DX2 analytically  !
 ! D29   D(10,9,15,17)          74.4862         calculate D2E/DX2 analytically  !
 ! D30   D(11,9,15,16)         136.9435         calculate D2E/DX2 analytically  !
 ! D31   D(11,9,15,17)         -43.0607         calculate D2E/DX2 analytically  !
 ! D32   D(9,15,17,18)           0.0073         calculate D2E/DX2 analytically  !
 ! D33   D(9,15,17,19)         179.9965         calculate D2E/DX2 analytically  !
 ! D34   D(16,15,17,18)       -179.9969         calculate D2E/DX2 analytically  !
 ! D35   D(16,15,17,19)         -0.0077         calculate D2E/DX2 analytically  !
 ! D36   D(15,17,19,20)          0.0059         calculate D2E/DX2 analytically  !
 ! D37   D(15,17,19,21)        120.0063         calculate D2E/DX2 analytically  !
 ! D38   D(15,17,19,22)       -119.9951         calculate D2E/DX2 analytically  !
 ! D39   D(18,17,19,20)        179.9953         calculate D2E/DX2 analytically  !
 ! D40   D(18,17,19,21)        -60.0043         calculate D2E/DX2 analytically  !
 ! D41   D(18,17,19,22)         59.9943         calculate D2E/DX2 analytically  !
 --------------------------------------------------------------------------------
 Trust Radius=3.00D-01 FncErr=1.00D-07 GrdErr=1.00D-06
 Number of steps in this run= 132 maximum allowed number of steps= 132.
 GradGradGradGradGradGradGradGradGradGradGradGradGradGradGradGradGradGrad

                          Input orientation:                          
 ---------------------------------------------------------------------
 Center     Atomic      Atomic             Coordinates (Angstroms)
 Number     Number       Type             X           Y           Z
 ---------------------------------------------------------------------
      1          1           0        1.562400    1.881600    1.704700
      2          6           0        1.779400    2.534300    0.859100
      3          1           0        1.046300    3.340100    0.824000
      4          1           0        1.731600    1.959600   -0.065800
      5          6           0        3.175500    3.148400    0.981500
      6          8           0        3.891400    2.883000    1.944600
      7          7           0        3.555400    3.969700    0.000000
      8          1           0        2.931200    4.157100   -0.771600
      9          6           0        4.853300    4.613900    0.000000
     10          1           0        5.407600    4.315500    0.889800
     11          6           0        5.661300    4.220800   -1.232200
     12          1           0        5.123300    4.521400   -2.131200
     13          1           0        6.630500    4.718900   -1.205800
     14          1           0        5.808500    3.140900   -1.241400
     15          6           0        4.712700    6.129400    0.000000
     16          8           0        3.636600    6.656000    0.274100
     17          7           0        5.805600    6.831100   -0.308900
     18          1           0        6.667900    6.352800   -0.527200
     19          6           0        5.801000    8.279700   -0.343600
     20          1           0        4.807100    8.646700   -0.087500
     21          1           0        6.525600    8.663100    0.374800
     22          1           0        6.066900    8.620600   -1.344200
 ---------------------------------------------------------------------
                    Distance matrix (angstroms):
                    1          2          3          4          5
     1  H    0.000000
     2  C    1.090021   0.000000
     3  H    1.780229   1.089946   0.000000
     4  H    1.780276   1.089956   1.779652   0.000000
     5  C    2.174832   1.530097   2.143606   2.143579   0.000000
     6  O    2.546487   2.400093   3.091808   3.091781   1.229029
     7  N    3.352344   2.439795   2.714950   2.714973   1.334991
     8  H    3.630919   2.572801   2.601207   2.601192   2.037282
     9  C    4.604507   3.809416   4.098145   4.098128   2.434347
    10  H    4.623148   4.041961   4.469527   4.469498   2.520476
    11  C    5.558617   4.720907   5.128530   4.681459   3.497100
    12  H    5.861969   4.906335   5.172099   4.725709   3.920198
    13  H    6.496685   5.706966   6.099546   5.736947   4.380385
    14  H    5.319277   4.584071   5.194623   4.404386   3.445871
    15  C    5.556455   4.718797   4.679921   5.126258   3.494666
    16  O    5.398501   4.558490   4.243493   5.079442   3.607809
    17  N    6.823260   6.003083   6.010115   6.355162   4.705830
    18  H    7.144168   6.356115   6.519547   6.624210   4.974054
    19  C    7.943359   7.115432   6.954862   7.522025   5.914337
    20  H    7.714055   6.886541   6.567682   7.360467   5.834054
    21  H    8.508274   7.766798   7.652375   8.253089   6.480985
    22  H    8.660279   7.764035   7.602052   8.049724   6.611660
                    6          7          8          9         10
     6  O    0.000000
     7  N    2.252839   0.000000
     8  H    3.150088   1.010005   0.000000
     9  C    2.775380   1.448978   2.120967   0.000000
    10  H    2.337418   2.083739   2.986285   1.089970   0.000000
    11  C    3.874831   2.452791   2.769414   1.525027   2.139209
    12  H    4.562245   2.702720   2.605097   2.150225   3.041326
    13  H    4.560506   3.386959   3.766825   2.150214   2.459625
    14  H    3.727248   2.702673   3.087431   2.150165   2.466256
    15  C    3.872353   2.450234   2.767504   1.522008   2.136554
    16  O    4.134129   2.701468   2.799210   2.392836   2.998911
    17  N    4.932537   3.653277   3.953042   2.432750   2.814876
    18  H    5.085102   3.955346   4.340940   2.567973   2.783314
    19  C    6.164966   4.872051   5.041306   3.801879   4.170242
    20  H    6.179658   4.842390   4.913604   4.034014   4.480514
    21  H    6.543152   5.566917   5.876902   4.396940   4.518493
    22  H    6.961972   5.453932   5.484826   4.396970   4.894826
                   11         12         13         14         15
    11  C    0.000000
    12  H    1.089957   0.000000
    13  H    1.090023   1.779613   0.000000
    14  H    1.089925   1.779613   1.779617   0.000000
    15  C    2.461892   2.701161   2.668599   3.416575   0.000000
    16  O    3.506929   3.542917   3.860816   4.401116   1.228995
    17  N    2.772539   3.020103   2.438499   3.806198   1.335003
    18  H    2.460832   2.883163   1.769612   3.400728   2.037315
    19  C    4.157378   4.216587   3.756429   5.216643   2.434389
    20  H    4.650654   4.614628   4.472471   5.713853   2.520589
    21  H    4.802447   5.039857   4.250413   5.798364   3.137948
    22  H    4.419875   4.279391   3.944624   5.486752   3.137963
                   16         17         18         19         20
    16  O    0.000000
    17  N    2.252800   0.000000
    18  H    3.150046   1.009944   0.000000
    19  C    2.775353   1.449023   2.120889   0.000000
    20  H    2.337458   2.083848   2.986284   1.090006   0.000000
    21  H    3.519220   2.083763   2.484218   1.090018   1.779672
    22  H    3.519220   2.083851   2.484272   1.090007   1.779627
                   21         22
    21  H    0.000000
    22  H    1.779655   0.000000
 Stoichiometry    C6H12N2O2
 Framework group  C1[X(C6H12N2O2)]
 Deg. of freedom    60
 Full point group                 C1      NOp   1
 Largest Abelian subgroup         C1      NOp   1
 Largest concise Abelian subgroup C1      NOp   1
                         Standard orientation:                         
 ---------------------------------------------------------------------
 Center     Atomic      Atomic             Coordinates (Angstroms)
 Number     Number       Type             X           Y           Z
 ---------------------------------------------------------------------
      1          1           0        4.305732   -0.846948    0.101684
      2          6           0        3.446157   -0.702593   -0.552868
      3          1           0        3.149185   -1.660404   -0.979936
      4          1           0        3.711294   -0.014070   -1.355142
      5          6           0        2.258724   -0.121539    0.217570
      6          8           0        2.352745    0.120168    1.418923
      7          7           0        1.143224    0.099914   -0.481585
      8          1           0        1.114515   -0.115038   -1.468034
      9          6           0       -0.049487    0.647235    0.132760
     10          1           0        0.135838    0.825395    1.191980
     11          6           0       -0.447868    1.966211   -0.520924
     12          1           0       -0.645635    1.802207   -1.580167
     13          1           0       -1.345918    2.353942   -0.039967
     14          1           0        0.362676    2.686440   -0.410354
     15          6           0       -1.223918   -0.311582   -0.001003
     16          8           0       -1.038574   -1.484611   -0.317356
     17          7           0       -2.436642    0.191201    0.241365
     18          1           0       -2.538508    1.162558    0.498417
     19          6           0       -3.634227   -0.619143    0.147547
     20          1           0       -3.364138   -1.636091   -0.137029
     21          1           0       -4.139528   -0.634680    1.113243
     22          1           0       -4.301235   -0.197102   -0.604182
 ---------------------------------------------------------------------
 Rotational constants (GHZ):      2.7973074      0.6768895      0.6207241
 Standard basis: 6-31G(d) (6D, 7F)
 There are   174 symmetry adapted basis functions of A   symmetry.
 Integral buffers will be    131072 words long.
 Raffenetti 2 integral format.
 Two-electron integral symmetry is turned on.
   174 basis functions,   328 primitive gaussians,   174 cartesian basis functions
    39 alpha electrons       39 beta electrons
       nuclear repulsion energy       553.6904665686 Hartrees.
 NAtoms=   22 NActive=   22 NUniq=   22 SFac= 7.50D-01 NAtFMM=   80 NAOKFM=F Big=F
 One-electron integrals computed using PRISM.
 NBasis=   174 RedAO= T  NBF=   174
 NBsUse=   174 1.00D-06 NBFU=   174
 Harris functional with IExCor=  402 diagonalized for initial guess.
 ExpMin= 1.61D-01 ExpMax= 5.48D+03 ExpMxC= 8.25D+02 IAcc=1 IRadAn=         1 AccDes= 0.00D+00
 HarFok:  IExCor=  402 AccDes= 0.00D+00 IRadAn=         1 IDoV= 1
 ScaDFX=  1.000000  1.000000  1.000000  1.000000
 FoFCou: FMM=F IPFlag=           0 FMFlag=      100000 FMFlg1=           0
         NFxFlg=           0 DoJE=T BraDBF=F KetDBF=T FulRan=T
         Omega=  0.000000  0.000000  1.000000  0.000000  0.000000 ICntrl=     500 IOpCl=  0
         NMat0=    1 NMatS0=    1 NMatT0=    0 NMatD0=    1 NMtDS0=    0 NMtDT0=    0
         I1Cent=           4 NGrid=           0.
 Petite list used in FoFCou.
 Initial guess orbital symmetries:
       Occupied  (A) (A) (A) (A) (A) (A) (A) (A) (A) (A) (A) (A)
                 (A) (A) (A) (A) (A) (A) (A) (A) (A) (A) (A) (A)
                 (A) (A) (A) (A) (A) (A) (A) (A) (A) (A) (A) (A)
                 (A) (A) (A)
       Virtual   (A) (A) (A) (A) (A) (A) (A) (A) (A) (A) (A) (A)
                 (A) (A) (A) (A) (A) (A) (A) (A) (A) (A) (A) (A)
                 (A) (A) (A) (A) (A) (A) (A) (A) (A) (A) (A) (A)
                 (A) (A) (A) (A) (A) (A) (A) (A) (A) (A) (A) (A)
                 (A) (A) (A) (A) (A) (A) (A) (A) (A) (A) (A) (A)
                 (A) (A) (A) (A) (A) (A) (A) (A) (A) (A) (A) (A)
                 (A) (A) (A) (A) (A) (A) (A) (A) (A) (A) (A) (A)
                 (A) (A) (A) (A) (A) (A) (A) (A) (A) (A) (A) (A)
                 (A) (A) (A) (A) (A) (A) (A) (A) (A) (A) (A) (A)
                 (A) (A) (A) (A) (A) (A) (A) (A) (A) (A) (A) (A)
                 (A) (A) (A) (A) (A) (A) (A) (A) (A) (A) (A) (A)
                 (A) (A) (A)
 The electronic state of the initial guess is 1-A.
 Requested convergence on RMS density matrix=1.00D-08 within 128 cycles.
 Requested convergence on MAX density matrix=1.00D-06.
 Requested convergence on             energy=1.00D-06.
 No special actions if energy rises.
 Integral accuracy reduced to 1.0D-05 until final iterations.
 Initial convergence to 1.0D-05 achieved.  Increase integral accuracy.
 SCF Done:  E(RB3LYP) =  -495.836551886     A.U. after   14 cycles
             Convg  =    0.9937D-08             -V/T =  2.0087
 Range of M.O.s used for correlation:     1   174
 NBasis=   174 NAE=    39 NBE=    39 NFC=     0 NFV=     0
 NROrb=    174 NOA=    39 NOB=    39 NVA=   135 NVB=   135
 Symmetrizing basis deriv contribution to polar:
 IMax=3 JMax=2 DiffMx= 0.00D+00
 G2DrvN: will do    23 centers at a time, making    1 passes doing MaxLOS=2.
 Calling FoFCou, ICntrl=  3107 FMM=F I1Cent=   0 AccDes= 0.00D+00.
 FoFDir/FoFCou used for L=0 through L=2.
 End of G2Drv Frequency-dependent properties file   721 does not exist.
 End of G2Drv Frequency-dependent properties file   722 does not exist.
          IDoAtm=1111111111111111111111
          Differentiating once with respect to nuclear coordinates.
          There are    69 degrees of freedom in the 1st order CPHF.  IDoFFX=5.
     63 vectors produced by pass  0 Test12= 7.63D-11 1.45D-07 XBig12= 2.01D-01 1.27D-01.
 AX will form    63 AO Fock derivatives at one time.
     63 vectors produced by pass  1 Test12= 7.63D-11 1.45D-07 XBig12= 4.65D-02 7.80D-02.
     63 vectors produced by pass  2 Test12= 7.63D-11 1.45D-07 XBig12= 4.06D-05 1.36D-03.
     63 vectors produced by pass  3 Test12= 7.63D-11 1.45D-07 XBig12= 7.31D-08 6.44D-05.
     30 vectors produced by pass  4 Test12= 7.63D-11 1.45D-07 XBig12= 7.71D-11 1.46D-06.
 Inverted reduced A of dimension   282 with in-core refinement.
 End of Minotr Frequency-dependent properties file   721 does not exist.
 End of Minotr Frequency-dependent properties file   722 does not exist.

 **********************************************************************

            Population analysis using the SCF density.

 **********************************************************************

 Orbital symmetries:
       Occupied  (A) (A) (A) (A) (A) (A) (A) (A) (A) (A) (A) (A)
                 (A) (A) (A) (A) (A) (A) (A) (A) (A) (A) (A) (A)
                 (A) (A) (A) (A) (A) (A) (A) (A) (A) (A) (A) (A)
                 (A) (A) (A)
       Virtual   (A) (A) (A) (A) (A) (A) (A) (A) (A) (A) (A) (A)
                 (A) (A) (A) (A) (A) (A) (A) (A) (A) (A) (A) (A)
                 (A) (A) (A) (A) (A) (A) (A) (A) (A) (A) (A) (A)
                 (A) (A) (A) (A) (A) (A) (A) (A) (A) (A) (A) (A)
                 (A) (A) (A) (A) (A) (A) (A) (A) (A) (A) (A) (A)
                 (A) (A) (A) (A) (A) (A) (A) (A) (A) (A) (A) (A)
                 (A) (A) (A) (A) (A) (A) (A) (A) (A) (A) (A) (A)
                 (A) (A) (A) (A) (A) (A) (A) (A) (A) (A) (A) (A)
                 (A) (A) (A) (A) (A) (A) (A) (A) (A) (A) (A) (A)
                 (A) (A) (A) (A) (A) (A) (A) (A) (A) (A) (A) (A)
                 (A) (A) (A) (A) (A) (A) (A) (A) (A) (A) (A) (A)
                 (A) (A) (A)
 The electronic state is 1-A.
 Alpha  occ. eigenvalues --  -19.10395 -19.09445 -14.36652 -14.35693 -10.27940
 Alpha  occ. eigenvalues --  -10.27561 -10.23297 -10.21992 -10.19641 -10.18248
 Alpha  occ. eigenvalues --   -1.03277  -1.01797  -0.92874  -0.92201  -0.79214
 Alpha  occ. eigenvalues --   -0.72786  -0.71059  -0.65254  -0.59572  -0.58995
 Alpha  occ. eigenvalues --   -0.54187  -0.48361  -0.47086  -0.46146  -0.45440
 Alpha  occ. eigenvalues --   -0.44063  -0.42942  -0.42272  -0.40393  -0.39700
 Alpha  occ. eigenvalues --   -0.38610  -0.38181  -0.37869  -0.35635  -0.34672
 Alpha  occ. eigenvalues --   -0.25486  -0.24871  -0.24339  -0.23341
 Alpha virt. eigenvalues --    0.03210   0.04314   0.05804   0.08482   0.11687
 Alpha virt. eigenvalues --    0.12687   0.13475   0.15586   0.15663   0.16279
 Alpha virt. eigenvalues --    0.16441   0.16935   0.17938   0.18290   0.21227
 Alpha virt. eigenvalues --    0.21761   0.23589   0.25340   0.29170   0.33272
 Alpha virt. eigenvalues --    0.34725   0.39497   0.42319   0.50129   0.51001
 Alpha virt. eigenvalues --    0.52412   0.53320   0.54137   0.54722   0.55966
 Alpha virt. eigenvalues --    0.57193   0.58229   0.61493   0.62005   0.65700
 Alpha virt. eigenvalues --    0.68331   0.68748   0.71029   0.72266   0.73513
 Alpha virt. eigenvalues --    0.75383   0.77409   0.79691   0.80228   0.83832
 Alpha virt. eigenvalues --    0.85087   0.85745   0.86985   0.88486   0.89217
 Alpha virt. eigenvalues --    0.89467   0.90192   0.91530   0.92472   0.93544
 Alpha virt. eigenvalues --    0.94320   0.95375   0.96042   0.97810   1.01800
 Alpha virt. eigenvalues --    1.04403   1.05625   1.08657   1.12235   1.15963
 Alpha virt. eigenvalues --    1.18169   1.28287   1.30881   1.32720   1.34275
 Alpha virt. eigenvalues --    1.37864   1.39415   1.42353   1.47155   1.50113
 Alpha virt. eigenvalues --    1.51146   1.53442   1.62706   1.67217   1.69854
 Alpha virt. eigenvalues --    1.72766   1.77486   1.78091   1.79256   1.83148
 Alpha virt. eigenvalues --    1.83368   1.84824   1.86765   1.88505   1.91262
 Alpha virt. eigenvalues --    1.94852   1.96796   1.97454   1.98840   2.02501
 Alpha virt. eigenvalues --    2.04987   2.08151   2.09887   2.14731   2.15253
 Alpha virt. eigenvalues --    2.20030   2.21290   2.24616   2.26808   2.29536
 Alpha virt. eigenvalues --    2.29955   2.31826   2.35585   2.39154   2.42072
 Alpha virt. eigenvalues --    2.44899   2.47981   2.55909   2.57408   2.62316
 Alpha virt. eigenvalues --    2.66129   2.69708   2.72486   2.76734   2.89462
 Alpha virt. eigenvalues --    2.93985   2.96667   3.03946   3.16283   3.19499
 Alpha virt. eigenvalues --    3.93600   4.01710   4.04161   4.13605   4.21848
 Alpha virt. eigenvalues --    4.24247   4.27321   4.41198   4.47730   4.64509
          Condensed to atoms (all electrons):
              1          2          3          4          5          6
     1  H    0.502277   0.361064  -0.020834  -0.021875  -0.017856   0.005163
     2  C    0.361064   5.345366   0.351532   0.347858   0.346311  -0.083206
     3  H   -0.020834   0.351532   0.541113  -0.026818  -0.024552   0.001387
     4  H   -0.021875   0.347858  -0.026818   0.561463  -0.025226   0.001527
     5  C   -0.017856   0.346311  -0.024552  -0.025226   4.318456   0.615392
     6  O    0.005163  -0.083206   0.001387   0.001527   0.615392   8.059056
     7  N    0.004426  -0.133213   0.004162   0.004497   0.225777  -0.108158
     8  H   -0.000144  -0.000705   0.000963   0.001018  -0.015782   0.003414
     9  C   -0.000135   0.007413  -0.000332  -0.000313  -0.015551  -0.001346
    10  H   -0.000011   0.001268  -0.000046  -0.000047   0.000894   0.024792
    11  C    0.000003  -0.000226  -0.000008   0.000046   0.001423   0.000325
    12  H    0.000000  -0.000011   0.000001   0.000002  -0.000168  -0.000015
    13  H    0.000000   0.000004   0.000000   0.000000  -0.000027  -0.000014
    14  H    0.000000  -0.000015   0.000000  -0.000007   0.001083   0.000222
    15  C    0.000001  -0.000157   0.000056  -0.000009   0.002276  -0.000208
    16  O    0.000000  -0.000067   0.000054   0.000001   0.002512  -0.000032
    17  N    0.000000   0.000001   0.000000   0.000000   0.000049  -0.000007
    18  H    0.000000   0.000000   0.000000   0.000000  -0.000013   0.000001
    19  C    0.000000   0.000000   0.000000   0.000000   0.000000   0.000000
    20  H    0.000000   0.000000   0.000000   0.000000  -0.000001   0.000000
    21  H    0.000000   0.000000   0.000000   0.000000   0.000000   0.000000
    22  H    0.000000   0.000000   0.000000   0.000000   0.000000   0.000000
              7          8          9         10         11         12
     1  H    0.004426  -0.000144  -0.000135  -0.000011   0.000003   0.000000
     2  C   -0.133213  -0.000705   0.007413   0.001268  -0.000226  -0.000011
     3  H    0.004162   0.000963  -0.000332  -0.000046  -0.000008   0.000001
     4  H    0.004497   0.001018  -0.000313  -0.000047   0.000046   0.000002
     5  C    0.225777  -0.015782  -0.015551   0.000894   0.001423  -0.000168
     6  O   -0.108158   0.003414  -0.001346   0.024792   0.000325  -0.000015
     7  N    7.139961   0.301993   0.248737  -0.040967  -0.058996  -0.003300
     8  H    0.301993   0.408083  -0.037591   0.004575  -0.001001   0.003969
     9  C    0.248737  -0.037591   5.183198   0.361375   0.333881  -0.036279
    10  H   -0.040967   0.004575   0.361375   0.501270  -0.036837   0.004681
    11  C   -0.058996  -0.001001   0.333881  -0.036837   5.164140   0.374677
    12  H   -0.003300   0.003969  -0.036279   0.004681   0.374677   0.564320
    13  H    0.005283  -0.000101  -0.033822  -0.001680   0.355778  -0.028895
    14  H   -0.001311  -0.000273  -0.027436  -0.003984   0.366817  -0.028991
    15  C   -0.041285   0.000500   0.304499  -0.026251  -0.056571  -0.003070
    16  O   -0.000928   0.004709  -0.094271   0.000100   0.001314   0.000414
    17  N    0.003210   0.000148  -0.132939   0.000587   0.006173  -0.000078
    18  H    0.000119  -0.000016   0.001373   0.000427   0.000610  -0.000288
    19  C   -0.000099  -0.000001   0.006220  -0.000215   0.000060  -0.000170
    20  H   -0.000009  -0.000005   0.001303  -0.000023  -0.000093  -0.000007
    21  H   -0.000001   0.000000  -0.000237   0.000021   0.000024   0.000002
    22  H    0.000004   0.000000   0.000020  -0.000003  -0.000067   0.000006
             13         14         15         16         17         18
     1  H    0.000000   0.000000   0.000001   0.000000   0.000000   0.000000
     2  C    0.000004  -0.000015  -0.000157  -0.000067   0.000001   0.000000
     3  H    0.000000   0.000000   0.000056   0.000054   0.000000   0.000000
     4  H    0.000000  -0.000007  -0.000009   0.000001   0.000000   0.000000
     5  C   -0.000027   0.001083   0.002276   0.002512   0.000049  -0.000013
     6  O   -0.000014   0.000222  -0.000208  -0.000032  -0.000007   0.000001
     7  N    0.005283  -0.001311  -0.041285  -0.000928   0.003210   0.000119
     8  H   -0.000101  -0.000273   0.000500   0.004709   0.000148  -0.000016
     9  C   -0.033822  -0.027436   0.304499  -0.094271  -0.132939   0.001373
    10  H   -0.001680  -0.003984  -0.026251   0.000100   0.000587   0.000427
    11  C    0.355778   0.366817  -0.056571   0.001314   0.006173   0.000610
    12  H   -0.028895  -0.028991  -0.003070   0.000414  -0.000078  -0.000288
    13  H    0.593053  -0.022867  -0.006945   0.000004  -0.001954   0.010604
    14  H   -0.022867   0.542409   0.004153  -0.000088   0.000400  -0.000311
    15  C   -0.006945   0.004153   4.378068   0.621971   0.255920  -0.021685
    16  O    0.000004  -0.000088   0.621971   8.078619  -0.103632   0.003802
    17  N   -0.001954   0.000400   0.255920  -0.103632   7.127209   0.296905
    18  H    0.010604  -0.000311  -0.021685   0.003802   0.296905   0.408821
    19  C    0.000437   0.000004  -0.025257  -0.009827   0.264944  -0.030496
    20  H   -0.000006   0.000001  -0.000100   0.022516  -0.038024   0.003719
    21  H   -0.000028   0.000001   0.001735   0.000575  -0.043221  -0.001521
    22  H    0.000013  -0.000003   0.001157   0.000618  -0.045226   0.000063
             19         20         21         22
     1  H    0.000000   0.000000   0.000000   0.000000
     2  C    0.000000   0.000000   0.000000   0.000000
     3  H    0.000000   0.000000   0.000000   0.000000
     4  H    0.000000   0.000000   0.000000   0.000000
     5  C    0.000000  -0.000001   0.000000   0.000000
     6  O    0.000000   0.000000   0.000000   0.000000
     7  N   -0.000099  -0.000009  -0.000001   0.000004
     8  H   -0.000001  -0.000005   0.000000   0.000000
     9  C    0.006220   0.001303  -0.000237   0.000020
    10  H   -0.000215  -0.000023   0.000021  -0.000003
    11  C    0.000060  -0.000093   0.000024  -0.000067
    12  H   -0.000170  -0.000007   0.000002   0.000006
    13  H    0.000437  -0.000006  -0.000028   0.000013
    14  H    0.000004   0.000001   0.000001  -0.000003
    15  C   -0.025257  -0.000100   0.001735   0.001157
    16  O   -0.009827   0.022516   0.000575   0.000618
    17  N    0.264944  -0.038024  -0.043221  -0.045226
    18  H   -0.030496   0.003719  -0.001521   0.000063
    19  C    4.965440   0.375753   0.382664   0.383096
    20  H    0.375753   0.471942  -0.023251  -0.024654
    21  H    0.382664  -0.023251   0.561876  -0.039029
    22  H    0.383096  -0.024654  -0.039029   0.567400
 Mulliken atomic charges:
              1
     1  H    0.187923
     2  C   -0.543215
     3  H    0.173322
     4  H    0.157885
     5  C    0.585004
     6  O   -0.518292
     7  N   -0.549903
     8  H    0.326248
     9  C   -0.067766
    10  H    0.210073
    11  C   -0.451470
    12  H    0.153201
    13  H    0.131161
    14  H    0.170196
    15  C    0.611201
    16  O   -0.528367
    17  N   -0.590466
    18  H    0.327888
    19  C   -0.312552
    20  H    0.210938
    21  H    0.160389
    22  H    0.156604
 Sum of Mulliken atomic charges =   0.00000
 Mulliken charges with hydrogens summed into heavy atoms:
              1
     2  C   -0.024086
     5  C    0.585004
     6  O   -0.518292
     7  N   -0.223655
     9  C    0.142306
    11  C    0.003088
    15  C    0.611201
    16  O   -0.528367
    17  N   -0.262578
    19  C    0.215378
 Sum of Mulliken charges with hydrogens summed into heavy atoms =   0.00000
 APT atomic charges:
              1
     1  H    0.719473
     2  C   -1.233700
     3  H    0.309746
     4  H    0.419792
     5  C   -0.030419
     6  O   -0.154470
     7  N   -0.650541
     8  H    0.537816
     9  C   -0.369421
    10  H    0.397875
    11  C   -1.192625
    12  H    0.357515
    13  H    0.394344
    14  H    0.451458
    15  C    0.009136
    16  O   -0.276823
    17  N   -0.408812
    18  H    0.568819
    19  C   -1.387580
    20  H    0.373671
    21  H    0.580359
    22  H    0.584387
 Sum of APT charges=   0.00000
 APT Atomic charges with hydrogens summed into heavy atoms:
              1
     1  H    0.000000
     2  C    0.215311
     3  H    0.000000
     4  H    0.000000
     5  C   -0.030419
     6  O   -0.154470
     7  N   -0.112726
     8  H    0.000000
     9  C    0.028454
    10  H    0.000000
    11  C    0.010693
    12  H    0.000000
    13  H    0.000000
    14  H    0.000000
    15  C    0.009136
    16  O   -0.276823
    17  N    0.160007
    18  H    0.000000
    19  C    0.150837
    20  H    0.000000
    21  H    0.000000
    22  H    0.000000
 Sum of APT charges=   0.00000
 Electronic spatial extent (au):  <R**2>=           1924.3960
 Charge=              0.0000 electrons
 Dipole moment (field-independent basis, Debye):
    X=             -2.8214    Y=              2.7649    Z=             -2.5764  Tot=              4.7163
 Quadrupole moment (field-independent basis, Debye-Ang):
   XX=            -51.9078   YY=            -61.6859   ZZ=            -61.6654
   XY=             -5.1313   XZ=             -9.7988   YZ=             -0.2540
 Traceless Quadrupole moment (field-independent basis, Debye-Ang):
   XX=              6.5119   YY=             -3.2662   ZZ=             -3.2457
   XY=             -5.1313   XZ=             -9.7988   YZ=             -0.2540
 Octapole moment (field-independent basis, Debye-Ang**2):
  XXX=            -30.6373  YYY=              3.7808  ZZZ=             -8.0835  XYY=              0.7701
  XXY=             -5.3369  XXZ=            -12.3167  XZZ=             -9.1439  YZZ=             -1.3800
  YYZ=              4.2462  XYZ=             -1.6818
 Hexadecapole moment (field-independent basis, Debye-Ang**3):
 XXXX=          -1736.3967 YYYY=           -405.1812 ZZZZ=           -200.4366 XXXY=             -9.1578
 XXXZ=            -37.4649 YYYX=             -2.8295 YYYZ=              5.7094 ZZZX=            -14.0485
 ZZZY=              2.0879 XXYY=           -363.7134 XXZZ=           -369.4480 YYZZ=           -100.7204
 XXYZ=             -1.3848 YYXZ=             -2.5741 ZZXY=             -0.6831
 N-N= 5.536904665686D+02 E-N=-2.263745172273D+03  KE= 4.915376720547D+02
  Exact polarizability:   0.000   0.000   0.000   0.000   0.000   0.000
 Approx polarizability: 119.977 -10.881 106.399   2.730  10.252 109.169
 Calling FoFJK, ICntrl=    100147 FMM=F ISym2X=0 I1Cent= 0 IOpClX= 0 NMat=1 NMatS=1 NMatT=0.
 ***** Axes restored to original set *****
 -------------------------------------------------------------------
 Center     Atomic                   Forces (Hartrees/Bohr)
 Number     Number              X              Y              Z
 -------------------------------------------------------------------
      1        1           0.003639376    0.001162979    0.000724178
      2        6           0.007255181    0.006850189   -0.004863092
      3        1          -0.005760838    0.000633393   -0.001830512
      4        1          -0.004894707   -0.002483955   -0.003821492
      5        6          -0.009996507   -0.024107522    0.033808950
      6        8           0.003340012    0.001027588   -0.000374842
      7        7           0.012750474    0.012092890   -0.016214963
      8        1          -0.000712250    0.003575862    0.001282625
      9        6           0.005426410    0.002665022   -0.011495950
     10        1          -0.006025498   -0.004303373    0.004833243
     11        6          -0.000827052   -0.010305848    0.002149538
     12        1           0.001675873    0.000248426   -0.005734060
     13        1           0.003744684   -0.006316321   -0.006076056
     14        1           0.002644867   -0.002347412   -0.002810167
     15        6          -0.033400785   -0.003412226    0.014823209
     16        8          -0.001256202    0.002643243   -0.001944328
     17        7           0.017444744    0.012628028   -0.003478988
     18        1          -0.001762188    0.003953384    0.001943166
     19        6           0.003764822    0.000339430    0.000015848
     20        1          -0.000317530   -0.003284484    0.000315132
     21        1           0.002143494    0.004498296    0.001767240
     22        1           0.001123621    0.004242413   -0.003018679
 -------------------------------------------------------------------
 Cartesian Forces:  Max     0.033808950 RMS     0.008780064

 GradGradGradGradGradGradGradGradGradGradGradGradGradGradGradGradGradGrad
 Berny optimization.
 Internal  Forces:  Max     0.030664279 RMS     0.007219769
 Search for a local minimum.
 Step number   1 out of a maximum of  132
 All quantities printed in internal units (Hartrees-Bohrs-Radians)
 Mixed Optimization -- RFO/linear search
 Second derivative matrix not updated -- analytic derivatives used.
     Eigenvalues ---   -0.00053  -0.00033   0.00073   0.00134   0.00338
     Eigenvalues ---    0.01162   0.01751   0.01898   0.03884   0.04287
     Eigenvalues ---    0.04505   0.04870   0.04990   0.05489   0.05834
     Eigenvalues ---    0.05979   0.06407   0.06605   0.11339   0.12283
     Eigenvalues ---    0.12482   0.12694   0.13192   0.13373   0.13652
     Eigenvalues ---    0.14263   0.15532   0.17583   0.17912   0.18565
     Eigenvalues ---    0.19465   0.19917   0.21365   0.22377   0.24238
     Eigenvalues ---    0.24712   0.29732   0.30911   0.33742   0.34564
     Eigenvalues ---    0.34657   0.34916   0.34972   0.35088   0.35190
     Eigenvalues ---    0.35555   0.35742   0.35892   0.35922   0.37393
     Eigenvalues ---    0.39428   0.45408   0.46968   0.52772   0.54009
     Eigenvalues ---    0.56177   0.82920   0.830411000.000001000.00000
     Eigenvalues --- 1000.000001000.000001000.000001000.000001000.00000
     Eigenvalues --- 1000.000001000.000001000.000001000.000001000.00000
     Eigenvalues --- 1000.000001000.000001000.000001000.000001000.00000
     Eigenvalues --- 1000.000001000.000001000.000001000.000001000.00000
     Eigenvalues --- 1000.000001000.000001000.000001000.000001000.00000
     Eigenvalues --- 1000.000001000.000001000.000001000.000001000.00000
     Eigenvalues --- 1000.000001000.000001000.000001000.000001000.00000
     Eigenvalues --- 1000.000001000.000001000.00000
 RFO step:  Lambda=-1.43190573D-02 EMin=-5.34291081D-04
 Linear search not attempted -- first point.
 Maximum step size (   0.300) exceeded in Quadratic search.
    -- Step size scaled by   0.310
 Iteration  1 RMS(Cart)=  0.05083765 RMS(Int)=  0.00221718
 Iteration  2 RMS(Cart)=  0.00233475 RMS(Int)=  0.00004865
 Iteration  3 RMS(Cart)=  0.00000421 RMS(Int)=  0.00004855
 Iteration  4 RMS(Cart)=  0.00000000 RMS(Int)=  0.00004855
 Iteration  1 RMS(Cart)=  0.00001718 RMS(Int)=  0.00000496
 Iteration  2 RMS(Cart)=  0.00000924 RMS(Int)=  0.00000552
 Iteration  3 RMS(Cart)=  0.00000503 RMS(Int)=  0.00000625
 Iteration  4 RMS(Cart)=  0.00000279 RMS(Int)=  0.00000676
 Iteration  5 RMS(Cart)=  0.00000159 RMS(Int)=  0.00000709
 Iteration  6 RMS(Cart)=  0.00000093 RMS(Int)=  0.00000729
 Variable       Old X    -DE/DX   Delta X   Delta X   Delta X     New X
                                 (Linear)    (Quad)   (Total)
    R1        2.05984  -0.00086   0.00000   0.00014   0.00014   2.05998
    R2        2.05970   0.00440   0.00000   0.00358   0.00358   2.06328
    R3        2.05972   0.00477   0.00000   0.00355   0.00355   2.06327
    R4        2.89146  -0.00191   0.00000  -0.00459  -0.00459   2.88688
    R5        2.32253   0.00143   0.00000  -0.00205  -0.00205   2.32047
    R6        2.52277   0.02962   0.00000   0.01781   0.01781   2.54058
    R7        1.90863   0.00012   0.00000  -0.00004  -0.00004   1.90859
    R8        2.73817  -0.00449   0.00000  -0.00276  -0.00276   2.73541
    R9        2.05975   0.00206   0.00000   0.00275   0.00275   2.06249
   R10        2.88188   0.01874   0.00000   0.00913   0.00913   2.89102
   R11        2.87618   0.02265   0.00000   0.01439   0.01439   2.89057
   R12        2.05972   0.00397   0.00000   0.00349   0.00349   2.06321
   R13        2.05984   0.00029   0.00000   0.00362   0.00362   2.06346
   R14        2.05966   0.00271   0.00000   0.00211   0.00211   2.06177
   R15        2.32246   0.00180   0.00000  -0.00222  -0.00222   2.32025
   R16        2.52279   0.03066   0.00000   0.01588   0.01588   2.53867
   R17        1.90852  -0.00380   0.00000  -0.00090  -0.00090   1.90761
   R18        2.73826   0.00580   0.00000   0.00224   0.00224   2.74050
   R19        2.05981  -0.00074   0.00000   0.00016   0.00016   2.05997
   R20        2.05984   0.00417   0.00000   0.00411   0.00411   2.06395
   R21        2.05982   0.00437   0.00000   0.00303   0.00303   2.06284
    A1        1.91110   0.00020   0.00000  -0.00291  -0.00293   1.90817
    A2        1.91116  -0.00016   0.00000   0.00091   0.00095   1.91211
    A3        1.93897  -0.00779   0.00000  -0.01179  -0.01178   1.92719
    A4        1.91027  -0.00491   0.00000  -0.00807  -0.00812   1.90215
    A5        1.89606   0.00590   0.00000   0.00265   0.00261   1.89867
    A6        1.89601   0.00681   0.00000   0.01930   0.01929   1.91530
    A7        2.10308   0.00840   0.00000   0.01175   0.01174   2.11481
    A8        2.03504  -0.00952   0.00000  -0.01059  -0.01060   2.02444
    A9        2.14506   0.00111   0.00000  -0.00116  -0.00117   2.14389
   A10        2.09433  -0.00045   0.00000  -0.00177  -0.00187   2.09246
   A11        2.12753   0.00308   0.00000   0.00323   0.00314   2.13067
   A12        2.06132  -0.00263   0.00000  -0.00145  -0.00155   2.05977
   A13        1.91114  -0.00098   0.00000  -0.01644  -0.01648   1.89466
   A14        1.93905  -0.00645   0.00000  -0.00178  -0.00174   1.93731
   A15        1.93900  -0.01137   0.00000  -0.00974  -0.00981   1.92919
   A16        1.89609  -0.00148   0.00000   0.00188   0.00173   1.89783
   A17        1.89608  -0.00239   0.00000   0.00280   0.00256   1.89864
   A18        1.88137   0.02317   0.00000   0.02417   0.02416   1.90553
   A19        1.91115   0.00408   0.00000   0.00732   0.00727   1.91842
   A20        1.91106   0.01152   0.00000   0.01601   0.01596   1.92702
   A21        1.91110   0.00179   0.00000   0.00028   0.00027   1.91137
   A22        1.91011  -0.00624   0.00000  -0.00918  -0.00926   1.90084
   A23        1.91023  -0.00364   0.00000  -0.00499  -0.00499   1.90524
   A24        1.91015  -0.00753   0.00000  -0.00945  -0.00946   1.90069
   A25        2.10312  -0.00247   0.00000   0.00511   0.00509   2.10821
   A26        2.03504   0.00989   0.00000  -0.00512  -0.00514   2.02990
   A27        2.14503  -0.00742   0.00000   0.00001  -0.00001   2.14503
   A28        2.09446   0.00120   0.00000  -0.00439  -0.00453   2.08993
   A29        2.12752   0.00219   0.00000   0.00333   0.00320   2.13071
   A30        2.06121  -0.00339   0.00000   0.00106   0.00092   2.06213
   A31        1.91120  -0.00662   0.00000  -0.01110  -0.01108   1.90012
   A32        1.91107   0.00503   0.00000   0.01167   0.01166   1.92273
   A33        1.91120   0.00472   0.00000   0.00470   0.00468   1.91588
   A34        1.91014  -0.00010   0.00000  -0.00329  -0.00326   1.90688
   A35        1.91008   0.00015   0.00000   0.00130   0.00130   1.91139
   A36        1.91011  -0.00318   0.00000  -0.00328  -0.00333   1.90678
    D1        0.00003   0.00013   0.00000  -0.09437  -0.09441  -0.09438
    D2       -3.14149  -0.00011   0.00000  -0.08580  -0.08581   3.05589
    D3        2.10327  -0.00063   0.00000  -0.10356  -0.10359   1.99968
    D4       -1.03825  -0.00088   0.00000  -0.09498  -0.09498  -1.13324
    D5       -2.10326   0.00075   0.00000  -0.10068  -0.10066  -2.20391
    D6        1.03841   0.00050   0.00000  -0.09210  -0.09205   0.94636
    D7       -0.00015   0.00059   0.00000  -0.00117  -0.00114  -0.00129
    D8       -3.14155  -0.00116   0.00000  -0.02737  -0.02736   3.11427
    D9        3.14152   0.00033   0.00000   0.00763   0.00762  -3.13405
   D10        0.00011  -0.00141   0.00000  -0.01857  -0.01860  -0.01849
   D11       -0.00008  -0.00146   0.00000  -0.01336  -0.01329  -0.01337
   D12        2.09436  -0.00801   0.00000  -0.02283  -0.02277   2.07159
   D13       -2.09447   0.00934   0.00000   0.00000   0.00000  -2.09447
   D14       -3.14149  -0.00318   0.00000  -0.03908  -0.03905   3.10265
   D15       -1.04705  -0.00973   0.00000  -0.04856  -0.04853  -1.09557
   D16        1.04730   0.00763   0.00000  -0.02572  -0.02576   1.02155
   D17        1.04724   0.00095   0.00000   0.00431   0.00432   1.05156
   D18        3.14157   0.00287   0.00000   0.00736   0.00741  -3.13421
   D19       -1.04726   0.00181   0.00000   0.00577   0.00580  -1.04147
   D20       -3.13259  -0.00521   0.00000  -0.01593  -0.01597   3.13462
   D21       -1.03826  -0.00329   0.00000  -0.01287  -0.01288  -1.05114
   D22        1.05609  -0.00435   0.00000  -0.01447  -0.01449   1.04160
   D23       -1.08102   0.00385   0.00000   0.00164   0.00162  -1.07940
   D24        1.01331   0.00577   0.00000   0.00470   0.00471   1.01802
   D25        3.10766   0.00471   0.00000   0.00310   0.00310   3.11076
   D26        0.26182  -0.00528   0.00000  -0.01085  -0.01086   0.25096
   D27       -2.87984  -0.00661   0.00000   0.00000   0.00000  -2.87984
   D28       -1.84149   0.00453   0.00000   0.01372   0.01376  -1.82773
   D29        1.30003   0.00319   0.00000   0.02457   0.02462   1.32465
   D30        2.39011  -0.00513   0.00000  -0.00326  -0.00332   2.38680
   D31       -0.75155  -0.00646   0.00000   0.00759   0.00755  -0.74401
   D32        0.00013   0.00012   0.00000  -0.02629  -0.02625  -0.02612
   D33        3.14153   0.00105   0.00000   0.00540   0.00538  -3.13627
   D34       -3.14154  -0.00125   0.00000  -0.01516  -0.01514   3.12651
   D35       -0.00013  -0.00032   0.00000   0.01654   0.01650   0.01636
   D36        0.00010  -0.00042   0.00000  -0.07398  -0.07399  -0.07388
   D37        2.09451  -0.00152   0.00000  -0.07766  -0.07771   2.01679
   D38       -2.09431   0.00057   0.00000  -0.07164  -0.07164  -2.16595
   D39        3.14151   0.00050   0.00000  -0.04286  -0.04283   3.09868
   D40       -1.04727  -0.00060   0.00000  -0.04655  -0.04656  -1.09383
   D41        1.04710   0.00149   0.00000  -0.04052  -0.04048   1.00661
         Item               Value     Threshold  Converged?
 Maximum Force            0.030664     0.000450     NO 
 RMS     Force            0.007094     0.000300     NO 
 Maximum Displacement     0.233061     0.001800     NO 
 RMS     Displacement     0.050970     0.001200     NO 
 Predicted change in Energy=-3.886951D-03
 GradGradGradGradGradGradGradGradGradGradGradGradGradGradGradGradGradGrad

                          Input orientation:                          
 ---------------------------------------------------------------------
 Center     Atomic      Atomic             Coordinates (Angstroms)
 Number     Number       Type             X           Y           Z
 ---------------------------------------------------------------------
      1          1           0        1.595009    1.831092    1.659147
      2          6           0        1.776924    2.555236    0.864897
      3          1           0        1.055766    3.370866    0.947331
      4          1           0        1.655842    2.070830   -0.106079
      5          6           0        3.186892    3.131527    0.981733
      6          8           0        3.912220    2.849143    1.931470
      7          7           0        3.567326    3.962499   -0.004273
      8          1           0        2.931843    4.169096   -0.761600
      9          6           0        4.862555    4.608772   -0.008049
     10          1           0        5.402734    4.309363    0.891822
     11          6           0        5.679328    4.192624   -1.232866
     12          1           0        5.152185    4.477194   -2.145652
     13          1           0        6.656648    4.679508   -1.222203
     14          1           0        5.823136    3.111130   -1.224713
     15          6           0        4.703138    6.130060   -0.003571
     16          8           0        3.622593    6.648025    0.264163
     17          7           0        5.796728    6.844164   -0.317979
     18          1           0        6.664842    6.369129   -0.517328
     19          6           0        5.788134    8.294080   -0.345761
     20          1           0        4.773790    8.644345   -0.154145
     21          1           0        6.456759    8.689323    0.422100
     22          1           0        6.116705    8.646594   -1.325243
 ---------------------------------------------------------------------
                    Distance matrix (angstroms):
                    1          2          3          4          5
     1  H    0.000000
     2  C    1.090096   0.000000
     3  H    1.779991   1.091841   0.000000
     4  H    1.782469   1.091835   1.777598   0.000000
     5  C    2.164281   1.527669   2.144799   2.156972   0.000000
     6  O    2.545595   2.404880   3.065951   3.138251   1.227942
     7  N    3.346625   2.437496   2.750184   2.691197   1.344415
     8  H    3.621244   2.565907   2.660316   2.541772   2.044703
     9  C    4.601294   3.807908   4.115435   4.090693   2.443311
    10  H    4.607536   4.027925   4.447470   4.477279   2.511043
    11  C    5.533736   4.723389   5.177438   4.686160   3.498944
    12  H    5.842247   4.914236   5.250824   4.709019   3.931124
    13  H    6.483505   5.716662   6.147300   5.749695   4.392355
    14  H    5.275624   4.587736   5.245288   4.438457   3.437820
    15  C    5.559336   4.700673   4.671262   5.076796   3.501574
    16  O    5.409245   4.529713   4.218423   4.995588   3.615315
    17  N    6.833327   5.996076   6.011783   6.322701   4.720611
    18  H    7.143811   6.352013   6.526602   6.613212   4.982508
    19  C    7.960664   7.105620   6.950211   7.474097   5.931328
    20  H    7.733893   6.862719   6.545727   7.275644   5.848044
    21  H    8.497190   7.728127   7.598196   8.193426   6.472582
    22  H    8.706514   7.793270   7.655782   8.039050   6.657470
                    6          7          8          9         10
     6  O    0.000000
     7  N    2.259561   0.000000
     8  H    3.155320   1.009983   0.000000
     9  C    2.785887   1.447516   2.118680   0.000000
    10  H    2.331253   2.071720   2.976371   1.091424   0.000000
    11  C    3.865311   2.454169   2.787708   1.529860   2.145793
    12  H    4.561906   2.713336   2.634472   2.161144   3.052407
    13  H    4.563745   3.397258   3.787723   2.167473   2.485640
    14  H    3.698882   2.702403   3.113413   2.155439   2.468242
    15  C    3.890289   2.447118   2.749086   1.529624   2.146183
    16  O    4.158763   2.699475   2.770274   2.402116   3.005362
    17  N    4.956973   3.656862   3.944661   2.442481   2.836206
    18  H    5.095472   3.955970   4.339942   2.570303   2.796651
    19  C    6.192914   4.879672   5.034562   3.814740   4.190241
    20  H    6.219040   4.837117   4.877461   4.039192   4.503520
    21  H    6.546799   5.556391   5.853087   4.401978   4.529422
    22  H    7.005453   5.494091   5.523498   4.428532   4.923079
                   11         12         13         14         15
    11  C    0.000000
    12  H    1.091806   0.000000
    13  H    1.091936   1.776823   0.000000
    14  H    1.091044   1.778886   1.776108   0.000000
    15  C    2.493546   2.742649   2.721280   3.443765   0.000000
    16  O    3.535569   3.585997   3.910222   4.423660   1.227822
    17  N    2.807395   3.059146   2.498564   3.841667   1.343405
    18  H    2.494074   2.918731   1.830774   3.438520   2.041907
    19  C    4.197707   4.267630   3.819372   5.257068   2.444851
    20  H    4.669203   4.634051   4.517282   5.732688   2.519781
    21  H    4.854237   5.102676   4.338468   5.850617   3.131487
    22  H    4.476347   4.357439   4.004988   5.544155   3.174576
                   16         17         18         19         20
    16  O    0.000000
    17  N    2.259252   0.000000
    18  H    3.153377   1.009465   0.000000
    19  C    2.787664   1.450208   2.122143   0.000000
    20  H    2.342120   2.076992   2.980702   1.090089   0.000000
    21  H    3.496332   2.094748   2.511797   1.092194   1.779457
    22  H    3.569465   2.089430   2.477908   1.091609   1.781823
                   21         22
    21  H    0.000000
    22  H    1.780637   0.000000
 Stoichiometry    C6H12N2O2
 Framework group  C1[X(C6H12N2O2)]
 Deg. of freedom    60
 Full point group                 C1      NOp   1
 Largest Abelian subgroup         C1      NOp   1
 Largest concise Abelian subgroup C1      NOp   1
                         Standard orientation:                         
 ---------------------------------------------------------------------
 Center     Atomic      Atomic             Coordinates (Angstroms)
 Number     Number       Type             X           Y           Z
 ---------------------------------------------------------------------
      1          1           0        4.314245   -0.798793    0.083601
      2          6           0        3.425194   -0.748169   -0.545156
      3          1           0        3.138164   -1.757393   -0.847145
      4          1           0        3.642133   -0.158419   -1.438037
      5          6           0        2.265295   -0.115548    0.221785
      6          8           0        2.369663    0.167534    1.412085
      7          7           0        1.139428    0.096019   -0.481860
      8          1           0        1.100440   -0.159982   -1.458081
      9          6           0       -0.050417    0.657285    0.121920
     10          1           0        0.149203    0.838515    1.179519
     11          6           0       -0.428389    1.983182   -0.541106
     12          1           0       -0.625613    1.824989   -1.603235
     13          1           0       -1.322167    2.401514   -0.073681
     14          1           0        0.393029    2.692806   -0.431187
     15          6           0       -1.223567   -0.316926    0.001998
     16          8           0       -1.036528   -1.491527   -0.302758
     17          7           0       -2.445335    0.191000    0.234445
     18          1           0       -2.543056    1.161387    0.494868
     19          6           0       -3.644072   -0.621902    0.161501
     20          1           0       -3.371330   -1.623032   -0.172634
     21          1           0       -4.115705   -0.686279    1.144509
     22          1           0       -4.347339   -0.180029   -0.546858
 ---------------------------------------------------------------------
 Rotational constants (GHZ):      2.7551740      0.6765533      0.6179384
 Standard basis: 6-31G(d) (6D, 7F)
 There are   174 symmetry adapted basis functions of A   symmetry.
 Integral buffers will be    131072 words long.
 Raffenetti 2 integral format.
 Two-electron integral symmetry is turned on.
   174 basis functions,   328 primitive gaussians,   174 cartesian basis functions
    39 alpha electrons       39 beta electrons
       nuclear repulsion energy       552.3594227763 Hartrees.
 NAtoms=   22 NActive=   22 NUniq=   22 SFac= 7.50D-01 NAtFMM=   80 NAOKFM=F Big=F
 One-electron integrals computed using PRISM.
 NBasis=   174 RedAO= T  NBF=   174
 NBsUse=   174 1.00D-06 NBFU=   174
 Initial guess read from the read-write file.
 B after Tr=     0.000000    0.000000    0.000000
         Rot=    1.000000    0.000000    0.000000    0.000000 Ang=   0.00 deg.
 Initial guess orbital symmetries:
       Occupied  (A) (A) (A) (A) (A) (A) (A) (A) (A) (A) (A) (A)
                 (A) (A) (A) (A) (A) (A) (A) (A) (A) (A) (A) (A)
                 (A) (A) (A) (A) (A) (A) (A) (A) (A) (A) (A) (A)
                 (A) (A) (A)
       Virtual   (A) (A) (A) (A) (A) (A) (A) (A) (A) (A) (A) (A)
                 (A) (A) (A) (A) (A) (A) (A) (A) (A) (A) (A) (A)
                 (A) (A) (A) (A) (A) (A) (A) (A) (A) (A) (A) (A)
                 (A) (A) (A) (A) (A) (A) (A) (A) (A) (A) (A) (A)
                 (A) (A) (A) (A) (A) (A) (A) (A) (A) (A) (A) (A)
                 (A) (A) (A) (A) (A) (A) (A) (A) (A) (A) (A) (A)
                 (A) (A) (A) (A) (A) (A) (A) (A) (A) (A) (A) (A)
                 (A) (A) (A) (A) (A) (A) (A) (A) (A) (A) (A) (A)
                 (A) (A) (A) (A) (A) (A) (A) (A) (A) (A) (A) (A)
                 (A) (A) (A) (A) (A) (A) (A) (A) (A) (A) (A) (A)
                 (A) (A) (A) (A) (A) (A) (A) (A) (A) (A) (A) (A)
                 (A) (A) (A)
 Harris functional with IExCor=  402 diagonalized for initial guess.
 ExpMin= 1.61D-01 ExpMax= 5.48D+03 ExpMxC= 8.25D+02 IAcc=1 IRadAn=         1 AccDes= 0.00D+00
 HarFok:  IExCor=  402 AccDes= 0.00D+00 IRadAn=         1 IDoV= 1
 ScaDFX=  1.000000  1.000000  1.000000  1.000000
 FoFCou: FMM=F IPFlag=           0 FMFlag=      100000 FMFlg1=           0
         NFxFlg=           0 DoJE=T BraDBF=F KetDBF=T FulRan=T
         Omega=  0.000000  0.000000  1.000000  0.000000  0.000000 ICntrl=     500 IOpCl=  0
         NMat0=    1 NMatS0=    1 NMatT0=    0 NMatD0=    1 NMtDS0=    0 NMtDT0=    0
         I1Cent=           4 NGrid=           0.
 Petite list used in FoFCou.
 Requested convergence on RMS density matrix=1.00D-08 within 128 cycles.
 Requested convergence on MAX density matrix=1.00D-06.
 Requested convergence on             energy=1.00D-06.
 No special actions if energy rises.
 Integral accuracy reduced to 1.0D-05 until final iterations.
 Initial convergence to 1.0D-05 achieved.  Increase integral accuracy.
 SCF Done:  E(RB3LYP) =  -495.840446243     A.U. after   12 cycles
             Convg  =    0.4897D-08             -V/T =  2.0089
 Calling FoFJK, ICntrl=      2127 FMM=F ISym2X=0 I1Cent= 0 IOpClX= 0 NMat=1 NMatS=1 NMatT=0.
 ***** Axes restored to original set *****
 -------------------------------------------------------------------
 Center     Atomic                   Forces (Hartrees/Bohr)
 Number     Number              X              Y              Z
 -------------------------------------------------------------------
      1        1           0.002598470    0.000674679    0.000432940
      2        6           0.005407047    0.004880490   -0.003582063
      3        1          -0.004195791    0.000547998   -0.000936881
      4        1          -0.003700818   -0.001369482   -0.002588481
      5        6          -0.007086539   -0.017296553    0.023815159
      6        8           0.002335447    0.000691763   -0.000338805
      7        7           0.009768063    0.007070523   -0.011171250
      8        1          -0.000908565    0.003309998    0.001556449
      9        6           0.004763176    0.002985241   -0.009883792
     10        1          -0.004880145   -0.002972354    0.003735504
     11        6          -0.000620462   -0.007316984    0.001900400
     12        1           0.001311508    0.000078180   -0.004069963
     13        1           0.002619299   -0.004832509   -0.004229379
     14        1           0.001845294   -0.001698504   -0.002016954
     15        6          -0.024315856   -0.002608867    0.009827538
     16        8          -0.000830172    0.001891568   -0.001410703
     17        7           0.012347349    0.009087858   -0.002245733
     18        1          -0.001250295    0.002790186    0.001453752
     19        6           0.002835784    0.000116385    0.000250703
     20        1          -0.000225473   -0.002292033    0.000169193
     21        1           0.001320827    0.003224742    0.001366242
     22        1           0.000861854    0.003037674   -0.002033877
 -------------------------------------------------------------------
 Cartesian Forces:  Max     0.024315856 RMS     0.006307218

 GradGradGradGradGradGradGradGradGradGradGradGradGradGradGradGradGradGrad
 Berny optimization.
 Using GEDIIS/GDIIS optimizer.
 Internal  Forces:  Max     0.021664929 RMS     0.005186289
 Search for a local minimum.
 Step number   2 out of a maximum of  132
 All quantities printed in internal units (Hartrees-Bohrs-Radians)
 Mixed Optimization -- RFO/linear search
 Update second derivatives using D2CorX and points    1    2
 DE= -3.89D-03 DEPred=-3.89D-03 R= 1.00D+00
 SS=  1.41D+00  RLast= 3.00D-01 DXNew= 5.0454D-01 9.0000D-01
 Trust test= 1.00D+00 RLast= 3.00D-01 DXMaxT set to 5.05D-01
 Use linear search instead of GDIIS.
 Linear search step of   0.594 exceeds DXMaxT=   0.505 but not scaled.
 Quartic linear search produced a step of  2.00000.
 Iteration  1 RMS(Cart)=  0.10051925 RMS(Int)=  0.00868977
 Iteration  2 RMS(Cart)=  0.00926757 RMS(Int)=  0.00029500
 Iteration  3 RMS(Cart)=  0.00007826 RMS(Int)=  0.00028875
 Iteration  4 RMS(Cart)=  0.00000001 RMS(Int)=  0.00028875
 Iteration  1 RMS(Cart)=  0.00010921 RMS(Int)=  0.00003151
 Iteration  2 RMS(Cart)=  0.00005917 RMS(Int)=  0.00003510
 Iteration  3 RMS(Cart)=  0.00003243 RMS(Int)=  0.00003975
 Iteration  4 RMS(Cart)=  0.00001806 RMS(Int)=  0.00004302
 Iteration  5 RMS(Cart)=  0.00001027 RMS(Int)=  0.00004511
 Iteration  6 RMS(Cart)=  0.00000598 RMS(Int)=  0.00004641
 Iteration  7 RMS(Cart)=  0.00000358 RMS(Int)=  0.00004722
 Iteration  8 RMS(Cart)=  0.00000220 RMS(Int)=  0.00004773
 Iteration  9 RMS(Cart)=  0.00000138 RMS(Int)=  0.00004805
 Iteration 10 RMS(Cart)=  0.00000089 RMS(Int)=  0.00004826
 Variable       Old X    -DE/DX   Delta X   Delta X   Delta X     New X
                                 (Linear)    (Quad)   (Total)
    R1        2.05998  -0.00057   0.00029   0.00000   0.00029   2.06027
    R2        2.06328   0.00311   0.00716   0.00000   0.00716   2.07044
    R3        2.06327   0.00332   0.00710   0.00000   0.00710   2.07037
    R4        2.88688  -0.00138  -0.00918   0.00000  -0.00918   2.87770
    R5        2.32047   0.00096  -0.00411   0.00000  -0.00411   2.31637
    R6        2.54058   0.02098   0.03562   0.00000   0.03562   2.57620
    R7        1.90859   0.00008  -0.00009   0.00000  -0.00009   1.90851
    R8        2.73541  -0.00309  -0.00553   0.00000  -0.00553   2.72988
    R9        2.06249   0.00148   0.00550   0.00000   0.00550   2.06799
   R10        2.89102   0.01324   0.01826   0.00000   0.01826   2.90928
   R11        2.89057   0.01615   0.02878   0.00000   0.02878   2.91935
   R12        2.06321   0.00279   0.00699   0.00000   0.00699   2.07020
   R13        2.06346   0.00015   0.00723   0.00000   0.00723   2.07069
   R14        2.06177   0.00191   0.00423   0.00000   0.00423   2.06600
   R15        2.32025   0.00122  -0.00443   0.00000  -0.00443   2.31581
   R16        2.53867   0.02166   0.03176   0.00000   0.03176   2.57042
   R17        1.90761  -0.00268  -0.00181   0.00000  -0.00181   1.90580
   R18        2.74050   0.00406   0.00448   0.00000   0.00448   2.74498
   R19        2.05997  -0.00050   0.00031   0.00000   0.00031   2.06029
   R20        2.06395   0.00294   0.00822   0.00000   0.00822   2.07217
   R21        2.06284   0.00306   0.00605   0.00000   0.00605   2.06889
    A1        1.90817   0.00008  -0.00586   0.00000  -0.00598   1.90218
    A2        1.91211  -0.00010   0.00190   0.00000   0.00212   1.91423
    A3        1.92719  -0.00548  -0.02357   0.00000  -0.02351   1.90368
    A4        1.90215  -0.00355  -0.01624   0.00000  -0.01657   1.88558
    A5        1.89867   0.00425   0.00522   0.00000   0.00499   1.90366
    A6        1.91530   0.00482   0.03858   0.00000   0.03853   1.95384
    A7        2.11481   0.00589   0.02347   0.00000   0.02340   2.13821
    A8        2.02444  -0.00665  -0.02120   0.00000  -0.02127   2.00317
    A9        2.14389   0.00076  -0.00234   0.00000  -0.00241   2.14149
   A10        2.09246  -0.00036  -0.00374   0.00000  -0.00432   2.08814
   A11        2.13067   0.00217   0.00627   0.00000   0.00570   2.13636
   A12        2.05977  -0.00184  -0.00310   0.00000  -0.00366   2.05611
   A13        1.89466  -0.00129  -0.03296   0.00000  -0.03318   1.86148
   A14        1.93731  -0.00410  -0.00348   0.00000  -0.00324   1.93406
   A15        1.92919  -0.00835  -0.01962   0.00000  -0.02000   1.90919
   A16        1.89783  -0.00114   0.00347   0.00000   0.00263   1.90046
   A17        1.89864  -0.00201   0.00512   0.00000   0.00365   1.90229
   A18        1.90553   0.01685   0.04832   0.00000   0.04825   1.95378
   A19        1.91842   0.00291   0.01455   0.00000   0.01429   1.93271
   A20        1.92702   0.00826   0.03191   0.00000   0.03163   1.95865
   A21        1.91137   0.00120   0.00054   0.00000   0.00051   1.91188
   A22        1.90084  -0.00453  -0.01853   0.00000  -0.01901   1.88183
   A23        1.90524  -0.00260  -0.00998   0.00000  -0.00997   1.89527
   A24        1.90069  -0.00544  -0.01892   0.00000  -0.01898   1.88171
   A25        2.10821  -0.00175   0.01019   0.00000   0.01008   2.11829
   A26        2.02990   0.00711  -0.01028   0.00000  -0.01039   2.01950
   A27        2.14503  -0.00535  -0.00001   0.00000  -0.00012   2.14491
   A28        2.08993   0.00087  -0.00906   0.00000  -0.00987   2.08006
   A29        2.13071   0.00148   0.00639   0.00000   0.00556   2.13628
   A30        2.06213  -0.00236   0.00184   0.00000   0.00100   2.06312
   A31        1.90012  -0.00465  -0.02216   0.00000  -0.02205   1.87807
   A32        1.92273   0.00358   0.02332   0.00000   0.02325   1.94598
   A33        1.91588   0.00333   0.00935   0.00000   0.00921   1.92509
   A34        1.90688  -0.00009  -0.00653   0.00000  -0.00635   1.90053
   A35        1.91139   0.00008   0.00261   0.00000   0.00265   1.91403
   A36        1.90678  -0.00227  -0.00666   0.00000  -0.00695   1.89983
    D1       -0.09438   0.00003  -0.18882   0.00000  -0.18904  -0.28342
    D2        3.05589  -0.00018  -0.17161   0.00000  -0.17167   2.88422
    D3        1.99968  -0.00054  -0.20717   0.00000  -0.20734   1.79234
    D4       -1.13324  -0.00075  -0.18997   0.00000  -0.18996  -1.32320
    D5       -2.20391   0.00054  -0.20131   0.00000  -0.20118  -2.40509
    D6        0.94636   0.00033  -0.18411   0.00000  -0.18381   0.76255
    D7       -0.00129   0.00064  -0.00228   0.00000  -0.00208  -0.00336
    D8        3.11427  -0.00106  -0.05473   0.00000  -0.05468   3.05958
    D9       -3.13405   0.00040   0.01524   0.00000   0.01519  -3.11885
   D10       -0.01849  -0.00130  -0.03721   0.00000  -0.03741  -0.05590
   D11       -0.01337  -0.00124  -0.02659   0.00000  -0.02620  -0.03957
   D12        2.07159  -0.00593  -0.04554   0.00000  -0.04517   2.02643
   D13       -2.09447   0.00697  -0.00001   0.00000   0.00000  -2.09447
   D14        3.10265  -0.00289  -0.07810   0.00000  -0.07790   3.02475
   D15       -1.09557  -0.00758  -0.09705   0.00000  -0.09687  -1.19244
   D16        1.02155   0.00532  -0.05152   0.00000  -0.05170   0.96985
   D17        1.05156   0.00089   0.00863   0.00000   0.00866   1.06022
   D18       -3.13421   0.00237   0.01482   0.00000   0.01509  -3.11912
   D19       -1.04147   0.00155   0.01160   0.00000   0.01178  -1.02969
   D20        3.13462  -0.00390  -0.03195   0.00000  -0.03221   3.10241
   D21       -1.05114  -0.00242  -0.02576   0.00000  -0.02578  -1.07693
   D22        1.04160  -0.00324  -0.02898   0.00000  -0.02910   1.01250
   D23       -1.07940   0.00272   0.00324   0.00000   0.00309  -1.07632
   D24        1.01802   0.00420   0.00943   0.00000   0.00951   1.02753
   D25        3.11076   0.00338   0.00620   0.00000   0.00620   3.11696
   D26        0.25096  -0.00434  -0.02173   0.00000  -0.02178   0.22918
   D27       -2.87984  -0.00572   0.00000   0.00000   0.00000  -2.87984
   D28       -1.82773   0.00347   0.02752   0.00000   0.02777  -1.79996
   D29        1.32465   0.00210   0.04925   0.00000   0.04954   1.37420
   D30        2.38680  -0.00370  -0.00663   0.00000  -0.00697   2.37983
   D31       -0.74401  -0.00507   0.01509   0.00000   0.01481  -0.72919
   D32       -0.02612   0.00026  -0.05250   0.00000  -0.05224  -0.07837
   D33       -3.13627   0.00107   0.01077   0.00000   0.01066  -3.12561
   D34        3.12651  -0.00117  -0.03028   0.00000  -0.03017   3.09634
   D35        0.01636  -0.00037   0.03300   0.00000   0.03274   0.04910
   D36       -0.07388  -0.00036  -0.14797   0.00000  -0.14802  -0.22190
   D37        2.01679  -0.00118  -0.15543   0.00000  -0.15572   1.86107
   D38       -2.16595   0.00039  -0.14327   0.00000  -0.14324  -2.30919
   D39        3.09868   0.00038  -0.08567   0.00000  -0.08551   3.01317
   D40       -1.09383  -0.00044  -0.09312   0.00000  -0.09321  -1.18705
   D41        1.00661   0.00113  -0.08097   0.00000  -0.08073   0.92588
         Item               Value     Threshold  Converged?
 Maximum Force            0.021665     0.000450     NO 
 RMS     Force            0.005067     0.000300     NO 
 Maximum Displacement     0.457822     0.001800     NO 
 RMS     Displacement     0.101748     0.001200     NO 
 Predicted change in Energy=-4.395380D-03
 GradGradGradGradGradGradGradGradGradGradGradGradGradGradGradGradGradGrad

                          Input orientation:                          
 ---------------------------------------------------------------------
 Center     Atomic      Atomic             Coordinates (Angstroms)
 Number     Number       Type             X           Y           Z
 ---------------------------------------------------------------------
      1          1           0        1.645003    1.745015    1.541845
      2          6           0        1.773427    2.599666    0.877226
      3          1           0        1.092991    3.399565    1.189599
      4          1           0        1.512039    2.312802   -0.147326
      5          6           0        3.208469    3.098722    0.979984
      6          8           0        3.951678    2.782039    1.901863
      7          7           0        3.590202    3.949000   -0.014902
      8          1           0        2.933399    4.194080   -0.741896
      9          6           0        4.880532    4.598445   -0.025559
     10          1           0        5.391288    4.296403    0.893932
     11          6           0        5.715285    4.136916   -1.233994
     12          1           0        5.210792    4.389419   -2.173067
     13          1           0        6.708690    4.598990   -1.252220
     14          1           0        5.851329    3.052948   -1.191933
     15          6           0        4.683642    6.130636   -0.011277
     16          8           0        3.594624    6.631506    0.243590
     17          7           0        5.778655    6.869314   -0.336038
     18          1           0        6.657390    6.401323   -0.496965
     19          6           0        5.761721    8.321732   -0.349443
     20          1           0        4.720539    8.639922   -0.291522
     21          1           0        6.308226    8.737860    0.505296
     22          1           0        6.211178    8.698297   -1.273996
 ---------------------------------------------------------------------
                    Distance matrix (angstroms):
                    1          2          3          4          5
     1  H    0.000000
     2  C    1.090248   0.000000
     3  H    1.779419   1.095632   0.000000
     4  H    1.786997   1.095591   1.773140   0.000000
     5  C    2.143044   1.522813   2.147020   2.183202   0.000000
     6  O    2.554561   2.414108   3.010108   3.220434   1.225769
     7  N    3.326381   2.432543   2.826441   2.648290   1.363265
     8  H    3.587946   2.551323   2.783708   2.431663   2.059209
     9  C    4.589931   3.803188   4.154442   4.072559   2.460911
    10  H    4.578649   3.996012   4.400806   4.479672   2.491294
    11  C    5.476647   4.728491   5.270967   4.709088   3.501952
    12  H    5.788634   4.931833   5.407737   4.700716   3.951825
    13  H    6.449256   5.734863   6.239966   5.783824   4.414191
    14  H    5.184343   4.595233   5.332319   4.524208   3.421115
    15  C    5.556904   4.661173   4.668364   4.965222   3.514433
    16  O    5.418882   4.469226   4.195062   4.810528   3.629319
    17  N    6.846311   5.978608   6.026789   6.245112   4.749225
    18  H    7.138765   6.339881   6.543515   6.581252   4.998360
    19  C    7.986084   7.081895   6.956538   7.362600   5.963749
    20  H    7.769163   6.821739   6.543253   7.095612   5.882855
    21  H    8.468764   7.640691   7.494287   8.044296   6.452419
    22  H    8.782201   7.843131   7.767993   8.007861   6.741805
                    6          7          8          9         10
     6  O    0.000000
     7  N    2.272983   0.000000
     8  H    3.165472   1.009938   0.000000
     9  C    2.806609   1.444591   2.113759   0.000000
    10  H    2.319849   2.047090   2.954255   1.094332   0.000000
    11  C    3.844425   2.457127   2.825654   1.539525   2.158351
    12  H    4.557860   2.734585   2.696836   2.182786   3.073713
[...]
    13  H    6.403615   5.759315   6.287640   5.920244   4.358936
    14  H    5.127445   4.645905   5.407152   4.746352   3.345965
    15  C    5.498737   4.551208   4.599485   4.739490   3.490176
    16  O    5.326661   4.291754   4.101399   4.409979   3.600086
    17  N    6.800062   5.885572   5.945580   6.070060   4.729301
    18  H    7.105441   6.279532   6.465060   6.508542   4.973373
    19  C    7.914041   6.943865   6.831997   7.096833   5.933798
    20  H    7.690796   6.665991   6.437656   6.747842   5.862574
    21  H    8.352431   7.432746   7.239146   7.720521   6.381988
    22  H    8.746830   7.767676   7.732628   7.824733   6.740940
                    6          7          8          9         10
     6  O    0.000000
     7  N    2.285582   0.000000
     8  H    3.127350   1.015091   0.000000
     9  C    2.788729   1.456345   2.077616   0.000000
    10  H    2.297513   2.056327   2.846970   1.097854   0.000000
    11  C    3.701642   2.468938   3.072114   1.538749   2.155826
    12  H    4.477964   2.791497   3.085298   2.189569   3.078045
    13  H    4.376243   3.429414   4.028240   2.205213   2.500914
    14  H    3.401598   2.660851   3.440822   2.155725   2.487578
    15  C    3.977327   2.427144   2.429575   1.545290   2.157234
    16  O    4.308133   2.663769   2.242785   2.421667   3.004958
    17  N    5.042070   3.660226   3.727211   2.466033   2.885020
    18  H    5.102370   3.960235   4.240744   2.573090   2.822180
    19  C    6.299942   4.887038   4.753161   3.844105   4.218762
    20  H    6.391732   4.825647   4.481258   4.064276   4.547219
    21  H    6.589244   5.498792   5.459207   4.393139   4.513607
    22  H    7.132225   5.588994   5.438267   4.510629   4.982185
                   11         12         13         14         15
    11  C    0.000000
    12  H    1.095202   0.000000
    13  H    1.096758   1.777409   0.000000
    14  H    1.093419   1.774932   1.763833   0.000000
    15  C    2.593290   2.844621   2.925009   3.515811   0.000000
    16  O    3.626583   3.709181   4.109415   4.461928   1.228145
    17  N    2.929530   3.132165   2.765330   3.977196   1.362046
    18  H    2.614551   2.975708   2.099033   3.607317   2.046798
    19  C    4.347240   4.396307   4.117344   5.413534   2.468497
    20  H    4.777393   4.715833   4.775662   5.829928   2.534957
    21  H    5.002071   5.231627   4.652738   6.014181   3.101249
    22  H    4.687765   4.565090   4.338960   5.772599   3.260555
                   16         17         18         19         20
    16  O    0.000000
    17  N    2.275313   0.000000
    18  H    3.158859   1.009104   0.000000
    19  C    2.816959   1.453804   2.125651   0.000000
    20  H    2.376463   2.064243   2.969706   1.090370   0.000000
    21  H    3.432710   2.121412   2.563440   1.097315   1.778804
    22  H    3.681781   2.101817   2.476126   1.095007   1.784027
                   21         22
    21  H    0.000000
    22  H    1.783598   0.000000
 Stoichiometry    C6H12N2O2
 Framework group  C1[X(C6H12N2O2)]
 Deg. of freedom    60
 Full point group                 C1      NOp   1
 Largest Abelian subgroup         C1      NOp   1
 Largest concise Abelian subgroup C1      NOp   1
                         Standard orientation:                         
 ---------------------------------------------------------------------
 Center     Atomic      Atomic             Coordinates (Angstroms)
 Number     Number       Type             X           Y           Z
 ---------------------------------------------------------------------
      1          1           0        4.267462   -0.801191   -0.033902
      2          6           0        3.262326   -1.084316   -0.351743
      3          1           0        3.039290   -2.075599    0.061465
      4          1           0        3.226150   -1.153622   -1.443644
      5          6           0        2.266576   -0.076407    0.199223
      6          8           0        2.471723    0.561091    1.223748
      7          7           0        1.120749    0.075090   -0.554611
      8          1           0        0.890392   -0.709027   -1.156696
      9          6           0       -0.049699    0.704552    0.041015
     10          1           0        0.202439    0.895236    1.092371
     11          6           0       -0.359326    2.049374   -0.639671
     12          1           0       -0.655187    1.908502   -1.684701
     13          1           0       -1.153589    2.606108   -0.127742
     14          1           0        0.539888    2.671025   -0.616648
     15          6           0       -1.209686   -0.315577   -0.000103
     16          8           0       -1.008439   -1.498560   -0.261620
     17          7           0       -2.455130    0.190844    0.218012
     18          1           0       -2.542215    1.158549    0.490507
     19          6           0       -3.638754   -0.650706    0.284129
     20          1           0       -3.378901   -1.619372   -0.143736
     21          1           0       -3.974825   -0.799514    1.318060
     22          1           0       -4.455130   -0.204408   -0.293269
 ---------------------------------------------------------------------
 Rotational constants (GHZ):      2.5798246      0.6958492      0.6112510

 **********************************************************************

            Population analysis using the SCF density.

 **********************************************************************

 Orbital symmetries:
       Occupied  (A) (A) (A) (A) (A) (A) (A) (A) (A) (A) (A) (A)
                 (A) (A) (A) (A) (A) (A) (A) (A) (A) (A) (A) (A)
                 (A) (A) (A) (A) (A) (A) (A) (A) (A) (A) (A) (A)
                 (A) (A) (A)
       Virtual   (A) (A) (A) (A) (A) (A) (A) (A) (A) (A) (A) (A)
                 (A) (A) (A) (A) (A) (A) (A) (A) (A) (A) (A) (A)
                 (A) (A) (A) (A) (A) (A) (A) (A) (A) (A) (A) (A)
                 (A) (A) (A) (A) (A) (A) (A) (A) (A) (A) (A) (A)
                 (A) (A) (A) (A) (A) (A) (A) (A) (A) (A) (A) (A)
                 (A) (A) (A) (A) (A) (A) (A) (A) (A) (A) (A) (A)
                 (A) (A) (A) (A) (A) (A) (A) (A) (A) (A) (A) (A)
                 (A) (A) (A) (A) (A) (A) (A) (A) (A) (A) (A) (A)
                 (A) (A) (A) (A) (A) (A) (A) (A) (A) (A) (A) (A)
                 (A) (A) (A) (A) (A) (A) (A) (A) (A) (A) (A) (A)
                 (A) (A) (A) (A) (A) (A) (A) (A) (A) (A) (A) (A)
                 (A) (A) (A)
 The electronic state is 1-A.
 Alpha  occ. eigenvalues --  -19.12056 -19.10670 -14.37129 -14.34766 -10.29311
 Alpha  occ. eigenvalues --  -10.28102 -10.23359 -10.22475 -10.19125 -10.18501
 Alpha  occ. eigenvalues --   -1.04139  -1.02372  -0.92873  -0.91453  -0.77918
 Alpha  occ. eigenvalues --   -0.72716  -0.70996  -0.64648  -0.59256  -0.57158
 Alpha  occ. eigenvalues --   -0.53709  -0.47707  -0.47123  -0.45966  -0.45562
 Alpha  occ. eigenvalues --   -0.44142  -0.42713  -0.41883  -0.40231  -0.39850
 Alpha  occ. eigenvalues --   -0.39219  -0.37984  -0.37710  -0.36367  -0.34032
 Alpha  occ. eigenvalues --   -0.26366  -0.25899  -0.25398  -0.24238
 Alpha virt. eigenvalues --    0.02093   0.03111   0.06320   0.09993   0.11497
 Alpha virt. eigenvalues --    0.13356   0.14221   0.14532   0.15421   0.15959
 Alpha virt. eigenvalues --    0.16372   0.16501   0.17917   0.18981   0.20088
 Alpha virt. eigenvalues --    0.21569   0.22959   0.25253   0.28116   0.33432
 Alpha virt. eigenvalues --    0.33818   0.39189   0.39951   0.49575   0.50633
 Alpha virt. eigenvalues --    0.52126   0.53140   0.54416   0.55231   0.56274
 Alpha virt. eigenvalues --    0.57572   0.59706   0.61784   0.62886   0.65731
 Alpha virt. eigenvalues --    0.68691   0.69111   0.69862   0.72003   0.74258
 Alpha virt. eigenvalues --    0.74831   0.77318   0.79327   0.80614   0.84249
 Alpha virt. eigenvalues --    0.84400   0.85701   0.86389   0.87168   0.87861
 Alpha virt. eigenvalues --    0.88814   0.90007   0.90874   0.92606   0.92921
 Alpha virt. eigenvalues --    0.93964   0.94642   0.95907   0.97067   0.99886
 Alpha virt. eigenvalues --    1.03079   1.05153   1.07436   1.11385   1.13779
 Alpha virt. eigenvalues --    1.17172   1.19004   1.28223   1.29245   1.32817
 Alpha virt. eigenvalues --    1.37285   1.38343   1.41687   1.44693   1.47712
 Alpha virt. eigenvalues --    1.52335   1.54494   1.60625   1.67251   1.68957
 Alpha virt. eigenvalues --    1.74817   1.75830   1.76888   1.77841   1.81501
 Alpha virt. eigenvalues --    1.82203   1.84011   1.86004   1.88789   1.91600
 Alpha virt. eigenvalues --    1.92223   1.96173   1.98156   1.99173   2.02481
 Alpha virt. eigenvalues --    2.04128   2.05575   2.08176   2.13276   2.16496
 Alpha virt. eigenvalues --    2.19463   2.21729   2.24701   2.25815   2.28946
 Alpha virt. eigenvalues --    2.29535   2.30662   2.35366   2.38228   2.41225
 Alpha virt. eigenvalues --    2.45018   2.46696   2.53512   2.57075   2.59014
 Alpha virt. eigenvalues --    2.64129   2.68877   2.70623   2.71923   2.87535
 Alpha virt. eigenvalues --    2.92220   2.96901   3.00866   3.10717   3.14846
 Alpha virt. eigenvalues --    3.91956   3.99993   4.03668   4.10797   4.19514
 Alpha virt. eigenvalues --    4.23731   4.24700   4.38166   4.46598   4.62002
          Condensed to atoms (all electrons):
              1          2          3          4          5          6
     1  H    0.516542   0.358000  -0.021567  -0.024489  -0.019913   0.003675
     2  C    0.358000   5.330597   0.359174   0.344989   0.343476  -0.079573
     3  H   -0.021567   0.359174   0.523279  -0.026028  -0.019899   0.000113
     4  H   -0.024489   0.344989  -0.026028   0.561642  -0.023937   0.002548
     5  C   -0.019913   0.343476  -0.019899  -0.023937   4.312121   0.597494
     6  O    0.003675  -0.079573   0.000113   0.002548   0.597494   8.051344
     7  N    0.004257  -0.120682   0.000018   0.006239   0.265077  -0.099831
     8  H   -0.000051  -0.000415   0.000536   0.000818  -0.015595   0.002935
     9  C   -0.000135   0.006508  -0.000330   0.000112  -0.020220  -0.003572
    10  H   -0.000028   0.001551  -0.000033  -0.000037  -0.000155   0.025600
    11  C    0.000009  -0.000323  -0.000004   0.000013  -0.002250  -0.000935
    12  H    0.000000   0.000000   0.000000   0.000002   0.000065  -0.000014
    13  H    0.000000   0.000004   0.000000   0.000000   0.000036  -0.000007
    14  H    0.000000   0.000023   0.000001  -0.000010   0.001602   0.001127
    15  C   -0.000002   0.000075   0.000057  -0.000067   0.002946   0.000468
    16  O    0.000000  -0.000280   0.000088   0.000003   0.001449  -0.000007
    17  N    0.000000   0.000001   0.000000   0.000000  -0.000046  -0.000003
    18  H    0.000000   0.000000   0.000000   0.000000  -0.000002   0.000001
    19  C    0.000000   0.000000   0.000000   0.000000   0.000002   0.000000
    20  H    0.000000   0.000000   0.000000   0.000000   0.000000   0.000000
    21  H    0.000000   0.000000   0.000000   0.000000   0.000000   0.000000
    22  H    0.000000   0.000000   0.000000   0.000000   0.000000   0.000000
              7          8          9         10         11         12
     1  H    0.004257  -0.000051  -0.000135  -0.000028   0.000009   0.000000
     2  C   -0.120682  -0.000415   0.006508   0.001551  -0.000323   0.000000
     3  H    0.000018   0.000536  -0.000330  -0.000033  -0.000004   0.000000
     4  H    0.006239   0.000818   0.000112  -0.000037   0.000013   0.000002
     5  C    0.265077  -0.015595  -0.020220  -0.000155  -0.002250   0.000065
     6  O   -0.099831   0.002935  -0.003572   0.025600  -0.000935  -0.000014
     7  N    7.122663   0.289692   0.266540  -0.052401  -0.057101  -0.000488
     8  H    0.289692   0.402771  -0.055207   0.005362   0.002535   0.001088
     9  C    0.266540  -0.055207   5.129618   0.359515   0.344524  -0.034482
    10  H   -0.052401   0.005362   0.359515   0.525976  -0.043340   0.004502
    11  C   -0.057101   0.002535   0.344524  -0.043340   5.141118   0.374307
    12  H   -0.000488   0.001088  -0.034482   0.004502   0.374307   0.558186
    13  H    0.004644  -0.000141  -0.028247  -0.000307   0.349715  -0.030214
    14  H   -0.004564  -0.000228  -0.023422  -0.002673   0.369707  -0.027587
    15  C   -0.037785  -0.000159   0.317366  -0.022557  -0.042235  -0.002610
    16  O   -0.014805   0.028861  -0.084222   0.000525   0.001347   0.000242
    17  N    0.002987   0.001181  -0.117073  -0.000604   0.005314   0.000513
    18  H    0.000176  -0.000054   0.000309   0.000217   0.002482  -0.000286
    19  C   -0.000084  -0.000022   0.005493  -0.000188  -0.000053  -0.000091
    20  H    0.000007  -0.000028   0.001024  -0.000019  -0.000065  -0.000006
    21  H   -0.000001  -0.000001  -0.000220   0.000029   0.000014   0.000002
    22  H    0.000002   0.000000  -0.000031  -0.000004  -0.000022  -0.000003
             13         14         15         16         17         18
     1  H    0.000000   0.000000  -0.000002   0.000000   0.000000   0.000000
     2  C    0.000004   0.000023   0.000075  -0.000280   0.000001   0.000000
     3  H    0.000000   0.000001   0.000057   0.000088   0.000000   0.000000
     4  H    0.000000  -0.000010  -0.000067   0.000003   0.000000   0.000000
     5  C    0.000036   0.001602   0.002946   0.001449  -0.000046  -0.000002
     6  O   -0.000007   0.001127   0.000468  -0.000007  -0.000003   0.000001
     7  N    0.004644  -0.004564  -0.037785  -0.014805   0.002987   0.000176
     8  H   -0.000141  -0.000228  -0.000159   0.028861   0.001181  -0.000054
     9  C   -0.028247  -0.023422   0.317366  -0.084222  -0.117073   0.000309
    10  H   -0.000307  -0.002673  -0.022557   0.000525  -0.000604   0.000217
    11  C    0.349715   0.369707  -0.042235   0.001347   0.005314   0.002482
    12  H   -0.030214  -0.027587  -0.002610   0.000242   0.000513  -0.000286
    13  H    0.598210  -0.026785  -0.002998  -0.000005  -0.000775   0.007223
    14  H   -0.026785   0.531691   0.003109  -0.000069   0.000186  -0.000209
    15  C   -0.002998   0.003109   4.371749   0.587737   0.274297  -0.020809
    16  O   -0.000005  -0.000069   0.587737   8.084938  -0.097097   0.003455
    17  N   -0.000775   0.000186   0.274297  -0.097097   7.074418   0.300732
    18  H    0.007223  -0.000209  -0.020809   0.003455   0.300732   0.406144
    19  C    0.000097   0.000003  -0.023346  -0.007077   0.267918  -0.031909
    20  H   -0.000001   0.000001  -0.001581   0.019647  -0.039413   0.004103
    21  H   -0.000007   0.000000  -0.000107   0.000543  -0.042818  -0.001026
    22  H    0.000003  -0.000001   0.002369   0.000464  -0.039358  -0.000760
             19         20         21         22
     1  H    0.000000   0.000000   0.000000   0.000000
     2  C    0.000000   0.000000   0.000000   0.000000
     3  H    0.000000   0.000000   0.000000   0.000000
     4  H    0.000000   0.000000   0.000000   0.000000
     5  C    0.000002   0.000000   0.000000   0.000000
     6  O    0.000000   0.000000   0.000000   0.000000
     7  N   -0.000084   0.000007  -0.000001   0.000002
     8  H   -0.000022  -0.000028  -0.000001   0.000000
     9  C    0.005493   0.001024  -0.000220  -0.000031
    10  H   -0.000188  -0.000019   0.000029  -0.000004
    11  C   -0.000053  -0.000065   0.000014  -0.000022
    12  H   -0.000091  -0.000006   0.000002  -0.000003
    13  H    0.000097  -0.000001  -0.000007   0.000003
    14  H    0.000003   0.000001   0.000000  -0.000001
    15  C   -0.023346  -0.001581  -0.000107   0.002369
    16  O   -0.007077   0.019647   0.000543   0.000464
    17  N    0.267918  -0.039413  -0.042818  -0.039358
    18  H   -0.031909   0.004103  -0.001026  -0.000760
    19  C    4.959596   0.377717   0.384147   0.378598
    20  H    0.377717   0.483110  -0.027298  -0.022485
    21  H    0.384147  -0.027298   0.563876  -0.039629
    22  H    0.378598  -0.022485  -0.039629   0.562354
 Mulliken atomic charges:
              1
     1  H    0.183702
     2  C   -0.543125
     3  H    0.184594
     4  H    0.158201
     5  C    0.577747
     6  O   -0.501362
     7  N   -0.574560
     8  H    0.336122
     9  C   -0.063848
    10  H    0.199070
    11  C   -0.444757
    12  H    0.156875
    13  H    0.129556
    14  H    0.178100
    15  C    0.594082
    16  O   -0.525736
    17  N   -0.590360
    18  H    0.330214
    19  C   -0.310801
    20  H    0.205286
    21  H    0.162496
    22  H    0.158504
 Sum of Mulliken atomic charges =   0.00000
 Mulliken charges with hydrogens summed into heavy atoms:
              1
     2  C   -0.016628
     5  C    0.577747
     6  O   -0.501362
     7  N   -0.238438
     9  C    0.135222
    11  C    0.019774
    15  C    0.594082
    16  O   -0.525736
    17  N   -0.260146
    19  C    0.215485
 Sum of Mulliken charges with hydrogens summed into heavy atoms =   0.00000
 Electronic spatial extent (au):  <R**2>=           1930.0668
 Charge=              0.0000 electrons
 Dipole moment (field-independent basis, Debye):
    X=             -3.2001    Y=              1.0237    Z=             -1.3927  Tot=              3.6371
 Quadrupole moment (field-independent basis, Debye-Ang):
   XX=            -52.9574   YY=            -61.0130   ZZ=            -62.0542
   XY=             -8.0556   XZ=             -7.9129   YZ=             -0.6397
 Traceless Quadrupole moment (field-independent basis, Debye-Ang):
   XX=              5.7175   YY=             -2.3381   ZZ=             -3.3793
   XY=             -8.0556   XZ=             -7.9129   YZ=             -0.6397
 Octapole moment (field-independent basis, Debye-Ang**2):
  XXX=            -35.8372  YYY=              4.9117  ZZZ=             -2.6871  XYY=              0.4970
  XXY=            -12.6579  XXZ=             -8.4664  XZZ=             -8.6567  YZZ=             -4.5255
  YYZ=              2.2435  XYZ=             -3.6550
 Hexadecapole moment (field-independent basis, Debye-Ang**3):
 XXXX=          -1693.0275 YYYY=           -468.5539 ZZZZ=           -180.2343 XXXY=            -19.3388
 XXXZ=            -41.5036 YYYX=             -4.0197 YYYZ=              3.5962 ZZZX=             -7.0259
 ZZZY=              4.4010 XXYY=           -370.7103 XXZZ=           -357.6303 YYZZ=           -108.5199
 XXYZ=             -6.1500 YYXZ=             -3.2101 ZZXY=             -5.1169
 N-N= 5.501670104001D+02 E-N=-2.256391045639D+03  KE= 4.912367883594D+02
 1\1\GINC-NODE007\FOpt\RB3LYP\6-31G(d)\C6H12N2O2\MANAGER\10-Feb-2017\0\
 \# b3lyp/6-31G* Opt=(ModRedundant, maxcycles=1000, calcfc) geom=nocrow
 d\\Phi Psi fixed scan\\0,1\H,1.6319077759,1.7331101499,1.3892838096\C,
 1.7656008878,2.7152348248,0.9320763027\H,1.2571827004,3.4570725536,1.5
 600230272\H,1.2984802482,2.7283456483,-0.0578654155\C,3.2501150893,3.0
 380781459,0.8777485429\O,4.0557161309,2.5736292657,1.6736345508\N,3.62
 04936602,3.8828384267,-0.1485726944\H,2.8782779058,4.4685434129,-0.517
 9994309\C,4.9092226206,4.5585791198,-0.0894621657\H,5.3522658533,4.296
 4189939,0.8802117622\C,5.8446629993,4.0612225401,-1.2054087008\H,5.464
 1271091,4.333675439,-2.1955747702\H,6.8633141023,4.4554253905,-1.10624
 74039\H,5.9112073947,2.9712648564,-1.1494673924\C,4.64765343,6.0814911
 342,-0.1050290541\O,3.5199979861,6.5357900399,0.069171748\N,5.72703661
 37,6.8676628456,-0.3734206493\H,6.6354401618,6.433732454,-0.4426848991
 \C,5.6591540524,8.3197141611,-0.3514013319\H,4.6061167103,8.6010348291
 ,-0.3810370705\H,6.1104356311,8.7342743506,0.5588649574\H,6.1726909369
 ,8.7374614178,-1.2236437221\\Version=EM64L-G09RevA.02\State=1-A\HF=-49
 5.8483399\RMSD=7.421e-09\RMSF=1.030e-03\Dipole=0.7028264,0.8150624,-0.
 9430078\Quadrupole=5.9360681,-2.4040568,-3.5320114,6.9801635,-1.344805
 6,2.6704533\PG=C01 [X(C6H12N2O2)]\\@


 K N O W I N G  IS A BARRIER WHICH PREVENTS LEARNING

                     -- TEACHING OF THE BENE GESSERIT
 Job cpu time:  0 days  1 hours 10 minutes 23.6 seconds.
 File lengths (MBytes):  RWF=    186 Int=      0 D2E=      0 Chk=      4 Scr=      2
 Normal termination of Gaussian 09 at Fri Feb 10 22:25:30 2017.
