 Entering Gaussian System, Link 0=g09
 Initial command:
 /home/steboss/Software/g09/l1.exe /home/steboss/projects/phi_psi_scan/alanine/240/4403/Gau-31789.inp -scrdir=/home/steboss/projects/phi_psi_scan/alanine/240/4403/
 Entering Link 1 = /home/steboss/Software/g09/l1.exe PID=     31791.
  
 Copyright (c) 1988,1990,1992,1993,1995,1998,2003,2009, Gaussian, Inc.
                  All Rights Reserved.
  
 This is part of the Gaussian(R) 09 program.  It is based on
 the Gaussian(R) 03 system (copyright 2003, Gaussian, Inc.),
 the Gaussian(R) 98 system (copyright 1998, Gaussian, Inc.),
 the Gaussian(R) 94 system (copyright 1995, Gaussian, Inc.),
 the Gaussian 92(TM) system (copyright 1992, Gaussian, Inc.),
 the Gaussian 90(TM) system (copyright 1990, Gaussian, Inc.),
 the Gaussian 88(TM) system (copyright 1988, Gaussian, Inc.),
 the Gaussian 86(TM) system (copyright 1986, Carnegie Mellon
 University), and the Gaussian 82(TM) system (copyright 1983,
 Carnegie Mellon University). Gaussian is a federally registered
 trademark of Gaussian, Inc.
  
 This software contains proprietary and confidential information,
 including trade secrets, belonging to Gaussian, Inc.
  
 This software is provided under written license and may be
 used, copied, transmitted, or stored only in accord with that
 written license.
  
 The following legend is applicable only to US Government
 contracts under FAR:
  
                    RESTRICTED RIGHTS LEGEND
  
 Use, reproduction and disclosure by the US Government is
 subject to restrictions as set forth in subparagraphs (a)
 and (c) of the Commercial Computer Software - Restricted
 Rights clause in FAR 52.227-19.
  
 Gaussian, Inc.
 340 Quinnipiac St., Bldg. 40, Wallingford CT 06492
  
  
 ---------------------------------------------------------------
 Warning -- This program may not be used in any manner that
 competes with the business of Gaussian, Inc. or will provide
 assistance to any competitor of Gaussian, Inc.  The licensee
 of this program is prohibited from giving any competitor of
 Gaussian, Inc. access to this program.  By using this program,
 the user acknowledges that Gaussian, Inc. is engaged in the
 business of creating and licensing software in the field of
 computational chemistry and represents and warrants to the
 licensee that it is not a competitor of Gaussian, Inc. and that
 it will not use this program in any manner prohibited above.
 ---------------------------------------------------------------
  

 Cite this work as:
 Gaussian 09, Revision A.02,
 M. J. Frisch, G. W. Trucks, H. B. Schlegel, G. E. Scuseria, 
 M. A. Robb, J. R. Cheeseman, G. Scalmani, V. Barone, B. Mennucci, 
 G. A. Petersson, H. Nakatsuji, M. Caricato, X. Li, H. P. Hratchian, 
 A. F. Izmaylov, J. Bloino, G. Zheng, J. L. Sonnenberg, M. Hada, 
 M. Ehara, K. Toyota, R. Fukuda, J. Hasegawa, M. Ishida, T. Nakajima, 
 Y. Honda, O. Kitao, H. Nakai, T. Vreven, J. A. Montgomery, Jr., 
 J. E. Peralta, F. Ogliaro, M. Bearpark, J. J. Heyd, E. Brothers, 
 K. N. Kudin, V. N. Staroverov, R. Kobayashi, J. Normand, 
 K. Raghavachari, A. Rendell, J. C. Burant, S. S. Iyengar, J. Tomasi, 
 M. Cossi, N. Rega, J. M. Millam, M. Klene, J. E. Knox, J. B. Cross, 
 V. Bakken, C. Adamo, J. Jaramillo, R. Gomperts, R. E. Stratmann, 
 O. Yazyev, A. J. Austin, R. Cammi, C. Pomelli, J. W. Ochterski, 
 R. L. Martin, K. Morokuma, V. G. Zakrzewski, G. A. Voth, 
 P. Salvador, J. J. Dannenberg, S. Dapprich, A. D. Daniels, 
 O. Farkas, J. B. Foresman, J. V. Ortiz, J. Cioslowski, 
 and D. J. Fox, Gaussian, Inc., Wallingford CT, 2009.
 
 ******************************************
 Gaussian 09:  EM64L-G09RevA.02 11-Jun-2009
                10-Feb-2017 
 ******************************************
 %chk=structure_255.chk
 %NProcShared=8
 Will use up to    8 processors via shared memory.
 ----------------------------------------------------------------------
 # b3lyp/6-31G* Opt=(ModRedundant, maxcycles=1000, calcfc) geom=nocrowd
 ----------------------------------------------------------------------
 1/6=1000,10=4,14=-1,18=120,19=15,26=3,38=1/1,3;
 2/9=110,12=1,17=6,18=5,40=1/2;
 3/5=1,6=6,7=1,11=2,16=1,25=1,30=1,71=2,74=-5/1,2,3;
 4//1;
 5/5=2,38=5/2;
 8/6=4,10=90,11=11/1;
 11/6=1,8=1,9=11,15=111,16=1/1,2,10;
 10/6=1,7=6,13=1/2;
 6/7=2,8=2,9=2,10=2,28=1/1;
 7/10=1,18=20,25=1/1,2,3,16;
 1/6=1000,10=4,14=-1,18=20,19=15/3(2);
 2/9=110,12=1/2;
 99//99;
 2/9=110,12=1/2;
 3/5=1,6=6,7=1,11=2,16=1,25=1,30=1,71=1,74=-5/1,2,3;
 4/5=5,16=3/1;
 5/5=2,38=5/2;
 7//1,2,3,16;
 1/6=1000,14=-1,18=20,19=15/3(-5);
 2/9=110,12=1/2;
 6/7=2,8=2,9=2,10=2,19=2,28=1/1;
 99/9=1/99;
 ------------------
 Phi Psi fixed scan
 ------------------
 Symbolic Z-matrix:
 Charge =  0 Multiplicity = 1
 H                     1.5624    1.8816    1.7047 
 C                     1.7794    2.5343    0.8591 
 H                     1.0463    3.3401    0.824 
 H                     1.7316    1.9596   -0.0658 
 C                     3.1755    3.1484    0.9815 
 O                     3.8914    2.883     1.9446 
 N                     3.5554    3.9697    0. 
 H                     2.9312    4.1571   -0.7716 
 C                     4.8533    4.6139    0. 
 H                     5.4076    4.3155    0.8898 
 C                     5.6613    4.2208   -1.2322 
 H                     5.1233    4.5214   -2.1312 
 H                     6.6305    4.7189   -1.2058 
 H                     5.8085    3.1409   -1.2414 
 C                     4.7127    6.1294    0. 
 O                     4.3822    6.7252    1.0229 
 N                     4.9651    6.7532   -1.153 
 H                     5.2337    6.2197   -1.9675 
 C                     4.8663    8.193    -1.2823 
 H                     4.5691    8.6246   -0.3265 
 H                     5.8335    8.5989   -1.5786 
 H                     4.1219    8.4401   -2.0392 
 
 The following ModRedundant input section has been read:
 D    5    7    9   15 F                                                       
 D    7    9   15   17 F                                                       

 GradGradGradGradGradGradGradGradGradGradGradGradGradGradGradGradGradGrad
 Berny optimization.
 Initialization pass.
                           ----------------------------
                           !    Initial Parameters    !
                           ! (Angstroms and Degrees)  !
 --------------------------                            --------------------------
 ! Name  Definition              Value          Derivative Info.                !
 --------------------------------------------------------------------------------
 ! R1    R(1,2)                  1.09           calculate D2E/DX2 analytically  !
 ! R2    R(2,3)                  1.0899         calculate D2E/DX2 analytically  !
 ! R3    R(2,4)                  1.09           calculate D2E/DX2 analytically  !
 ! R4    R(2,5)                  1.5301         calculate D2E/DX2 analytically  !
 ! R5    R(5,6)                  1.229          calculate D2E/DX2 analytically  !
 ! R6    R(5,7)                  1.335          calculate D2E/DX2 analytically  !
 ! R7    R(7,8)                  1.01           calculate D2E/DX2 analytically  !
 ! R8    R(7,9)                  1.449          calculate D2E/DX2 analytically  !
 ! R9    R(9,10)                 1.09           calculate D2E/DX2 analytically  !
 ! R10   R(9,11)                 1.525          calculate D2E/DX2 analytically  !
 ! R11   R(9,15)                 1.522          calculate D2E/DX2 analytically  !
 ! R12   R(11,12)                1.09           calculate D2E/DX2 analytically  !
 ! R13   R(11,13)                1.09           calculate D2E/DX2 analytically  !
 ! R14   R(11,14)                1.0899         calculate D2E/DX2 analytically  !
 ! R15   R(15,16)                1.229          calculate D2E/DX2 analytically  !
 ! R16   R(15,17)                1.335          calculate D2E/DX2 analytically  !
 ! R17   R(17,18)                1.01           calculate D2E/DX2 analytically  !
 ! R18   R(17,19)                1.449          calculate D2E/DX2 analytically  !
 ! R19   R(19,20)                1.09           calculate D2E/DX2 analytically  !
 ! R20   R(19,21)                1.09           calculate D2E/DX2 analytically  !
 ! R21   R(19,22)                1.09           calculate D2E/DX2 analytically  !
 ! A1    A(1,2,3)              109.4979         calculate D2E/DX2 analytically  !
 ! A2    A(1,2,4)              109.5015         calculate D2E/DX2 analytically  !
 ! A3    A(1,2,5)              111.0948         calculate D2E/DX2 analytically  !
 ! A4    A(3,2,4)              109.4502         calculate D2E/DX2 analytically  !
 ! A5    A(3,2,5)              108.6362         calculate D2E/DX2 analytically  !
 ! A6    A(4,2,5)              108.6335         calculate D2E/DX2 analytically  !
 ! A7    A(2,5,6)              120.4974         calculate D2E/DX2 analytically  !
 ! A8    A(2,5,7)              116.5994         calculate D2E/DX2 analytically  !
 ! A9    A(6,5,7)              122.9032         calculate D2E/DX2 analytically  !
 ! A10   A(5,7,8)              119.9965         calculate D2E/DX2 analytically  !
 ! A11   A(5,7,9)              121.8985         calculate D2E/DX2 analytically  !
 ! A12   A(8,7,9)              118.105          calculate D2E/DX2 analytically  !
 ! A13   A(7,9,10)             109.5            calculate D2E/DX2 analytically  !
 ! A14   A(7,9,11)             111.0992         calculate D2E/DX2 analytically  !
 ! A15   A(7,9,15)             111.0966         calculate D2E/DX2 analytically  !
 ! A16   A(10,9,11)            108.6382         calculate D2E/DX2 analytically  !
 ! A17   A(10,9,15)            108.6373         calculate D2E/DX2 analytically  !
 ! A18   A(11,9,15)            107.7947         calculate D2E/DX2 analytically  !
 ! A19   A(9,11,12)            109.5007         calculate D2E/DX2 analytically  !
 ! A20   A(9,11,13)            109.4959         calculate D2E/DX2 analytically  !
 ! A21   A(9,11,14)            109.4978         calculate D2E/DX2 analytically  !
 ! A22   A(12,11,13)           109.441          calculate D2E/DX2 analytically  !
 ! A23   A(12,11,14)           109.4482         calculate D2E/DX2 analytically  !
 ! A24   A(13,11,14)           109.4436         calculate D2E/DX2 analytically  !
 ! A25   A(9,15,16)            120.5            calculate D2E/DX2 analytically  !
 ! A26   A(9,15,17)            116.6027         calculate D2E/DX2 analytically  !
 ! A27   A(16,15,17)           122.8974         calculate D2E/DX2 analytically  !
 ! A28   A(15,17,18)           119.9957         calculate D2E/DX2 analytically  !
 ! A29   A(15,17,19)           121.9032         calculate D2E/DX2 analytically  !
 ! A30   A(18,17,19)           118.1011         calculate D2E/DX2 analytically  !
 ! A31   A(17,19,20)           109.4991         calculate D2E/DX2 analytically  !
 ! A32   A(17,19,21)           109.4992         calculate D2E/DX2 analytically  !
 ! A33   A(17,19,22)           109.4994         calculate D2E/DX2 analytically  !
 ! A34   A(20,19,21)           109.4425         calculate D2E/DX2 analytically  !
 ! A35   A(20,19,22)           109.4467         calculate D2E/DX2 analytically  !
 ! A36   A(21,19,22)           109.4404         calculate D2E/DX2 analytically  !
 ! D1    D(1,2,5,6)              0.0016         calculate D2E/DX2 analytically  !
 ! D2    D(1,2,5,7)           -179.9943         calculate D2E/DX2 analytically  !
 ! D3    D(3,2,5,6)            120.5083         calculate D2E/DX2 analytically  !
 ! D4    D(3,2,5,7)            -59.4876         calculate D2E/DX2 analytically  !
 ! D5    D(4,2,5,6)           -120.5076         calculate D2E/DX2 analytically  !
 ! D6    D(4,2,5,7)             59.4965         calculate D2E/DX2 analytically  !
 ! D7    D(2,5,7,8)             -0.0085         calculate D2E/DX2 analytically  !
 ! D8    D(2,5,7,9)           -179.9978         calculate D2E/DX2 analytically  !
 ! D9    D(6,5,7,8)            179.9958         calculate D2E/DX2 analytically  !
 ! D10   D(6,5,7,9)              0.0064         calculate D2E/DX2 analytically  !
 ! D11   D(5,7,9,10)            -0.0045         calculate D2E/DX2 analytically  !
 ! D12   D(5,7,9,11)           119.9981         calculate D2E/DX2 analytically  !
 ! D13   D(5,7,9,15)          -120.0043         frozen, calculate D2E/DX2 analyt!
 ! D14   D(8,7,9,10)          -179.994          calculate D2E/DX2 analytically  !
 ! D15   D(8,7,9,11)           -59.9914         calculate D2E/DX2 analytically  !
 ! D16   D(8,7,9,15)            60.0061         calculate D2E/DX2 analytically  !
 ! D17   D(7,9,11,12)           60.0024         calculate D2E/DX2 analytically  !
 ! D18   D(7,9,11,13)          179.9986         calculate D2E/DX2 analytically  !
 ! D19   D(7,9,11,14)          -60.0038         calculate D2E/DX2 analytically  !
 ! D20   D(10,9,11,12)        -179.4843         calculate D2E/DX2 analytically  !
 ! D21   D(10,9,11,13)         -59.4881         calculate D2E/DX2 analytically  !
 ! D22   D(10,9,11,14)          60.5095         calculate D2E/DX2 analytically  !
 ! D23   D(15,9,11,12)         -61.938          calculate D2E/DX2 analytically  !
 ! D24   D(15,9,11,13)          58.0582         calculate D2E/DX2 analytically  !
 ! D25   D(15,9,11,14)         178.0558         calculate D2E/DX2 analytically  !
 ! D26   D(7,9,15,16)           75.0019         calculate D2E/DX2 analytically  !
 ! D27   D(7,9,15,17)         -105.0            frozen, calculate D2E/DX2 analyt!
 ! D28   D(10,9,15,16)         -45.5091         calculate D2E/DX2 analytically  !
 ! D29   D(10,9,15,17)         134.4889         calculate D2E/DX2 analytically  !
 ! D30   D(11,9,15,16)        -163.056          calculate D2E/DX2 analytically  !
 ! D31   D(11,9,15,17)          16.942          calculate D2E/DX2 analytically  !
 ! D32   D(9,15,17,18)           0.0049         calculate D2E/DX2 analytically  !
 ! D33   D(9,15,17,19)         179.9992         calculate D2E/DX2 analytically  !
 ! D34   D(16,15,17,18)       -179.9971         calculate D2E/DX2 analytically  !
 ! D35   D(16,15,17,19)         -0.0028         calculate D2E/DX2 analytically  !
 ! D36   D(15,17,19,20)          0.0032         calculate D2E/DX2 analytically  !
 ! D37   D(15,17,19,21)        120.0022         calculate D2E/DX2 analytically  !
 ! D38   D(15,17,19,22)       -120.0011         calculate D2E/DX2 analytically  !
 ! D39   D(18,17,19,20)        179.9976         calculate D2E/DX2 analytically  !
 ! D40   D(18,17,19,21)        -60.0033         calculate D2E/DX2 analytically  !
 ! D41   D(18,17,19,22)         59.9933         calculate D2E/DX2 analytically  !
 --------------------------------------------------------------------------------
 Trust Radius=3.00D-01 FncErr=1.00D-07 GrdErr=1.00D-06
 Number of steps in this run= 132 maximum allowed number of steps= 132.
 GradGradGradGradGradGradGradGradGradGradGradGradGradGradGradGradGradGrad

                          Input orientation:                          
 ---------------------------------------------------------------------
 Center     Atomic      Atomic             Coordinates (Angstroms)
 Number     Number       Type             X           Y           Z
 ---------------------------------------------------------------------
      1          1           0        1.562400    1.881600    1.704700
      2          6           0        1.779400    2.534300    0.859100
      3          1           0        1.046300    3.340100    0.824000
      4          1           0        1.731600    1.959600   -0.065800
      5          6           0        3.175500    3.148400    0.981500
      6          8           0        3.891400    2.883000    1.944600
      7          7           0        3.555400    3.969700    0.000000
      8          1           0        2.931200    4.157100   -0.771600
      9          6           0        4.853300    4.613900    0.000000
     10          1           0        5.407600    4.315500    0.889800
     11          6           0        5.661300    4.220800   -1.232200
     12          1           0        5.123300    4.521400   -2.131200
     13          1           0        6.630500    4.718900   -1.205800
     14          1           0        5.808500    3.140900   -1.241400
     15          6           0        4.712700    6.129400    0.000000
     16          8           0        4.382200    6.725200    1.022900
     17          7           0        4.965100    6.753200   -1.153000
     18          1           0        5.233700    6.219700   -1.967500
     19          6           0        4.866300    8.193000   -1.282300
     20          1           0        4.569100    8.624600   -0.326500
     21          1           0        5.833500    8.598900   -1.578600
     22          1           0        4.121900    8.440100   -2.039200
 ---------------------------------------------------------------------
                    Distance matrix (angstroms):
                    1          2          3          4          5
     1  H    0.000000
     2  C    1.090021   0.000000
     3  H    1.780229   1.089946   0.000000
     4  H    1.780276   1.089956   1.779652   0.000000
     5  C    2.174832   1.530097   2.143606   2.143579   0.000000
     6  O    2.546487   2.400093   3.091808   3.091781   1.229029
     7  N    3.352344   2.439795   2.714950   2.714973   1.334991
     8  H    3.630919   2.572801   2.601207   2.601192   2.037282
     9  C    4.604507   3.809416   4.098145   4.098128   2.434347
    10  H    4.623148   4.041961   4.469527   4.469498   2.520476
    11  C    5.558617   4.720907   5.128530   4.681459   3.497100
    12  H    5.861969   4.906335   5.172099   4.725709   3.920198
    13  H    6.496685   5.706966   6.099546   5.736947   4.380385
    14  H    5.319277   4.584071   5.194623   4.404386   3.445871
    15  C    5.556455   4.718797   4.679921   5.126258   3.494666
    16  O    5.645935   4.936096   4.756752   5.560746   3.775094
    17  N    6.593732   5.656531   5.560106   5.883547   4.555584
    18  H    6.766285   5.788267   5.798180   5.833491   4.729236
    19  C    7.724746   6.792307   6.525300   7.082478   5.782005
    20  H    7.657289   6.802928   6.454433   7.248558   5.800151
    21  H    8.610719   7.691390   7.506314   7.949494   6.582327
    22  H    7.973817   6.983260   6.608118   7.183643   6.166230
                    6          7          8          9         10
     6  O    0.000000
     7  N    2.252839   0.000000
     8  H    3.150088   1.010005   0.000000
     9  C    2.775380   1.448978   2.120967   0.000000
    10  H    2.337418   2.083739   2.986285   1.089970   0.000000
    11  C    3.874831   2.452791   2.769414   1.525027   2.139209
    12  H    4.562245   2.702720   2.605097   2.150225   3.041326
    13  H    4.560506   3.386959   3.766825   2.150214   2.459625
    14  H    3.727248   2.702673   3.087431   2.150165   2.466256
    15  C    3.872353   2.450234   2.767504   1.522008   2.136554
    16  O    3.981572   3.053310   3.452647   2.392874   2.622178
    17  N    5.072120   3.326340   3.319932   2.432799   3.211109
    18  H    5.314119   3.427863   3.314514   2.567947   3.438078
    19  C    6.289627   4.604239   4.504877   3.801897   4.477279
    20  H    6.211533   4.775174   4.779057   4.033991   4.555306
    21  H    6.989721   5.395481   5.366953   4.396930   4.962046
    22  H    6.841429   4.946083   4.622625   4.396941   5.219616
                   11         12         13         14         15
    11  C    0.000000
    12  H    1.089957   0.000000
    13  H    1.090023   1.779613   0.000000
    14  H    1.089925   1.779613   1.779617   0.000000
    15  C    2.461892   2.701161   2.668599   3.416575   0.000000
    16  O    3.604663   3.918458   3.747959   4.473097   1.229037
    17  N    2.627550   2.441891   2.629586   3.710505   1.335006
    18  H    2.172351   1.709739   2.187153   3.215062   2.037315
    19  C    4.051285   3.777212   3.897130   5.139370   2.434406
    20  H    4.626732   4.516672   4.503002   5.695974   2.520565
    21  H    4.395157   4.175615   3.978516   5.468463   3.137929
    22  H    4.563277   4.045674   4.564533   5.618062   3.137948
                   16         17         18         19         20
    16  O    0.000000
    17  N    2.252798   0.000000
    18  H    3.150091   1.010039   0.000000
    19  C    2.775380   1.448967   2.120942   0.000000
    20  H    2.337420   2.083760   2.986322   1.090028   0.000000
    21  H    3.519208   2.083714   2.484270   1.089965   1.779641
    22  H    3.519246   2.083739   2.484234   1.089994   1.779710
                   21         22
    21  H    0.000000
    22  H    1.779591   0.000000
 Stoichiometry    C6H12N2O2
 Framework group  C1[X(C6H12N2O2)]
 Deg. of freedom    60
 Full point group                 C1      NOp   1
 Largest Abelian subgroup         C1      NOp   1
 Largest concise Abelian subgroup C1      NOp   1
                         Standard orientation:                         
 ---------------------------------------------------------------------
 Center     Atomic      Atomic             Coordinates (Angstroms)
 Number     Number       Type             X           Y           Z
 ---------------------------------------------------------------------
      1          1           0       -4.224459   -0.860386    0.580073
      2          6           0       -3.275975   -0.596892    1.048150
      3          1           0       -2.884606   -1.459254    1.587727
      4          1           0       -3.430394    0.227381    1.744380
      5          6           0       -2.246183   -0.166404    0.001535
      6          8           0       -2.539133   -0.150337   -1.191961
      7          7           0       -1.040467    0.181381    0.457052
      8          1           0       -0.847248    0.151930    1.447966
      9          6           0        0.020617    0.607483   -0.432934
     10          1           0       -0.337636    0.587181   -1.462146
     11          6           0        0.477290    2.024790   -0.103695
     12          1           0        0.847380    2.059024    0.920936
     13          1           0        1.274045    2.318280   -0.787212
     14          1           0       -0.362580    2.711375   -0.209311
     15          6           0        1.230653   -0.308911   -0.320940
     16          8           0        1.213794   -1.428988   -0.826583
     17          7           0        2.283957    0.170362    0.344711
     18          1           0        2.250186    1.097940    0.743003
     19          6           0        3.495809   -0.604222    0.520601
     20          1           0        3.380163   -1.575161    0.038873
     21          1           0        4.335127   -0.073783    0.070929
     22          1           0        3.685036   -0.747199    1.584480
 ---------------------------------------------------------------------
 Rotational constants (GHZ):      2.5920157      0.6874973      0.6437486
 Standard basis: 6-31G(d) (6D, 7F)
 There are   174 symmetry adapted basis functions of A   symmetry.
 Integral buffers will be    131072 words long.
 Raffenetti 2 integral format.
 Two-electron integral symmetry is turned on.
   174 basis functions,   328 primitive gaussians,   174 cartesian basis functions
    39 alpha electrons       39 beta electrons
       nuclear repulsion energy       554.4921211280 Hartrees.
 NAtoms=   22 NActive=   22 NUniq=   22 SFac= 7.50D-01 NAtFMM=   80 NAOKFM=F Big=F
 One-electron integrals computed using PRISM.
 NBasis=   174 RedAO= T  NBF=   174
 NBsUse=   174 1.00D-06 NBFU=   174
 Harris functional with IExCor=  402 diagonalized for initial guess.
 ExpMin= 1.61D-01 ExpMax= 5.48D+03 ExpMxC= 8.25D+02 IAcc=1 IRadAn=         1 AccDes= 0.00D+00
 HarFok:  IExCor=  402 AccDes= 0.00D+00 IRadAn=         1 IDoV= 1
 ScaDFX=  1.000000  1.000000  1.000000  1.000000
 FoFCou: FMM=F IPFlag=           0 FMFlag=      100000 FMFlg1=           0
         NFxFlg=           0 DoJE=T BraDBF=F KetDBF=T FulRan=T
         Omega=  0.000000  0.000000  1.000000  0.000000  0.000000 ICntrl=     500 IOpCl=  0
         NMat0=    1 NMatS0=    1 NMatT0=    0 NMatD0=    1 NMtDS0=    0 NMtDT0=    0
         I1Cent=           4 NGrid=           0.
 Petite list used in FoFCou.
 Initial guess orbital symmetries:
       Occupied  (A) (A) (A) (A) (A) (A) (A) (A) (A) (A) (A) (A)
                 (A) (A) (A) (A) (A) (A) (A) (A) (A) (A) (A) (A)
                 (A) (A) (A) (A) (A) (A) (A) (A) (A) (A) (A) (A)
                 (A) (A) (A)
       Virtual   (A) (A) (A) (A) (A) (A) (A) (A) (A) (A) (A) (A)
                 (A) (A) (A) (A) (A) (A) (A) (A) (A) (A) (A) (A)
                 (A) (A) (A) (A) (A) (A) (A) (A) (A) (A) (A) (A)
                 (A) (A) (A) (A) (A) (A) (A) (A) (A) (A) (A) (A)
                 (A) (A) (A) (A) (A) (A) (A) (A) (A) (A) (A) (A)
                 (A) (A) (A) (A) (A) (A) (A) (A) (A) (A) (A) (A)
                 (A) (A) (A) (A) (A) (A) (A) (A) (A) (A) (A) (A)
                 (A) (A) (A) (A) (A) (A) (A) (A) (A) (A) (A) (A)
                 (A) (A) (A) (A) (A) (A) (A) (A) (A) (A) (A) (A)
                 (A) (A) (A) (A) (A) (A) (A) (A) (A) (A) (A) (A)
                 (A) (A) (A) (A) (A) (A) (A) (A) (A) (A) (A) (A)
                 (A) (A) (A)
 The electronic state of the initial guess is 1-A.
 Requested convergence on RMS density matrix=1.00D-08 within 128 cycles.
 Requested convergence on MAX density matrix=1.00D-06.
 Requested convergence on             energy=1.00D-06.
 No special actions if energy rises.
 Integral accuracy reduced to 1.0D-05 until final iterations.
 Initial convergence to 1.0D-05 achieved.  Increase integral accuracy.
 SCF Done:  E(RB3LYP) =  -495.829639768     A.U. after   15 cycles
             Convg  =    0.8249D-08             -V/T =  2.0087
 Range of M.O.s used for correlation:     1   174
 NBasis=   174 NAE=    39 NBE=    39 NFC=     0 NFV=     0
 NROrb=    174 NOA=    39 NOB=    39 NVA=   135 NVB=   135
 Symmetrizing basis deriv contribution to polar:
 IMax=3 JMax=2 DiffMx= 0.00D+00
 G2DrvN: will do    23 centers at a time, making    1 passes doing MaxLOS=2.
 Calling FoFCou, ICntrl=  3107 FMM=F I1Cent=   0 AccDes= 0.00D+00.
 FoFDir/FoFCou used for L=0 through L=2.
 End of G2Drv Frequency-dependent properties file   721 does not exist.
 End of G2Drv Frequency-dependent properties file   722 does not exist.
          IDoAtm=1111111111111111111111
          Differentiating once with respect to nuclear coordinates.
          There are    69 degrees of freedom in the 1st order CPHF.  IDoFFX=5.
     63 vectors produced by pass  0 Test12= 7.63D-11 1.45D-07 XBig12= 1.95D-01 1.14D-01.
 AX will form    63 AO Fock derivatives at one time.
     63 vectors produced by pass  1 Test12= 7.63D-11 1.45D-07 XBig12= 3.42D-02 5.32D-02.
     63 vectors produced by pass  2 Test12= 7.63D-11 1.45D-07 XBig12= 5.06D-05 1.15D-03.
     63 vectors produced by pass  3 Test12= 7.63D-11 1.45D-07 XBig12= 8.75D-08 5.95D-05.
     29 vectors produced by pass  4 Test12= 7.63D-11 1.45D-07 XBig12= 9.00D-11 1.79D-06.
 Inverted reduced A of dimension   281 with in-core refinement.
 End of Minotr Frequency-dependent properties file   721 does not exist.
 End of Minotr Frequency-dependent properties file   722 does not exist.

 **********************************************************************

            Population analysis using the SCF density.

 **********************************************************************

 Orbital symmetries:
       Occupied  (A) (A) (A) (A) (A) (A) (A) (A) (A) (A) (A) (A)
                 (A) (A) (A) (A) (A) (A) (A) (A) (A) (A) (A) (A)
                 (A) (A) (A) (A) (A) (A) (A) (A) (A) (A) (A) (A)
                 (A) (A) (A)
       Virtual   (A) (A) (A) (A) (A) (A) (A) (A) (A) (A) (A) (A)
                 (A) (A) (A) (A) (A) (A) (A) (A) (A) (A) (A) (A)
                 (A) (A) (A) (A) (A) (A) (A) (A) (A) (A) (A) (A)
                 (A) (A) (A) (A) (A) (A) (A) (A) (A) (A) (A) (A)
                 (A) (A) (A) (A) (A) (A) (A) (A) (A) (A) (A) (A)
                 (A) (A) (A) (A) (A) (A) (A) (A) (A) (A) (A) (A)
                 (A) (A) (A) (A) (A) (A) (A) (A) (A) (A) (A) (A)
                 (A) (A) (A) (A) (A) (A) (A) (A) (A) (A) (A) (A)
                 (A) (A) (A) (A) (A) (A) (A) (A) (A) (A) (A) (A)
                 (A) (A) (A) (A) (A) (A) (A) (A) (A) (A) (A) (A)
                 (A) (A) (A) (A) (A) (A) (A) (A) (A) (A) (A) (A)
                 (A) (A) (A)
 The electronic state is 1-A.
 Alpha  occ. eigenvalues --  -19.10021 -19.09836 -14.36668 -14.36513 -10.27999
 Alpha  occ. eigenvalues --  -10.27759 -10.23258 -10.22034 -10.19675 -10.18733
 Alpha  occ. eigenvalues --   -1.03108  -1.02110  -0.93194  -0.92597  -0.79466
 Alpha  occ. eigenvalues --   -0.73181  -0.71050  -0.65785  -0.59872  -0.59326
 Alpha  occ. eigenvalues --   -0.54436  -0.49563  -0.46943  -0.46329  -0.45408
 Alpha  occ. eigenvalues --   -0.44125  -0.42623  -0.42370  -0.40278  -0.40005
 Alpha  occ. eigenvalues --   -0.38746  -0.38375  -0.37521  -0.36273  -0.35232
 Alpha  occ. eigenvalues --   -0.26320  -0.25342  -0.23712  -0.23184
 Alpha virt. eigenvalues --    0.02279   0.04444   0.06125   0.08330   0.11443
 Alpha virt. eigenvalues --    0.12365   0.13228   0.14711   0.15151   0.16104
 Alpha virt. eigenvalues --    0.16583   0.17470   0.17992   0.18220   0.19790
 Alpha virt. eigenvalues --    0.21347   0.22710   0.26307   0.27273   0.32573
 Alpha virt. eigenvalues --    0.33753   0.38621   0.42149   0.50255   0.51356
 Alpha virt. eigenvalues --    0.51890   0.52315   0.53607   0.55468   0.56209
 Alpha virt. eigenvalues --    0.58315   0.59870   0.61021   0.62402   0.65172
 Alpha virt. eigenvalues --    0.68025   0.68622   0.69639   0.71648   0.73897
 Alpha virt. eigenvalues --    0.75282   0.76689   0.79468   0.79893   0.83961
 Alpha virt. eigenvalues --    0.84630   0.85475   0.86433   0.87861   0.87948
 Alpha virt. eigenvalues --    0.89803   0.89961   0.91201   0.91802   0.94176
 Alpha virt. eigenvalues --    0.94681   0.95158   0.95628   0.97965   1.03378
 Alpha virt. eigenvalues --    1.05215   1.07125   1.10009   1.12486   1.15536
 Alpha virt. eigenvalues --    1.19246   1.25034   1.30448   1.32735   1.33149
 Alpha virt. eigenvalues --    1.37556   1.41282   1.45093   1.45820   1.49086
 Alpha virt. eigenvalues --    1.52991   1.54333   1.62241   1.65717   1.69680
 Alpha virt. eigenvalues --    1.70281   1.75472   1.78448   1.81554   1.83072
 Alpha virt. eigenvalues --    1.84422   1.85376   1.87898   1.89650   1.90630
 Alpha virt. eigenvalues --    1.95503   1.96413   1.98158   2.00259   2.03030
 Alpha virt. eigenvalues --    2.05945   2.07087   2.12145   2.12359   2.15029
 Alpha virt. eigenvalues --    2.20054   2.20525   2.25874   2.26553   2.28728
 Alpha virt. eigenvalues --    2.30430   2.33459   2.35164   2.38892   2.41991
 Alpha virt. eigenvalues --    2.43182   2.48346   2.54608   2.58011   2.62751
 Alpha virt. eigenvalues --    2.66514   2.69754   2.73905   2.75781   2.90161
 Alpha virt. eigenvalues --    2.94408   2.97712   2.99996   3.17269   3.18142
 Alpha virt. eigenvalues --    3.96528   3.98945   4.06482   4.16961   4.20035
 Alpha virt. eigenvalues --    4.21849   4.29776   4.36222   4.47486   4.70228
          Condensed to atoms (all electrons):
              1          2          3          4          5          6
     1  H    0.496827   0.361662  -0.020575  -0.021511  -0.017488   0.005097
     2  C    0.361662   5.344649   0.350998   0.348035   0.347122  -0.082048
     3  H   -0.020575   0.350998   0.548086  -0.027497  -0.025939   0.001356
     4  H   -0.021511   0.348035  -0.027497   0.561385  -0.025704   0.001499
     5  C   -0.017488   0.347122  -0.025939  -0.025704   4.323163   0.614567
     6  O    0.005097  -0.082048   0.001356   0.001499   0.614567   8.049097
     7  N    0.004403  -0.135920   0.004749   0.004695   0.217483  -0.107569
     8  H   -0.000158   0.000073   0.000937   0.000970  -0.017006   0.003477
     9  C   -0.000135   0.007162  -0.000301  -0.000295  -0.013242   0.000936
    10  H   -0.000012   0.001317  -0.000043  -0.000047   0.001172   0.021576
    11  C    0.000003  -0.000228  -0.000009   0.000044   0.001869   0.000415
    12  H    0.000000  -0.000009   0.000000   0.000002  -0.000211  -0.000016
    13  H    0.000000   0.000004   0.000000   0.000000  -0.000025  -0.000010
    14  H    0.000000  -0.000021   0.000000  -0.000007   0.001250   0.000231
    15  C    0.000001  -0.000078   0.000059  -0.000015   0.001385  -0.000635
    16  O    0.000000  -0.000004   0.000004   0.000000   0.001806  -0.000079
    17  N    0.000000   0.000002   0.000001   0.000000  -0.000061  -0.000012
    18  H    0.000000   0.000000   0.000000   0.000000  -0.000053  -0.000001
    19  C    0.000000   0.000000   0.000000   0.000000   0.000002   0.000000
    20  H    0.000000   0.000000   0.000000   0.000000  -0.000001   0.000000
    21  H    0.000000   0.000000   0.000000   0.000000   0.000000   0.000000
    22  H    0.000000   0.000000   0.000000   0.000000   0.000000   0.000000
              7          8          9         10         11         12
     1  H    0.004403  -0.000158  -0.000135  -0.000012   0.000003   0.000000
     2  C   -0.135920   0.000073   0.007162   0.001317  -0.000228  -0.000009
     3  H    0.004749   0.000937  -0.000301  -0.000043  -0.000009   0.000000
     4  H    0.004695   0.000970  -0.000295  -0.000047   0.000044   0.000002
     5  C    0.217483  -0.017006  -0.013242   0.001172   0.001869  -0.000211
     6  O   -0.107569   0.003477   0.000936   0.021576   0.000415  -0.000016
     7  N    7.174951   0.296208   0.249691  -0.042164  -0.060507  -0.005149
     8  H    0.296208   0.418841  -0.030539   0.004546  -0.002416   0.004450
     9  C    0.249691  -0.030539   5.127504   0.366917   0.282626  -0.022877
    10  H   -0.042164   0.004546   0.366917   0.491634  -0.037464   0.005029
    11  C   -0.060507  -0.002416   0.282626  -0.037464   5.256554   0.351398
    12  H   -0.005149   0.004450  -0.022877   0.005029   0.351398   0.607420
    13  H    0.005137  -0.000143  -0.034518  -0.002816   0.370474  -0.037427
    14  H   -0.000404  -0.000102  -0.022441  -0.003428   0.362254  -0.026227
    15  C   -0.039898  -0.002050   0.331410  -0.026905  -0.048774  -0.014786
    16  O   -0.000091  -0.000080  -0.082970   0.000851   0.004417  -0.000144
    17  N   -0.001711   0.001713  -0.118389   0.003091  -0.002763  -0.003026
    18  H    0.000362   0.000016  -0.005592   0.000169   0.006152   0.011974
    19  C   -0.000129  -0.000035   0.007174  -0.000112  -0.000127   0.000316
    20  H   -0.000019  -0.000002   0.001089  -0.000017  -0.000113  -0.000017
    21  H   -0.000003   0.000002  -0.000029   0.000016  -0.000105   0.000077
    22  H    0.000023  -0.000010  -0.000298  -0.000003   0.000083  -0.000092
             13         14         15         16         17         18
     1  H    0.000000   0.000000   0.000001   0.000000   0.000000   0.000000
     2  C    0.000004  -0.000021  -0.000078  -0.000004   0.000002   0.000000
     3  H    0.000000   0.000000   0.000059   0.000004   0.000001   0.000000
     4  H    0.000000  -0.000007  -0.000015   0.000000   0.000000   0.000000
     5  C   -0.000025   0.001250   0.001385   0.001806  -0.000061  -0.000053
     6  O   -0.000010   0.000231  -0.000635  -0.000079  -0.000012  -0.000001
     7  N    0.005137  -0.000404  -0.039898  -0.000091  -0.001711   0.000362
     8  H   -0.000143  -0.000102  -0.002050  -0.000080   0.001713   0.000016
     9  C   -0.034518  -0.022441   0.331410  -0.082970  -0.118389  -0.005592
    10  H   -0.002816  -0.003428  -0.026905   0.000851   0.003091   0.000169
    11  C    0.370474   0.362254  -0.048774   0.004417  -0.002763   0.006152
    12  H   -0.037427  -0.026227  -0.014786  -0.000144  -0.003026   0.011974
    13  H    0.550302  -0.020535   0.001697  -0.000074  -0.000851   0.000265
    14  H   -0.020535   0.534168   0.003797  -0.000079   0.000684  -0.000222
    15  C    0.001697   0.003797   4.387288   0.603069   0.249920  -0.016916
    16  O   -0.000074  -0.000079   0.603069   8.079239  -0.105355   0.003908
    17  N   -0.000851   0.000684   0.249920  -0.105355   7.139565   0.290013
    18  H    0.000265  -0.000222  -0.016916   0.003908   0.290013   0.410296
    19  C   -0.000038  -0.000004  -0.025483  -0.009231   0.261349  -0.030514
    20  H   -0.000013   0.000002   0.000344   0.023310  -0.038425   0.003657
    21  H   -0.000004  -0.000002   0.001381   0.000599  -0.044769  -0.000390
    22  H    0.000005   0.000001   0.001766   0.000633  -0.043483  -0.000769
             19         20         21         22
     1  H    0.000000   0.000000   0.000000   0.000000
     2  C    0.000000   0.000000   0.000000   0.000000
     3  H    0.000000   0.000000   0.000000   0.000000
     4  H    0.000000   0.000000   0.000000   0.000000
     5  C    0.000002  -0.000001   0.000000   0.000000
     6  O    0.000000   0.000000   0.000000   0.000000
     7  N   -0.000129  -0.000019  -0.000003   0.000023
     8  H   -0.000035  -0.000002   0.000002  -0.000010
     9  C    0.007174   0.001089  -0.000029  -0.000298
    10  H   -0.000112  -0.000017   0.000016  -0.000003
    11  C   -0.000127  -0.000113  -0.000105   0.000083
    12  H    0.000316  -0.000017   0.000077  -0.000092
    13  H   -0.000038  -0.000013  -0.000004   0.000005
    14  H   -0.000004   0.000002  -0.000002   0.000001
    15  C   -0.025483   0.000344   0.001381   0.001766
    16  O   -0.009231   0.023310   0.000599   0.000633
    17  N    0.261349  -0.038425  -0.044769  -0.043483
    18  H   -0.030514   0.003657  -0.000390  -0.000769
    19  C    4.971896   0.374329   0.384372   0.380993
    20  H    0.374329   0.471285  -0.023883  -0.023675
    21  H    0.384372  -0.023883   0.561838  -0.038603
    22  H    0.380993  -0.023675  -0.038603   0.568153
 Mulliken atomic charges:
              1
     1  H    0.191885
     2  C   -0.542713
     3  H    0.168176
     4  H    0.158445
     5  C    0.589910
     6  O   -0.507881
     7  N   -0.564138
     8  H    0.321310
     9  C   -0.042884
    10  H    0.216693
    11  C   -0.483782
    12  H    0.129315
    13  H    0.168568
    14  H    0.171085
    15  C    0.593423
    16  O   -0.519731
    17  N   -0.587493
    18  H    0.327644
    19  C   -0.314757
    20  H    0.212148
    21  H    0.159502
    22  H    0.155275
 Sum of Mulliken atomic charges =   0.00000
 Mulliken charges with hydrogens summed into heavy atoms:
              1
     2  C   -0.024207
     5  C    0.589910
     6  O   -0.507881
     7  N   -0.242828
     9  C    0.173809
    11  C   -0.014814
    15  C    0.593423
    16  O   -0.519731
    17  N   -0.259849
    19  C    0.212168
 Sum of Mulliken charges with hydrogens summed into heavy atoms =   0.00000
 APT atomic charges:
              1
     1  H    0.735149
     2  C   -1.225460
     3  H    0.297410
     4  H    0.405975
     5  C   -0.091976
     6  O   -0.084335
     7  N   -0.616336
     8  H    0.502825
     9  C   -0.395983
    10  H    0.434388
    11  C   -1.204801
    12  H    0.311336
    13  H    0.454869
    14  H    0.453509
    15  C   -0.090980
    16  O   -0.177421
    17  N   -0.370533
    18  H    0.512823
    19  C   -1.387625
    20  H    0.414580
    21  H    0.629204
    22  H    0.493384
 Sum of APT charges=   0.00000
 APT Atomic charges with hydrogens summed into heavy atoms:
              1
     1  H    0.000000
     2  C    0.213074
     3  H    0.000000
     4  H    0.000000
     5  C   -0.091976
     6  O   -0.084335
     7  N   -0.113511
     8  H    0.000000
     9  C    0.038405
    10  H    0.000000
    11  C    0.014912
    12  H    0.000000
    13  H    0.000000
    14  H    0.000000
    15  C   -0.090980
    16  O   -0.177421
    17  N    0.142290
    18  H    0.000000
    19  C    0.149543
    20  H    0.000000
    21  H    0.000000
    22  H    0.000000
 Sum of APT charges=   0.00000
 Electronic spatial extent (au):  <R**2>=           1894.0414
 Charge=              0.0000 electrons
 Dipole moment (field-independent basis, Debye):
    X=              2.6566    Y=              3.2947    Z=              4.9517  Tot=              6.5140
 Quadrupole moment (field-independent basis, Debye-Ang):
   XX=            -56.1406   YY=            -61.7834   ZZ=            -60.6645
   XY=              3.5942   XZ=             -4.6321   YZ=             -3.1425
 Traceless Quadrupole moment (field-independent basis, Debye-Ang):
   XX=              3.3889   YY=             -2.2539   ZZ=             -1.1350
   XY=              3.5942   XZ=             -4.6321   YZ=             -3.1425
 Octapole moment (field-independent basis, Debye-Ang**2):
  XXX=             31.0773  YYY=              1.7973  ZZZ=              3.8617  XYY=             -2.5430
  XXY=             -1.9844  XXZ=             25.1545  XZZ=              6.6343  YZZ=              3.0679
  YYZ=              2.8029  XYZ=             -0.4321
 Hexadecapole moment (field-independent basis, Debye-Ang**3):
 XXXX=          -1690.9573 YYYY=           -404.1933 ZZZZ=           -243.3182 XXXY=              1.1663
 XXXZ=            -27.5928 YYYX=              1.5970 YYYZ=             -3.9198 ZZZX=             -0.2122
 ZZZY=              1.8225 XXYY=           -352.4281 XXZZ=           -360.1958 YYZZ=           -108.3689
 XXYZ=             -2.6168 YYXZ=              7.4952 ZZXY=              0.3630
 N-N= 5.544921211280D+02 E-N=-2.265220327484D+03  KE= 4.915754217579D+02
  Exact polarizability:   0.000   0.000   0.000   0.000   0.000   0.000
 Approx polarizability: 120.563   8.778 103.008  16.178  10.841 114.931
 Calling FoFJK, ICntrl=    100147 FMM=F ISym2X=0 I1Cent= 0 IOpClX= 0 NMat=1 NMatS=1 NMatT=0.
 ***** Axes restored to original set *****
 -------------------------------------------------------------------
 Center     Atomic                   Forces (Hartrees/Bohr)
 Number     Number              X              Y              Z
 -------------------------------------------------------------------
      1        1           0.003629470    0.001321161    0.000703731
      2        6           0.007246198    0.006807635   -0.005063050
      3        1          -0.006043205    0.000566771   -0.001727333
      4        1          -0.004943831   -0.002552799   -0.003840485
      5        6          -0.009735105   -0.026960727    0.039038854
      6        8           0.001692182    0.000905948   -0.003466951
      7        7           0.007512685    0.014890076   -0.016508032
      8        1          -0.001014481    0.000855043   -0.000271618
      9        6           0.010301416    0.003624691   -0.020414009
     10        1          -0.007650246   -0.000012795    0.004151304
     11        6           0.002487249   -0.016464843    0.005706550
     12        1           0.000598611   -0.007885861   -0.007062186
     13        1           0.003729181   -0.001289218   -0.002614415
     14        1           0.001736877   -0.002464959   -0.003911527
     15        6          -0.010064619    0.000102477    0.038990882
     16        8          -0.001365478    0.000752670   -0.000187272
     17        7           0.001284602    0.015623046   -0.020388985
     18        1          -0.000387689    0.007072138    0.003071047
     19        6           0.000566597   -0.000248563   -0.002669379
     20        1           0.000074259   -0.003104198    0.000782625
     21        1           0.002522849    0.004340522   -0.001524220
     22        1          -0.002177522    0.004121786   -0.002795532
 -------------------------------------------------------------------
 Cartesian Forces:  Max     0.039038854 RMS     0.010030309

 GradGradGradGradGradGradGradGradGradGradGradGradGradGradGradGradGradGrad
 Berny optimization.
 Internal  Forces:  Max     0.037211087 RMS     0.009266819
 Search for a local minimum.
 Step number   1 out of a maximum of  132
 All quantities printed in internal units (Hartrees-Bohrs-Radians)
 Mixed Optimization -- RFO/linear search
 Second derivative matrix not updated -- analytic derivatives used.
     Eigenvalues ---   -0.00069  -0.00028   0.00180   0.00270   0.00808
     Eigenvalues ---    0.01708   0.01769   0.02193   0.03889   0.04312
     Eigenvalues ---    0.04779   0.05083   0.05359   0.05409   0.05830
     Eigenvalues ---    0.05977   0.06394   0.06620   0.11602   0.11910
     Eigenvalues ---    0.12308   0.12471   0.13228   0.13354   0.13563
     Eigenvalues ---    0.14273   0.14701   0.17575   0.17840   0.18553
     Eigenvalues ---    0.19258   0.20148   0.21526   0.22360   0.24064
     Eigenvalues ---    0.24652   0.27460   0.29955   0.33702   0.34576
     Eigenvalues ---    0.34605   0.34859   0.35070   0.35084   0.35306
     Eigenvalues ---    0.35539   0.35743   0.35863   0.35930   0.37467
     Eigenvalues ---    0.39402   0.45817   0.46808   0.53516   0.54223
     Eigenvalues ---    0.70441   0.82662   0.832031000.000001000.00000
     Eigenvalues --- 1000.000001000.000001000.000001000.000001000.00000
     Eigenvalues --- 1000.000001000.000001000.000001000.000001000.00000
     Eigenvalues --- 1000.000001000.000001000.000001000.000001000.00000
     Eigenvalues --- 1000.000001000.000001000.000001000.000001000.00000
     Eigenvalues --- 1000.000001000.000001000.000001000.000001000.00000
     Eigenvalues --- 1000.000001000.000001000.000001000.000001000.00000
     Eigenvalues --- 1000.000001000.000001000.000001000.000001000.00000
     Eigenvalues --- 1000.000001000.000001000.00000
 RFO step:  Lambda=-1.83868211D-02 EMin=-6.90726603D-04
 Linear search not attempted -- first point.
 Maximum step size (   0.300) exceeded in Quadratic search.
    -- Step size scaled by   0.314
 Iteration  1 RMS(Cart)=  0.05403931 RMS(Int)=  0.00225886
 Iteration  2 RMS(Cart)=  0.00239893 RMS(Int)=  0.00005378
 Iteration  3 RMS(Cart)=  0.00000429 RMS(Int)=  0.00005369
 Iteration  4 RMS(Cart)=  0.00000000 RMS(Int)=  0.00005369
 Iteration  1 RMS(Cart)=  0.00002715 RMS(Int)=  0.00000860
 Iteration  2 RMS(Cart)=  0.00001431 RMS(Int)=  0.00000962
 Iteration  3 RMS(Cart)=  0.00000756 RMS(Int)=  0.00001081
 Iteration  4 RMS(Cart)=  0.00000401 RMS(Int)=  0.00001157
 Iteration  5 RMS(Cart)=  0.00000214 RMS(Int)=  0.00001200
 Iteration  6 RMS(Cart)=  0.00000115 RMS(Int)=  0.00001223
 Iteration  7 RMS(Cart)=  0.00000062 RMS(Int)=  0.00001236
 Variable       Old X    -DE/DX   Delta X   Delta X   Delta X     New X
                                 (Linear)    (Quad)   (Total)
    R1        2.05984  -0.00097   0.00000   0.00005   0.00005   2.05989
    R2        2.05970   0.00454   0.00000   0.00360   0.00360   2.06330
    R3        2.05972   0.00482   0.00000   0.00368   0.00368   2.06340
    R4        2.89146  -0.00156   0.00000  -0.00389  -0.00389   2.88757
    R5        2.32253  -0.00193   0.00000  -0.00368  -0.00368   2.31885
    R6        2.52277   0.03342   0.00000   0.01998   0.01998   2.54275
    R7        1.90863   0.00099   0.00000   0.00050   0.00050   1.90914
    R8        2.73817   0.00334   0.00000   0.00304   0.00304   2.74122
    R9        2.05975  -0.00050   0.00000   0.00074   0.00074   2.06048
   R10        2.88188   0.01814   0.00000   0.00677   0.00677   2.88865
   R11        2.87618   0.02941   0.00000   0.01272   0.01272   2.88890
   R12        2.05972   0.00335   0.00000   0.00507   0.00507   2.06479
   R13        2.05984   0.00266   0.00000   0.00357   0.00357   2.06341
   R14        2.05966   0.00271   0.00000   0.00205   0.00205   2.06171
   R15        2.32254   0.00058   0.00000  -0.00294  -0.00294   2.31960
   R16        2.52280   0.03367   0.00000   0.01706   0.01706   2.53986
   R17        1.90870  -0.00631   0.00000  -0.00126  -0.00126   1.90743
   R18        2.73815   0.00556   0.00000   0.00221   0.00221   2.74036
   R19        2.05985  -0.00056   0.00000   0.00024   0.00024   2.06010
   R20        2.05974   0.00427   0.00000   0.00417   0.00417   2.06391
   R21        2.05979   0.00436   0.00000   0.00304   0.00304   2.06283
    A1        1.91110  -0.00001   0.00000  -0.00340  -0.00342   1.90768
    A2        1.91116  -0.00016   0.00000   0.00076   0.00080   1.91196
    A3        1.93897  -0.00792   0.00000  -0.01217  -0.01216   1.92681
    A4        1.91027  -0.00500   0.00000  -0.00770  -0.00776   1.90250
    A5        1.89606   0.00625   0.00000   0.00329   0.00325   1.89931
    A6        1.89601   0.00689   0.00000   0.01933   0.01932   1.91533
    A7        2.10308   0.00834   0.00000   0.01211   0.01210   2.11518
    A8        2.03504  -0.00966   0.00000  -0.01129  -0.01129   2.02375
    A9        2.14506   0.00132   0.00000  -0.00083  -0.00084   2.14423
   A10        2.09433  -0.00222   0.00000  -0.00403  -0.00404   2.09030
   A11        2.12753   0.00431   0.00000   0.00379   0.00379   2.13132
   A12        2.06132  -0.00209   0.00000   0.00024   0.00024   2.06156
   A13        1.91114   0.00283   0.00000  -0.01441  -0.01455   1.89658
   A14        1.93905  -0.01052   0.00000   0.00177   0.00184   1.94089
   A15        1.93900  -0.01362   0.00000  -0.01169  -0.01192   1.92708
   A16        1.89609  -0.00533   0.00000   0.00301   0.00302   1.89911
   A17        1.89608  -0.01019   0.00000  -0.00834  -0.00866   1.88742
   A18        1.88137   0.03721   0.00000   0.03029   0.03032   1.91170
   A19        1.91115   0.00937   0.00000   0.01235   0.01231   1.92346
   A20        1.91106   0.00392   0.00000   0.00697   0.00693   1.91799
   A21        1.91110   0.00229   0.00000   0.00248   0.00247   1.91357
   A22        1.91011  -0.00354   0.00000  -0.00552  -0.00559   1.90451
   A23        1.91023  -0.00802   0.00000  -0.01038  -0.01039   1.89984
   A24        1.91015  -0.00404   0.00000  -0.00591  -0.00592   1.90424
   A25        2.10312  -0.01217   0.00000   0.00230   0.00227   2.10539
   A26        2.03510   0.02591   0.00000  -0.00320  -0.00324   2.03186
   A27        2.14496  -0.01374   0.00000   0.00090   0.00086   2.14583
   A28        2.09432   0.00427   0.00000  -0.00363  -0.00372   2.09060
   A29        2.12761  -0.00031   0.00000   0.00221   0.00211   2.12973
   A30        2.06125  -0.00396   0.00000   0.00141   0.00132   2.06257
   A31        1.91112  -0.00646   0.00000  -0.01127  -0.01126   1.89986
   A32        1.91112   0.00464   0.00000   0.01142   0.01141   1.92253
   A33        1.91113   0.00500   0.00000   0.00480   0.00478   1.91591
   A34        1.91013   0.00008   0.00000  -0.00313  -0.00310   1.90703
   A35        1.91020  -0.00002   0.00000   0.00177   0.00177   1.91198
   A36        1.91010  -0.00324   0.00000  -0.00359  -0.00363   1.90646
    D1        0.00003   0.00036   0.00000  -0.09224  -0.09227  -0.09225
    D2       -3.14149  -0.00028   0.00000  -0.08466  -0.08467   3.05702
    D3        2.10327  -0.00051   0.00000  -0.10185  -0.10188   2.00139
    D4       -1.03825  -0.00115   0.00000  -0.09426  -0.09427  -1.13253
    D5       -2.10326   0.00101   0.00000  -0.09814  -0.09811  -2.20137
    D6        1.03841   0.00037   0.00000  -0.09056  -0.09051   0.94790
    D7       -0.00015  -0.00030   0.00000  -0.01688  -0.01685  -0.01699
    D8       -3.14155  -0.00081   0.00000  -0.01963  -0.01963   3.12200
    D9        3.14152  -0.00096   0.00000  -0.00910  -0.00910   3.13242
   D10        0.00011  -0.00147   0.00000  -0.01185  -0.01189  -0.01178
   D11       -0.00008  -0.00311   0.00000  -0.02713  -0.02705  -0.02712
   D12        2.09436  -0.01454   0.00000  -0.03163  -0.03155   2.06281
   D13       -2.09447   0.01633   0.00000   0.00000   0.00000  -2.09447
   D14       -3.14149  -0.00361   0.00000  -0.02983  -0.02979   3.11191
   D15       -1.04705  -0.01504   0.00000  -0.03433  -0.03429  -1.08134
   D16        1.04730   0.01582   0.00000  -0.00270  -0.00274   1.04456
   D17        1.04724  -0.00074   0.00000   0.00248   0.00254   1.04978
   D18        3.14157   0.00308   0.00000   0.00756   0.00765  -3.13397
   D19       -1.04726   0.00194   0.00000   0.00611   0.00619  -1.04108
   D20       -3.13259  -0.00719   0.00000  -0.01232  -0.01238   3.13821
   D21       -1.03826  -0.00337   0.00000  -0.00724  -0.00727  -1.04554
   D22        1.05609  -0.00451   0.00000  -0.00869  -0.00874   1.04735
   D23       -1.08102  -0.00174   0.00000  -0.00398  -0.00403  -1.08505
   D24        1.01331   0.00208   0.00000   0.00109   0.00108   1.01439
   D25        3.10766   0.00094   0.00000  -0.00035  -0.00038   3.10728
   D26        1.30903  -0.00552   0.00000  -0.01512  -0.01510   1.29394
   D27       -1.83260  -0.00416   0.00000   0.00000   0.00000  -1.83260
   D28       -0.79428   0.00599   0.00000   0.01534   0.01528  -0.77900
   D29        2.34727   0.00735   0.00000   0.03046   0.03038   2.37765
   D30       -2.84586  -0.00260   0.00000  -0.00033  -0.00034  -2.84620
   D31        0.29569  -0.00125   0.00000   0.01479   0.01476   0.31045
   D32        0.00009  -0.00132   0.00000  -0.03243  -0.03239  -0.03230
   D33        3.14158  -0.00100   0.00000  -0.00578  -0.00578   3.13580
   D34       -3.14154   0.00006   0.00000  -0.01691  -0.01691   3.12474
   D35       -0.00005   0.00039   0.00000   0.00974   0.00970   0.00965
   D36        0.00006  -0.00012   0.00000  -0.07564  -0.07565  -0.07559
   D37        2.09443  -0.00114   0.00000  -0.07939  -0.07944   2.01500
   D38       -2.09441   0.00080   0.00000  -0.07384  -0.07383  -2.16824
   D39        3.14155   0.00020   0.00000  -0.04948  -0.04945   3.09210
   D40       -1.04726  -0.00082   0.00000  -0.05323  -0.05324  -1.10050
   D41        1.04708   0.00112   0.00000  -0.04767  -0.04764   0.99945
         Item               Value     Threshold  Converged?
 Maximum Force            0.033669     0.000450     NO 
 RMS     Force            0.008985     0.000300     NO 
 Maximum Displacement     0.227982     0.001800     NO 
 RMS     Displacement     0.054237     0.001200     NO 
 Predicted change in Energy=-5.039536D-03
 GradGradGradGradGradGradGradGradGradGradGradGradGradGradGradGradGradGrad

                          Input orientation:                          
 ---------------------------------------------------------------------
 Center     Atomic      Atomic             Coordinates (Angstroms)
 Number     Number       Type             X           Y           Z
 ---------------------------------------------------------------------
      1          1           0        1.591278    1.836506    1.656326
      2          6           0        1.774954    2.560961    0.862832
      3          1           0        1.053605    3.376500    0.944643
      4          1           0        1.655709    2.076875   -0.108606
      5          6           0        3.185383    3.136402    0.983059
      6          8           0        3.909150    2.851631    1.932162
      7          7           0        3.567438    3.969449   -0.002138
      8          1           0        2.936260    4.165355   -0.766260
      9          6           0        4.868959    4.609921   -0.009117
     10          1           0        5.406856    4.317055    0.892983
     11          6           0        5.686583    4.187347   -1.229594
     12          1           0        5.165598    4.467471   -2.148274
     13          1           0        6.663339    4.675007   -1.209428
     14          1           0        5.827335    3.105494   -1.219991
     15          6           0        4.714864    6.130841    0.001205
     16          8           0        4.373022    6.717876    1.023577
     17          7           0        4.954894    6.764080   -1.159755
     18          1           0        5.247911    6.235262   -1.968036
     19          6           0        4.837912    8.203706   -1.288948
     20          1           0        4.465951    8.612669   -0.349355
     21          1           0        5.813167    8.641993   -1.511723
     22          1           0        4.142032    8.446897   -2.094061
 ---------------------------------------------------------------------
                    Distance matrix (angstroms):
                    1          2          3          4          5
     1  H    0.000000
     2  C    1.090048   0.000000
     3  H    1.779653   1.091853   0.000000
     4  H    1.782390   1.091902   1.777888   0.000000
     5  C    2.164299   1.528037   2.145600   2.157366   0.000000
     6  O    2.545407   2.404735   3.066728   3.137352   1.227082
     7  N    3.347410   2.438239   2.750879   2.692189   1.345565
     8  H    3.619591   2.564499   2.663432   2.536548   2.044731
     9  C    4.605293   3.812007   4.121638   4.092822   2.447468
    10  H    4.614592   4.034290   4.453999   4.482488   2.517340
    11  C    5.534122   4.724851   5.181627   4.686006   3.500903
    12  H    5.845744   4.919147   5.259737   4.711106   3.936781
    13  H    6.480389   5.714872   6.147784   5.747909   4.389816
    14  H    5.275197   4.588731   5.248578   4.437983   3.440100
    15  C    5.562151   4.704202   4.677743   5.079875   3.502858
    16  O    5.653870   4.904665   4.710579   5.495864   3.773472
    17  N    6.597364   5.645272   5.578911   5.827472   4.569778
    18  H    6.771707   5.794457   5.852215   5.801171   4.750360
    19  C    7.730234   6.771444   6.527773   7.004120   5.794001
    20  H    7.629082   6.733056   6.382476   7.118429   5.779679
    21  H    8.612522   7.676238   7.510830   7.896453   6.590957
    22  H    8.016796   6.999323   6.669410   7.120465   6.211699
                    6          7          8          9         10
     6  O    0.000000
     7  N    2.260044   0.000000
     8  H    3.154975   1.010271   0.000000
     9  C    2.789512   1.450589   2.122788   0.000000
    10  H    2.338907   2.074977   2.979924   1.090361   0.000000
    11  C    3.865243   2.458639   2.789164   1.528608   2.144855
    12  H    4.565036   2.721772   2.640300   2.164320   3.054516
    13  H    4.558491   3.397052   3.787777   2.159811   2.475279
    14  H    3.698641   2.708637   3.112473   2.155922   2.471707
    15  C    3.889857   2.447083   2.759632   1.528741   2.136338
    16  O    3.998569   3.042188   3.432661   2.399142   2.617214
    17  N    5.095173   3.327924   3.314075   2.443718   3.225823
    18  H    5.334115   3.438409   3.327537   2.573462   3.448218
    19  C    6.315287   4.604229   4.494192   3.815000   4.493392
    20  H    6.221327   4.742086   4.721479   4.037347   4.569574
    21  H    7.000993   5.399520   5.373322   4.405333   4.965157
    22  H    6.897224   4.975323   4.642040   4.426940   5.251457
                   11         12         13         14         15
    11  C    0.000000
    12  H    1.092642   0.000000
    13  H    1.091912   1.779811   0.000000
    14  H    1.091012   1.776115   1.778310   0.000000
    15  C    2.497253   2.755035   2.716917   3.446974   0.000000
    16  O    3.633979   3.969022   3.795415   4.494210   1.227481
    17  N    2.679515   2.509179   2.699162   3.761653   1.344036
    18  H    2.220740   1.778861   2.239044   3.269671   2.042781
    19  C    4.105473   3.847762   3.973691   5.193792   2.444669
    20  H    4.674211   4.572558   4.590580   5.739368   2.518794
    21  H    4.465366   4.272139   4.068310   5.544197   3.130671
    22  H    4.612668   4.109313   4.622414   5.668759   3.175278
                   16         17         18         19         20
    16  O    0.000000
    17  N    2.260010   0.000000
    18  H    3.154060   1.009370   0.000000
    19  C    2.787756   1.450137   2.122271   0.000000
    20  H    2.341755   2.076799   2.980547   1.090157   0.000000
    21  H    3.493421   2.094533   2.513979   1.092174   1.779593
    22  H    3.572469   2.089388   2.475920   1.091603   1.782246
                   21         22
    21  H    0.000000
    22  H    1.780413   0.000000
 Stoichiometry    C6H12N2O2
 Framework group  C1[X(C6H12N2O2)]
 Deg. of freedom    60
 Full point group                 C1      NOp   1
 Largest Abelian subgroup         C1      NOp   1
 Largest concise Abelian subgroup C1      NOp   1
                         Standard orientation:                         
 ---------------------------------------------------------------------
 Center     Atomic      Atomic             Coordinates (Angstroms)
 Number     Number       Type             X           Y           Z
 ---------------------------------------------------------------------
      1          1           0       -4.225306   -0.836422    0.580249
      2          6           0       -3.248240   -0.677849    1.036758
      3          1           0       -2.881830   -1.622933    1.442593
      4          1           0       -3.337572    0.046917    1.848536
      5          6           0       -2.251081   -0.168104   -0.002823
      6          8           0       -2.557686   -0.079776   -1.187696
      7          7           0       -1.032490    0.162180    0.462466
      8          1           0       -0.832843    0.078679    1.449287
      9          6           0        0.023549    0.637924   -0.410837
     10          1           0       -0.346034    0.639324   -1.436651
     11          6           0        0.450940    2.057675   -0.038969
     12          1           0        0.822769    2.083044    0.988147
     13          1           0        1.239828    2.396872   -0.713412
     14          1           0       -0.403363    2.731236   -0.121372
     15          6           0        1.233033   -0.294520   -0.341926
     16          8           0        1.206512   -1.394466   -0.886101
     17          7           0        2.293600    0.152105    0.352450
     18          1           0        2.269374    1.071370    0.768612
     19          6           0        3.501922   -0.635608    0.501995
     20          1           0        3.345210   -1.611764    0.042647
     21          1           0        4.339787   -0.136389    0.010459
     22          1           0        3.730851   -0.763108    1.561681
 ---------------------------------------------------------------------
 Rotational constants (GHZ):      2.5453530      0.6872826      0.6418637
 Standard basis: 6-31G(d) (6D, 7F)
 There are   174 symmetry adapted basis functions of A   symmetry.
 Integral buffers will be    131072 words long.
 Raffenetti 2 integral format.
 Two-electron integral symmetry is turned on.
   174 basis functions,   328 primitive gaussians,   174 cartesian basis functions
    39 alpha electrons       39 beta electrons
       nuclear repulsion energy       552.9822475792 Hartrees.
 NAtoms=   22 NActive=   22 NUniq=   22 SFac= 7.50D-01 NAtFMM=   80 NAOKFM=F Big=F
 One-electron integrals computed using PRISM.
 NBasis=   174 RedAO= T  NBF=   174
 NBsUse=   174 1.00D-06 NBFU=   174
 Initial guess read from the read-write file.
 B after Tr=     0.000000    0.000000    0.000000
         Rot=    1.000000    0.000000    0.000000    0.000000 Ang=   0.00 deg.
 Initial guess orbital symmetries:
       Occupied  (A) (A) (A) (A) (A) (A) (A) (A) (A) (A) (A) (A)
                 (A) (A) (A) (A) (A) (A) (A) (A) (A) (A) (A) (A)
                 (A) (A) (A) (A) (A) (A) (A) (A) (A) (A) (A) (A)
                 (A) (A) (A)
       Virtual   (A) (A) (A) (A) (A) (A) (A) (A) (A) (A) (A) (A)
                 (A) (A) (A) (A) (A) (A) (A) (A) (A) (A) (A) (A)
                 (A) (A) (A) (A) (A) (A) (A) (A) (A) (A) (A) (A)
                 (A) (A) (A) (A) (A) (A) (A) (A) (A) (A) (A) (A)
                 (A) (A) (A) (A) (A) (A) (A) (A) (A) (A) (A) (A)
                 (A) (A) (A) (A) (A) (A) (A) (A) (A) (A) (A) (A)
                 (A) (A) (A) (A) (A) (A) (A) (A) (A) (A) (A) (A)
                 (A) (A) (A) (A) (A) (A) (A) (A) (A) (A) (A) (A)
                 (A) (A) (A) (A) (A) (A) (A) (A) (A) (A) (A) (A)
                 (A) (A) (A) (A) (A) (A) (A) (A) (A) (A) (A) (A)
                 (A) (A) (A) (A) (A) (A) (A) (A) (A) (A) (A) (A)
                 (A) (A) (A)
 Harris functional with IExCor=  402 diagonalized for initial guess.
 ExpMin= 1.61D-01 ExpMax= 5.48D+03 ExpMxC= 8.25D+02 IAcc=1 IRadAn=         1 AccDes= 0.00D+00
 HarFok:  IExCor=  402 AccDes= 0.00D+00 IRadAn=         1 IDoV= 1
 ScaDFX=  1.000000  1.000000  1.000000  1.000000
 FoFCou: FMM=F IPFlag=           0 FMFlag=      100000 FMFlg1=           0
         NFxFlg=           0 DoJE=T BraDBF=F KetDBF=T FulRan=T
         Omega=  0.000000  0.000000  1.000000  0.000000  0.000000 ICntrl=     500 IOpCl=  0
         NMat0=    1 NMatS0=    1 NMatT0=    0 NMatD0=    1 NMtDS0=    0 NMtDT0=    0
         I1Cent=           4 NGrid=           0.
 Petite list used in FoFCou.
 Requested convergence on RMS density matrix=1.00D-08 within 128 cycles.
 Requested convergence on MAX density matrix=1.00D-06.
 Requested convergence on             energy=1.00D-06.
 No special actions if energy rises.
 Integral accuracy reduced to 1.0D-05 until final iterations.
 Initial convergence to 1.0D-05 achieved.  Increase integral accuracy.
 SCF Done:  E(RB3LYP) =  -495.834699667     A.U. after   12 cycles
             Convg  =    0.9773D-08             -V/T =  2.0089
 Calling FoFJK, ICntrl=      2127 FMM=F ISym2X=0 I1Cent= 0 IOpClX= 0 NMat=1 NMatS=1 NMatT=0.
 ***** Axes restored to original set *****
 -------------------------------------------------------------------
 Center     Atomic                   Forces (Hartrees/Bohr)
 Number     Number              X              Y              Z
 -------------------------------------------------------------------
      1        1           0.002597744    0.000780032    0.000446757
      2        6           0.005415659    0.004965594   -0.003742229
      3        1          -0.004411408    0.000485025   -0.000862594
      4        1          -0.003741243   -0.001427317   -0.002590919
      5        6          -0.006881645   -0.019528791    0.027358130
      6        8           0.001232538    0.000585326   -0.002520432
      7        7           0.005721441    0.009934532   -0.011027581
      8        1          -0.000893069    0.000846273    0.000045167
      9        6           0.008205590    0.003554731   -0.017272410
     10        1          -0.006271874   -0.000021514    0.003336868
     11        6           0.001703683   -0.011667897    0.004734470
     12        1           0.000503314   -0.006057427   -0.004855623
     13        1           0.002611212   -0.001007122   -0.001913131
     14        1           0.001316963   -0.001792106   -0.002741111
     15        6          -0.007279828    0.000044287    0.028261956
     16        8          -0.000953063    0.000527663   -0.000206089
     17        7           0.000378113    0.011147182   -0.014412373
     18        1          -0.000198511    0.005004444    0.002213152
     19        6           0.000625185   -0.000334617   -0.001964550
     20        1           0.000039358   -0.002148482    0.000539699
     21        1           0.001745023    0.003171639   -0.000848116
     22        1          -0.001465181    0.002938547   -0.001979043
 -------------------------------------------------------------------
 Cartesian Forces:  Max     0.028261956 RMS     0.007267890

 GradGradGradGradGradGradGradGradGradGradGradGradGradGradGradGradGradGrad
 Berny optimization.
 Using GEDIIS/GDIIS optimizer.
 Internal  Forces:  Max     0.027226746 RMS     0.006674205
 Search for a local minimum.
 Step number   2 out of a maximum of  132
 All quantities printed in internal units (Hartrees-Bohrs-Radians)
 Mixed Optimization -- RFO/linear search
 Update second derivatives using D2CorX and points    1    2
 DE= -5.06D-03 DEPred=-5.04D-03 R= 1.00D+00
 SS=  1.41D+00  RLast= 3.00D-01 DXNew= 5.0454D-01 9.0000D-01
 Trust test= 1.00D+00 RLast= 3.00D-01 DXMaxT set to 5.05D-01
 Use linear search instead of GDIIS.
 Linear search step of   0.594 exceeds DXMaxT=   0.505 but not scaled.
 Quartic linear search produced a step of  2.00000.
 Iteration  1 RMS(Cart)=  0.10738332 RMS(Int)=  0.00886658
 Iteration  2 RMS(Cart)=  0.00954493 RMS(Int)=  0.00033122
 Iteration  3 RMS(Cart)=  0.00007735 RMS(Int)=  0.00032588
 Iteration  4 RMS(Cart)=  0.00000001 RMS(Int)=  0.00032588
 Iteration  1 RMS(Cart)=  0.00017398 RMS(Int)=  0.00005640
 Iteration  2 RMS(Cart)=  0.00009295 RMS(Int)=  0.00006303
 Iteration  3 RMS(Cart)=  0.00004973 RMS(Int)=  0.00007100
 Iteration  4 RMS(Cart)=  0.00002667 RMS(Int)=  0.00007612
 Iteration  5 RMS(Cart)=  0.00001434 RMS(Int)=  0.00007906
 Iteration  6 RMS(Cart)=  0.00000775 RMS(Int)=  0.00008068
 Iteration  7 RMS(Cart)=  0.00000421 RMS(Int)=  0.00008155
 Iteration  8 RMS(Cart)=  0.00000231 RMS(Int)=  0.00008203
 Iteration  9 RMS(Cart)=  0.00000128 RMS(Int)=  0.00008229
 Iteration 10 RMS(Cart)=  0.00000072 RMS(Int)=  0.00008242
 Variable       Old X    -DE/DX   Delta X   Delta X   Delta X     New X
                                 (Linear)    (Quad)   (Total)
    R1        2.05989  -0.00063   0.00010   0.00000   0.00010   2.05999
    R2        2.06330   0.00322   0.00721   0.00000   0.00721   2.07051
    R3        2.06340   0.00335   0.00735   0.00000   0.00735   2.07075
    R4        2.88757  -0.00114  -0.00779   0.00000  -0.00779   2.87978
    R5        2.31885  -0.00136  -0.00736   0.00000  -0.00736   2.31149
    R6        2.54275   0.02363   0.03997   0.00000   0.03997   2.58272
    R7        1.90914   0.00069   0.00100   0.00000   0.00100   1.91014
    R8        2.74122   0.00240   0.00609   0.00000   0.00609   2.74731
    R9        2.06048  -0.00033   0.00148   0.00000   0.00148   2.06196
   R10        2.88865   0.01277   0.01353   0.00000   0.01353   2.90219
   R11        2.88890   0.02103   0.02545   0.00000   0.02545   2.91435
   R12        2.06479   0.00229   0.01015   0.00000   0.01015   2.07494
   R13        2.06341   0.00185   0.00714   0.00000   0.00714   2.07055
   R14        2.06171   0.00192   0.00411   0.00000   0.00411   2.06582
   R15        2.31960   0.00035  -0.00588   0.00000  -0.00588   2.31372
   R16        2.53986   0.02372   0.03413   0.00000   0.03413   2.57399
   R17        1.90743  -0.00445  -0.00253   0.00000  -0.00253   1.90490
   R18        2.74036   0.00390   0.00442   0.00000   0.00442   2.74479
   R19        2.06010  -0.00035   0.00049   0.00000   0.00049   2.06059
   R20        2.06391   0.00301   0.00835   0.00000   0.00835   2.07226
   R21        2.06283   0.00304   0.00608   0.00000   0.00608   2.06891
    A1        1.90768  -0.00007  -0.00684   0.00000  -0.00695   1.90073
    A2        1.91196  -0.00011   0.00160   0.00000   0.00183   1.91379
    A3        1.92681  -0.00559  -0.02432   0.00000  -0.02424   1.90257
    A4        1.90250  -0.00363  -0.01553   0.00000  -0.01591   1.88660
    A5        1.89931   0.00453   0.00650   0.00000   0.00624   1.90555
    A6        1.91533   0.00490   0.03864   0.00000   0.03857   1.95391
    A7        2.11518   0.00590   0.02421   0.00000   0.02415   2.13933
    A8        2.02375  -0.00676  -0.02259   0.00000  -0.02264   2.00111
    A9        2.14423   0.00087  -0.00167   0.00000  -0.00173   2.14250
   A10        2.09030  -0.00160  -0.00807   0.00000  -0.00808   2.08222
   A11        2.13132   0.00299   0.00758   0.00000   0.00758   2.13890
   A12        2.06156  -0.00138   0.00048   0.00000   0.00048   2.06204
   A13        1.89658   0.00143  -0.02911   0.00000  -0.03000   1.86658
   A14        1.94089  -0.00722   0.00368   0.00000   0.00410   1.94498
   A15        1.92708  -0.01006  -0.02384   0.00000  -0.02525   1.90183
   A16        1.89911  -0.00378   0.00603   0.00000   0.00610   1.90521
   A17        1.88742  -0.00785  -0.01732   0.00000  -0.01924   1.86818
   A18        1.91170   0.02723   0.06065   0.00000   0.06083   1.97252
   A19        1.92346   0.00678   0.02461   0.00000   0.02437   1.94782
   A20        1.91799   0.00284   0.01386   0.00000   0.01362   1.93161
   A21        1.91357   0.00155   0.00494   0.00000   0.00490   1.91847
   A22        1.90451  -0.00262  -0.01119   0.00000  -0.01160   1.89291
   A23        1.89984  -0.00584  -0.02079   0.00000  -0.02084   1.87900
   A24        1.90424  -0.00291  -0.01183   0.00000  -0.01186   1.89237
   A25        2.10539  -0.00875   0.00454   0.00000   0.00432   2.10971
   A26        2.03186   0.01869  -0.00647   0.00000  -0.00668   2.02518
   A27        2.14583  -0.00995   0.00173   0.00000   0.00153   2.14736
   A28        2.09060   0.00306  -0.00745   0.00000  -0.00802   2.08257
   A29        2.12973  -0.00034   0.00423   0.00000   0.00364   2.13337
   A30        2.06257  -0.00272   0.00263   0.00000   0.00203   2.06460
   A31        1.89986  -0.00453  -0.02251   0.00000  -0.02239   1.87747
   A32        1.92253   0.00332   0.02282   0.00000   0.02276   1.94529
   A33        1.91591   0.00356   0.00957   0.00000   0.00944   1.92534
   A34        1.90703   0.00001  -0.00620   0.00000  -0.00602   1.90101
   A35        1.91198  -0.00006   0.00355   0.00000   0.00359   1.91557
   A36        1.90646  -0.00232  -0.00727   0.00000  -0.00755   1.89891
    D1       -0.09225   0.00019  -0.18455   0.00000  -0.18476  -0.27701
    D2        3.05702  -0.00030  -0.16934   0.00000  -0.16940   2.88762
    D3        2.00139  -0.00046  -0.20376   0.00000  -0.20393   1.79745
    D4       -1.13253  -0.00095  -0.18854   0.00000  -0.18857  -1.32110
    D5       -2.20137   0.00074  -0.19622   0.00000  -0.19605  -2.39742
    D6        0.94790   0.00025  -0.18101   0.00000  -0.18069   0.76721
    D7       -0.01699  -0.00022  -0.03369   0.00000  -0.03347  -0.05046
    D8        3.12200  -0.00073  -0.03927   0.00000  -0.03927   3.08273
    D9        3.13242  -0.00074  -0.01820   0.00000  -0.01820   3.11422
   D10       -0.01178  -0.00126  -0.02378   0.00000  -0.02400  -0.03578
   D11       -0.02712  -0.00253  -0.05409   0.00000  -0.05357  -0.08069
   D12        2.06281  -0.01069  -0.06310   0.00000  -0.06259   2.00023
   D13       -2.09447   0.01205   0.00000   0.00000   0.00000  -2.09447
   D14        3.11191  -0.00303  -0.05957   0.00000  -0.05932   3.05259
   D15       -1.08134  -0.01120  -0.06859   0.00000  -0.06834  -1.14968
   D16        1.04456   0.01155  -0.00549   0.00000  -0.00575   1.03881
   D17        1.04978  -0.00039   0.00508   0.00000   0.00548   1.05526
   D18       -3.13397   0.00248   0.01530   0.00000   0.01589  -3.11807
   D19       -1.04108   0.00162   0.01237   0.00000   0.01286  -1.02822
   D20        3.13821  -0.00547  -0.02476   0.00000  -0.02517   3.11304
   D21       -1.04554  -0.00261  -0.01454   0.00000  -0.01475  -1.06029
   D22        1.04735  -0.00346  -0.01748   0.00000  -0.01779   1.02956
   D23       -1.08505  -0.00150  -0.00805   0.00000  -0.00833  -1.09338
   D24        1.01439   0.00136   0.00217   0.00000   0.00209   1.01648
   D25        3.10728   0.00051  -0.00076   0.00000  -0.00095   3.10632
   D26        1.29394  -0.00434  -0.03019   0.00000  -0.03002   1.26392
   D27       -1.83260  -0.00350   0.00000   0.00000   0.00000  -1.83260
   D28       -0.77900   0.00449   0.03057   0.00000   0.03017  -0.74883
   D29        2.37765   0.00532   0.06076   0.00000   0.06019   2.43784
   D30       -2.84620  -0.00179  -0.00067   0.00000  -0.00070  -2.84690
   D31        0.31045  -0.00095   0.02952   0.00000   0.02932   0.33977
   D32       -0.03230  -0.00101  -0.06477   0.00000  -0.06450  -0.09680
   D33        3.13580  -0.00061  -0.01156   0.00000  -0.01158   3.12422
   D34        3.12474  -0.00017  -0.03381   0.00000  -0.03380   3.09094
   D35        0.00965   0.00023   0.01939   0.00000   0.01913   0.02877
   D36       -0.07559  -0.00013  -0.15129   0.00000  -0.15132  -0.22691
   D37        2.01500  -0.00091  -0.15887   0.00000  -0.15914   1.85586
   D38       -2.16824   0.00057  -0.14766   0.00000  -0.14761  -2.31585
   D39        3.09210   0.00018  -0.09891   0.00000  -0.09877   2.99333
   D40       -1.10050  -0.00060  -0.10649   0.00000  -0.10659  -1.20709
   D41        0.99945   0.00088  -0.09527   0.00000  -0.09506   0.90439
         Item               Value     Threshold  Converged?
 Maximum Force            0.023725     0.000450     NO 
 RMS     Force            0.006454     0.000300     NO 
 Maximum Displacement     0.483249     0.001800     NO 
 RMS     Displacement     0.108719     0.001200     NO 
 Predicted change in Energy=-5.588557D-03
 GradGradGradGradGradGradGradGradGradGradGradGradGradGradGradGradGradGrad

                          Input orientation:                          
 ---------------------------------------------------------------------
 Center     Atomic      Atomic             Coordinates (Angstroms)
 Number     Number       Type             X           Y           Z
 ---------------------------------------------------------------------
      1          1           0        1.633241    1.763237    1.533637
      2          6           0        1.767220    2.618379    0.870988
      3          1           0        1.085365    3.418007    1.181079
      4          1           0        1.512062    2.332599   -0.155650
      5          6           0        3.203966    3.113652    0.984060
      6          8           0        3.941749    2.789659    1.904329
      7          7           0        3.591694    3.969686   -0.008301
      8          1           0        2.947247    4.183303   -0.757152
      9          6           0        4.900940    4.601355   -0.029141
     10          1           0        5.404661    4.319877    0.896941
     11          6           0        5.737258    4.120479   -1.224098
     12          1           0        5.251189    4.358274   -2.179515
     13          1           0        6.729176    4.585817   -1.214287
     14          1           0        5.864050    3.035670   -1.177500
     15          6           0        4.719320    6.132503    0.002585
     16          8           0        4.354728    6.700988    1.023847
     17          7           0        4.934417    6.784548   -1.173799
     18          1           0        5.276497    6.268159   -1.969067
     19          6           0        4.780382    8.223173   -1.301566
     20          1           0        4.263789    8.579413   -0.409809
     21          1           0        5.752301    8.725794   -1.374093
     22          1           0        4.190948    8.464728   -2.191988
 ---------------------------------------------------------------------
                    Distance matrix (angstroms):
                    1          2          3          4          5
     1  H    0.000000
     2  C    1.090101   0.000000
     3  H    1.778406   1.095667   0.000000
     4  H    1.786770   1.095792   1.773985   0.000000
     5  C    2.143089   1.523916   2.149399   2.184381   0.000000
     6  O    2.553461   2.413651   3.012780   3.218043   1.223189
     7  N    3.328893   2.434725   2.828543   2.650780   1.366714
     8  H    3.582045   2.547998   2.794462   2.417988   2.059582
     9  C    4.601636   3.816102   4.174154   4.080166   2.473774
    10  H    4.600586   4.015812   4.421585   4.495503   2.511100
    11  C    5.477650   4.733592   5.283791   4.710666   3.508166
    12  H    5.797522   4.946801   5.434315   4.709613   3.968427
    13  H    6.441009   5.730637   6.241327   5.780656   4.407619
    14  H    5.183541   4.599397   5.342743   4.525294   3.428479
    15  C    5.564035   4.670984   4.686466   4.975019   3.517535
    16  O    5.661074   4.835935   4.635884   5.343668   3.767601
    17  N    6.591019   5.618652   5.629764   5.706925   4.596334
    18  H    6.770271   5.805329   5.967611   5.740043   4.792417
    19  C    7.724871   6.724050   6.550290   6.833293   5.815185
    20  H    7.560226   6.588416   6.266851   6.830760   5.739393
    21  H    8.596438   7.630320   7.515437   7.767701   6.599321
    22  H    8.082829   7.031079   6.818476   6.994720   6.300430
                    6          7          8          9         10
     6  O    0.000000
     7  N    2.274458   0.000000
     8  H    3.164611   1.010802   0.000000
     9  C    2.817907   1.453811   2.126426   0.000000
    10  H    2.344463   2.056440   2.965394   1.091143   0.000000
    11  C    3.844735   2.470698   2.829514   1.535771   2.156197
[...]
    15  C    5.550203   4.631238   4.873146   4.713241   3.515091
    16  O    5.703126   4.733849   4.696913   4.938629   3.745742
    17  N    6.533588   5.607111   5.934365   5.468673   4.604563
    18  H    6.697086   5.859421   6.349560   5.660075   4.824694
    19  C    7.706647   6.709719   6.882144   6.515552   5.831408
    20  H    7.592739   6.552145   6.551060   6.430237   5.754459
    21  H    8.574009   7.610471   7.801726   7.483309   6.605918
    22  H    8.048898   7.042361   7.246653   6.681105   6.333384
                    6          7          8          9         10
     6  O    0.000000
     7  N    2.279521   0.000000
     8  H    3.160886   1.010803   0.000000
     9  C    2.814806   1.460715   2.130070   0.000000
    10  H    2.318469   2.039149   2.924043   1.093146   0.000000
    11  C    3.729740   2.475452   2.983384   1.534502   2.154163
    12  H    4.436360   2.750907   2.899484   2.198118   3.082018
    13  H    4.471663   3.429070   3.945135   2.186828   2.539345
    14  H    3.432733   2.728605   3.384276   2.156778   2.439624
    15  C    3.962595   2.437516   2.626399   1.545384   2.118842
    16  O    4.095773   3.000064   3.186439   2.410916   2.569393
    17  N    5.170793   3.334697   3.236051   2.475940   3.263133
    18  H    5.387037   3.492200   3.409779   2.593321   3.477598
    19  C    6.413883   4.617349   4.385583   3.850358   4.517521
    20  H    6.311667   4.691905   4.470991   4.053221   4.573232
    21  H    7.053706   5.407160   5.300764   4.420599   4.962666
    22  H    7.062313   5.063206   4.630577   4.509153   5.318177
                   11         12         13         14         15
    11  C    0.000000
    12  H    1.097895   0.000000
    13  H    1.096433   1.784374   0.000000
    14  H    1.093722   1.763650   1.772055   0.000000
    15  C    2.621789   2.975390   2.868195   3.536316   0.000000
    16  O    3.728774   4.169391   3.940412   4.530610   1.223653
    17  N    2.885060   2.830588   2.931635   3.960157   1.368335
    18  H    2.427221   2.137307   2.409487   3.506375   2.053943
    19  C    4.313419   4.196318   4.211709   5.397477   2.469727
    20  H    4.849660   4.872838   4.830269   5.887873   2.523122
    21  H    4.688871   4.652058   4.326152   5.770179   3.116656
    22  H    4.844691   4.485383   4.847122   5.918392   3.255691
                   16         17         18         19         20
    16  O    0.000000
    17  N    2.279130   0.000000
    18  H    3.161095   1.008897   0.000000
    19  C    2.817087   1.453419   2.125048   0.000000
    20  H    2.362804   2.061480   2.968701   1.090615   0.000000
    21  H    3.453144   2.120442   2.543039   1.097377   1.779327
    22  H    3.668131   2.105291   2.498424   1.095445   1.785032
                   21         22
    21  H    0.000000
    22  H    1.783035   0.000000
 Stoichiometry    C6H12N2O2
 Framework group  C1[X(C6H12N2O2)]
 Deg. of freedom    60
 Full point group                 C1      NOp   1
 Largest Abelian subgroup         C1      NOp   1
 Largest concise Abelian subgroup C1      NOp   1
                         Standard orientation:                         
 ---------------------------------------------------------------------
 Center     Atomic      Atomic             Coordinates (Angstroms)
 Number     Number       Type             X           Y           Z
 ---------------------------------------------------------------------
      1          1           0        4.146731   -0.609546   -0.893785
      2          6           0        3.141156   -1.037149   -0.880388
      3          1           0        3.211842   -2.035946   -0.435590
      4          1           0        2.777230   -1.137705   -1.908107
      5          6           0        2.251924   -0.171906   -0.000301
      6          8           0        2.627366    0.262681    1.079276
      7          7           0        1.002802    0.090742   -0.510519
      8          1           0        0.720176   -0.383738   -1.357108
      9          6           0       -0.035769    0.727690    0.295306
     10          1           0        0.377181    0.772934    1.306440
     11          6           0       -0.326099    2.154409   -0.189334
     12          1           0       -0.629414    2.180022   -1.244188
     13          1           0       -1.107584    2.630086    0.414965
     14          1           0        0.583282    2.755502   -0.100225
     15          6           0       -1.241673   -0.234790    0.382700
     16          8           0       -1.175458   -1.258187    1.050236
     17          7           0       -2.329431    0.087297   -0.382403
     18          1           0       -2.356277    0.989856   -0.832447
     19          6           0       -3.541925   -0.714119   -0.377982
     20          1           0       -3.305621   -1.660285    0.110253
     21          1           0       -4.351447   -0.222259    0.176078
     22          1           0       -3.880641   -0.905963   -1.401928
 ---------------------------------------------------------------------
 Rotational constants (GHZ):      2.4307777      0.6925895      0.6312166

 **********************************************************************

            Population analysis using the SCF density.

 **********************************************************************

 Orbital symmetries:
       Occupied  (A) (A) (A) (A) (A) (A) (A) (A) (A) (A) (A) (A)
                 (A) (A) (A) (A) (A) (A) (A) (A) (A) (A) (A) (A)
                 (A) (A) (A) (A) (A) (A) (A) (A) (A) (A) (A) (A)
                 (A) (A) (A)
       Virtual   (A) (A) (A) (A) (A) (A) (A) (A) (A) (A) (A) (A)
                 (A) (A) (A) (A) (A) (A) (A) (A) (A) (A) (A) (A)
                 (A) (A) (A) (A) (A) (A) (A) (A) (A) (A) (A) (A)
                 (A) (A) (A) (A) (A) (A) (A) (A) (A) (A) (A) (A)
                 (A) (A) (A) (A) (A) (A) (A) (A) (A) (A) (A) (A)
                 (A) (A) (A) (A) (A) (A) (A) (A) (A) (A) (A) (A)
                 (A) (A) (A) (A) (A) (A) (A) (A) (A) (A) (A) (A)
                 (A) (A) (A) (A) (A) (A) (A) (A) (A) (A) (A) (A)
                 (A) (A) (A) (A) (A) (A) (A) (A) (A) (A) (A) (A)
                 (A) (A) (A) (A) (A) (A) (A) (A) (A) (A) (A) (A)
                 (A) (A) (A) (A) (A) (A) (A) (A) (A) (A) (A) (A)
                 (A) (A) (A)
 The electronic state is 1-A.
 Alpha  occ. eigenvalues --  -19.11083 -19.10557 -14.36853 -14.36064 -10.28706
 Alpha  occ. eigenvalues --  -10.28471 -10.23337 -10.22243 -10.19441 -10.19012
 Alpha  occ. eigenvalues --   -1.03394  -1.02454  -0.92564  -0.91897  -0.78172
 Alpha  occ. eigenvalues --   -0.72940  -0.70951  -0.65155  -0.58844  -0.58577
 Alpha  occ. eigenvalues --   -0.53701  -0.48308  -0.47346  -0.46176  -0.44947
 Alpha  occ. eigenvalues --   -0.44054  -0.42478  -0.41990  -0.40410  -0.39681
 Alpha  occ. eigenvalues --   -0.39153  -0.38621  -0.37444  -0.36198  -0.34632
 Alpha  occ. eigenvalues --   -0.26586  -0.25582  -0.24518  -0.24021
 Alpha virt. eigenvalues --    0.01401   0.04002   0.06657   0.08339   0.11343
 Alpha virt. eigenvalues --    0.12930   0.13930   0.14438   0.15474   0.16013
 Alpha virt. eigenvalues --    0.16363   0.16574   0.18032   0.18596   0.19374
 Alpha virt. eigenvalues --    0.20819   0.23143   0.25198   0.26255   0.31658
 Alpha virt. eigenvalues --    0.33581   0.38543   0.41241   0.50063   0.51297
 Alpha virt. eigenvalues --    0.51763   0.52403   0.53207   0.55323   0.56425
 Alpha virt. eigenvalues --    0.57523   0.61013   0.61102   0.62971   0.64617
 Alpha virt. eigenvalues --    0.67942   0.69430   0.70624   0.71572   0.73381
 Alpha virt. eigenvalues --    0.75370   0.75844   0.79009   0.79489   0.83277
 Alpha virt. eigenvalues --    0.84235   0.85075   0.85689   0.87278   0.88876
 Alpha virt. eigenvalues --    0.89287   0.90037   0.90635   0.92211   0.93214
 Alpha virt. eigenvalues --    0.94602   0.95069   0.95402   0.97662   1.00221
 Alpha virt. eigenvalues --    1.03719   1.05810   1.08838   1.11904   1.15104
 Alpha virt. eigenvalues --    1.17695   1.22684   1.26634   1.28036   1.31501
 Alpha virt. eigenvalues --    1.34981   1.40260   1.43445   1.44812   1.48303
 Alpha virt. eigenvalues --    1.53939   1.54872   1.59353   1.64308   1.70123
 Alpha virt. eigenvalues --    1.72364   1.74774   1.77103   1.79867   1.81596
 Alpha virt. eigenvalues --    1.82931   1.83829   1.86181   1.88304   1.89853
 Alpha virt. eigenvalues --    1.93419   1.96547   1.96963   1.99456   2.01859
 Alpha virt. eigenvalues --    2.05439   2.07270   2.08615   2.12281   2.14376
 Alpha virt. eigenvalues --    2.20411   2.22421   2.23391   2.26749   2.28009
 Alpha virt. eigenvalues --    2.30146   2.32199   2.35030   2.38113   2.39857
 Alpha virt. eigenvalues --    2.42828   2.48012   2.53202   2.54225   2.60920
 Alpha virt. eigenvalues --    2.64846   2.67903   2.70649   2.73988   2.87981
 Alpha virt. eigenvalues --    2.93314   2.98151   2.99036   3.12676   3.13950
 Alpha virt. eigenvalues --    3.93494   3.97440   4.06336   4.14654   4.17189
 Alpha virt. eigenvalues --    4.20111   4.28141   4.36146   4.48668   4.65655
          Condensed to atoms (all electrons):
              1          2          3          4          5          6
     1  H    0.517185   0.360122  -0.022419  -0.026098  -0.019412   0.001946
     2  C    0.360122   5.320244   0.363411   0.338048   0.345341  -0.080320
     3  H   -0.022419   0.363411   0.514001  -0.025817  -0.020027  -0.000095
     4  H   -0.026098   0.338048  -0.025817   0.584727  -0.024686   0.003111
     5  C   -0.019412   0.345341  -0.020027  -0.024686   4.289339   0.593510
     6  O    0.001946  -0.080320  -0.000095   0.003111   0.593510   8.056041
     7  N    0.002936  -0.117380   0.000401   0.006141   0.263234  -0.096650
     8  H   -0.000078   0.001079  -0.000033   0.002218  -0.014425   0.003248
     9  C   -0.000127   0.006649  -0.000219  -0.000032  -0.020567  -0.001225
    10  H   -0.000020   0.001460  -0.000013  -0.000059   0.000469   0.021694
    11  C    0.000016  -0.000314  -0.000004   0.000009  -0.000982  -0.000550
    12  H    0.000000  -0.000002   0.000000   0.000002   0.000008  -0.000019
    13  H    0.000000   0.000004   0.000000   0.000000   0.000002  -0.000009
    14  H   -0.000002   0.000022   0.000001  -0.000009   0.001741   0.001024
    15  C   -0.000002   0.000027   0.000032  -0.000048   0.002531  -0.000067
    16  O    0.000000  -0.000023   0.000006   0.000002   0.001498  -0.000045
    17  N    0.000000   0.000001   0.000000   0.000000  -0.000075  -0.000008
    18  H    0.000000   0.000000   0.000000   0.000000  -0.000024   0.000000
    19  C    0.000000   0.000000   0.000000   0.000000   0.000003   0.000000
    20  H    0.000000   0.000000   0.000000   0.000000  -0.000001   0.000000
    21  H    0.000000   0.000000   0.000000   0.000000   0.000000   0.000000
    22  H    0.000000   0.000000   0.000000   0.000000   0.000000   0.000000
              7          8          9         10         11         12
     1  H    0.002936  -0.000078  -0.000127  -0.000020   0.000016   0.000000
     2  C   -0.117380   0.001079   0.006649   0.001460  -0.000314  -0.000002
     3  H    0.000401  -0.000033  -0.000219  -0.000013  -0.000004   0.000000
     4  H    0.006141   0.002218  -0.000032  -0.000059   0.000009   0.000002
     5  C    0.263234  -0.014425  -0.020567   0.000469  -0.000982   0.000008
     6  O   -0.096650   0.003248  -0.001225   0.021694  -0.000550  -0.000019
     7  N    7.133986   0.292309   0.246850  -0.048514  -0.055827  -0.002740
     8  H    0.292309   0.417961  -0.032847   0.005218   0.000476   0.002121
     9  C    0.246850  -0.032847   5.088738   0.365144   0.308051  -0.024278
    10  H   -0.048514   0.005218   0.365144   0.508397  -0.040924   0.004513
    11  C   -0.055827   0.000476   0.308051  -0.040924   5.198457   0.356557
    12  H   -0.002740   0.002121  -0.024278   0.004513   0.356557   0.591538
    13  H    0.004707  -0.000164  -0.033294  -0.000883   0.362053  -0.033645
    14  H   -0.002299  -0.000135  -0.019982  -0.004081   0.367997  -0.028594
    15  C   -0.034417  -0.002178   0.330824  -0.026866  -0.033528  -0.007670
    16  O   -0.000983   0.000083  -0.078534   0.001557   0.003458  -0.000063
    17  N   -0.002432   0.002873  -0.108893   0.003522   0.001641   0.000906
    18  H    0.000271   0.000028  -0.004767   0.000074   0.007020   0.005897
    19  C   -0.000085  -0.000074   0.006233  -0.000124  -0.000283   0.000007
    20  H   -0.000016  -0.000011   0.000905  -0.000018  -0.000054  -0.000003
    21  H   -0.000004   0.000003  -0.000049   0.000016  -0.000031   0.000020
    22  H    0.000014  -0.000009  -0.000198  -0.000001   0.000017  -0.000015
             13         14         15         16         17         18
     1  H    0.000000  -0.000002  -0.000002   0.000000   0.000000   0.000000
     2  C    0.000004   0.000022   0.000027  -0.000023   0.000001   0.000000
     3  H    0.000000   0.000001   0.000032   0.000006   0.000000   0.000000
     4  H    0.000000  -0.000009  -0.000048   0.000002   0.000000   0.000000
     5  C    0.000002   0.001741   0.002531   0.001498  -0.000075  -0.000024
     6  O   -0.000009   0.001024  -0.000067  -0.000045  -0.000008   0.000000
     7  N    0.004707  -0.002299  -0.034417  -0.000983  -0.002432   0.000271
     8  H   -0.000164  -0.000135  -0.002178   0.000083   0.002873   0.000028
     9  C   -0.033294  -0.019982   0.330824  -0.078534  -0.108893  -0.004767
    10  H   -0.000883  -0.004081  -0.026866   0.001557   0.003522   0.000074
    11  C    0.362053   0.367997  -0.033528   0.003458   0.001641   0.007020
    12  H   -0.033645  -0.028594  -0.007670  -0.000063   0.000906   0.005897
    13  H    0.568063  -0.023650   0.001682  -0.000010   0.000008   0.000939
    14  H   -0.023650   0.524748   0.002974  -0.000059   0.000106  -0.000165
    15  C    0.001682   0.002974   4.401464   0.594560   0.244480  -0.014342
    16  O   -0.000010  -0.000059   0.594560   8.064842  -0.101134   0.003536
    17  N    0.000008   0.000106   0.244480  -0.101134   7.115420   0.294515
    18  H    0.000939  -0.000165  -0.014342   0.003536   0.294515   0.406438
    19  C   -0.000059   0.000002  -0.024444  -0.007751   0.265757  -0.032305
    20  H   -0.000002   0.000001  -0.000717   0.021880  -0.041171   0.004105
    21  H   -0.000012  -0.000001  -0.000294   0.000512  -0.042793  -0.000485
    22  H    0.000003   0.000000   0.002687   0.000502  -0.039902  -0.000920
             19         20         21         22
     1  H    0.000000   0.000000   0.000000   0.000000
     2  C    0.000000   0.000000   0.000000   0.000000
     3  H    0.000000   0.000000   0.000000   0.000000
     4  H    0.000000   0.000000   0.000000   0.000000
     5  C    0.000003  -0.000001   0.000000   0.000000
     6  O    0.000000   0.000000   0.000000   0.000000
     7  N   -0.000085  -0.000016  -0.000004   0.000014
     8  H   -0.000074  -0.000011   0.000003  -0.000009
     9  C    0.006233   0.000905  -0.000049  -0.000198
    10  H   -0.000124  -0.000018   0.000016  -0.000001
    11  C   -0.000283  -0.000054  -0.000031   0.000017
    12  H    0.000007  -0.000003   0.000020  -0.000015
    13  H   -0.000059  -0.000002  -0.000012   0.000003
    14  H    0.000002   0.000001  -0.000001   0.000000
    15  C   -0.024444  -0.000717  -0.000294   0.002687
    16  O   -0.007751   0.021880   0.000512   0.000502
    17  N    0.265757  -0.041171  -0.042793  -0.039902
    18  H   -0.032305   0.004105  -0.000485  -0.000920
    19  C    4.966546   0.376056   0.384498   0.377636
    20  H    0.376056   0.481716  -0.026559  -0.022661
    21  H    0.384498  -0.026559   0.564543  -0.039962
    22  H    0.377636  -0.022661  -0.039962   0.567699
 Mulliken atomic charges:
              1
     1  H    0.185952
     2  C   -0.538368
     3  H    0.190776
     4  H    0.142490
     5  C    0.602523
     6  O   -0.501586
     7  N   -0.589501
     8  H    0.322339
     9  C   -0.028383
    10  H    0.209440
    11  C   -0.473255
    12  H    0.135462
    13  H    0.154267
    14  H    0.180360
    15  C    0.563312
    16  O   -0.503833
    17  N   -0.592823
    18  H    0.330187
    19  C   -0.311615
    20  H    0.206550
    21  H    0.160596
    22  H    0.155109
 Sum of Mulliken atomic charges =   0.00000
 Mulliken charges with hydrogens summed into heavy atoms:
              1
     2  C   -0.019149
     5  C    0.602523
     6  O   -0.501586
     7  N   -0.267162
     9  C    0.181057
    11  C   -0.003166
    15  C    0.563312
    16  O   -0.503833
    17  N   -0.262636
    19  C    0.210640
 Sum of Mulliken charges with hydrogens summed into heavy atoms =   0.00000
 Electronic spatial extent (au):  <R**2>=           1917.5958
 Charge=              0.0000 electrons
 Dipole moment (field-independent basis, Debye):
    X=             -2.8467    Y=              1.4787    Z=             -4.6952  Tot=              5.6864
 Quadrupole moment (field-independent basis, Debye-Ang):
   XX=            -56.1229   YY=            -59.7097   ZZ=            -62.0653
   XY=             -6.1522   XZ=             -3.3986   YZ=              2.9050
 Traceless Quadrupole moment (field-independent basis, Debye-Ang):
   XX=              3.1764   YY=             -0.4104   ZZ=             -2.7660
   XY=             -6.1522   XZ=             -3.3986   YZ=              2.9050
 Octapole moment (field-independent basis, Debye-Ang**2):
  XXX=            -35.1431  YYY=              0.8942  ZZZ=             -3.4773  XYY=              2.6251
  XXY=            -10.1513  XXZ=            -23.7553  XZZ=             -5.3666  YZZ=              1.1874
  YYZ=             -2.1298  XYZ=             -2.3890
 Hexadecapole moment (field-independent basis, Debye-Ang**3):
 XXXX=          -1681.8955 YYYY=           -449.3323 ZZZZ=           -229.2495 XXXY=            -10.8847
 XXXZ=            -32.2990 YYYX=             -0.5833 YYYZ=              1.6606 ZZZX=              3.8052
 ZZZY=              2.3612 XXYY=           -356.1683 XXZZ=           -353.6318 YYZZ=           -117.9784
 XXYZ=             -3.8979 YYXZ=              8.7895 ZZXY=             -6.1801
 N-N= 5.490542095176D+02 E-N=-2.254122016308D+03  KE= 4.912334016638D+02
 1\1\GINC-NODE003\FOpt\RB3LYP\6-31G(d)\C6H12N2O2\STEBOSS\10-Feb-2017\0\
 \# b3lyp/6-31G* Opt=(ModRedundant, maxcycles=1000, calcfc) geom=nocrow
 d\\Phi Psi fixed scan\\0,1\H,1.6972100752,1.5885272353,1.0829000485\C,
 1.7553669441,2.6628813073,0.8916292372\H,1.2190886775,3.172686844,1.69
 9677431\H,1.2556839023,2.8890629197,-0.0559566932\C,3.2150622555,3.089
 3346245,0.9285063528\O,3.9901588175,2.6890200768,1.7854082897\N,3.5984
 248959,3.9483888537,-0.0738262173\H,2.8855877019,4.320791588,-0.686118
 3056\C,4.9012232143,4.6088626898,-0.0604787074\H,5.3320698404,4.367240
 9342,0.9146922649\C,5.8194344033,4.061053581,-1.1611553071\H,5.3775125
 309,4.1676051535,-2.160517245\H,6.7959116054,4.5596115733,-1.151326070
 7\H,5.9833000697,2.9928546224,-0.9928519383\C,4.6711972882,6.136952019
 ,-0.0449235722\O,4.23918575,6.6922480244,0.9562458521\N,4.9008751249,6
 .7952960653,-1.2222814073\H,5.3455928754,6.2968992374,-1.9783896379\C,
 4.7494293065,8.2356241392,-1.3445409239\H,4.2149970111,8.5835619698,-0
 .4598016737\H,5.7211637953,8.7431274677,-1.393613191\H,4.1737239144,8.
 4876690738,-2.2417785853\\Version=EM64L-G09RevA.02\State=1-A\HF=-495.8
 424969\RMSD=7.040e-09\RMSF=3.067e-04\Dipole=-0.15137,0.4112935,-2.1938
 569\Quadrupole=4.8842297,-2.1206327,-2.7635971,3.6683321,-2.0396942,-1
 .1439359\PG=C01 [X(C6H12N2O2)]\\@


 ... SUBJECTS WHICH DISCLOSE THEIR FULL POWER, MEANING AND BEAUTY AS SOON
 AS THEY ARE PRESENTED TO THE MIND HAVE VERY LITTLE OF THOSE QUALITIES
 TO DISCLOSE.
                           -- CHARLES DUTTON (1882)
 Job cpu time:  0 days  2 hours 41 minutes 50.7 seconds.
 File lengths (MBytes):  RWF=    186 Int=      0 D2E=      0 Chk=      4 Scr=      2
 Normal termination of Gaussian 09 at Fri Feb 10 22:44:26 2017.
