 Entering Gaussian System, Link 0=g09
 Initial command:
 /home/steboss/Software/g09/l1.exe /home/steboss/projects/phi_psi_scan/alanine/240/4411/Gau-10393.inp -scrdir=/home/steboss/projects/phi_psi_scan/alanine/240/4411/
 Entering Link 1 = /home/steboss/Software/g09/l1.exe PID=     10395.
  
 Copyright (c) 1988,1990,1992,1993,1995,1998,2003,2009, Gaussian, Inc.
                  All Rights Reserved.
  
 This is part of the Gaussian(R) 09 program.  It is based on
 the Gaussian(R) 03 system (copyright 2003, Gaussian, Inc.),
 the Gaussian(R) 98 system (copyright 1998, Gaussian, Inc.),
 the Gaussian(R) 94 system (copyright 1995, Gaussian, Inc.),
 the Gaussian 92(TM) system (copyright 1992, Gaussian, Inc.),
 the Gaussian 90(TM) system (copyright 1990, Gaussian, Inc.),
 the Gaussian 88(TM) system (copyright 1988, Gaussian, Inc.),
 the Gaussian 86(TM) system (copyright 1986, Carnegie Mellon
 University), and the Gaussian 82(TM) system (copyright 1983,
 Carnegie Mellon University). Gaussian is a federally registered
 trademark of Gaussian, Inc.
  
 This software contains proprietary and confidential information,
 including trade secrets, belonging to Gaussian, Inc.
  
 This software is provided under written license and may be
 used, copied, transmitted, or stored only in accord with that
 written license.
  
 The following legend is applicable only to US Government
 contracts under FAR:
  
                    RESTRICTED RIGHTS LEGEND
  
 Use, reproduction and disclosure by the US Government is
 subject to restrictions as set forth in subparagraphs (a)
 and (c) of the Commercial Computer Software - Restricted
 Rights clause in FAR 52.227-19.
  
 Gaussian, Inc.
 340 Quinnipiac St., Bldg. 40, Wallingford CT 06492
  
  
 ---------------------------------------------------------------
 Warning -- This program may not be used in any manner that
 competes with the business of Gaussian, Inc. or will provide
 assistance to any competitor of Gaussian, Inc.  The licensee
 of this program is prohibited from giving any competitor of
 Gaussian, Inc. access to this program.  By using this program,
 the user acknowledges that Gaussian, Inc. is engaged in the
 business of creating and licensing software in the field of
 computational chemistry and represents and warrants to the
 licensee that it is not a competitor of Gaussian, Inc. and that
 it will not use this program in any manner prohibited above.
 ---------------------------------------------------------------
  

 Cite this work as:
 Gaussian 09, Revision A.02,
 M. J. Frisch, G. W. Trucks, H. B. Schlegel, G. E. Scuseria, 
 M. A. Robb, J. R. Cheeseman, G. Scalmani, V. Barone, B. Mennucci, 
 G. A. Petersson, H. Nakatsuji, M. Caricato, X. Li, H. P. Hratchian, 
 A. F. Izmaylov, J. Bloino, G. Zheng, J. L. Sonnenberg, M. Hada, 
 M. Ehara, K. Toyota, R. Fukuda, J. Hasegawa, M. Ishida, T. Nakajima, 
 Y. Honda, O. Kitao, H. Nakai, T. Vreven, J. A. Montgomery, Jr., 
 J. E. Peralta, F. Ogliaro, M. Bearpark, J. J. Heyd, E. Brothers, 
 K. N. Kudin, V. N. Staroverov, R. Kobayashi, J. Normand, 
 K. Raghavachari, A. Rendell, J. C. Burant, S. S. Iyengar, J. Tomasi, 
 M. Cossi, N. Rega, J. M. Millam, M. Klene, J. E. Knox, J. B. Cross, 
 V. Bakken, C. Adamo, J. Jaramillo, R. Gomperts, R. E. Stratmann, 
 O. Yazyev, A. J. Austin, R. Cammi, C. Pomelli, J. W. Ochterski, 
 R. L. Martin, K. Morokuma, V. G. Zakrzewski, G. A. Voth, 
 P. Salvador, J. J. Dannenberg, S. Dapprich, A. D. Daniels, 
 O. Farkas, J. B. Foresman, J. V. Ortiz, J. Cioslowski, 
 and D. J. Fox, Gaussian, Inc., Wallingford CT, 2009.
 
 ******************************************
 Gaussian 09:  EM64L-G09RevA.02 11-Jun-2009
                10-Feb-2017 
 ******************************************
 %chk=structure_45.chk
 %NProcShared=8
 Will use up to    8 processors via shared memory.
 ----------------------------------------------------------------------
 # b3lyp/6-31G* Opt=(ModRedundant, maxcycles=1000, calcfc) geom=nocrowd
 ----------------------------------------------------------------------
 1/6=1000,10=4,14=-1,18=120,19=15,26=3,38=1/1,3;
 2/9=110,12=1,17=6,18=5,40=1/2;
 3/5=1,6=6,7=1,11=2,16=1,25=1,30=1,71=2,74=-5/1,2,3;
 4//1;
 5/5=2,38=5/2;
 8/6=4,10=90,11=11/1;
 11/6=1,8=1,9=11,15=111,16=1/1,2,10;
 10/6=1,7=6,13=1/2;
 6/7=2,8=2,9=2,10=2,28=1/1;
 7/10=1,18=20,25=1/1,2,3,16;
 1/6=1000,10=4,14=-1,18=20,19=15/3(2);
 2/9=110,12=1/2;
 99//99;
 2/9=110,12=1/2;
 3/5=1,6=6,7=1,11=2,16=1,25=1,30=1,71=1,74=-5/1,2,3;
 4/5=5,16=3/1;
 5/5=2,38=5/2;
 7//1,2,3,16;
 1/6=1000,14=-1,18=20,19=15/3(-5);
 2/9=110,12=1/2;
 6/7=2,8=2,9=2,10=2,19=2,28=1/1;
 99/9=1/99;
 ------------------
 Phi Psi fixed scan
 ------------------
 Symbolic Z-matrix:
 Charge =  0 Multiplicity = 1
 H                     1.5624    1.8816    1.7047 
 C                     1.7794    2.5343    0.8591 
 H                     1.0463    3.3401    0.824 
 H                     1.7316    1.9596   -0.0658 
 C                     3.1755    3.1484    0.9815 
 O                     3.8914    2.883     1.9446 
 N                     3.5554    3.9697    0. 
 H                     2.9312    4.1571   -0.7716 
 C                     4.8533    4.6139    0. 
 H                     5.4076    4.3155    0.8898 
 C                     5.6613    4.2208   -1.2322 
 H                     5.1233    4.5214   -2.1312 
 H                     6.6305    4.7189   -1.2058 
 H                     5.8085    3.1409   -1.2414 
 C                     4.7127    6.1294    0. 
 O                     5.4006    6.8197   -0.7488 
 N                     3.817     6.6467    0.8441 
 H                     3.2747    6.038     1.4403 
 C                     3.5895    8.0746    0.9387 
 H                     4.2439    8.5944    0.2391 
 H                     2.5501    8.2943    0.695 
 H                     3.8031    8.4106    1.9534 
 
 The following ModRedundant input section has been read:
 D    5    7    9   15 F                                                       
 D    7    9   15   17 F                                                       

 GradGradGradGradGradGradGradGradGradGradGradGradGradGradGradGradGradGrad
 Berny optimization.
 Initialization pass.
                           ----------------------------
                           !    Initial Parameters    !
                           ! (Angstroms and Degrees)  !
 --------------------------                            --------------------------
 ! Name  Definition              Value          Derivative Info.                !
 --------------------------------------------------------------------------------
 ! R1    R(1,2)                  1.09           calculate D2E/DX2 analytically  !
 ! R2    R(2,3)                  1.0899         calculate D2E/DX2 analytically  !
 ! R3    R(2,4)                  1.09           calculate D2E/DX2 analytically  !
 ! R4    R(2,5)                  1.5301         calculate D2E/DX2 analytically  !
 ! R5    R(5,6)                  1.229          calculate D2E/DX2 analytically  !
 ! R6    R(5,7)                  1.335          calculate D2E/DX2 analytically  !
 ! R7    R(7,8)                  1.01           calculate D2E/DX2 analytically  !
 ! R8    R(7,9)                  1.449          calculate D2E/DX2 analytically  !
 ! R9    R(9,10)                 1.09           calculate D2E/DX2 analytically  !
 ! R10   R(9,11)                 1.525          calculate D2E/DX2 analytically  !
 ! R11   R(9,15)                 1.522          calculate D2E/DX2 analytically  !
 ! R12   R(11,12)                1.09           calculate D2E/DX2 analytically  !
 ! R13   R(11,13)                1.09           calculate D2E/DX2 analytically  !
 ! R14   R(11,14)                1.0899         calculate D2E/DX2 analytically  !
 ! R15   R(15,16)                1.229          calculate D2E/DX2 analytically  !
 ! R16   R(15,17)                1.3351         calculate D2E/DX2 analytically  !
 ! R17   R(17,18)                1.01           calculate D2E/DX2 analytically  !
 ! R18   R(17,19)                1.449          calculate D2E/DX2 analytically  !
 ! R19   R(19,20)                1.0899         calculate D2E/DX2 analytically  !
 ! R20   R(19,21)                1.09           calculate D2E/DX2 analytically  !
 ! R21   R(19,22)                1.09           calculate D2E/DX2 analytically  !
 ! A1    A(1,2,3)              109.4979         calculate D2E/DX2 analytically  !
 ! A2    A(1,2,4)              109.5015         calculate D2E/DX2 analytically  !
 ! A3    A(1,2,5)              111.0948         calculate D2E/DX2 analytically  !
 ! A4    A(3,2,4)              109.4502         calculate D2E/DX2 analytically  !
 ! A5    A(3,2,5)              108.6362         calculate D2E/DX2 analytically  !
 ! A6    A(4,2,5)              108.6335         calculate D2E/DX2 analytically  !
 ! A7    A(2,5,6)              120.4974         calculate D2E/DX2 analytically  !
 ! A8    A(2,5,7)              116.5994         calculate D2E/DX2 analytically  !
 ! A9    A(6,5,7)              122.9032         calculate D2E/DX2 analytically  !
 ! A10   A(5,7,8)              119.9965         calculate D2E/DX2 analytically  !
 ! A11   A(5,7,9)              121.8985         calculate D2E/DX2 analytically  !
 ! A12   A(8,7,9)              118.105          calculate D2E/DX2 analytically  !
 ! A13   A(7,9,10)             109.5            calculate D2E/DX2 analytically  !
 ! A14   A(7,9,11)             111.0992         calculate D2E/DX2 analytically  !
 ! A15   A(7,9,15)             111.0966         calculate D2E/DX2 analytically  !
 ! A16   A(10,9,11)            108.6382         calculate D2E/DX2 analytically  !
 ! A17   A(10,9,15)            108.6373         calculate D2E/DX2 analytically  !
 ! A18   A(11,9,15)            107.7947         calculate D2E/DX2 analytically  !
 ! A19   A(9,11,12)            109.5007         calculate D2E/DX2 analytically  !
 ! A20   A(9,11,13)            109.4959         calculate D2E/DX2 analytically  !
 ! A21   A(9,11,14)            109.4978         calculate D2E/DX2 analytically  !
 ! A22   A(12,11,13)           109.441          calculate D2E/DX2 analytically  !
 ! A23   A(12,11,14)           109.4482         calculate D2E/DX2 analytically  !
 ! A24   A(13,11,14)           109.4436         calculate D2E/DX2 analytically  !
 ! A25   A(9,15,16)            120.5022         calculate D2E/DX2 analytically  !
 ! A26   A(9,15,17)            116.6022         calculate D2E/DX2 analytically  !
 ! A27   A(16,15,17)           122.8956         calculate D2E/DX2 analytically  !
 ! A28   A(15,17,18)           119.996          calculate D2E/DX2 analytically  !
 ! A29   A(15,17,19)           121.9004         calculate D2E/DX2 analytically  !
 ! A30   A(18,17,19)           118.1036         calculate D2E/DX2 analytically  !
 ! A31   A(17,19,20)           109.4999         calculate D2E/DX2 analytically  !
 ! A32   A(17,19,21)           109.497          calculate D2E/DX2 analytically  !
 ! A33   A(17,19,22)           109.4979         calculate D2E/DX2 analytically  !
 ! A34   A(20,19,21)           109.4462         calculate D2E/DX2 analytically  !
 ! A35   A(20,19,22)           109.4431         calculate D2E/DX2 analytically  !
 ! A36   A(21,19,22)           109.4433         calculate D2E/DX2 analytically  !
 ! D1    D(1,2,5,6)              0.0016         calculate D2E/DX2 analytically  !
 ! D2    D(1,2,5,7)           -179.9943         calculate D2E/DX2 analytically  !
 ! D3    D(3,2,5,6)            120.5083         calculate D2E/DX2 analytically  !
 ! D4    D(3,2,5,7)            -59.4876         calculate D2E/DX2 analytically  !
 ! D5    D(4,2,5,6)           -120.5076         calculate D2E/DX2 analytically  !
 ! D6    D(4,2,5,7)             59.4965         calculate D2E/DX2 analytically  !
 ! D7    D(2,5,7,8)             -0.0085         calculate D2E/DX2 analytically  !
 ! D8    D(2,5,7,9)           -179.9978         calculate D2E/DX2 analytically  !
 ! D9    D(6,5,7,8)            179.9958         calculate D2E/DX2 analytically  !
 ! D10   D(6,5,7,9)              0.0064         calculate D2E/DX2 analytically  !
 ! D11   D(5,7,9,10)            -0.0045         calculate D2E/DX2 analytically  !
 ! D12   D(5,7,9,11)           119.9981         calculate D2E/DX2 analytically  !
 ! D13   D(5,7,9,15)          -120.0043         frozen, calculate D2E/DX2 analyt!
 ! D14   D(8,7,9,10)          -179.994          calculate D2E/DX2 analytically  !
 ! D15   D(8,7,9,11)           -59.9914         calculate D2E/DX2 analytically  !
 ! D16   D(8,7,9,15)            60.0061         calculate D2E/DX2 analytically  !
 ! D17   D(7,9,11,12)           60.0024         calculate D2E/DX2 analytically  !
 ! D18   D(7,9,11,13)          179.9986         calculate D2E/DX2 analytically  !
 ! D19   D(7,9,11,14)          -60.0038         calculate D2E/DX2 analytically  !
 ! D20   D(10,9,11,12)        -179.4843         calculate D2E/DX2 analytically  !
 ! D21   D(10,9,11,13)         -59.4881         calculate D2E/DX2 analytically  !
 ! D22   D(10,9,11,14)          60.5095         calculate D2E/DX2 analytically  !
 ! D23   D(15,9,11,12)         -61.938          calculate D2E/DX2 analytically  !
 ! D24   D(15,9,11,13)          58.0582         calculate D2E/DX2 analytically  !
 ! D25   D(15,9,11,14)         178.0558         calculate D2E/DX2 analytically  !
 ! D26   D(7,9,15,16)         -134.9972         calculate D2E/DX2 analytically  !
 ! D27   D(7,9,15,17)           45.0006         frozen, calculate D2E/DX2 analyt!
 ! D28   D(10,9,15,16)         104.4917         calculate D2E/DX2 analytically  !
 ! D29   D(10,9,15,17)         -75.5105         calculate D2E/DX2 analytically  !
 ! D30   D(11,9,15,16)         -13.0552         calculate D2E/DX2 analytically  !
 ! D31   D(11,9,15,17)         166.9426         calculate D2E/DX2 analytically  !
 ! D32   D(9,15,17,18)          -0.0011         calculate D2E/DX2 analytically  !
 ! D33   D(9,15,17,19)        -179.9993         calculate D2E/DX2 analytically  !
 ! D34   D(16,15,17,18)        179.9966         calculate D2E/DX2 analytically  !
 ! D35   D(16,15,17,19)         -0.0015         calculate D2E/DX2 analytically  !
 ! D36   D(15,17,19,20)         -0.002          calculate D2E/DX2 analytically  !
 ! D37   D(15,17,19,21)        120.0007         calculate D2E/DX2 analytically  !
 ! D38   D(15,17,19,22)       -120.0014         calculate D2E/DX2 analytically  !
 ! D39   D(18,17,19,20)        179.9998         calculate D2E/DX2 analytically  !
 ! D40   D(18,17,19,21)        -59.9975         calculate D2E/DX2 analytically  !
 ! D41   D(18,17,19,22)         60.0004         calculate D2E/DX2 analytically  !
 --------------------------------------------------------------------------------
 Trust Radius=3.00D-01 FncErr=1.00D-07 GrdErr=1.00D-06
 Number of steps in this run= 132 maximum allowed number of steps= 132.
 GradGradGradGradGradGradGradGradGradGradGradGradGradGradGradGradGradGrad

                          Input orientation:                          
 ---------------------------------------------------------------------
 Center     Atomic      Atomic             Coordinates (Angstroms)
 Number     Number       Type             X           Y           Z
 ---------------------------------------------------------------------
      1          1           0        1.562400    1.881600    1.704700
      2          6           0        1.779400    2.534300    0.859100
      3          1           0        1.046300    3.340100    0.824000
      4          1           0        1.731600    1.959600   -0.065800
      5          6           0        3.175500    3.148400    0.981500
      6          8           0        3.891400    2.883000    1.944600
      7          7           0        3.555400    3.969700    0.000000
      8          1           0        2.931200    4.157100   -0.771600
      9          6           0        4.853300    4.613900    0.000000
     10          1           0        5.407600    4.315500    0.889800
     11          6           0        5.661300    4.220800   -1.232200
     12          1           0        5.123300    4.521400   -2.131200
     13          1           0        6.630500    4.718900   -1.205800
     14          1           0        5.808500    3.140900   -1.241400
     15          6           0        4.712700    6.129400    0.000000
     16          8           0        5.400600    6.819700   -0.748800
     17          7           0        3.817000    6.646700    0.844100
     18          1           0        3.274700    6.038000    1.440300
     19          6           0        3.589500    8.074600    0.938700
     20          1           0        4.243900    8.594400    0.239100
     21          1           0        2.550100    8.294300    0.695000
     22          1           0        3.803100    8.410600    1.953400
 ---------------------------------------------------------------------
                    Distance matrix (angstroms):
                    1          2          3          4          5
     1  H    0.000000
     2  C    1.090021   0.000000
     3  H    1.780229   1.089946   0.000000
     4  H    1.780276   1.089956   1.779652   0.000000
     5  C    2.174832   1.530097   2.143606   2.143579   0.000000
     6  O    2.546487   2.400093   3.091808   3.091781   1.229029
     7  N    3.352344   2.439795   2.714950   2.714973   1.334991
     8  H    3.630919   2.572801   2.601207   2.601192   2.037282
     9  C    4.604507   3.809416   4.098145   4.098128   2.434347
    10  H    4.623148   4.041961   4.469527   4.469498   2.520476
    11  C    5.558617   4.720907   5.128530   4.681459   3.497100
    12  H    5.861969   4.906335   5.172099   4.725709   3.920198
    13  H    6.496685   5.706966   6.099546   5.736947   4.380385
    14  H    5.319277   4.584071   5.194623   4.404386   3.445871
    15  C    5.556455   4.718797   4.679921   5.126258   3.494666
    16  O    6.718353   5.836359   5.791480   6.127693   4.628547
    17  N    5.341351   4.589539   4.314022   5.210155   3.559284
    18  H    4.503059   3.853522   3.553063   4.613333   2.927478
    19  C    6.561184   5.829041   5.375548   6.469470   4.943751
    20  H    7.375643   6.571375   6.178545   7.101069   5.599246
    21  H    6.566412   5.813648   5.179011   6.432510   5.191675
    22  H    6.907274   6.310607   5.880940   7.069914   5.387877
                    6          7          8          9         10
     6  O    0.000000
     7  N    2.252839   0.000000
     8  H    3.150088   1.010005   0.000000
     9  C    2.775380   1.448978   2.120967   0.000000
    10  H    2.337418   2.083739   2.986285   1.089970   0.000000
    11  C    3.874831   2.452791   2.769414   1.525027   2.139209
    12  H    4.562245   2.702720   2.605097   2.150225   3.041326
    13  H    4.560506   3.386959   3.766825   2.150214   2.459625
    14  H    3.727248   2.702673   3.087431   2.150165   2.466256
    15  C    3.872353   2.450234   2.767504   1.522008   2.136554
    16  O    5.002969   3.476775   3.631514   2.392863   2.992670
    17  N    3.921999   2.819090   3.097295   2.432838   2.822515
    18  H    3.254022   2.535966   2.923744   2.567976   2.796305
    19  C    5.296762   4.211000   4.324961   3.801946   4.175968
    20  H    5.971020   4.681779   4.736489   4.033970   4.481807
    21  H    5.713384   4.493976   4.405971   4.396942   4.902459
    22  H    5.528312   4.857851   5.126217   4.397002   4.524987
                   11         12         13         14         15
    11  C    0.000000
    12  H    1.089957   0.000000
    13  H    1.090023   1.779613   0.000000
    14  H    1.089925   1.779613   1.779617   0.000000
    15  C    2.461892   2.701161   2.668599   3.416575   0.000000
    16  O    2.656298   2.696314   2.476866   3.733980   1.228992
    17  N    3.687473   3.882748   3.979232   4.539385   1.335059
    18  H    4.017503   4.298024   4.472501   4.690932   2.037317
    19  C    4.884356   4.939844   5.010717   5.832512   2.434448
    20  H    4.827227   4.793850   4.775259   5.863490   2.520549
    21  H    5.476045   5.370618   5.748582   6.397214   3.137938
    22  H    5.581700   5.792475   5.621689   6.480595   3.137996
                   16         17         18         19         20
    16  O    0.000000
    17  N    2.252787   0.000000
    18  H    3.150026   1.009980   0.000000
    19  C    2.775340   1.449001   2.120953   0.000000
    20  H    2.337405   2.083700   2.986203   1.089895   0.000000
    21  H    3.519141   2.083711   2.484232   1.089959   1.779568
    22  H    3.519212   2.083767   2.484292   1.090017   1.779582
                   21         22
    21  H    0.000000
    22  H    1.779636   0.000000
 Stoichiometry    C6H12N2O2
 Framework group  C1[X(C6H12N2O2)]
 Deg. of freedom    60
 Full point group                 C1      NOp   1
 Largest Abelian subgroup         C1      NOp   1
 Largest concise Abelian subgroup C1      NOp   1
                         Standard orientation:                         
 ---------------------------------------------------------------------
 Center     Atomic      Atomic             Coordinates (Angstroms)
 Number     Number       Type             X           Y           Z
 ---------------------------------------------------------------------
      1          1           0        3.893340   -1.362206   -0.189848
      2          6           0        3.064740   -0.961614   -0.773880
      3          1           0        2.574777   -1.771971   -1.313546
      4          1           0        3.442603   -0.227827   -1.485765
      5          6           0        2.033229   -0.281209    0.128468
      6          8           0        2.200191   -0.239304    1.345382
      7          7           0        0.968053    0.249927   -0.476094
      8          1           0        0.875225    0.190190   -1.480049
      9          6           0       -0.078812    0.921291    0.267465
     10          1           0        0.161870    0.904614    1.330400
     11          6           0       -0.223250    2.372995   -0.176834
     12          1           0       -0.473328    2.405808   -1.237206
     13          1           0       -1.015890    2.852173    0.397850
     14          1           0        0.715936    2.899965   -0.009003
     15          6           0       -1.422292    0.236152    0.062151
     16          8           0       -2.432988    0.898983   -0.160491
     17          7           0       -1.431352   -1.096743    0.137586
     18          1           0       -0.574231   -1.597835    0.322816
     19          6           0       -2.646788   -1.865466   -0.039566
     20          1           0       -3.480169   -1.189548   -0.230571
     21          1           0       -2.528455   -2.543509   -0.884709
     22          1           0       -2.847170   -2.442467    0.863238
 ---------------------------------------------------------------------
 Rotational constants (GHZ):      1.9345933      0.8398508      0.6668579
 Standard basis: 6-31G(d) (6D, 7F)
 There are   174 symmetry adapted basis functions of A   symmetry.
 Integral buffers will be    131072 words long.
 Raffenetti 2 integral format.
 Two-electron integral symmetry is turned on.
   174 basis functions,   328 primitive gaussians,   174 cartesian basis functions
    39 alpha electrons       39 beta electrons
       nuclear repulsion energy       557.6332234315 Hartrees.
 NAtoms=   22 NActive=   22 NUniq=   22 SFac= 7.50D-01 NAtFMM=   80 NAOKFM=F Big=F
 One-electron integrals computed using PRISM.
 NBasis=   174 RedAO= T  NBF=   174
 NBsUse=   174 1.00D-06 NBFU=   174
 Harris functional with IExCor=  402 diagonalized for initial guess.
 ExpMin= 1.61D-01 ExpMax= 5.48D+03 ExpMxC= 8.25D+02 IAcc=1 IRadAn=         1 AccDes= 0.00D+00
 HarFok:  IExCor=  402 AccDes= 0.00D+00 IRadAn=         1 IDoV= 1
 ScaDFX=  1.000000  1.000000  1.000000  1.000000
 FoFCou: FMM=F IPFlag=           0 FMFlag=      100000 FMFlg1=           0
         NFxFlg=           0 DoJE=T BraDBF=F KetDBF=T FulRan=T
         Omega=  0.000000  0.000000  1.000000  0.000000  0.000000 ICntrl=     500 IOpCl=  0
         NMat0=    1 NMatS0=    1 NMatT0=    0 NMatD0=    1 NMtDS0=    0 NMtDT0=    0
         I1Cent=           4 NGrid=           0.
 Petite list used in FoFCou.
 Initial guess orbital symmetries:
       Occupied  (A) (A) (A) (A) (A) (A) (A) (A) (A) (A) (A) (A)
                 (A) (A) (A) (A) (A) (A) (A) (A) (A) (A) (A) (A)
                 (A) (A) (A) (A) (A) (A) (A) (A) (A) (A) (A) (A)
                 (A) (A) (A)
       Virtual   (A) (A) (A) (A) (A) (A) (A) (A) (A) (A) (A) (A)
                 (A) (A) (A) (A) (A) (A) (A) (A) (A) (A) (A) (A)
                 (A) (A) (A) (A) (A) (A) (A) (A) (A) (A) (A) (A)
                 (A) (A) (A) (A) (A) (A) (A) (A) (A) (A) (A) (A)
                 (A) (A) (A) (A) (A) (A) (A) (A) (A) (A) (A) (A)
                 (A) (A) (A) (A) (A) (A) (A) (A) (A) (A) (A) (A)
                 (A) (A) (A) (A) (A) (A) (A) (A) (A) (A) (A) (A)
                 (A) (A) (A) (A) (A) (A) (A) (A) (A) (A) (A) (A)
                 (A) (A) (A) (A) (A) (A) (A) (A) (A) (A) (A) (A)
                 (A) (A) (A) (A) (A) (A) (A) (A) (A) (A) (A) (A)
                 (A) (A) (A) (A) (A) (A) (A) (A) (A) (A) (A) (A)
                 (A) (A) (A)
 The electronic state of the initial guess is 1-A.
 Requested convergence on RMS density matrix=1.00D-08 within 128 cycles.
 Requested convergence on MAX density matrix=1.00D-06.
 Requested convergence on             energy=1.00D-06.
 No special actions if energy rises.
 Integral accuracy reduced to 1.0D-05 until final iterations.
 Initial convergence to 1.0D-05 achieved.  Increase integral accuracy.
 SCF Done:  E(RB3LYP) =  -495.842866712     A.U. after   15 cycles
             Convg  =    0.8290D-08             -V/T =  2.0087
 Range of M.O.s used for correlation:     1   174
 NBasis=   174 NAE=    39 NBE=    39 NFC=     0 NFV=     0
 NROrb=    174 NOA=    39 NOB=    39 NVA=   135 NVB=   135
 Symmetrizing basis deriv contribution to polar:
 IMax=3 JMax=2 DiffMx= 0.00D+00
 G2DrvN: will do    23 centers at a time, making    1 passes doing MaxLOS=2.
 Calling FoFCou, ICntrl=  3107 FMM=F I1Cent=   0 AccDes= 0.00D+00.
 FoFDir/FoFCou used for L=0 through L=2.
 End of G2Drv Frequency-dependent properties file   721 does not exist.
 End of G2Drv Frequency-dependent properties file   722 does not exist.
          IDoAtm=1111111111111111111111
          Differentiating once with respect to nuclear coordinates.
          There are    69 degrees of freedom in the 1st order CPHF.  IDoFFX=5.
     63 vectors produced by pass  0 Test12= 7.63D-11 1.45D-07 XBig12= 2.03D-01 1.15D-01.
 AX will form    63 AO Fock derivatives at one time.
     63 vectors produced by pass  1 Test12= 7.63D-11 1.45D-07 XBig12= 4.28D-02 5.17D-02.
     63 vectors produced by pass  2 Test12= 7.63D-11 1.45D-07 XBig12= 6.48D-05 1.09D-03.
     63 vectors produced by pass  3 Test12= 7.63D-11 1.45D-07 XBig12= 1.29D-07 8.30D-05.
     28 vectors produced by pass  4 Test12= 7.63D-11 1.45D-07 XBig12= 1.10D-10 1.17D-06.
 Inverted reduced A of dimension   280 with in-core refinement.
 End of Minotr Frequency-dependent properties file   721 does not exist.
 End of Minotr Frequency-dependent properties file   722 does not exist.

 **********************************************************************

            Population analysis using the SCF density.

 **********************************************************************

 Orbital symmetries:
       Occupied  (A) (A) (A) (A) (A) (A) (A) (A) (A) (A) (A) (A)
                 (A) (A) (A) (A) (A) (A) (A) (A) (A) (A) (A) (A)
                 (A) (A) (A) (A) (A) (A) (A) (A) (A) (A) (A) (A)
                 (A) (A) (A)
       Virtual   (A) (A) (A) (A) (A) (A) (A) (A) (A) (A) (A) (A)
                 (A) (A) (A) (A) (A) (A) (A) (A) (A) (A) (A) (A)
                 (A) (A) (A) (A) (A) (A) (A) (A) (A) (A) (A) (A)
                 (A) (A) (A) (A) (A) (A) (A) (A) (A) (A) (A) (A)
                 (A) (A) (A) (A) (A) (A) (A) (A) (A) (A) (A) (A)
                 (A) (A) (A) (A) (A) (A) (A) (A) (A) (A) (A) (A)
                 (A) (A) (A) (A) (A) (A) (A) (A) (A) (A) (A) (A)
                 (A) (A) (A) (A) (A) (A) (A) (A) (A) (A) (A) (A)
                 (A) (A) (A) (A) (A) (A) (A) (A) (A) (A) (A) (A)
                 (A) (A) (A) (A) (A) (A) (A) (A) (A) (A) (A) (A)
                 (A) (A) (A) (A) (A) (A) (A) (A) (A) (A) (A) (A)
                 (A) (A) (A)
 The electronic state is 1-A.
 Alpha  occ. eigenvalues --  -19.10906 -19.10545 -14.37130 -14.36433 -10.28940
 Alpha  occ. eigenvalues --  -10.27904 -10.23033 -10.21860 -10.19634 -10.17350
 Alpha  occ. eigenvalues --   -1.03780  -1.02894  -0.93927  -0.92242  -0.78536
 Alpha  occ. eigenvalues --   -0.73163  -0.71727  -0.64031  -0.60453  -0.58886
 Alpha  occ. eigenvalues --   -0.54336  -0.49022  -0.47856  -0.46195  -0.45650
 Alpha  occ. eigenvalues --   -0.45084  -0.42081  -0.42021  -0.39928  -0.39590
 Alpha  occ. eigenvalues --   -0.38997  -0.38053  -0.36953  -0.35964  -0.35252
 Alpha  occ. eigenvalues --   -0.27327  -0.25310  -0.24757  -0.23818
 Alpha virt. eigenvalues --    0.02321   0.03391   0.06463   0.08827   0.11586
 Alpha virt. eigenvalues --    0.12486   0.13090   0.14921   0.16239   0.16388
 Alpha virt. eigenvalues --    0.16832   0.17138   0.17423   0.18834   0.19229
 Alpha virt. eigenvalues --    0.21461   0.23216   0.26019   0.28280   0.31100
 Alpha virt. eigenvalues --    0.35982   0.37555   0.41406   0.50179   0.51051
 Alpha virt. eigenvalues --    0.52649   0.53362   0.54108   0.55043   0.55924
 Alpha virt. eigenvalues --    0.57790   0.59200   0.61737   0.63951   0.64855
 Alpha virt. eigenvalues --    0.66030   0.67239   0.69748   0.72048   0.74502
 Alpha virt. eigenvalues --    0.75591   0.76788   0.78413   0.80294   0.84201
 Alpha virt. eigenvalues --    0.84642   0.85574   0.86975   0.87156   0.88910
 Alpha virt. eigenvalues --    0.89223   0.90273   0.90796   0.92117   0.93446
 Alpha virt. eigenvalues --    0.94290   0.95191   0.96277   0.97948   1.00515
 Alpha virt. eigenvalues --    1.04430   1.06077   1.07518   1.12389   1.19578
 Alpha virt. eigenvalues --    1.22213   1.26784   1.31577   1.31603   1.32997
 Alpha virt. eigenvalues --    1.34286   1.40601   1.42600   1.45471   1.46208
 Alpha virt. eigenvalues --    1.50377   1.54459   1.62683   1.67754   1.68557
 Alpha virt. eigenvalues --    1.72851   1.75519   1.79270   1.80698   1.82452
 Alpha virt. eigenvalues --    1.84831   1.85316   1.88028   1.88654   1.89784
 Alpha virt. eigenvalues --    1.93198   1.96149   1.96893   1.99890   2.03086
 Alpha virt. eigenvalues --    2.06600   2.07831   2.10438   2.12670   2.15933
 Alpha virt. eigenvalues --    2.19045   2.20689   2.24190   2.28042   2.29227
 Alpha virt. eigenvalues --    2.30280   2.31694   2.35700   2.40783   2.40934
 Alpha virt. eigenvalues --    2.42863   2.48434   2.53308   2.58346   2.63326
 Alpha virt. eigenvalues --    2.67538   2.69446   2.73198   2.74449   2.88074
 Alpha virt. eigenvalues --    2.94508   2.96203   3.03895   3.16057   3.18357
 Alpha virt. eigenvalues --    3.95031   4.02417   4.05841   4.10185   4.18352
 Alpha virt. eigenvalues --    4.25032   4.25347   4.41230   4.52097   4.63066
          Condensed to atoms (all electrons):
              1          2          3          4          5          6
     1  H    0.496362   0.361499  -0.021595  -0.020608  -0.017752   0.005054
     2  C    0.361499   5.345637   0.348315   0.351585   0.345660  -0.083420
     3  H   -0.021595   0.348315   0.559684  -0.026838  -0.025361   0.001572
     4  H   -0.020608   0.351585  -0.026838   0.546207  -0.025642   0.001429
     5  C   -0.017752   0.345660  -0.025361  -0.025642   4.356194   0.612029
     6  O    0.005054  -0.083420   0.001572   0.001429   0.612029   8.059786
     7  N    0.004468  -0.136285   0.004444   0.004608   0.212126  -0.111071
     8  H   -0.000143  -0.000202   0.001058   0.000973  -0.018913   0.003414
     9  C   -0.000123   0.006780  -0.000317  -0.000265  -0.012067   0.000551
    10  H   -0.000010   0.001264  -0.000042  -0.000044  -0.000063   0.021222
    11  C    0.000003  -0.000265  -0.000010   0.000044   0.001609   0.000496
    12  H    0.000000  -0.000002   0.000001   0.000001  -0.000218  -0.000019
    13  H    0.000000   0.000004   0.000000   0.000000  -0.000042  -0.000011
    14  H    0.000000  -0.000021   0.000000  -0.000004   0.000881   0.000173
    15  C    0.000001  -0.000110   0.000058  -0.000013  -0.001605  -0.000363
    16  O    0.000000   0.000001   0.000000   0.000000  -0.000072  -0.000002
    17  N    0.000000  -0.000083   0.000045   0.000001   0.001455  -0.000059
    18  H   -0.000003   0.000083  -0.000014   0.000003   0.004025   0.000705
    19  C    0.000000   0.000000  -0.000001   0.000000  -0.000017   0.000003
    20  H    0.000000   0.000000   0.000000   0.000000   0.000000   0.000000
    21  H    0.000000   0.000000   0.000000   0.000000   0.000001   0.000000
    22  H    0.000000   0.000000   0.000000   0.000000  -0.000002   0.000000
              7          8          9         10         11         12
     1  H    0.004468  -0.000143  -0.000123  -0.000010   0.000003   0.000000
     2  C   -0.136285  -0.000202   0.006780   0.001264  -0.000265  -0.000002
     3  H    0.004444   0.001058  -0.000317  -0.000042  -0.000010   0.000001
     4  H    0.004608   0.000973  -0.000265  -0.000044   0.000044   0.000001
     5  C    0.212126  -0.018913  -0.012067  -0.000063   0.001609  -0.000218
     6  O   -0.111071   0.003414   0.000551   0.021222   0.000496  -0.000019
     7  N    7.223646   0.300045   0.211823  -0.044279  -0.058752  -0.004193
     8  H    0.300045   0.409145  -0.032743   0.004518  -0.000759   0.003984
     9  C    0.211823  -0.032743   5.187510   0.367051   0.355240  -0.031385
    10  H   -0.044279   0.004518   0.367051   0.501031  -0.032400   0.004529
    11  C   -0.058752  -0.000759   0.355240  -0.032400   5.086095   0.376807
    12  H   -0.004193   0.003984  -0.031385   0.004529   0.376807   0.567504
    13  H    0.004525  -0.000113  -0.025968  -0.001644   0.370076  -0.022560
    14  H   -0.000715  -0.000001  -0.033972  -0.003198   0.359990  -0.032152
    15  C   -0.040836  -0.000049   0.310678  -0.029024  -0.041040  -0.007836
    16  O    0.001181   0.000111  -0.094592   0.000878   0.001630   0.002902
    17  N    0.001210   0.001614  -0.136950  -0.000950   0.006011   0.000059
    18  H    0.004690   0.000091  -0.001091   0.000675   0.000217  -0.000011
    19  C   -0.000134  -0.000062   0.006557  -0.000159  -0.000173  -0.000006
    20  H   -0.000065  -0.000004   0.001355  -0.000028  -0.000029  -0.000006
    21  H    0.000043  -0.000022  -0.000032  -0.000005   0.000009   0.000000
    22  H   -0.000007   0.000004  -0.000222   0.000023  -0.000002   0.000000
             13         14         15         16         17         18
     1  H    0.000000   0.000000   0.000001   0.000000   0.000000  -0.000003
     2  C    0.000004  -0.000021  -0.000110   0.000001  -0.000083   0.000083
     3  H    0.000000   0.000000   0.000058   0.000000   0.000045  -0.000014
     4  H    0.000000  -0.000004  -0.000013   0.000000   0.000001   0.000003
     5  C   -0.000042   0.000881  -0.001605  -0.000072   0.001455   0.004025
     6  O   -0.000011   0.000173  -0.000363  -0.000002  -0.000059   0.000705
     7  N    0.004525  -0.000715  -0.040836   0.001181   0.001210   0.004690
     8  H   -0.000113  -0.000001  -0.000049   0.000111   0.001614   0.000091
     9  C   -0.025968  -0.033972   0.310678  -0.094592  -0.136950  -0.001091
    10  H   -0.001644  -0.003198  -0.029024   0.000878  -0.000950   0.000675
    11  C    0.370076   0.359990  -0.041040   0.001630   0.006011   0.000217
    12  H   -0.022560  -0.032152  -0.007836   0.002902   0.000059  -0.000011
    13  H    0.520810  -0.026332  -0.003068   0.006594   0.000236  -0.000028
    14  H   -0.026332   0.583363   0.006115   0.000998  -0.000052  -0.000021
    15  C   -0.003068   0.006115   4.365393   0.590374   0.295440  -0.022215
    16  O    0.006594   0.000998   0.590374   8.103015  -0.101085   0.003414
    17  N    0.000236  -0.000052   0.295440  -0.101085   7.068299   0.305332
    18  H   -0.000028  -0.000021  -0.022215   0.003414   0.305332   0.398030
    19  C   -0.000002   0.000002  -0.026361  -0.009763   0.267370  -0.032294
    20  H   -0.000002   0.000000  -0.000530   0.022207  -0.037804   0.003668
    21  H    0.000000   0.000000   0.001009   0.000593  -0.044498  -0.000351
    22  H    0.000000   0.000000   0.001564   0.000589  -0.043544  -0.001016
             19         20         21         22
     1  H    0.000000   0.000000   0.000000   0.000000
     2  C    0.000000   0.000000   0.000000   0.000000
     3  H   -0.000001   0.000000   0.000000   0.000000
     4  H    0.000000   0.000000   0.000000   0.000000
     5  C   -0.000017   0.000000   0.000001  -0.000002
     6  O    0.000003   0.000000   0.000000   0.000000
     7  N   -0.000134  -0.000065   0.000043  -0.000007
     8  H   -0.000062  -0.000004  -0.000022   0.000004
     9  C    0.006557   0.001355  -0.000032  -0.000222
    10  H   -0.000159  -0.000028  -0.000005   0.000023
    11  C   -0.000173  -0.000029   0.000009  -0.000002
    12  H   -0.000006  -0.000006   0.000000   0.000000
    13  H   -0.000002  -0.000002   0.000000   0.000000
    14  H    0.000002   0.000000   0.000000   0.000000
    15  C   -0.026361  -0.000530   0.001009   0.001564
    16  O   -0.009763   0.022207   0.000593   0.000589
    17  N    0.267370  -0.037804  -0.044498  -0.043544
    18  H   -0.032294   0.003668  -0.000351  -0.001016
    19  C    4.967490   0.375762   0.382030   0.383391
    20  H    0.375762   0.475123  -0.024985  -0.023596
    21  H    0.382030  -0.024985   0.570669  -0.038834
    22  H    0.383391  -0.023596  -0.038834   0.559774
 Mulliken atomic charges:
              1
     1  H    0.192848
     2  C   -0.540442
     3  H    0.159000
     4  H    0.168560
     5  C    0.567774
     6  O   -0.511488
     7  N   -0.576471
     8  H    0.328052
     9  C   -0.077818
    10  H    0.210655
    11  C   -0.424796
    12  H    0.142601
    13  H    0.177525
    14  H    0.144944
    15  C    0.602417
    16  O   -0.528971
    17  N   -0.582050
    18  H    0.336110
    19  C   -0.313631
    20  H    0.208931
    21  H    0.154374
    22  H    0.161877
 Sum of Mulliken atomic charges =   0.00000
 Mulliken charges with hydrogens summed into heavy atoms:
              1
     2  C   -0.020035
     5  C    0.567774
     6  O   -0.511488
     7  N   -0.248419
     9  C    0.132837
    11  C    0.040274
    15  C    0.602417
    16  O   -0.528971
    17  N   -0.245940
    19  C    0.211551
 Sum of Mulliken charges with hydrogens summed into heavy atoms =   0.00000
 APT atomic charges:
              1
     1  H    0.694375
     2  C   -1.233718
     3  H    0.281805
     4  H    0.448523
     5  C   -0.052038
     6  O   -0.154604
     7  N   -0.604576
     8  H    0.529203
     9  C   -0.394200
    10  H    0.416248
    11  C   -1.234955
    12  H    0.353315
    13  H    0.497840
    14  H    0.445391
    15  C   -0.276465
    16  O    0.061216
    17  N   -0.321511
    18  H    0.389527
    19  C   -1.375311
    20  H    0.543860
    21  H    0.453724
    22  H    0.532351
 Sum of APT charges=   0.00000
 APT Atomic charges with hydrogens summed into heavy atoms:
              1
     1  H    0.000000
     2  C    0.190986
     3  H    0.000000
     4  H    0.000000
     5  C   -0.052038
     6  O   -0.154604
     7  N   -0.075374
     8  H    0.000000
     9  C    0.022048
    10  H    0.000000
    11  C    0.061591
    12  H    0.000000
    13  H    0.000000
    14  H    0.000000
    15  C   -0.276465
    16  O    0.061216
    17  N    0.068016
    18  H    0.000000
    19  C    0.154623
    20  H    0.000000
    21  H    0.000000
    22  H    0.000000
 Sum of APT charges=   0.00000
 Electronic spatial extent (au):  <R**2>=           1795.3395
 Charge=              0.0000 electrons
 Dipole moment (field-independent basis, Debye):
    X=              0.9417    Y=             -2.4871    Z=             -2.8129  Tot=              3.8711
 Quadrupole moment (field-independent basis, Debye-Ang):
   XX=            -67.1864   YY=            -56.2419   ZZ=            -60.8685
   XY=              5.8854   XZ=             -8.3557   YZ=              1.3058
 Traceless Quadrupole moment (field-independent basis, Debye-Ang):
   XX=             -5.7541   YY=              5.1904   ZZ=              0.5638
   XY=              5.8854   XZ=             -8.3557   YZ=              1.3058
 Octapole moment (field-independent basis, Debye-Ang**2):
  XXX=             12.7094  YYY=             -9.3456  ZZZ=             -6.7805  XYY=             -1.0131
  XXY=            -21.0623  XXZ=            -12.6060  XZZ=             -8.5111  YZZ=              2.1751
  YYZ=              3.5021  XYZ=              0.2131
 Hexadecapole moment (field-independent basis, Debye-Ang**3):
 XXXX=          -1455.2035 YYYY=           -641.8171 ZZZZ=           -191.2061 XXXY=             35.8717
 XXXZ=            -28.5886 YYYX=              5.8806 YYYZ=              2.3077 ZZZX=             -8.0012
 ZZZY=             -1.3911 XXYY=           -343.1291 XXZZ=           -294.6987 YYZZ=           -138.1381
 XXYZ=              3.3502 YYXZ=              0.3949 ZZXY=              3.2342
 N-N= 5.576332234315D+02 E-N=-2.271450803480D+03  KE= 4.915462436985D+02
  Exact polarizability:   0.000   0.000   0.000   0.000   0.000   0.000
 Approx polarizability: 116.507 -14.262 112.162  10.926  -3.608 108.013
 Calling FoFJK, ICntrl=    100147 FMM=F ISym2X=0 I1Cent= 0 IOpClX= 0 NMat=1 NMatS=1 NMatT=0.
 ***** Axes restored to original set *****
 -------------------------------------------------------------------
 Center     Atomic                   Forces (Hartrees/Bohr)
 Number     Number              X              Y              Z
 -------------------------------------------------------------------
      1        1           0.003401301    0.001229922    0.000702983
      2        6           0.007369614    0.006120316   -0.004510303
      3        1          -0.006480059    0.000402160   -0.002077072
      4        1          -0.004886929   -0.002282013   -0.003618687
      5        6          -0.011383648   -0.029357916    0.032397043
      6        8           0.002419808    0.002639931    0.000535328
      7        7           0.003951200    0.013405504   -0.009641786
      8        1          -0.000000871    0.000092220   -0.001668756
      9        6           0.008779428    0.002186211   -0.015030285
     10        1          -0.006188631   -0.004064266    0.004937753
     11        6           0.001508729   -0.005587565    0.003092045
     12        1           0.002150110    0.000744648   -0.004647428
     13        1           0.000053772    0.000515542   -0.003272006
     14        1           0.000603405   -0.003394407   -0.001005503
     15        6           0.014834572    0.002388779   -0.013150007
     16        8           0.001362040    0.003710812   -0.000033475
     17        7          -0.013338815    0.008444726    0.011677533
     18        1           0.001276756   -0.001667767   -0.000441525
     19        6          -0.002201612   -0.000897020    0.003143092
     20        1           0.000848796   -0.002966347   -0.000431456
     21        1          -0.003856520    0.004099903   -0.000112578
     22        1          -0.000222443    0.004236629    0.003155090
 -------------------------------------------------------------------
 Cartesian Forces:  Max     0.032397043 RMS     0.007716232

 GradGradGradGradGradGradGradGradGradGradGradGradGradGradGradGradGradGrad
 Berny optimization.
 Internal  Forces:  Max     0.033025084 RMS     0.005901606
 Search for a local minimum.
 Step number   1 out of a maximum of  132
 All quantities printed in internal units (Hartrees-Bohrs-Radians)
 Mixed Optimization -- RFO/linear search
 Second derivative matrix not updated -- analytic derivatives used.
     Eigenvalues ---   -0.00061  -0.00012   0.00274   0.00298   0.00401
     Eigenvalues ---    0.01584   0.01766   0.02120   0.03506   0.03936
     Eigenvalues ---    0.04607   0.04743   0.05066   0.05498   0.05835
     Eigenvalues ---    0.05963   0.06417   0.06605   0.11833   0.12118
     Eigenvalues ---    0.12520   0.13299   0.13352   0.13402   0.13462
     Eigenvalues ---    0.14283   0.15691   0.17830   0.17994   0.18545
     Eigenvalues ---    0.18583   0.20515   0.21252   0.22494   0.24229
     Eigenvalues ---    0.25147   0.27968   0.31013   0.33834   0.34557
     Eigenvalues ---    0.34617   0.34929   0.35069   0.35140   0.35287
     Eigenvalues ---    0.35579   0.35787   0.35920   0.35963   0.36754
     Eigenvalues ---    0.39101   0.40351   0.46879   0.47028   0.53991
     Eigenvalues ---    0.54654   0.82859   0.830731000.000001000.00000
     Eigenvalues --- 1000.000001000.000001000.000001000.000001000.00000
     Eigenvalues --- 1000.000001000.000001000.000001000.000001000.00000
     Eigenvalues --- 1000.000001000.000001000.000001000.000001000.00000
     Eigenvalues --- 1000.000001000.000001000.000001000.000001000.00000
     Eigenvalues --- 1000.000001000.000001000.000001000.000001000.00000
     Eigenvalues --- 1000.000001000.000001000.000001000.000001000.00000
     Eigenvalues --- 1000.000001000.000001000.000001000.000001000.00000
     Eigenvalues --- 1000.000001000.000001000.00000
 RFO step:  Lambda=-1.07867202D-02 EMin=-6.06556858D-04
 Linear search not attempted -- first point.
 Maximum step size (   0.300) exceeded in Quadratic search.
    -- Step size scaled by   0.317
 Iteration  1 RMS(Cart)=  0.05046681 RMS(Int)=  0.00225268
 Iteration  2 RMS(Cart)=  0.00236754 RMS(Int)=  0.00003211
 Iteration  3 RMS(Cart)=  0.00000419 RMS(Int)=  0.00003195
 Iteration  4 RMS(Cart)=  0.00000000 RMS(Int)=  0.00003195
 Iteration  1 RMS(Cart)=  0.00000756 RMS(Int)=  0.00000295
 Iteration  2 RMS(Cart)=  0.00000471 RMS(Int)=  0.00000326
 Iteration  3 RMS(Cart)=  0.00000300 RMS(Int)=  0.00000374
 Iteration  4 RMS(Cart)=  0.00000195 RMS(Int)=  0.00000414
 Iteration  5 RMS(Cart)=  0.00000128 RMS(Int)=  0.00000443
 Iteration  6 RMS(Cart)=  0.00000085 RMS(Int)=  0.00000464
 Variable       Old X    -DE/DX   Delta X   Delta X   Delta X     New X
                                 (Linear)    (Quad)   (Total)
    R1        2.05984  -0.00087   0.00000   0.00012   0.00012   2.05996
    R2        2.05970   0.00472   0.00000   0.00361   0.00361   2.06331
    R3        2.05972   0.00449   0.00000   0.00377   0.00377   2.06349
    R4        2.89146  -0.00089   0.00000  -0.00395  -0.00395   2.88751
    R5        2.32253   0.00126   0.00000  -0.00231  -0.00231   2.32022
    R6        2.52277   0.03303   0.00000   0.01967   0.01967   2.54243
    R7        1.90863   0.00129   0.00000   0.00091   0.00091   1.90955
    R8        2.73817   0.00847   0.00000   0.00616   0.00616   2.74433
    R9        2.05975   0.00200   0.00000   0.00298   0.00298   2.06273
   R10        2.88188   0.00899   0.00000   0.00305   0.00305   2.88493
   R11        2.87618   0.01740   0.00000   0.01348   0.01348   2.88966
   R12        2.05972   0.00298   0.00000   0.00318   0.00318   2.06290
   R13        2.05984   0.00020   0.00000   0.00121   0.00121   2.06106
   R14        2.05966   0.00345   0.00000   0.00251   0.00251   2.06217
   R15        2.32246   0.00287   0.00000  -0.00187  -0.00187   2.32059
   R16        2.52290   0.02683   0.00000   0.01510   0.01510   2.53800
   R17        1.90859   0.00006   0.00000   0.00008   0.00008   1.90867
   R18        2.73822   0.00564   0.00000   0.00128   0.00128   2.73949
   R19        2.05960  -0.00063   0.00000   0.00055   0.00055   2.06015
   R20        2.05972   0.00453   0.00000   0.00332   0.00332   2.06304
   R21        2.05983   0.00420   0.00000   0.00424   0.00424   2.06408
    A1        1.91110  -0.00025   0.00000   0.00147   0.00151   1.91261
    A2        1.91116  -0.00021   0.00000  -0.00404  -0.00405   1.90711
    A3        1.93897  -0.00761   0.00000  -0.01257  -0.01255   1.92642
    A4        1.91027  -0.00533   0.00000  -0.00883  -0.00890   1.90136
    A5        1.89606   0.00691   0.00000   0.01941   0.01940   1.91546
    A6        1.89601   0.00654   0.00000   0.00465   0.00461   1.90062
    A7        2.10308   0.00787   0.00000   0.01204   0.01204   2.11511
    A8        2.03504  -0.00855   0.00000  -0.01038  -0.01038   2.02466
    A9        2.14506   0.00067   0.00000  -0.00166  -0.00167   2.14339
   A10        2.09433  -0.00315   0.00000  -0.00503  -0.00510   2.08924
   A11        2.12753   0.00771   0.00000   0.00788   0.00782   2.13535
   A12        2.06132  -0.00456   0.00000  -0.00285  -0.00292   2.05840
   A13        1.91114  -0.00421   0.00000  -0.02163  -0.02163   1.88951
   A14        1.93905  -0.00086   0.00000   0.00379   0.00373   1.94278
   A15        1.93900  -0.00154   0.00000   0.00208   0.00198   1.94098
   A16        1.89609   0.00068   0.00000   0.00631   0.00631   1.90240
   A17        1.89608  -0.00177   0.00000  -0.00318  -0.00329   1.89278
   A18        1.88137   0.00788   0.00000   0.01313   0.01308   1.89445
   A19        1.91115   0.00482   0.00000   0.00793   0.00792   1.91907
   A20        1.91106   0.00264   0.00000   0.00377   0.00376   1.91483
   A21        1.91110   0.00022   0.00000   0.00225   0.00224   1.91334
   A22        1.91011  -0.00440   0.00000  -0.01087  -0.01088   1.89923
   A23        1.91023  -0.00217   0.00000  -0.00252  -0.00254   1.90769
   A24        1.91015  -0.00112   0.00000  -0.00058  -0.00058   1.90957
   A25        2.10316   0.00667   0.00000   0.00662   0.00661   2.10977
   A26        2.03509  -0.00764   0.00000  -0.01060  -0.01061   2.02448
   A27        2.14493   0.00097   0.00000   0.00399   0.00398   2.14891
   A28        2.09433  -0.00496   0.00000  -0.01036  -0.01040   2.08393
   A29        2.12756   0.00593   0.00000   0.00490   0.00485   2.13242
   A30        2.06130  -0.00097   0.00000   0.00546   0.00541   2.06671
   A31        1.91113  -0.00638   0.00000  -0.01137  -0.01134   1.89979
   A32        1.91108   0.00511   0.00000   0.00622   0.00619   1.91728
   A33        1.91110   0.00484   0.00000   0.01171   0.01170   1.92280
   A34        1.91020  -0.00007   0.00000   0.00076   0.00077   1.91097
   A35        1.91014  -0.00013   0.00000  -0.00353  -0.00350   1.90665
   A36        1.91015  -0.00337   0.00000  -0.00380  -0.00386   1.90628
    D1        0.00003  -0.00020   0.00000   0.09553   0.09557   0.09559
    D2       -3.14149   0.00016   0.00000   0.08901   0.08902  -3.05247
    D3        2.10327  -0.00075   0.00000   0.10213   0.10209   2.20536
    D4       -1.03825  -0.00039   0.00000   0.09561   0.09555  -0.94271
    D5       -2.10326   0.00054   0.00000   0.10530   0.10534  -1.99792
    D6        1.03841   0.00090   0.00000   0.09878   0.09879   1.13720
    D7       -0.00015   0.00036   0.00000   0.00965   0.00965   0.00951
    D8       -3.14155   0.00121   0.00000   0.03135   0.03132  -3.11024
    D9        3.14152   0.00072   0.00000   0.00296   0.00299  -3.13868
   D10        0.00011   0.00158   0.00000   0.02466   0.02465   0.02477
   D11       -0.00008  -0.00120   0.00000  -0.01670  -0.01667  -0.01675
   D12        2.09436  -0.00364   0.00000  -0.02051  -0.02048   2.07388
   D13       -2.09447   0.00471   0.00000   0.00000   0.00000  -2.09447
   D14       -3.14149  -0.00036   0.00000   0.00461   0.00463  -3.13686
   D15       -1.04705  -0.00280   0.00000   0.00080   0.00082  -1.04623
   D16        1.04730   0.00555   0.00000   0.02131   0.02130   1.06860
   D17        1.04724   0.00308   0.00000   0.01221   0.01224   1.05948
   D18        3.14157   0.00226   0.00000   0.00606   0.00609  -3.13553
   D19       -1.04726   0.00264   0.00000   0.00905   0.00907  -1.03819
   D20       -3.13259  -0.00223   0.00000  -0.00814  -0.00816  -3.14075
   D21       -1.03826  -0.00304   0.00000  -0.01428  -0.01431  -1.05257
   D22        1.05609  -0.00266   0.00000  -0.01129  -0.01132   1.04477
   D23       -1.08102   0.00036   0.00000  -0.00131  -0.00131  -1.08234
   D24        1.01331  -0.00046   0.00000  -0.00746  -0.00747   1.00584
   D25        3.10766  -0.00008   0.00000  -0.00447  -0.00448   3.10318
   D26       -2.35615  -0.00404   0.00000  -0.00696  -0.00698  -2.36312
   D27        0.78541  -0.00307   0.00000   0.00000   0.00000   0.78541
   D28        1.82372   0.00326   0.00000   0.02058   0.02057   1.84430
   D29       -1.31791   0.00423   0.00000   0.02754   0.02755  -1.29036
   D30       -0.22786  -0.00090   0.00000   0.00762   0.00764  -0.22022
   D31        2.91370   0.00007   0.00000   0.01458   0.01461   2.92831
   D32       -0.00002  -0.00043   0.00000   0.00373   0.00368   0.00366
   D33       -3.14158  -0.00090   0.00000  -0.01406  -0.01402   3.12759
   D34        3.14153   0.00056   0.00000   0.01088   0.01083  -3.13082
   D35       -0.00003   0.00009   0.00000  -0.00692  -0.00687  -0.00689
   D36       -0.00003   0.00016   0.00000   0.07003   0.07005   0.07002
   D37        2.09441  -0.00071   0.00000   0.06780   0.06780   2.16221
   D38       -2.09442   0.00126   0.00000   0.07414   0.07421  -2.02021
   D39        3.14159  -0.00030   0.00000   0.05256   0.05252  -3.08908
   D40       -1.04715  -0.00117   0.00000   0.05033   0.05027  -0.99688
   D41        1.04720   0.00080   0.00000   0.05667   0.05667   1.10388
         Item               Value     Threshold  Converged?
 Maximum Force            0.033025     0.000450     NO 
 RMS     Force            0.005904     0.000300     NO 
 Maximum Displacement     0.259392     0.001800     NO 
 RMS     Displacement     0.050490     0.001200     NO 
 Predicted change in Energy=-2.980766D-03
 GradGradGradGradGradGradGradGradGradGradGradGradGradGradGradGradGradGrad

                          Input orientation:                          
 ---------------------------------------------------------------------
 Center     Atomic      Atomic             Coordinates (Angstroms)
 Number     Number       Type             X           Y           Z
 ---------------------------------------------------------------------
      1          1           0        1.528901    1.945757    1.732525
      2          6           0        1.782357    2.521893    0.842520
      3          1           0        1.034998    3.302496    0.686736
      4          1           0        1.789330    1.859571   -0.025602
      5          6           0        3.165247    3.153957    0.993888
      6          8           0        3.874510    2.906609    1.965113
      7          7           0        3.548200    3.979437    0.002916
      8          1           0        2.925416    4.151863   -0.773935
      9          6           0        4.849571    4.623791   -0.012329
     10          1           0        5.388484    4.327571    0.889506
     11          6           0        5.661196    4.206223   -1.236065
     12          1           0        5.136041    4.496231   -2.148087
     13          1           0        6.633817    4.699413   -1.218199
     14          1           0        5.803059    3.124245   -1.230036
     15          6           0        4.712790    6.146799   -0.016036
     16          8           0        5.396297    6.839178   -0.765314
     17          7           0        3.818589    6.659589    0.844913
     18          1           0        3.292661    6.037887    1.442434
     19          6           0        3.592997    8.086557    0.965044
     20          1           0        4.195890    8.602629    0.217585
     21          1           0        2.537379    8.310260    0.799308
     22          1           0        3.881569    8.430942    1.960616
 ---------------------------------------------------------------------
                    Distance matrix (angstroms):
                    1          2          3          4          5
     1  H    0.000000
     2  C    1.090083   0.000000
     3  H    1.782794   1.091858   0.000000
     4  H    1.779399   1.091950   1.777209   0.000000
     5  C    2.164015   1.528006   2.157398   2.146612   0.000000
     6  O    2.545430   2.405271   3.139077   3.067118   1.227809
     7  N    3.347382   2.438764   2.691104   2.754681   1.345398
     8  H    3.619323   2.564432   2.535481   2.665576   2.044147
     9  C    4.609038   3.815304   4.097009   4.123853   2.451496
    10  H    4.613036   4.033216   4.477135   4.458963   2.516157
    11  C    5.567593   4.711993   5.090736   4.686507   3.508521
    12  H    5.880096   4.908048   5.126381   4.759978   3.944330
    13  H    6.507654   5.703054   6.076753   5.740735   4.394626
    14  H    5.332356   4.563372   5.142002   4.377223   3.450329
    15  C    5.553680   4.739672   4.702137   5.189126   3.517376
    16  O    6.718744   5.855309   5.799784   6.193050   4.653303
    17  N    5.315142   4.611591   4.363882   5.283546   3.569104
    18  H    4.465482   3.873387   3.626360   4.676907   2.921384
    19  C    6.523722   5.853111   5.432132   6.558197   4.951197
    20  H    7.329517   6.571989   6.188922   7.163764   5.599366
    21  H    6.511131   5.837561   5.229486   6.546101   5.198032
    22  H    6.902514   6.369748   6.002225   7.176730   5.412417
                    6          7          8          9         10
     6  O    0.000000
     7  N    2.260013   0.000000
     8  H    3.154969   1.010489   0.000000
     9  C    2.794591   1.452237   2.122530   0.000000
    10  H    2.338414   2.072169   2.977350   1.091549   0.000000
    11  C    3.889574   2.459931   2.775070   1.526640   2.146427
    12  H    4.586587   2.723074   2.625594   2.158657   3.052728
    13  H    4.578362   3.395662   3.774840   2.154849   2.476194
    14  H    3.738402   2.708489   3.089475   2.154202   2.472311
    15  C    3.889279   2.460505   2.783682   1.529142   2.141532
    16  O    5.023561   3.490524   3.650615   2.402881   3.007767
    17  N    3.916993   2.822283   3.115624   2.437675   2.811560
    18  H    3.227483   2.524823   2.933300   2.557337   2.761049
    19  C    5.283110   4.218546   4.353336   3.811166   4.166469
    20  H    5.966723   4.673274   4.733555   4.038727   4.488862
    21  H    5.687395   4.517967   4.462951   4.426628   4.898852
    22  H    5.524340   4.874384   5.167448   4.395900   4.500637
                   11         12         13         14         15
    11  C    0.000000
    12  H    1.091640   0.000000
    13  H    1.090663   1.774629   0.000000
    14  H    1.091255   1.780470   1.780857   0.000000
    15  C    2.480681   2.729315   2.688953   3.434867   0.000000
    16  O    2.687793   2.732983   2.512997   3.765919   1.228002
    17  N    3.707381   3.920950   4.003027   4.554359   1.343049
    18  H    4.017377   4.320486   4.475914   4.683322   2.038569
    19  C    4.917248   4.996300   5.048354   5.858950   2.445223
    20  H    4.856811   4.831439   4.820794   5.889931   2.520490
    21  H    5.544736   5.476039   5.821456   6.455823   3.174549
    22  H    5.588747   5.825556   5.621747   6.483318   3.132953
                   16         17         18         19         20
    16  O    0.000000
    17  N    2.261470   0.000000
    18  H    3.153015   1.010022   0.000000
    19  C    2.793203   1.449677   2.124889   0.000000
    20  H    2.348793   2.076368   2.982278   1.090186   0.000000
    21  H    3.575686   2.090046   2.479464   1.091714   1.781724
    22  H    3.501258   2.094386   2.518340   1.092263   1.779446
                   21         22
    21  H    0.000000
    22  H    1.780462   0.000000
 Stoichiometry    C6H12N2O2
 Framework group  C1[X(C6H12N2O2)]
 Deg. of freedom    60
 Full point group                 C1      NOp   1
 Largest Abelian subgroup         C1      NOp   1
 Largest concise Abelian subgroup C1      NOp   1
                         Standard orientation:                         
 ---------------------------------------------------------------------
 Center     Atomic      Atomic             Coordinates (Angstroms)
 Number     Number       Type             X           Y           Z
 ---------------------------------------------------------------------
      1          1           0        3.853707   -1.428548   -0.199841
      2          6           0        3.076949   -0.937786   -0.786425
      3          1           0        2.593116   -1.668728   -1.437410
      4          1           0        3.529364   -0.158515   -1.403202
      5          6           0        2.038252   -0.299275    0.134561
      6          8           0        2.189908   -0.288405    1.352919
      7          7           0        0.968890    0.247406   -0.471822
      8          1           0        0.890388    0.209486   -1.478543
      9          6           0       -0.082167    0.923818    0.267596
     10          1           0        0.161765    0.875344    1.330435
     11          6           0       -0.199834    2.387775   -0.149074
     12          1           0       -0.444680    2.454405   -1.210812
     13          1           0       -0.990854    2.871320    0.425399
     14          1           0        0.746608    2.898636    0.035609
     15          6           0       -1.435573    0.246055    0.050331
     16          8           0       -2.444840    0.910026   -0.169922
     17          7           0       -1.441021   -1.094927    0.124626
     18          1           0       -0.578906   -1.584304    0.318049
     19          6           0       -2.652997   -1.872510   -0.042837
     20          1           0       -3.471565   -1.198674   -0.296600
     21          1           0       -2.518483   -2.600556   -0.845143
     22          1           0       -2.893875   -2.398657    0.883546
 ---------------------------------------------------------------------
 Rotational constants (GHZ):      1.9190526      0.8349442      0.6627110
 Standard basis: 6-31G(d) (6D, 7F)
 There are   174 symmetry adapted basis functions of A   symmetry.
 Integral buffers will be    131072 words long.
 Raffenetti 2 integral format.
 Two-electron integral symmetry is turned on.
   174 basis functions,   328 primitive gaussians,   174 cartesian basis functions
    39 alpha electrons       39 beta electrons
       nuclear repulsion energy       556.0085048319 Hartrees.
 NAtoms=   22 NActive=   22 NUniq=   22 SFac= 7.50D-01 NAtFMM=   80 NAOKFM=F Big=F
 One-electron integrals computed using PRISM.
 NBasis=   174 RedAO= T  NBF=   174
 NBsUse=   174 1.00D-06 NBFU=   174
 Initial guess read from the read-write file.
 B after Tr=     0.000000    0.000000    0.000000
         Rot=    1.000000    0.000000    0.000000    0.000000 Ang=   0.00 deg.
 Initial guess orbital symmetries:
       Occupied  (A) (A) (A) (A) (A) (A) (A) (A) (A) (A) (A) (A)
                 (A) (A) (A) (A) (A) (A) (A) (A) (A) (A) (A) (A)
                 (A) (A) (A) (A) (A) (A) (A) (A) (A) (A) (A) (A)
                 (A) (A) (A)
       Virtual   (A) (A) (A) (A) (A) (A) (A) (A) (A) (A) (A) (A)
                 (A) (A) (A) (A) (A) (A) (A) (A) (A) (A) (A) (A)
                 (A) (A) (A) (A) (A) (A) (A) (A) (A) (A) (A) (A)
                 (A) (A) (A) (A) (A) (A) (A) (A) (A) (A) (A) (A)
                 (A) (A) (A) (A) (A) (A) (A) (A) (A) (A) (A) (A)
                 (A) (A) (A) (A) (A) (A) (A) (A) (A) (A) (A) (A)
                 (A) (A) (A) (A) (A) (A) (A) (A) (A) (A) (A) (A)
                 (A) (A) (A) (A) (A) (A) (A) (A) (A) (A) (A) (A)
                 (A) (A) (A) (A) (A) (A) (A) (A) (A) (A) (A) (A)
                 (A) (A) (A) (A) (A) (A) (A) (A) (A) (A) (A) (A)
                 (A) (A) (A) (A) (A) (A) (A) (A) (A) (A) (A) (A)
                 (A) (A) (A)
 Harris functional with IExCor=  402 diagonalized for initial guess.
 ExpMin= 1.61D-01 ExpMax= 5.48D+03 ExpMxC= 8.25D+02 IAcc=1 IRadAn=         1 AccDes= 0.00D+00
 HarFok:  IExCor=  402 AccDes= 0.00D+00 IRadAn=         1 IDoV= 1
 ScaDFX=  1.000000  1.000000  1.000000  1.000000
 FoFCou: FMM=F IPFlag=           0 FMFlag=      100000 FMFlg1=           0
         NFxFlg=           0 DoJE=T BraDBF=F KetDBF=T FulRan=T
         Omega=  0.000000  0.000000  1.000000  0.000000  0.000000 ICntrl=     500 IOpCl=  0
         NMat0=    1 NMatS0=    1 NMatT0=    0 NMatD0=    1 NMtDS0=    0 NMtDT0=    0
         I1Cent=           4 NGrid=           0.
 Petite list used in FoFCou.
 Requested convergence on RMS density matrix=1.00D-08 within 128 cycles.
 Requested convergence on MAX density matrix=1.00D-06.
 Requested convergence on             energy=1.00D-06.
 No special actions if energy rises.
 Integral accuracy reduced to 1.0D-05 until final iterations.
 Initial convergence to 1.0D-05 achieved.  Increase integral accuracy.
 SCF Done:  E(RB3LYP) =  -495.845846804     A.U. after   11 cycles
             Convg  =    0.8155D-08             -V/T =  2.0089
 Calling FoFJK, ICntrl=      2127 FMM=F ISym2X=0 I1Cent= 0 IOpClX= 0 NMat=1 NMatS=1 NMatT=0.
 ***** Axes restored to original set *****
 -------------------------------------------------------------------
 Center     Atomic                   Forces (Hartrees/Bohr)
 Number     Number              X              Y              Z
 -------------------------------------------------------------------
      1        1           0.002267647    0.000952013    0.000566857
      2        6           0.005294736    0.004516729   -0.003189096
      3        1          -0.004405408   -0.000035398   -0.001735188
      4        1          -0.003288062   -0.001957764   -0.002457683
      5        6          -0.008154360   -0.020318331    0.022785436
      6        8           0.001584092    0.001922891    0.000396042
      7        7           0.002693699    0.009849476   -0.005953964
      8        1           0.000093988   -0.000197055   -0.001277995
      9        6           0.006390794    0.001636212   -0.011949749
     10        1          -0.004722745   -0.002915476    0.003564153
     11        6           0.001015738   -0.004086183    0.002442088
     12        1           0.001583537    0.000441772   -0.003248859
     13        1           0.000012863    0.000371447   -0.002357224
     14        1           0.000450473   -0.002360283   -0.000663030
     15        6           0.010521225    0.001839552   -0.008781957
     16        8           0.000820626    0.002615228   -0.000031971
     17        7          -0.009654107    0.005865971    0.007919949
     18        1           0.000973515   -0.001195823   -0.000312561
     19        6          -0.001427837   -0.000803118    0.002362422
     20        1           0.000564140   -0.002024918   -0.000338438
     21        1          -0.002637578    0.002887198    0.000101076
     22        1           0.000023024    0.002995858    0.002159690
 -------------------------------------------------------------------
 Cartesian Forces:  Max     0.022785436 RMS     0.005458241

 GradGradGradGradGradGradGradGradGradGradGradGradGradGradGradGradGradGrad
 Berny optimization.
 Using GEDIIS/GDIIS optimizer.
 Internal  Forces:  Max     0.023121667 RMS     0.004144271
 Search for a local minimum.
 Step number   2 out of a maximum of  132
 All quantities printed in internal units (Hartrees-Bohrs-Radians)
 Mixed Optimization -- RFO/linear search
 Update second derivatives using D2CorX and points    1    2
 DE= -2.98D-03 DEPred=-2.98D-03 R= 1.00D+00
 SS=  1.41D+00  RLast= 3.00D-01 DXNew= 5.0454D-01 9.0000D-01
 Trust test= 1.00D+00 RLast= 3.00D-01 DXMaxT set to 5.05D-01
 Use linear search instead of GDIIS.
 Linear search step of   0.594 exceeds DXMaxT=   0.505 but not scaled.
 Quartic linear search produced a step of  2.00000.
 Iteration  1 RMS(Cart)=  0.09910567 RMS(Int)=  0.00879231
 Iteration  2 RMS(Cart)=  0.00930032 RMS(Int)=  0.00019858
 Iteration  3 RMS(Cart)=  0.00007873 RMS(Int)=  0.00018901
 Iteration  4 RMS(Cart)=  0.00000002 RMS(Int)=  0.00018901
 Iteration  1 RMS(Cart)=  0.00004643 RMS(Int)=  0.00001801
 Iteration  2 RMS(Cart)=  0.00002869 RMS(Int)=  0.00001993
 Iteration  3 RMS(Cart)=  0.00001817 RMS(Int)=  0.00002285
 Iteration  4 RMS(Cart)=  0.00001173 RMS(Int)=  0.00002526
 Iteration  5 RMS(Cart)=  0.00000769 RMS(Int)=  0.00002701
 Iteration  6 RMS(Cart)=  0.00000509 RMS(Int)=  0.00002824
 Iteration  7 RMS(Cart)=  0.00000339 RMS(Int)=  0.00002908
 Iteration  8 RMS(Cart)=  0.00000227 RMS(Int)=  0.00002966
 Iteration  9 RMS(Cart)=  0.00000153 RMS(Int)=  0.00003005
 Iteration 10 RMS(Cart)=  0.00000103 RMS(Int)=  0.00003031
 Iteration 11 RMS(Cart)=  0.00000070 RMS(Int)=  0.00003049
 Variable       Old X    -DE/DX   Delta X   Delta X   Delta X     New X
                                 (Linear)    (Quad)   (Total)
    R1        2.05996  -0.00057   0.00024   0.00000   0.00024   2.06019
    R2        2.06331   0.00324   0.00723   0.00000   0.00723   2.07054
    R3        2.06349   0.00312   0.00754   0.00000   0.00754   2.07102
    R4        2.88751  -0.00065  -0.00790   0.00000  -0.00790   2.87961
    R5        2.32022   0.00084  -0.00461   0.00000  -0.00461   2.31561
    R6        2.54243   0.02312   0.03933   0.00000   0.03933   2.58177
    R7        1.90955   0.00089   0.00183   0.00000   0.00183   1.91138
    R8        2.74433   0.00593   0.01232   0.00000   0.01232   2.75665
    R9        2.06273   0.00140   0.00597   0.00000   0.00597   2.06870
   R10        2.88493   0.00624   0.00609   0.00000   0.00609   2.89103
   R11        2.88966   0.01220   0.02696   0.00000   0.02696   2.91662
   R12        2.06290   0.00207   0.00636   0.00000   0.00636   2.06926
   R13        2.06106   0.00014   0.00242   0.00000   0.00242   2.06348
   R14        2.06217   0.00239   0.00503   0.00000   0.00503   2.06720
   R15        2.32059   0.00195  -0.00374   0.00000  -0.00374   2.31684
   R16        2.53800   0.01867   0.03020   0.00000   0.03020   2.56820
   R17        1.90867   0.00004   0.00016   0.00000   0.00016   1.90882
   R18        2.73949   0.00390   0.00255   0.00000   0.00255   2.74205
   R19        2.06015  -0.00042   0.00110   0.00000   0.00110   2.06125
   R20        2.06304   0.00313   0.00663   0.00000   0.00663   2.06967
   R21        2.06408   0.00292   0.00849   0.00000   0.00849   2.07257
    A1        1.91261  -0.00018   0.00303   0.00000   0.00327   1.91589
    A2        1.90711  -0.00019  -0.00811   0.00000  -0.00818   1.89892
    A3        1.92642  -0.00526  -0.02510   0.00000  -0.02501   1.90141
    A4        1.90136  -0.00378  -0.01780   0.00000  -0.01823   1.88313
    A5        1.91546   0.00482   0.03880   0.00000   0.03871   1.95416
    A6        1.90062   0.00461   0.00922   0.00000   0.00896   1.90958
    A7        2.11511   0.00542   0.02407   0.00000   0.02403   2.13914
    A8        2.02466  -0.00588  -0.02077   0.00000  -0.02081   2.00385
    A9        2.14339   0.00046  -0.00334   0.00000  -0.00338   2.14002
   A10        2.08924  -0.00223  -0.01019   0.00000  -0.01057   2.07867
   A11        2.13535   0.00539   0.01563   0.00000   0.01525   2.15060
   A12        2.05840  -0.00317  -0.00584   0.00000  -0.00623   2.05218
   A13        1.88951  -0.00317  -0.04326   0.00000  -0.04323   1.84628
   A14        1.94278  -0.00052   0.00747   0.00000   0.00711   1.94989
   A15        1.94098  -0.00118   0.00395   0.00000   0.00332   1.94430
   A16        1.90240   0.00049   0.01262   0.00000   0.01259   1.91499
   A17        1.89278  -0.00144  -0.00659   0.00000  -0.00728   1.88550
   A18        1.89445   0.00577   0.02616   0.00000   0.02589   1.92035
   A19        1.91907   0.00339   0.01584   0.00000   0.01577   1.93484
   A20        1.91483   0.00185   0.00753   0.00000   0.00750   1.92232
   A21        1.91334   0.00016   0.00448   0.00000   0.00439   1.91773
   A22        1.89923  -0.00313  -0.02175   0.00000  -0.02177   1.87746
   A23        1.90769  -0.00153  -0.00508   0.00000  -0.00519   1.90250
   A24        1.90957  -0.00079  -0.00117   0.00000  -0.00122   1.90835
   A25        2.10977   0.00476   0.01322   0.00000   0.01317   2.12294
   A26        2.02448  -0.00539  -0.02122   0.00000  -0.02127   2.00321
   A27        2.14891   0.00062   0.00796   0.00000   0.00791   2.15683
   A28        2.08393  -0.00350  -0.02080   0.00000  -0.02104   2.06288
   A29        2.13242   0.00410   0.00971   0.00000   0.00945   2.14187
   A30        2.06671  -0.00060   0.01083   0.00000   0.01055   2.07726
   A31        1.89979  -0.00439  -0.02269   0.00000  -0.02255   1.87724
   A32        1.91728   0.00356   0.01239   0.00000   0.01223   1.92951
   A33        1.92280   0.00338   0.02339   0.00000   0.02329   1.94609
   A34        1.91097  -0.00007   0.00154   0.00000   0.00162   1.91258
   A35        1.90665  -0.00011  -0.00699   0.00000  -0.00681   1.89984
   A36        1.90628  -0.00239  -0.00773   0.00000  -0.00809   1.89820
    D1        0.09559  -0.00008   0.19113   0.00000   0.19133   0.28692
    D2       -3.05247   0.00021   0.17804   0.00000   0.17810  -2.87437
    D3        2.20536  -0.00055   0.20419   0.00000   0.20398   2.40934
    D4       -0.94271  -0.00026   0.19109   0.00000   0.19076  -0.75195
    D5       -1.99792   0.00048   0.21068   0.00000   0.21089  -1.78703
    D6        1.13720   0.00077   0.19758   0.00000   0.19766   1.33486
    D7        0.00951   0.00025   0.01931   0.00000   0.01932   0.02882
    D8       -3.11024   0.00098   0.06264   0.00000   0.06242  -3.04782
    D9       -3.13868   0.00056   0.00598   0.00000   0.00619  -3.13248
   D10        0.02477   0.00129   0.04931   0.00000   0.04930   0.07406
   D11       -0.01675  -0.00090  -0.03333   0.00000  -0.03314  -0.04988
   D12        2.07388  -0.00264  -0.04097   0.00000  -0.04080   2.03308
   D13       -2.09447   0.00356   0.00000   0.00000   0.00000  -2.09447
   D14       -3.13686  -0.00019   0.00927   0.00000   0.00941  -3.12745
   D15       -1.04623  -0.00193   0.00163   0.00000   0.00175  -1.04449
   D16        1.06860   0.00427   0.04260   0.00000   0.04255   1.11115
   D17        1.05948   0.00229   0.02448   0.00000   0.02467   1.08415
   D18       -3.13553   0.00168   0.01217   0.00000   0.01233  -3.12320
   D19       -1.03819   0.00196   0.01815   0.00000   0.01830  -1.01989
   D20       -3.14075  -0.00164  -0.01631   0.00000  -0.01642   3.12601
   D21       -1.05257  -0.00225  -0.02862   0.00000  -0.02877  -1.08134
   D22        1.04477  -0.00197  -0.02264   0.00000  -0.02280   1.02197
   D23       -1.08234   0.00019  -0.00263   0.00000  -0.00263  -1.08497
   D24        1.00584  -0.00042  -0.01494   0.00000  -0.01498   0.99086
   D25        3.10318  -0.00014  -0.00896   0.00000  -0.00901   3.09417
   D26       -2.36312  -0.00304  -0.01396   0.00000  -0.01403  -2.37716
   D27        0.78541  -0.00240   0.00000   0.00000   0.00000   0.78541
   D28        1.84430   0.00246   0.04114   0.00000   0.04111   1.88540
   D29       -1.29036   0.00311   0.05510   0.00000   0.05514  -1.23522
   D30       -0.22022  -0.00054   0.01528   0.00000   0.01541  -0.20481
   D31        2.92831   0.00010   0.02923   0.00000   0.02944   2.95775
   D32        0.00366  -0.00029   0.00737   0.00000   0.00708   0.01074
   D33        3.12759  -0.00067  -0.02803   0.00000  -0.02777   3.09982
   D34       -3.13082   0.00035   0.02167   0.00000   0.02140  -3.10942
   D35       -0.00689  -0.00003  -0.01374   0.00000  -0.01345  -0.02034
   D36        0.07002   0.00015   0.14011   0.00000   0.14024   0.21026
   D37        2.16221  -0.00049   0.13561   0.00000   0.13562   2.29783
   D38       -2.02021   0.00096   0.14841   0.00000   0.14881  -1.87140
   D39       -3.08908  -0.00025   0.10504   0.00000   0.10481  -2.98426
   D40       -0.99688  -0.00089   0.10054   0.00000   0.10019  -0.89669
   D41        1.10388   0.00055   0.11335   0.00000   0.11338   1.21726
         Item               Value     Threshold  Converged?
 Maximum Force            0.023122     0.000450     NO 
 RMS     Force            0.004138     0.000300     NO 
 Maximum Displacement     0.502885     0.001800     NO 
 RMS     Displacement     0.100208     0.001200     NO 
 Predicted change in Energy=-3.105347D-03
 GradGradGradGradGradGradGradGradGradGradGradGradGradGradGradGradGradGrad

                          Input orientation:                          
 ---------------------------------------------------------------------
 Center     Atomic      Atomic             Coordinates (Angstroms)
 Number     Number       Type             X           Y           Z
 ---------------------------------------------------------------------
      1          1           0        1.449434    2.084495    1.758095
      2          6           0        1.789888    2.498231    0.808639
      3          1           0        1.042638    3.199357    0.420621
      4          1           0        1.893787    1.682039    0.084681
      5          6           0        3.143781    3.165767    1.016994
      6          8           0        3.838707    2.953895    2.003765
      7          7           0        3.533297    3.999660    0.007323
      8          1           0        2.913827    4.142352   -0.779405
      9          6           0        4.841550    4.643409   -0.037700
     10          1           0        5.348665    4.352305    0.887760
     11          6           0        5.660316    4.178113   -1.243357
     12          1           0        5.161311    4.446253   -2.180444
     13          1           0        6.639763    4.660839   -1.241607
     14          1           0        5.791328    3.092667   -1.207446
     15          6           0        4.712354    6.181365   -0.048257
     16          8           0        5.387432    6.878280   -0.797728
     17          7           0        3.821604    6.684220    0.846542
     18          1           0        3.328518    6.036473    1.444543
     19          6           0        3.601037    8.108096    1.018040
     20          1           0        4.088620    8.619066    0.186808
     21          1           0        2.529567    8.334842    1.010624
     22          1           0        4.031876    8.471176    1.959008
 ---------------------------------------------------------------------
                    Distance matrix (angstroms):
                    1          2          3          4          5
     1  H    0.000000
     2  C    1.090208   0.000000
     3  H    1.788083   1.095682   0.000000
     4  H    1.777564   1.095938   1.771881   0.000000
     5  C    2.142240   1.523825   2.184398   2.152474   0.000000
     6  O    2.554376   2.415288   3.222515   3.013837   1.225368
     7  N    3.327995   2.436364   2.648525   2.839955   1.366213
     8  H    3.580242   2.547206   2.414674   2.800048   2.057583
     9  C    4.612957   3.825012   4.089875   4.180191   2.485603
    10  H    4.593959   4.013570   4.482118   4.439757   2.507208
    11  C    5.578842   4.691791   5.004971   4.709651   3.530861
    12  H    5.904916   4.908758   5.028296   4.842353   3.991702
    13  H    6.524974   5.692246   6.018866   5.758175   4.422489
    14  H    5.353773   4.519898   5.021160   4.341692   3.458754
    15  C    5.540208   4.779179   4.751741   5.310925   3.562164
    16  O    6.709728   5.891313   5.822035   6.323379   4.702121
    17  N    5.255054   4.653150   4.477537   5.414677   3.587201
    18  H    4.387187   3.910359   3.784560   4.782131   2.908243
    19  C    6.439010   5.898702   5.567588   6.714169   4.963436
    20  H    7.220448   6.567759   6.221408   7.276679   5.596463
    21  H    6.386881   5.886761   5.378873   6.746954   5.205443
    22  H    6.891957   6.482741   6.252541   7.360497   5.461087
                    6          7          8          9         10
     6  O    0.000000
     7  N    2.274352   0.000000
     8  H    3.164469   1.011457   0.000000
     9  C    2.833324   1.458755   2.125394   0.000000
    10  H    2.341152   2.048192   2.958371   1.094707   0.000000
    11  C    3.919281   2.473915   2.785629   1.529865   2.160816
[...]
    19  C    6.194284   5.989000   5.939815   6.948661   4.964254
    20  H    7.029016   6.698016   6.586432   7.602157   5.619979
    21  H    6.160209   6.038529   5.846028   7.066215   5.251804
    22  H    6.569561   6.491884   6.586791   7.445319   5.402315
                    6          7          8          9         10
     6  O    0.000000
     7  N    2.279039   0.000000
     8  H    3.163441   1.011539   0.000000
     9  C    2.839701   1.462618   2.122883   0.000000
    10  H    2.327331   2.038377   2.941697   1.096041   0.000000
    11  C    3.944075   2.477469   2.716969   1.528822   2.163687
    12  H    4.650065   2.759593   2.587681   2.178563   3.080344
    13  H    4.649150   3.416479   3.733423   2.163079   2.531170
    14  H    3.804062   2.738692   3.006751   2.164085   2.473166
    15  C    3.892499   2.489262   2.902171   1.547204   2.146806
    16  O    5.043881   3.529760   3.762421   2.429657   3.042667
    17  N    3.827481   2.828202   3.287021   2.446158   2.764572
    18  H    3.071163   2.488635   3.077222   2.523998   2.649957
    19  C    5.153505   4.238756   4.574158   3.829427   4.114583
    20  H    5.859522   4.697648   4.944675   4.049356   4.442729
    21  H    5.587271   4.575860   4.743956   4.474298   4.872175
    22  H    5.355514   4.881649   5.370611   4.408796   4.435901
                   11         12         13         14         15
    11  C    0.000000
    12  H    1.096002   0.000000
    13  H    1.092034   1.760897   0.000000
    14  H    1.094332   1.782434   1.783738   0.000000
    15  C    2.537077   2.833049   2.730087   3.486385   0.000000
    16  O    2.784064   2.879913   2.592393   3.857655   1.225604
    17  N    3.760114   4.042448   4.050593   4.590420   1.362641
    18  H    4.010795   4.383049   4.471225   4.654398   2.040484
    19  C    5.005138   5.179703   5.125619   5.923449   2.471232
    20  H    4.955035   5.032354   4.901066   5.970266   2.520194
    21  H    5.663807   5.692772   5.919726   6.562873   3.215648
    22  H    5.657312   5.989632   5.689087   6.514579   3.169646
                   16         17         18         19         20
    16  O    0.000000
    17  N    2.283583   0.000000
    18  H    3.159723   1.010325   0.000000
    19  C    2.838163   1.450904   2.134104   0.000000
    20  H    2.375115   2.059893   2.975023   1.090956   0.000000
    21  H    3.619817   2.111097   2.532974   1.096537   1.782859
    22  H    3.558092   2.113149   2.533844   1.096874   1.781200
                   21         22
    21  H    0.000000
    22  H    1.782324   0.000000
 Stoichiometry    C6H12N2O2
 Framework group  C1[X(C6H12N2O2)]
 Deg. of freedom    60
 Full point group                 C1      NOp   1
 Largest Abelian subgroup         C1      NOp   1
 Largest concise Abelian subgroup C1      NOp   1
                         Standard orientation:                         
 ---------------------------------------------------------------------
 Center     Atomic      Atomic             Coordinates (Angstroms)
 Number     Number       Type             X           Y           Z
 ---------------------------------------------------------------------
      1          1           0        3.494759   -1.794286   -0.511202
      2          6           0        3.163753   -0.791914   -0.794123
      3          1           0        2.882723   -0.788324   -1.852122
      4          1           0        4.014097   -0.114671   -0.656735
      5          6           0        2.039715   -0.363956    0.137286
      6          8           0        2.087215   -0.556222    1.346424
      7          7           0        0.969231    0.242031   -0.472071
      8          1           0        1.021871    0.427724   -1.465025
      9          6           0       -0.089267    0.920243    0.275500
     10          1           0        0.157340    0.744449    1.328870
     11          6           0       -0.113973    2.421847   -0.010634
     12          1           0       -0.298327    2.618492   -1.072973
     13          1           0       -0.920878    2.898074    0.550302
     14          1           0        0.841113    2.874125    0.273652
     15          6           0       -1.472389    0.279187    0.011186
     16          8           0       -2.475198    0.956824   -0.181913
     17          7           0       -1.474635   -1.082949    0.048196
     18          1           0       -0.600953   -1.551140    0.243728
     19          6           0       -2.684558   -1.872047   -0.087941
     20          1           0       -3.504004   -1.181117   -0.291188
     21          1           0       -2.600976   -2.585446   -0.916476
     22          1           0       -2.904761   -2.426422    0.832554
 ---------------------------------------------------------------------
 Rotational constants (GHZ):      1.8957644      0.8221546      0.6509961

 **********************************************************************

            Population analysis using the SCF density.

 **********************************************************************

 Orbital symmetries:
       Occupied  (A) (A) (A) (A) (A) (A) (A) (A) (A) (A) (A) (A)
                 (A) (A) (A) (A) (A) (A) (A) (A) (A) (A) (A) (A)
                 (A) (A) (A) (A) (A) (A) (A) (A) (A) (A) (A) (A)
                 (A) (A) (A)
       Virtual   (A) (A) (A) (A) (A) (A) (A) (A) (A) (A) (A) (A)
                 (A) (A) (A) (A) (A) (A) (A) (A) (A) (A) (A) (A)
                 (A) (A) (A) (A) (A) (A) (A) (A) (A) (A) (A) (A)
                 (A) (A) (A) (A) (A) (A) (A) (A) (A) (A) (A) (A)
                 (A) (A) (A) (A) (A) (A) (A) (A) (A) (A) (A) (A)
                 (A) (A) (A) (A) (A) (A) (A) (A) (A) (A) (A) (A)
                 (A) (A) (A) (A) (A) (A) (A) (A) (A) (A) (A) (A)
                 (A) (A) (A) (A) (A) (A) (A) (A) (A) (A) (A) (A)
                 (A) (A) (A) (A) (A) (A) (A) (A) (A) (A) (A) (A)
                 (A) (A) (A) (A) (A) (A) (A) (A) (A) (A) (A) (A)
                 (A) (A) (A) (A) (A) (A) (A) (A) (A) (A) (A) (A)
                 (A) (A) (A)
 The electronic state is 1-A.
 Alpha  occ. eigenvalues --  -19.11711 -19.10983 -14.37011 -14.35902 -10.29630
 Alpha  occ. eigenvalues --  -10.28243 -10.23435 -10.21678 -10.20067 -10.18084
 Alpha  occ. eigenvalues --   -1.03827  -1.02790  -0.93314  -0.91381  -0.78095
 Alpha  occ. eigenvalues --   -0.73271  -0.71187  -0.64009  -0.59588  -0.57931
 Alpha  occ. eigenvalues --   -0.53529  -0.48723  -0.48223  -0.45977  -0.45181
 Alpha  occ. eigenvalues --   -0.44353  -0.42110  -0.42040  -0.40419  -0.39583
 Alpha  occ. eigenvalues --   -0.38792  -0.38119  -0.37138  -0.36132  -0.35392
 Alpha  occ. eigenvalues --   -0.27640  -0.25682  -0.25059  -0.23813
 Alpha virt. eigenvalues --    0.01855   0.02780   0.06921   0.09454   0.11611
 Alpha virt. eigenvalues --    0.12540   0.12847   0.14755   0.15854   0.16006
 Alpha virt. eigenvalues --    0.16810   0.17366   0.17498   0.18573   0.19468
 Alpha virt. eigenvalues --    0.21163   0.23591   0.25411   0.26754   0.30579
 Alpha virt. eigenvalues --    0.35674   0.37693   0.40084   0.50344   0.51293
 Alpha virt. eigenvalues --    0.52675   0.52879   0.53609   0.55040   0.55591
 Alpha virt. eigenvalues --    0.56782   0.58987   0.62171   0.63904   0.64701
 Alpha virt. eigenvalues --    0.65582   0.68403   0.69853   0.72283   0.75030
 Alpha virt. eigenvalues --    0.75703   0.77076   0.78009   0.80588   0.82775
 Alpha virt. eigenvalues --    0.83417   0.84996   0.86414   0.88142   0.88606
 Alpha virt. eigenvalues --    0.88986   0.89652   0.90348   0.92604   0.93566
 Alpha virt. eigenvalues --    0.94094   0.94747   0.96212   0.97511   1.00840
 Alpha virt. eigenvalues --    1.03983   1.06331   1.06630   1.12691   1.18409
 Alpha virt. eigenvalues --    1.20926   1.24226   1.27099   1.29608   1.33936
 Alpha virt. eigenvalues --    1.34134   1.39307   1.41077   1.45272   1.45856
 Alpha virt. eigenvalues --    1.50926   1.53830   1.63496   1.65293   1.69452
 Alpha virt. eigenvalues --    1.70443   1.73508   1.78981   1.80240   1.80833
 Alpha virt. eigenvalues --    1.82300   1.83964   1.86314   1.88071   1.90564
 Alpha virt. eigenvalues --    1.92646   1.94920   1.97001   1.97539   2.02029
 Alpha virt. eigenvalues --    2.04769   2.05746   2.07725   2.13240   2.15325
 Alpha virt. eigenvalues --    2.19293   2.21664   2.24264   2.27707   2.28083
 Alpha virt. eigenvalues --    2.30064   2.31864   2.35836   2.38206   2.38718
 Alpha virt. eigenvalues --    2.42592   2.47970   2.51096   2.57298   2.61409
 Alpha virt. eigenvalues --    2.66501   2.68445   2.71853   2.73116   2.85097
 Alpha virt. eigenvalues --    2.93466   2.97077   3.01722   3.11957   3.15095
 Alpha virt. eigenvalues --    3.92511   4.00562   4.06702   4.10013   4.16290
 Alpha virt. eigenvalues --    4.23984   4.25006   4.41810   4.52727   4.61257
          Condensed to atoms (all electrons):
              1          2          3          4          5          6
     1  H    0.514585   0.360672  -0.025699  -0.022397  -0.019852   0.001966
     2  C    0.360672   5.321441   0.338737   0.362905   0.342662  -0.081141
     3  H   -0.025699   0.338737   0.578386  -0.025750  -0.024334   0.003123
     4  H   -0.022397   0.362905  -0.025750   0.515974  -0.019858  -0.000065
     5  C   -0.019852   0.342662  -0.024334  -0.019858   4.323966   0.585339
     6  O    0.001966  -0.081141   0.003123  -0.000065   0.585339   8.071854
     7  N    0.002813  -0.115681   0.005986   0.000417   0.257508  -0.099333
     8  H   -0.000065   0.001211   0.002379  -0.000043  -0.016485   0.003270
     9  C   -0.000124   0.006254  -0.000061  -0.000178  -0.019180  -0.002962
    10  H   -0.000016   0.001413  -0.000061  -0.000010  -0.000549   0.022562
    11  C   -0.000002  -0.000274  -0.000020   0.000045   0.002289   0.000530
    12  H    0.000000  -0.000004   0.000002   0.000000  -0.000215  -0.000012
    13  H    0.000000   0.000006   0.000000   0.000000  -0.000067  -0.000008
    14  H    0.000001  -0.000025  -0.000002  -0.000004   0.000840   0.000097
    15  C    0.000008  -0.000168   0.000010  -0.000003  -0.001489  -0.000662
    16  O    0.000000   0.000001   0.000000   0.000000  -0.000049  -0.000002
    17  N    0.000005  -0.000045   0.000009   0.000000   0.000728  -0.000317
    18  H   -0.000028   0.000235  -0.000052   0.000005   0.004815   0.002428
    19  C    0.000000  -0.000001   0.000000   0.000000  -0.000019   0.000004
    20  H    0.000000   0.000000   0.000000   0.000000   0.000000   0.000000
    21  H    0.000000   0.000000   0.000000   0.000000   0.000001   0.000000
    22  H    0.000000   0.000000   0.000000   0.000000  -0.000002   0.000000
              7          8          9         10         11         12
     1  H    0.002813  -0.000065  -0.000124  -0.000016  -0.000002   0.000000
     2  C   -0.115681   0.001211   0.006254   0.001413  -0.000274  -0.000004
     3  H    0.005986   0.002379  -0.000061  -0.000061  -0.000020   0.000002
     4  H    0.000417  -0.000043  -0.000178  -0.000010   0.000045   0.000000
     5  C    0.257508  -0.016485  -0.019180  -0.000549   0.002289  -0.000215
     6  O   -0.099333   0.003270  -0.002962   0.022562   0.000530  -0.000012
     7  N    7.170242   0.295301   0.222957  -0.051269  -0.054758  -0.004517
     8  H    0.295301   0.412650  -0.032188   0.005205  -0.001424   0.004477
     9  C    0.222957  -0.032188   5.168356   0.365284   0.349661  -0.030780
    10  H   -0.051269   0.005205   0.365284   0.514244  -0.029819   0.004180
    11  C   -0.054758  -0.001424   0.349661  -0.029819   5.091741   0.374694
    12  H   -0.004517   0.004477  -0.030780   0.004180   0.374694   0.566664
    13  H    0.004342  -0.000093  -0.027069  -0.001679   0.369837  -0.025017
    14  H   -0.000055   0.000003  -0.031677  -0.003546   0.363139  -0.032294
    15  C   -0.042097  -0.000174   0.312904  -0.031524  -0.036332  -0.005943
    16  O    0.000837   0.000081  -0.086461   0.000934   0.004655   0.002293
    17  N    0.002899   0.000725  -0.128046  -0.000566   0.005399   0.000063
    18  H    0.002048   0.000167  -0.000269   0.001038   0.000236  -0.000011
    19  C   -0.000064  -0.000019   0.005874  -0.000164  -0.000138  -0.000003
    20  H   -0.000066  -0.000001   0.001294  -0.000036  -0.000021  -0.000003
    21  H    0.000034  -0.000010  -0.000028  -0.000005   0.000005   0.000000
    22  H   -0.000005   0.000002  -0.000235   0.000024  -0.000002   0.000000
             13         14         15         16         17         18
     1  H    0.000000   0.000001   0.000008   0.000000   0.000005  -0.000028
     2  C    0.000006  -0.000025  -0.000168   0.000001  -0.000045   0.000235
     3  H    0.000000  -0.000002   0.000010   0.000000   0.000009  -0.000052
     4  H    0.000000  -0.000004  -0.000003   0.000000   0.000000   0.000005
     5  C   -0.000067   0.000840  -0.001489  -0.000049   0.000728   0.004815
     6  O   -0.000008   0.000097  -0.000662  -0.000002  -0.000317   0.002428
     7  N    0.004342  -0.000055  -0.042097   0.000837   0.002899   0.002048
     8  H   -0.000093   0.000003  -0.000174   0.000081   0.000725   0.000167
     9  C   -0.027069  -0.031677   0.312904  -0.086461  -0.128046  -0.000269
    10  H   -0.001679  -0.003546  -0.031524   0.000934  -0.000566   0.001038
    11  C    0.369837   0.363139  -0.036332   0.004655   0.005399   0.000236
    12  H   -0.025017  -0.032294  -0.005943   0.002293   0.000063  -0.000011
    13  H    0.520531  -0.025470  -0.001776   0.006167   0.000213  -0.000025
    14  H   -0.025470   0.575389   0.004957   0.000539  -0.000044  -0.000018
    15  C   -0.001776   0.004957   4.361550   0.592832   0.292115  -0.022744
    16  O    0.006167   0.000539   0.592832   8.079674  -0.096406   0.003154
    17  N    0.000213  -0.000044   0.292115  -0.096406   7.054543   0.303760
    18  H   -0.000025  -0.000018  -0.022744   0.003154   0.303760   0.394526
    19  C   -0.000002   0.000002  -0.025024  -0.008698   0.273048  -0.031745
    20  H   -0.000003   0.000000  -0.000388   0.021234  -0.041115   0.003887
    21  H    0.000000   0.000000   0.001023   0.000401  -0.041378  -0.000468
    22  H    0.000000   0.000000   0.001105   0.000515  -0.042039  -0.001068
             19         20         21         22
     1  H    0.000000   0.000000   0.000000   0.000000
     2  C   -0.000001   0.000000   0.000000   0.000000
     3  H    0.000000   0.000000   0.000000   0.000000
     4  H    0.000000   0.000000   0.000000   0.000000
     5  C   -0.000019   0.000000   0.000001  -0.000002
     6  O    0.000004   0.000000   0.000000   0.000000
     7  N   -0.000064  -0.000066   0.000034  -0.000005
     8  H   -0.000019  -0.000001  -0.000010   0.000002
     9  C    0.005874   0.001294  -0.000028  -0.000235
    10  H   -0.000164  -0.000036  -0.000005   0.000024
    11  C   -0.000138  -0.000021   0.000005  -0.000002
    12  H   -0.000003  -0.000003   0.000000   0.000000
    13  H   -0.000002  -0.000003   0.000000   0.000000
    14  H    0.000002   0.000000   0.000000   0.000000
    15  C   -0.025024  -0.000388   0.001023   0.001105
    16  O   -0.008698   0.021234   0.000401   0.000515
    17  N    0.273048  -0.041115  -0.041378  -0.042039
    18  H   -0.031745   0.003887  -0.000468  -0.001068
    19  C    4.959288   0.375726   0.380343   0.381899
    20  H    0.375726   0.487027  -0.025145  -0.024700
    21  H    0.380343  -0.025145   0.572148  -0.041090
    22  H    0.381899  -0.024700  -0.041090   0.565779
 Mulliken atomic charges:
              1
     1  H    0.188133
     2  C   -0.538197
     3  H    0.147348
     4  H    0.188963
     5  C    0.583949
     6  O   -0.506671
     7  N   -0.597539
     8  H    0.325032
     9  C   -0.073328
    10  H    0.204358
    11  C   -0.439441
    12  H    0.146426
    13  H    0.180115
    14  H    0.148171
    15  C    0.601818
    16  O   -0.521702
    17  N   -0.583552
    18  H    0.340129
    19  C   -0.310305
    20  H    0.202309
    21  H    0.154167
    22  H    0.159815
 Sum of Mulliken atomic charges =   0.00000
 Mulliken charges with hydrogens summed into heavy atoms:
              1
     2  C   -0.013753
     5  C    0.583949
     6  O   -0.506671
     7  N   -0.272507
     9  C    0.131030
    11  C    0.035271
    15  C    0.601818
    16  O   -0.521702
    17  N   -0.243422
    19  C    0.205986
 Sum of Mulliken charges with hydrogens summed into heavy atoms =   0.00000
 Electronic spatial extent (au):  <R**2>=           1833.6763
 Charge=              0.0000 electrons
 Dipole moment (field-independent basis, Debye):
    X=              1.6947    Y=             -1.5233    Z=             -2.6716  Tot=              3.5114
 Quadrupole moment (field-independent basis, Debye-Ang):
   XX=            -64.7895   YY=            -56.6429   ZZ=            -61.2074
   XY=              7.4685   XZ=             -8.1585   YZ=              1.7512
 Traceless Quadrupole moment (field-independent basis, Debye-Ang):
   XX=             -3.9095   YY=              4.2370   ZZ=             -0.3274
   XY=              7.4685   XZ=             -8.1585   YZ=              1.7512
 Octapole moment (field-independent basis, Debye-Ang**2):
  XXX=             22.0055  YYY=             -9.1038  ZZZ=             -7.1300  XYY=             -0.9516
  XXY=            -19.1634  XXZ=            -11.8264  XZZ=             -7.5827  YZZ=              4.1028
  YYZ=              1.9856  XYZ=              2.1673
 Hexadecapole moment (field-independent basis, Debye-Ang**3):
 XXXX=          -1476.2845 YYYY=           -647.7533 ZZZZ=           -189.8624 XXXY=             46.2805
 XXXZ=            -27.2388 YYYX=              1.3182 YYYZ=             -0.1138 ZZZX=             -8.7442
 ZZZY=             -2.1738 XXYY=           -351.6611 XXZZ=           -300.1283 YYZZ=           -141.4475
 XXYZ=             11.0429 YYXZ=             -0.9559 ZZXY=              4.8779
 N-N= 5.520610114197D+02 E-N=-2.260080202377D+03  KE= 4.912348842503D+02
 1\1\GINC-NODE006\FOpt\RB3LYP\6-31G(d)\C6H12N2O2\STEBOSS\10-Feb-2017\0\
 \# b3lyp/6-31G* Opt=(ModRedundant, maxcycles=1000, calcfc) geom=nocrow
 d\\Phi Psi fixed scan\\0,1\H,1.2409909786,2.4586121286,1.7170521397\C,
 1.8224362042,2.4359273787,0.7919756762\H,1.2148006504,2.8325114845,-0.
 0276906599\H,2.0562927999,1.3872272049,0.5771328348\C,3.1229986632,3.1
 943679852,1.0097737905\O,3.7912632723,3.0619949853,2.0281737324\N,3.48
 80233189,4.0406826537,-0.0075661853\H,2.9250243641,4.0547597542,-0.847
 8311771\C,4.8055453143,4.6716750985,-0.0799206179\H,5.3098403073,4.370
 1441072,0.8453212093\C,5.6025164528,4.1851956164,-1.2904873687\H,5.083
 8370262,4.4229083303,-2.2262675151\H,6.5742653111,4.6822324172,-1.3250
 828467\H,5.7510316781,3.1025679716,-1.2319724029\C,4.6983474237,6.2151
 006958,-0.0662643464\O,5.3652697775,6.9183294558,-0.8164562972\N,3.834
 9230317,6.7083209911,0.8654133008\H,3.3519251851,6.0475698069,1.457762
 2242\C,3.6558675424,8.1291426366,1.0984968121\H,4.2599191699,8.6597891
 44,0.3611222707\H,2.6053483595,8.4205168791,0.9805808404\H,3.988833168
 6,8.4133232746,2.1042345862\\Version=EM64L-G09RevA.02\State=1-A\HF=-49
 5.8497429\RMSD=8.558e-09\RMSF=2.310e-04\Dipole=-1.3311616,-0.258687,-0
 .2638171\Quadrupole=2.3214286,0.3282358,-2.6496644,-1.2623491,1.515182
 1,8.269614\PG=C01 [X(C6H12N2O2)]\\@


            THE IRISH PIG
 'TWAS AN EVENING IN NOVEMBER,
 AS I VERY WELL REMEMBER
 I WAS STROLLING DOWN THE STREET IN DRUNKEN PRIDE,
 BUT MY KNEES WERE ALL A'FLUTTER
 SO I LANDED IN THE GUTTER,
 AND A PIG CAME UP AND LAY DOWN BY MY SIDE.

 YES, I LAY THERE IN THE GUTTER
 THINKING THOUGHTS I COULD NOT UTTER
 WHEN A COLLEEN PASSING BY DID SOFTLY SAY,
 'YE CAN TELL A MAN THAT BOOZES
 BY THE COMPANY THAT HE CHOOSES.' -
 AT THAT, THE PIG GOT UP AND WALKED AWAY!
     -- THE ECONOMIST, AUGUST 23, 1986
 Job cpu time:  0 days  1 hours  5 minutes 44.2 seconds.
 File lengths (MBytes):  RWF=    186 Int=      0 D2E=      0 Chk=      4 Scr=      2
 Normal termination of Gaussian 09 at Fri Feb 10 22:35:52 2017.
