 Entering Gaussian System, Link 0=g09
 Initial command:
 /home/steboss/Software/g09/l1.exe /tmp/Gau-6905.inp -scrdir=/tmp/
 Entering Link 1 = /home/steboss/Software/g09/l1.exe PID=      6909.
  
 Copyright (c) 1988,1990,1992,1993,1995,1998,2003,2009, Gaussian, Inc.
                  All Rights Reserved.
  
 This is part of the Gaussian(R) 09 program.  It is based on
 the Gaussian(R) 03 system (copyright 2003, Gaussian, Inc.),
 the Gaussian(R) 98 system (copyright 1998, Gaussian, Inc.),
 the Gaussian(R) 94 system (copyright 1995, Gaussian, Inc.),
 the Gaussian 92(TM) system (copyright 1992, Gaussian, Inc.),
 the Gaussian 90(TM) system (copyright 1990, Gaussian, Inc.),
 the Gaussian 88(TM) system (copyright 1988, Gaussian, Inc.),
 the Gaussian 86(TM) system (copyright 1986, Carnegie Mellon
 University), and the Gaussian 82(TM) system (copyright 1983,
 Carnegie Mellon University). Gaussian is a federally registered
 trademark of Gaussian, Inc.
  
 This software contains proprietary and confidential information,
 including trade secrets, belonging to Gaussian, Inc.
  
 This software is provided under written license and may be
 used, copied, transmitted, or stored only in accord with that
 written license.
  
 The following legend is applicable only to US Government
 contracts under FAR:
  
                    RESTRICTED RIGHTS LEGEND
  
 Use, reproduction and disclosure by the US Government is
 subject to restrictions as set forth in subparagraphs (a)
 and (c) of the Commercial Computer Software - Restricted
 Rights clause in FAR 52.227-19.
  
 Gaussian, Inc.
 340 Quinnipiac St., Bldg. 40, Wallingford CT 06492
  
  
 ---------------------------------------------------------------
 Warning -- This program may not be used in any manner that
 competes with the business of Gaussian, Inc. or will provide
 assistance to any competitor of Gaussian, Inc.  The licensee
 of this program is prohibited from giving any competitor of
 Gaussian, Inc. access to this program.  By using this program,
 the user acknowledges that Gaussian, Inc. is engaged in the
 business of creating and licensing software in the field of
 computational chemistry and represents and warrants to the
 licensee that it is not a competitor of Gaussian, Inc. and that
 it will not use this program in any manner prohibited above.
 ---------------------------------------------------------------
  

 Cite this work as:
 Gaussian 09, Revision A.02,
 M. J. Frisch, G. W. Trucks, H. B. Schlegel, G. E. Scuseria, 
 M. A. Robb, J. R. Cheeseman, G. Scalmani, V. Barone, B. Mennucci, 
 G. A. Petersson, H. Nakatsuji, M. Caricato, X. Li, H. P. Hratchian, 
 A. F. Izmaylov, J. Bloino, G. Zheng, J. L. Sonnenberg, M. Hada, 
 M. Ehara, K. Toyota, R. Fukuda, J. Hasegawa, M. Ishida, T. Nakajima, 
 Y. Honda, O. Kitao, H. Nakai, T. Vreven, J. A. Montgomery, Jr., 
 J. E. Peralta, F. Ogliaro, M. Bearpark, J. J. Heyd, E. Brothers, 
 K. N. Kudin, V. N. Staroverov, R. Kobayashi, J. Normand, 
 K. Raghavachari, A. Rendell, J. C. Burant, S. S. Iyengar, J. Tomasi, 
 M. Cossi, N. Rega, J. M. Millam, M. Klene, J. E. Knox, J. B. Cross, 
 V. Bakken, C. Adamo, J. Jaramillo, R. Gomperts, R. E. Stratmann, 
 O. Yazyev, A. J. Austin, R. Cammi, C. Pomelli, J. W. Ochterski, 
 R. L. Martin, K. Morokuma, V. G. Zakrzewski, G. A. Voth, 
 P. Salvador, J. J. Dannenberg, S. Dapprich, A. D. Daniels, 
 O. Farkas, J. B. Foresman, J. V. Ortiz, J. Cioslowski, 
 and D. J. Fox, Gaussian, Inc., Wallingford CT, 2009.
 
 ******************************************
 Gaussian 09:  EM64L-G09RevA.02 11-Jun-2009
                28-Dec-2016 
 ******************************************
 %chk=structure_180.chk
 ----------------------------------------------------------------------
 # b3lyp/6-31G* Opt=(ModRedundant, maxcycles=1000, calcfc) geom=nocrowd
 ----------------------------------------------------------------------
 1/6=1000,10=4,14=-1,18=120,19=15,26=3,38=1/1,3;
 2/9=110,12=1,17=6,18=5,40=1/2;
 3/5=1,6=6,7=1,11=2,16=1,25=1,30=1,71=2,74=-5/1,2,3;
 4//1;
 5/5=2,38=5/2;
 8/6=4,10=90,11=11/1;
 11/6=1,8=1,9=11,15=111,16=1/1,2,10;
 10/6=1,7=6,13=1/2;
 6/7=2,8=2,9=2,10=2,28=1/1;
 7/10=1,18=20,25=1/1,2,3,16;
 1/6=1000,10=4,14=-1,18=20,19=15/3(2);
 2/9=110,12=1/2;
 99//99;
 2/9=110,12=1/2;
 3/5=1,6=6,7=1,11=2,16=1,25=1,30=1,71=1,74=-5/1,2,3;
 4/5=5,16=3/1;
 5/5=2,38=5/2;
 7//1,2,3,16;
 1/6=1000,14=-1,18=20,19=15/3(-5);
 2/9=110,12=1/2;
 6/7=2,8=2,9=2,10=2,19=2,28=1/1;
 99/9=1/99;
 ------------------
 Phi Psi fixed scan
 ------------------
 Symbolic Z-matrix:
 Charge =  0 Multiplicity = 1
 H                     9.6921    1.        0. 
 C                     9.6921    2.09      0. 
 H                     10.2058   2.4538   -0.8898 
 H                     10.2058   2.4538    0.8898 
 C                     8.2647    2.6408    0. 
 O                     7.3015    1.8774    0. 
 N                     8.1367    3.9696    0. 
 H                     8.959     4.5561    0. 
 C                     6.8388    4.6139    0. 
 H                     6.2845    4.3155   -0.8898 
 C                     6.0308    4.2208    1.2321 
 H                     6.5688    4.5213    2.1312 
 H                     5.0616    4.7189    1.2058 
 H                     5.8836    3.1409    1.2414 
 C                     6.9794    6.1294    0. 
 O                     8.0915    6.6527    0. 
 N                     5.846     6.8349    0. 
 H                     4.9551    6.3592    0. 
 C                     5.8461    8.2839    0. 
 H                     5.3323    8.6477   -0.8898 
 C                     5.1347    8.8329    1.2322 
 H                     5.6431    8.4846    2.1312 
 H                     5.1499    9.9224    1.2058 
 H                     4.1019    8.4846    1.2414 
 C                     7.266     8.8318    0. 
 O                     8.2292    8.0684    0. 
 N                     7.394     10.1607   0. 
 H                     6.5717    10.7472   0. 
 C                     8.6919    10.8049   0. 
 H                     9.2462    10.5065   0.8898 
 C                     9.4999    10.4118  -1.2322 
 H                     8.9619    10.7124  -2.1312 
 H                     10.4691   10.9099  -1.2058 
 H                     9.6471    9.3319   -1.2414 
 C                     8.5513    12.3204   0. 
 O                     7.4392    12.8437   0. 
 N                     9.6846    13.0259   0. 
 H                     10.5756   12.5502   0. 
 C                     9.6846    14.4749   0. 
 H                     8.6572    14.8387   0. 
 H                     10.1984   14.8387   0.8898 
 H                     10.1984   14.8387  -0.8898 
 
 The following ModRedundant input section has been read:
 D   15   17   19   25 F                                                       
 D   17   19   25   27 F                                                       

 GradGradGradGradGradGradGradGradGradGradGradGradGradGradGradGradGradGrad
 Berny optimization.
 Initialization pass.
                           ----------------------------
                           !    Initial Parameters    !
                           ! (Angstroms and Degrees)  !
 --------------------------                            --------------------------
 ! Name  Definition              Value          Derivative Info.                !
 --------------------------------------------------------------------------------
 ! R1    R(1,2)                  1.09           calculate D2E/DX2 analytically  !
 ! R2    R(2,3)                  1.0899         calculate D2E/DX2 analytically  !
 ! R3    R(2,4)                  1.0899         calculate D2E/DX2 analytically  !
 ! R4    R(2,5)                  1.53           calculate D2E/DX2 analytically  !
 ! R5    R(5,6)                  1.229          calculate D2E/DX2 analytically  !
 ! R6    R(5,7)                  1.335          calculate D2E/DX2 analytically  !
 ! R7    R(7,8)                  1.01           calculate D2E/DX2 analytically  !
 ! R8    R(7,9)                  1.449          calculate D2E/DX2 analytically  !
 ! R9    R(9,10)                 1.09           calculate D2E/DX2 analytically  !
 ! R10   R(9,11)                 1.5249         calculate D2E/DX2 analytically  !
 ! R11   R(9,15)                 1.522          calculate D2E/DX2 analytically  !
 ! R12   R(11,12)                1.09           calculate D2E/DX2 analytically  !
 ! R13   R(11,13)                1.09           calculate D2E/DX2 analytically  !
 ! R14   R(11,14)                1.0899         calculate D2E/DX2 analytically  !
 ! R15   R(15,16)                1.2291         calculate D2E/DX2 analytically  !
 ! R16   R(15,17)                1.335          calculate D2E/DX2 analytically  !
 ! R17   R(16,26)                1.4224         calculate D2E/DX2 analytically  !
 ! R18   R(17,18)                1.0099         calculate D2E/DX2 analytically  !
 ! R19   R(17,19)                1.449          calculate D2E/DX2 analytically  !
 ! R20   R(19,20)                1.09           calculate D2E/DX2 analytically  !
 ! R21   R(19,21)                1.5251         calculate D2E/DX2 analytically  !
 ! R22   R(19,25)                1.5219         calculate D2E/DX2 analytically  !
 ! R23   R(21,22)                1.0899         calculate D2E/DX2 analytically  !
 ! R24   R(21,23)                1.0899         calculate D2E/DX2 analytically  !
 ! R25   R(21,24)                1.09           calculate D2E/DX2 analytically  !
 ! R26   R(25,26)                1.229          calculate D2E/DX2 analytically  !
 ! R27   R(25,27)                1.3351         calculate D2E/DX2 analytically  !
 ! R28   R(27,28)                1.01           calculate D2E/DX2 analytically  !
 ! R29   R(27,29)                1.449          calculate D2E/DX2 analytically  !
 ! R30   R(29,30)                1.09           calculate D2E/DX2 analytically  !
 ! R31   R(29,31)                1.525          calculate D2E/DX2 analytically  !
 ! R32   R(29,35)                1.522          calculate D2E/DX2 analytically  !
 ! R33   R(31,32)                1.09           calculate D2E/DX2 analytically  !
 ! R34   R(31,33)                1.09           calculate D2E/DX2 analytically  !
 ! R35   R(31,34)                1.0899         calculate D2E/DX2 analytically  !
 ! R36   R(35,36)                1.2291         calculate D2E/DX2 analytically  !
 ! R37   R(35,37)                1.335          calculate D2E/DX2 analytically  !
 ! R38   R(37,38)                1.01           calculate D2E/DX2 analytically  !
 ! R39   R(37,39)                1.449          calculate D2E/DX2 analytically  !
 ! R40   R(39,40)                1.0899         calculate D2E/DX2 analytically  !
 ! R41   R(39,41)                1.09           calculate D2E/DX2 analytically  !
 ! R42   R(39,42)                1.09           calculate D2E/DX2 analytically  !
 ! A1    A(1,2,3)              109.4982         calculate D2E/DX2 analytically  !
 ! A2    A(1,2,4)              109.4982         calculate D2E/DX2 analytically  !
 ! A3    A(1,2,5)              111.1004         calculate D2E/DX2 analytically  !
 ! A4    A(3,2,4)              109.4463         calculate D2E/DX2 analytically  !
 ! A5    A(3,2,5)              108.6355         calculate D2E/DX2 analytically  !
 ! A6    A(4,2,5)              108.6355         calculate D2E/DX2 analytically  !
 ! A7    A(2,5,6)              120.5004         calculate D2E/DX2 analytically  !
 ! A8    A(2,5,7)              116.6026         calculate D2E/DX2 analytically  !
 ! A9    A(6,5,7)              122.897          calculate D2E/DX2 analytically  !
 ! A10   A(5,7,8)              119.9959         calculate D2E/DX2 analytically  !
 ! A11   A(5,7,9)              121.9028         calculate D2E/DX2 analytically  !
 ! A12   A(8,7,9)              118.1013         calculate D2E/DX2 analytically  !
 ! A13   A(7,9,10)             109.4983         calculate D2E/DX2 analytically  !
 ! A14   A(7,9,11)             111.0986         calculate D2E/DX2 analytically  !
 ! A15   A(7,9,15)             111.1002         calculate D2E/DX2 analytically  !
 ! A16   A(10,9,11)            108.636          calculate D2E/DX2 analytically  !
 ! A17   A(10,9,15)            108.6373         calculate D2E/DX2 analytically  !
 ! A18   A(11,9,15)            107.7957         calculate D2E/DX2 analytically  !
 ! A19   A(9,11,12)            109.5034         calculate D2E/DX2 analytically  !
 ! A20   A(9,11,13)            109.5016         calculate D2E/DX2 analytically  !
 ! A21   A(9,11,14)            109.5033         calculate D2E/DX2 analytically  !
 ! A22   A(12,11,13)           109.4381         calculate D2E/DX2 analytically  !
 ! A23   A(12,11,14)           109.437          calculate D2E/DX2 analytically  !
 ! A24   A(13,11,14)           109.4437         calculate D2E/DX2 analytically  !
 ! A25   A(9,15,16)            120.4998         calculate D2E/DX2 analytically  !
 ! A26   A(9,15,17)            116.6003         calculate D2E/DX2 analytically  !
 ! A27   A(16,15,17)           122.8999         calculate D2E/DX2 analytically  !
 ! A28   A(15,16,26)           120.7549         calculate D2E/DX2 analytically  !
 ! A29   A(15,17,18)           119.9991         calculate D2E/DX2 analytically  !
 ! A30   A(15,17,19)           121.8968         calculate D2E/DX2 analytically  !
 ! A31   A(18,17,19)           118.1041         calculate D2E/DX2 analytically  !
 ! A32   A(17,19,20)           109.4954         calculate D2E/DX2 analytically  !
 ! A33   A(17,19,21)           111.0974         calculate D2E/DX2 analytically  !
 ! A34   A(17,19,25)           111.1042         calculate D2E/DX2 analytically  !
 ! A35   A(20,19,21)           108.6349         calculate D2E/DX2 analytically  !
 ! A36   A(20,19,25)           108.6399         calculate D2E/DX2 analytically  !
 ! A37   A(21,19,25)           107.7944         calculate D2E/DX2 analytically  !
 ! A38   A(19,21,22)           109.4996         calculate D2E/DX2 analytically  !
 ! A39   A(19,21,23)           109.4977         calculate D2E/DX2 analytically  !
 ! A40   A(19,21,24)           109.4988         calculate D2E/DX2 analytically  !
 ! A41   A(22,21,23)           109.4452         calculate D2E/DX2 analytically  !
 ! A42   A(22,21,24)           109.4447         calculate D2E/DX2 analytically  !
 ! A43   A(23,21,24)           109.4412         calculate D2E/DX2 analytically  !
 ! A44   A(19,25,26)           120.5006         calculate D2E/DX2 analytically  !
 ! A45   A(19,25,27)           116.602          calculate D2E/DX2 analytically  !
 ! A46   A(26,25,27)           122.8974         calculate D2E/DX2 analytically  !
 ! A47   A(16,26,25)           122.8437         calculate D2E/DX2 analytically  !
 ! A48   A(25,27,28)           119.9963         calculate D2E/DX2 analytically  !
 ! A49   A(25,27,29)           121.8988         calculate D2E/DX2 analytically  !
 ! A50   A(28,27,29)           118.1048         calculate D2E/DX2 analytically  !
 ! A51   A(27,29,30)           109.5            calculate D2E/DX2 analytically  !
 ! A52   A(27,29,31)           111.0992         calculate D2E/DX2 analytically  !
 ! A53   A(27,29,35)           111.0966         calculate D2E/DX2 analytically  !
 ! A54   A(30,29,31)           108.6382         calculate D2E/DX2 analytically  !
 ! A55   A(30,29,35)           108.6373         calculate D2E/DX2 analytically  !
 ! A56   A(31,29,35)           107.7947         calculate D2E/DX2 analytically  !
 ! A57   A(29,31,32)           109.5007         calculate D2E/DX2 analytically  !
 ! A58   A(29,31,33)           109.4959         calculate D2E/DX2 analytically  !
 ! A59   A(29,31,34)           109.4978         calculate D2E/DX2 analytically  !
 ! A60   A(32,31,33)           109.441          calculate D2E/DX2 analytically  !
 ! A61   A(32,31,34)           109.4482         calculate D2E/DX2 analytically  !
 ! A62   A(33,31,34)           109.4436         calculate D2E/DX2 analytically  !
 ! A63   A(29,35,36)           120.4998         calculate D2E/DX2 analytically  !
 ! A64   A(29,35,37)           116.6026         calculate D2E/DX2 analytically  !
 ! A65   A(36,35,37)           122.8976         calculate D2E/DX2 analytically  !
 ! A66   A(35,37,38)           119.9995         calculate D2E/DX2 analytically  !
 ! A67   A(35,37,39)           121.903          calculate D2E/DX2 analytically  !
 ! A68   A(38,37,39)           118.0975         calculate D2E/DX2 analytically  !
 ! A69   A(37,39,40)           109.4989         calculate D2E/DX2 analytically  !
 ! A70   A(37,39,41)           109.4974         calculate D2E/DX2 analytically  !
 ! A71   A(37,39,42)           109.4974         calculate D2E/DX2 analytically  !
 ! A72   A(40,39,41)           109.4472         calculate D2E/DX2 analytically  !
 ! A73   A(40,39,42)           109.4472         calculate D2E/DX2 analytically  !
 ! A74   A(41,39,42)           109.4392         calculate D2E/DX2 analytically  !
 ! D1    D(1,2,5,6)              0.0            calculate D2E/DX2 analytically  !
 ! D2    D(1,2,5,7)            180.0            calculate D2E/DX2 analytically  !
 ! D3    D(3,2,5,6)            120.51           calculate D2E/DX2 analytically  !
 ! D4    D(3,2,5,7)            -59.49           calculate D2E/DX2 analytically  !
 ! D5    D(4,2,5,6)           -120.51           calculate D2E/DX2 analytically  !
 ! D6    D(4,2,5,7)             59.49           calculate D2E/DX2 analytically  !
 ! D7    D(2,5,7,8)              0.0            calculate D2E/DX2 analytically  !
 ! D8    D(2,5,7,9)            180.0            calculate D2E/DX2 analytically  !
 ! D9    D(6,5,7,8)            180.0            calculate D2E/DX2 analytically  !
 ! D10   D(6,5,7,9)              0.0            calculate D2E/DX2 analytically  !
 ! D11   D(5,7,9,10)           -59.9991         calculate D2E/DX2 analytically  !
 ! D12   D(5,7,9,11)            59.9992         calculate D2E/DX2 analytically  !
 ! D13   D(5,7,9,15)           180.0            calculate D2E/DX2 analytically  !
 ! D14   D(8,7,9,10)           120.0009         calculate D2E/DX2 analytically  !
 ! D15   D(8,7,9,11)          -120.0008         calculate D2E/DX2 analytically  !
 ! D16   D(8,7,9,15)             0.0            calculate D2E/DX2 analytically  !
 ! D17   D(7,9,11,12)           60.0014         calculate D2E/DX2 analytically  !
 ! D18   D(7,9,11,13)          179.9992         calculate D2E/DX2 analytically  !
 ! D19   D(7,9,11,14)          -59.9962         calculate D2E/DX2 analytically  !
 ! D20   D(10,9,11,12)        -179.4894         calculate D2E/DX2 analytically  !
 ! D21   D(10,9,11,13)         -59.4916         calculate D2E/DX2 analytically  !
 ! D22   D(10,9,11,14)          60.5131         calculate D2E/DX2 analytically  !
 ! D23   D(15,9,11,12)         -61.9437         calculate D2E/DX2 analytically  !
 ! D24   D(15,9,11,13)          58.0541         calculate D2E/DX2 analytically  !
 ! D25   D(15,9,11,14)         178.0588         calculate D2E/DX2 analytically  !
 ! D26   D(7,9,15,16)            0.0            calculate D2E/DX2 analytically  !
 ! D27   D(7,9,15,17)          180.0            calculate D2E/DX2 analytically  !
 ! D28   D(10,9,15,16)        -120.5111         calculate D2E/DX2 analytically  !
 ! D29   D(10,9,15,17)          59.4889         calculate D2E/DX2 analytically  !
 ! D30   D(11,9,15,16)         121.9441         calculate D2E/DX2 analytically  !
 ! D31   D(11,9,15,17)         -58.0559         calculate D2E/DX2 analytically  !
 ! D32   D(9,15,16,26)         180.0            calculate D2E/DX2 analytically  !
 ! D33   D(17,15,16,26)          0.0            calculate D2E/DX2 analytically  !
 ! D34   D(9,15,17,18)           0.0            calculate D2E/DX2 analytically  !
 ! D35   D(9,15,17,19)         180.0            calculate D2E/DX2 analytically  !
 ! D36   D(16,15,17,18)        180.0            calculate D2E/DX2 analytically  !
 ! D37   D(16,15,17,19)          0.0            calculate D2E/DX2 analytically  !
 ! D38   D(15,16,26,25)          0.0            calculate D2E/DX2 analytically  !
 ! D39   D(15,17,19,20)        120.0048         calculate D2E/DX2 analytically  !
 ! D40   D(15,17,19,21)       -120.0009         calculate D2E/DX2 analytically  !
 ! D41   D(15,17,19,25)          0.0            frozen, calculate D2E/DX2 analyt!
 ! D42   D(18,17,19,20)        -59.9952         calculate D2E/DX2 analytically  !
 ! D43   D(18,17,19,21)         59.9991         calculate D2E/DX2 analytically  !
 ! D44   D(18,17,19,25)        180.0            calculate D2E/DX2 analytically  !
 ! D45   D(17,19,21,22)         60.0039         calculate D2E/DX2 analytically  !
 ! D46   D(17,19,21,23)       -179.9943         calculate D2E/DX2 analytically  !
 ! D47   D(17,19,21,24)        -59.998          calculate D2E/DX2 analytically  !
 ! D48   D(20,19,21,22)       -179.4919         calculate D2E/DX2 analytically  !
 ! D49   D(20,19,21,23)        -59.4901         calculate D2E/DX2 analytically  !
 ! D50   D(20,19,21,24)         60.5062         calculate D2E/DX2 analytically  !
 ! D51   D(25,19,21,22)        -61.9445         calculate D2E/DX2 analytically  !
 ! D52   D(25,19,21,23)         58.0573         calculate D2E/DX2 analytically  !
 ! D53   D(25,19,21,24)        178.0536         calculate D2E/DX2 analytically  !
 ! D54   D(17,19,25,26)          0.0            calculate D2E/DX2 analytically  !
 ! D55   D(17,19,25,27)        180.0            frozen, calculate D2E/DX2 analyt!
 ! D56   D(20,19,25,26)       -120.5117         calculate D2E/DX2 analytically  !
 ! D57   D(20,19,25,27)         59.4883         calculate D2E/DX2 analytically  !
 ! D58   D(21,19,25,26)        121.9442         calculate D2E/DX2 analytically  !
 ! D59   D(21,19,25,27)        -58.0558         calculate D2E/DX2 analytically  !
 ! D60   D(19,25,26,16)          0.0            calculate D2E/DX2 analytically  !
 ! D61   D(27,25,26,16)        180.0            calculate D2E/DX2 analytically  !
 ! D62   D(19,25,27,28)          0.0            calculate D2E/DX2 analytically  !
 ! D63   D(19,25,27,29)        180.0            calculate D2E/DX2 analytically  !
 ! D64   D(26,25,27,28)        180.0            calculate D2E/DX2 analytically  !
 ! D65   D(26,25,27,29)          0.0            calculate D2E/DX2 analytically  !
 ! D66   D(25,27,29,30)        -60.0002         calculate D2E/DX2 analytically  !
 ! D67   D(25,27,29,31)         60.0024         calculate D2E/DX2 analytically  !
 ! D68   D(25,27,29,35)        180.0            calculate D2E/DX2 analytically  !
 ! D69   D(28,27,29,30)        119.9998         calculate D2E/DX2 analytically  !
 ! D70   D(28,27,29,31)       -119.9976         calculate D2E/DX2 analytically  !
 ! D71   D(28,27,29,35)          0.0            calculate D2E/DX2 analytically  !
 ! D72   D(27,29,31,32)         60.0024         calculate D2E/DX2 analytically  !
 ! D73   D(27,29,31,33)        179.9986         calculate D2E/DX2 analytically  !
 ! D74   D(27,29,31,34)        -60.0038         calculate D2E/DX2 analytically  !
 ! D75   D(30,29,31,32)       -179.4843         calculate D2E/DX2 analytically  !
 ! D76   D(30,29,31,33)        -59.4881         calculate D2E/DX2 analytically  !
 ! D77   D(30,29,31,34)         60.5095         calculate D2E/DX2 analytically  !
 ! D78   D(35,29,31,32)        -61.938          calculate D2E/DX2 analytically  !
 ! D79   D(35,29,31,33)         58.0582         calculate D2E/DX2 analytically  !
 ! D80   D(35,29,31,34)        178.0558         calculate D2E/DX2 analytically  !
 ! D81   D(27,29,35,36)          0.0            calculate D2E/DX2 analytically  !
 ! D82   D(27,29,35,37)        180.0            calculate D2E/DX2 analytically  !
 ! D83   D(30,29,35,36)       -120.5111         calculate D2E/DX2 analytically  !
 ! D84   D(30,29,35,37)         59.4889         calculate D2E/DX2 analytically  !
 ! D85   D(31,29,35,36)        121.942          calculate D2E/DX2 analytically  !
 ! D86   D(31,29,35,37)        -58.058          calculate D2E/DX2 analytically  !
 ! D87   D(29,35,37,38)          0.0            calculate D2E/DX2 analytically  !
 ! D88   D(29,35,37,39)        180.0            calculate D2E/DX2 analytically  !
 ! D89   D(36,35,37,38)        180.0            calculate D2E/DX2 analytically  !
 ! D90   D(36,35,37,39)          0.0            calculate D2E/DX2 analytically  !
 ! D91   D(35,37,39,40)          0.0            calculate D2E/DX2 analytically  !
 ! D92   D(35,37,39,41)        120.0036         calculate D2E/DX2 analytically  !
 ! D93   D(35,37,39,42)       -120.0036         calculate D2E/DX2 analytically  !
 ! D94   D(38,37,39,40)        180.0            calculate D2E/DX2 analytically  !
 ! D95   D(38,37,39,41)        -59.9964         calculate D2E/DX2 analytically  !
 ! D96   D(38,37,39,42)         59.9964         calculate D2E/DX2 analytically  !
 --------------------------------------------------------------------------------
 Trust Radius=3.00D-01 FncErr=1.00D-07 GrdErr=1.00D-06
 Number of steps in this run= 252 maximum allowed number of steps= 252.
 GradGradGradGradGradGradGradGradGradGradGradGradGradGradGradGradGradGrad

                          Input orientation:                          
 ---------------------------------------------------------------------
 Center     Atomic      Atomic             Coordinates (Angstroms)
 Number     Number       Type             X           Y           Z
 ---------------------------------------------------------------------
      1          1           0        9.692100    1.000000    0.000000
      2          6           0        9.692100    2.090000    0.000000
      3          1           0       10.205800    2.453800   -0.889800
      4          1           0       10.205800    2.453800    0.889800
      5          6           0        8.264700    2.640800    0.000000
      6          8           0        7.301500    1.877400    0.000000
      7          7           0        8.136700    3.969600    0.000000
      8          1           0        8.959000    4.556100    0.000000
      9          6           0        6.838800    4.613900    0.000000
     10          1           0        6.284500    4.315500   -0.889800
     11          6           0        6.030800    4.220800    1.232100
     12          1           0        6.568800    4.521300    2.131200
     13          1           0        5.061600    4.718900    1.205800
     14          1           0        5.883600    3.140900    1.241400
     15          6           0        6.979400    6.129400    0.000000
     16          8           0        8.091500    6.652700    0.000000
     17          7           0        5.846000    6.834900    0.000000
     18          1           0        4.955100    6.359200    0.000000
     19          6           0        5.846100    8.283900    0.000000
     20          1           0        5.332300    8.647700   -0.889800
     21          6           0        5.134700    8.832900    1.232200
     22          1           0        5.643100    8.484600    2.131200
     23          1           0        5.149900    9.922400    1.205800
     24          1           0        4.101900    8.484600    1.241400
     25          6           0        7.266000    8.831800    0.000000
     26          8           0        8.229200    8.068400    0.000000
     27          7           0        7.394000   10.160700    0.000000
     28          1           0        6.571700   10.747200    0.000000
     29          6           0        8.691900   10.804900    0.000000
     30          1           0        9.246200   10.506500    0.889800
     31          6           0        9.499900   10.411800   -1.232200
     32          1           0        8.961900   10.712400   -2.131200
     33          1           0       10.469100   10.909900   -1.205800
     34          1           0        9.647100    9.331900   -1.241400
     35          6           0        8.551300   12.320400    0.000000
     36          8           0        7.439200   12.843700    0.000000
     37          7           0        9.684600   13.025900    0.000000
     38          1           0       10.575600   12.550200    0.000000
     39          6           0        9.684600   14.474900    0.000000
     40          1           0        8.657200   14.838700    0.000000
     41          1           0       10.198400   14.838700    0.889800
     42          1           0       10.198400   14.838700   -0.889800
 ---------------------------------------------------------------------
                    Distance matrix (angstroms):
                    1          2          3          4          5
     1  H    0.000000
     2  C    1.090000   0.000000
     3  H    1.780215   1.089946   0.000000
     4  H    1.780215   1.089946   1.779600   0.000000
     5  C    2.174786   1.529984   2.143498   2.143498   0.000000
     6  O    2.546527   2.400035   3.091753   3.091753   1.229038
     7  N    3.352282   2.439706   2.714879   2.714879   1.334951
     8  H    3.630879   2.572758   2.601138   2.601138   2.037260
     9  C    4.604519   3.809382   4.098105   4.098105   2.434402
    10  H    4.836943   4.166093   4.340797   4.691428   2.741816
    11  C    5.029587   4.411745   5.005534   4.546436   3.000796
    12  H    5.166872   4.495357   5.160307   4.363874   3.309739
    13  H    6.060173   5.459542   5.998751   5.629683   4.004036
    14  H    4.541938   4.141272   4.867806   4.390574   2.731449
    15  C    5.802541   4.865747   4.971060   4.971060   3.717839
    16  O    5.874942   4.835303   4.784639   4.784639   4.015637
    17  N    6.988458   6.107910   6.244489   6.244489   4.841548
    18  H    7.152635   6.376930   6.604070   6.604070   4.977946
    19  C    8.236924   7.290824   7.334084   7.334084   6.139561
    20  H    8.847989   7.924836   7.881332   8.079751   6.743409
    21  C    9.145629   8.231337   8.420918   8.156360   7.046795
    22  H    8.772437   7.863035   8.143416   7.663541   6.750170
    23  H   10.084382   9.134113   9.259247   9.024520   8.011094
    24  H    9.423940   8.583841   8.841389   8.587885   7.281482
    25  C    8.198967   7.165042   7.079057   7.079057   6.271035
    26  O    7.218196   6.154782   6.018507   6.018507   5.427716
    27  N    9.444559   8.391511   8.251925   8.251925   7.570140
    28  H   10.234491   9.202391   9.098292   9.098292   8.281302
    29  C    9.855783   8.772108   8.533728   8.533728   8.175269
    30  H    9.558458   8.475143   8.302637   8.109674   7.976486
    31  C    9.494063   8.414726   7.996580   8.266253   7.964451
    32  H    9.970252   8.911845   8.443508   8.881340   8.377280
    33  H   10.013181   8.935789   8.466098   8.715876   8.642416
    34  H    8.423993   7.347667   6.909705   7.222355   6.944273
    35  C   11.377736  10.293809  10.043849  10.043849   9.683842
    36  O   12.056069  10.987157  10.788690  10.788690  10.236240
    37  N   12.025902  10.935903  10.622273  10.622273  10.481718
    38  H   11.583941  10.497445  10.142277  10.142277  10.175287
    39  C   13.474902  12.384902  12.065249  12.065249  11.918978
    40  H   13.877343  12.790636  12.513019  12.513019  12.204213
    41  H   13.876516  12.789739  12.512105  12.384902  12.382233
    42  H   13.876516  12.789739  12.384902  12.512105  12.382233
                    6          7          8          9         10
     6  O    0.000000
     7  N    2.252745   0.000000
     8  H    3.150038   1.010029   0.000000
     9  C    2.775342   1.449023   2.120988   0.000000
    10  H    2.787537   2.083755   2.828884   1.089970   0.000000
    11  C    2.936711   2.452751   3.194503   1.524947   2.139110
    12  H    3.474057   2.702720   3.202543   2.150230   3.041319
    13  H    3.813821   3.386982   4.082914   2.150214   2.459625
    14  H    2.268909   2.702643   3.605822   2.150165   2.466256
    15  C    4.264183   2.450322   2.528654   1.522008   2.136554
    16  O    4.840206   2.683481   2.268984   2.392898   3.085368
    17  N    5.166748   3.668413   3.857940   2.432795   2.707656
    18  H    5.058866   3.979041   4.391171   2.567956   2.595334
    19  C    6.569736   4.884673   4.856608   3.801888   4.090494
    20  H    7.106789   5.526393   5.539484   4.396911   4.435611
    21  C    7.388662   5.846538   5.868101   4.714047   5.121702
    22  H    7.137744   5.580796   5.565098   4.577557   5.188374
    23  H    8.414592   6.768364   6.690319   5.699694   6.092305
    24  H    7.445375   6.181093   6.369113   4.900410   5.165961
    25  C    6.954491   4.939545   4.598680   4.239479   4.706597
    26  O    6.260120   4.099844   3.587319   3.723813   4.319475
    27  N    8.283816   6.235489   5.819000   5.574517   6.015737
    28  H    8.899773   6.955939   6.635429   6.139113   6.499307
    29  C    9.035124   6.857811   6.254506   6.462388   6.978512
    30  H    8.890161   6.689828   6.023412   6.427290   7.089931
    31  C    8.898723   6.699147   6.008337   6.497339   6.900790
    32  H    9.238840   7.119573   6.514756   6.800093   7.044847
    33  H    9.647471   7.420364   6.641169   7.366997   7.816447
    34  H    7.912805   5.707595   4.982251   5.629134   6.049378
    35  C   10.517521   8.361086   7.774997   7.894479   8.367111
    36  O   10.967164   8.901469   8.425800   8.251672   8.651894
    37  N   11.400360   9.187631   8.500824   8.880333   9.392736
    38  H   11.163709   8.920478   8.155920   8.772031   9.328214
    39  C   12.820927  10.618725   9.945305  10.263425  10.750155
    40  H   13.032008  10.881556  10.287028  10.385235  10.824010
    41  H   13.310863  11.098634  10.395178  10.799314  11.367644
    42  H   13.310863  11.098634  10.395178  10.799314  11.227482
                   11         12         13         14         15
    11  C    0.000000
    12  H    1.090011   0.000000
    13  H    1.090020   1.779624   0.000000
    14  H    1.089926   1.779536   1.779617   0.000000
    15  C    2.461842   2.701220   2.668599   3.416575   0.000000
    16  O    3.417410   3.376906   3.791283   4.329969   1.229068
    17  N    2.895814   3.227568   2.558651   3.897194   1.335038
    18  H    2.692203   3.244059   2.038598   3.572204   2.037302
    19  C    4.249820   4.384229   3.844297   5.290834   2.434387
    20  H    4.958609   5.261421   4.460974   5.930497   3.137916
    21  C    4.698347   4.631926   4.114734   5.741063   3.497163
    22  H    4.374778   4.069971   3.921097   5.422611   3.445965
    23  H    5.769308   5.660523   5.204249   6.821167   4.380396
    24  H    4.679822   4.752377   3.886231   5.632902   3.920210
    25  C    4.930021   4.858859   4.819676   5.986522   2.717555
    26  O    4.599463   4.458796   4.765165   5.596711   2.306886
    27  N    6.217620   6.084883   6.042121   7.286973   4.052564
    28  H    6.663673   6.580566   6.330463   7.737594   4.635763
    29  C    7.207628   6.966577   7.188354   8.256181   4.979253
    30  H    7.068663   6.673242   7.148919   8.104490   5.008905
    31  C    7.512384   7.389303   7.619151   8.488952   5.119589
    32  H    7.876802   7.888263   7.891131   8.841831   5.429200
    33  H    8.389632   8.195250   8.566525   9.347350   6.040293
    34  H    6.731952   6.632664   6.949487   7.658767   4.348989
    35  C    8.571727   8.324559   8.450726   9.639550   6.387437
    36  O    8.823608   8.634926   8.550983   9.904812   6.730025
    37  N    9.612394   9.304754   9.582919  10.663109   7.408091
    38  H    9.568290   9.222781   9.653363  10.587297   7.359302
    39  C   10.955131  10.645392  10.863039  12.018662   8.772997
    40  H   11.007082  10.740213  10.807065  12.086044   8.869437
    41  H   11.411655  11.007444  11.353278  12.473157   9.327680
    42  H   11.602205  11.346770  11.540737  12.649033   9.327680
                   16         17         18         19         20
    16  O    0.000000
    17  N    2.252880   0.000000
    18  H    3.150103   1.009947   0.000000
    19  C    2.775362   1.449000   2.120932   0.000000
    20  H    3.519226   2.083717   2.484201   1.089993   0.000000
    21  C    3.874823   2.452808   2.769434   1.525060   2.139212
    22  H    3.727269   2.702719   3.087504   2.150233   3.041322
    23  H    4.560472   3.386911   3.766735   2.150193   2.459608
    24  H    4.562219   2.702678   2.605062   2.150253   2.466272
    25  C    2.330220   2.450308   3.384377   1.521943   2.136547
    26  O    1.422381   2.683499   3.693385   2.392824   3.085346
    27  N    3.576670   3.668412   4.516596   2.432771   2.707678
    28  H    4.367462   3.979037   4.676317   2.567945   2.595334
    29  C    4.195384   4.884675   5.807575   3.801844   4.090497
    30  H    4.120297   5.082691   6.033687   4.158410   4.684093
    31  C    4.199136   5.259612   6.212656   4.404149   4.538521
    32  H    4.666988   5.411640   6.288625   4.488634   4.356381
    33  H    5.023016   6.279541   7.250312   5.451785   5.621754
    34  H    3.337526   4.714281   5.691475   4.133640   4.382836
    35  C    5.686320   6.116319   6.961937   4.859160   4.964114
    36  O    6.225269   6.216427   6.944026   4.830087   4.778827
    37  N    6.569296   7.284458   8.173926   6.100873   6.237218
    38  H    6.399317   7.418475   8.361728   6.369418   6.596472
    39  C    7.982780   8.550114   9.393229   7.284405   7.327381
    40  H    8.205523   8.483140   9.252430   7.132159   7.083444
    41  H    8.499492   9.154012  10.009289   7.918312   8.073065
    42  H    8.499492   9.154012  10.009289   7.918312   7.874478
                   21         22         23         24         25
    21  C    0.000000
    22  H    1.089947   0.000000
    23  H    1.089926   1.779573   0.000000
    24  H    1.089988   1.779618   1.779562   0.000000
    25  C    2.461861   2.701179   2.668565   3.416599   0.000000
    26  O    3.417412   3.376855   3.791221   4.330000   1.229038
    27  N    2.895826   3.227534   2.558657   3.897218   1.335050
    28  H    2.692179   3.244021   2.038569   3.572162   2.037354
    29  C    4.249797   4.384175   3.844285   5.290838   2.434402
    30  H    4.452259   4.314103   4.149783   5.538549   2.741816
    31  C    5.255584   5.468223   5.010574   6.242692   3.000838
    32  H    5.430694   5.843422   5.127476   6.321165   3.309796
    33  H    6.222025   6.348852   5.923247   7.239620   4.004036
    34  H    5.170053   5.303241   5.153861   6.134448   2.731449
    35  C    5.035288   5.264314   4.332884   6.004298   3.717839
    36  O    4.787019   5.173948   3.902415   5.628534   4.015637
    37  N    6.308816   6.441983   5.625760   7.302809   4.841498
    38  H    6.703732   6.738002   6.147968   7.744609   4.977946
    39  C    7.352011   7.533885   6.537791   8.281987   6.139561
    40  H    7.070782   7.348564   6.158337   7.916212   6.165897
    41  H    7.863074   7.916212   7.053879   8.812804   6.743409
    42  H    8.137172   8.381634   7.351796   9.060017   6.743409
                   26         27         28         29         30
    26  O    0.000000
    27  N    2.252838   0.000000
    28  H    3.150123   1.010029   0.000000
    29  C    2.775342   1.448978   2.120985   0.000000
    30  H    2.787537   2.083739   2.828892   1.089970   0.000000
    31  C    2.936753   2.452791   3.194552   1.525027   2.139209
    32  H    3.474133   2.702720   3.202543   2.150225   3.041326
    33  H    3.813821   3.386959   4.082910   2.150214   2.459625
    34  H    2.268909   2.702673   3.605861   2.150165   2.466256
    35  C    4.264183   2.450234   2.528591   1.522008   2.136554
    36  O    4.840206   2.683381   2.268891   2.392898   3.085368
    37  N    5.166720   3.668272   3.857800   2.432754   2.707640
    38  H    5.058866   3.978981   4.391130   2.567956   2.595334
    39  C    6.569736   4.884585   4.856531   3.801888   4.090494
    40  H    6.783815   4.845550   4.592350   4.033949   4.461684
    41  H    7.106789   5.526309   5.539411   4.396911   4.435611
    42  H    7.106789   5.526309   5.539411   4.396911   4.779291
                   31         32         33         34         35
    31  C    0.000000
    32  H    1.089957   0.000000
    33  H    1.090023   1.779613   0.000000
    34  H    1.089925   1.779613   1.779617   0.000000
    35  C    2.461892   2.701161   2.668599   3.416575   0.000000
    36  O    3.417446   3.376843   3.791283   4.329969   1.229068
    37  N    2.895850   3.227474   2.558681   3.897193   1.334953
    38  H    2.692248   3.244002   2.038598   3.572204   2.037302
    39  C    4.249849   4.384144   3.844297   5.290834   2.434387
    40  H    4.671820   4.654160   4.491370   5.731127   2.520526
    41  H    4.958652   5.261343   4.460974   5.930497   3.137916
    42  H    4.494728   4.482896   3.950773   5.545485   3.137916
                   36         37         38         39         40
    36  O    0.000000
    37  N    2.252780   0.000000
    38  H    3.150103   1.010035   0.000000
    39  C    2.775362   1.449000   2.120932   0.000000
    40  H    2.337424   2.083697   2.986217   1.089909   0.000000
    41  H    3.519226   2.083741   2.484201   1.089993   1.779618
    42  H    3.519226   2.083741   2.484201   1.089993   1.779618
                   41         42
    41  H    0.000000
    42  H    1.779600   0.000000
 Stoichiometry    C12H22N4O4
 Framework group  C1[X(C12H22N4O4)]
 Deg. of freedom   120
 Full point group                 C1      NOp   1
 Largest Abelian subgroup         C1      NOp   1
 Largest concise Abelian subgroup C1      NOp   1
                         Standard orientation:                         
 ---------------------------------------------------------------------
 Center     Atomic      Atomic             Coordinates (Angstroms)
 Number     Number       Type             X           Y           Z
 ---------------------------------------------------------------------
      1          1           0       -6.611891   -2.700990    0.349143
      2          6           0       -5.529388   -2.573415    0.352593
      3          1           0       -5.083540   -3.227988   -0.396229
      4          1           0       -5.136264   -2.827477    1.336915
      5          6           0       -5.144063   -1.128238    0.030350
      6          8           0       -6.011318   -0.285893   -0.190690
      7          7           0       -3.838902   -0.848901    0.005503
      8          1           0       -3.163291   -1.575659    0.194002
      9          6           0       -3.346051    0.481955   -0.287051
     10          1           0       -3.678824    0.782943   -1.280380
     11          6           0       -3.864476    1.494810    0.728244
     12          1           0       -3.531740    1.211927    1.726938
     13          1           0       -3.478808    2.484687    0.484221
     14          1           0       -4.953898    1.512895    0.700472
     15          6           0       -1.825049    0.523330   -0.250341
     16          8           0       -1.179376   -0.491146    0.003736
     17          7           0       -1.252785    1.702230   -0.505364
     18          1           0       -1.826129    2.508312   -0.709083
     19          6           0        0.186260    1.871726   -0.500755
     20          1           0        0.515720    2.211043   -1.482796
     21          6           0        0.614394    2.901427    0.539545
     22          1           0        0.299444    2.571217    1.529369
     23          1           0        1.698905    3.008299    0.520733
     24          1           0        0.151229    3.861750    0.312981
     25          6           0        0.891229    0.562397   -0.176736
     26          8           0        0.242184   -0.458646    0.039471
     27          7           0        2.225487    0.594120   -0.143477
     28          1           0        2.714809    1.458168   -0.328264
     29          6           0        3.012274   -0.585928    0.153155
     30          1           0        2.752352   -0.956767    1.144595
     31          6           0        2.749910   -1.690823   -0.864726
     32          1           0        3.014136   -1.337564   -1.861419
     33          1           0        3.353586   -2.564081   -0.617453
     34          1           0        1.694384   -1.961672   -0.843693
     35          6           0        4.501425   -0.272551    0.126038
     36          8           0        4.895154    0.864420   -0.124726
     37          7           0        5.330445   -1.286209    0.385504
     38          1           0        4.958944   -2.203741    0.586235
     39          6           0        6.769479   -1.116616    0.390090
     40          1           0        7.014399   -0.080242    0.158046
     41          1           0        7.162614   -1.370775    1.374434
     42          1           0        7.215339   -1.771286   -0.358709
 ---------------------------------------------------------------------
 Rotational constants (GHZ):      0.8561153      0.1210604      0.1086104
 Standard basis: 6-31G(d) (6D, 7F)
 There are   344 symmetry adapted basis functions of A   symmetry.
 Integral buffers will be    131072 words long.
 Raffenetti 2 integral format.
 Two-electron integral symmetry is turned on.
   344 basis functions,   648 primitive gaussians,   344 cartesian basis functions
    77 alpha electrons       77 beta electrons
       nuclear repulsion energy      1642.2243632760 Hartrees.
 NAtoms=   42 NActive=   42 NUniq=   42 SFac= 7.50D-01 NAtFMM=   80 NAOKFM=F Big=F
 One-electron integrals computed using PRISM.
 NBasis=   344 RedAO= T  NBF=   344
 NBsUse=   344 1.00D-06 NBFU=   344
 Harris functional with IExCor=  402 diagonalized for initial guess.
 ExpMin= 1.61D-01 ExpMax= 5.48D+03 ExpMxC= 8.25D+02 IAcc=1 IRadAn=         1 AccDes= 0.00D+00
 HarFok:  IExCor=  402 AccDes= 0.00D+00 IRadAn=         1 IDoV= 1
 ScaDFX=  1.000000  1.000000  1.000000  1.000000
 FoFCou: FMM=F IPFlag=           0 FMFlag=      100000 FMFlg1=           0
         NFxFlg=           0 DoJE=T BraDBF=F KetDBF=T FulRan=T
         Omega=  0.000000  0.000000  1.000000  0.000000  0.000000 ICntrl=     500 IOpCl=  0
         NMat0=    1 NMatS0=    1 NMatT0=    0 NMatD0=    1 NMtDS0=    0 NMtDT0=    0
         I1Cent=           4 NGrid=           0.
 Petite list used in FoFCou.
 Initial guess orbital symmetries:
       Occupied  (A) (A) (A) (A) (A) (A) (A) (A) (A) (A) (A) (A)
                 (A) (A) (A) (A) (A) (A) (A) (A) (A) (A) (A) (A)
                 (A) (A) (A) (A) (A) (A) (A) (A) (A) (A) (A) (A)
                 (A) (A) (A) (A) (A) (A) (A) (A) (A) (A) (A) (A)
                 (A) (A) (A) (A) (A) (A) (A) (A) (A) (A) (A) (A)
                 (A) (A) (A) (A) (A) (A) (A) (A) (A) (A) (A) (A)
                 (A) (A) (A) (A) (A)
       Virtual   (A) (A) (A) (A) (A) (A) (A) (A) (A) (A) (A) (A)
                 (A) (A) (A) (A) (A) (A) (A) (A) (A) (A) (A) (A)
                 (A) (A) (A) (A) (A) (A) (A) (A) (A) (A) (A) (A)
                 (A) (A) (A) (A) (A) (A) (A) (A) (A) (A) (A) (A)
                 (A) (A) (A) (A) (A) (A) (A) (A) (A) (A) (A) (A)
                 (A) (A) (A) (A) (A) (A) (A) (A) (A) (A) (A) (A)
                 (A) (A) (A) (A) (A) (A) (A) (A) (A) (A) (A) (A)
                 (A) (A) (A) (A) (A) (A) (A) (A) (A) (A) (A) (A)
                 (A) (A) (A) (A) (A) (A) (A) (A) (A) (A) (A) (A)
                 (A) (A) (A) (A) (A) (A) (A) (A) (A) (A) (A) (A)
                 (A) (A) (A) (A) (A) (A) (A) (A) (A) (A) (A) (A)
                 (A) (A) (A) (A) (A) (A) (A) (A) (A) (A) (A) (A)
                 (A) (A) (A) (A) (A) (A) (A) (A) (A) (A) (A) (A)
                 (A) (A) (A) (A) (A) (A) (A) (A) (A) (A) (A) (A)
                 (A) (A) (A) (A) (A) (A) (A) (A) (A) (A) (A) (A)
                 (A) (A) (A) (A) (A) (A) (A) (A) (A) (A) (A) (A)
                 (A) (A) (A) (A) (A) (A) (A) (A) (A) (A) (A) (A)
                 (A) (A) (A) (A) (A) (A) (A) (A) (A) (A) (A) (A)
                 (A) (A) (A) (A) (A) (A) (A) (A) (A) (A) (A) (A)
                 (A) (A) (A) (A) (A) (A) (A) (A) (A) (A) (A) (A)
                 (A) (A) (A) (A) (A) (A) (A) (A) (A) (A) (A) (A)
                 (A) (A) (A) (A) (A) (A) (A) (A) (A) (A) (A) (A)
                 (A) (A) (A)
 The electronic state of the initial guess is 1-A.
 Requested convergence on RMS density matrix=1.00D-08 within 128 cycles.
 Requested convergence on MAX density matrix=1.00D-06.
 Requested convergence on             energy=1.00D-06.
 No special actions if energy rises.
 Integral accuracy reduced to 1.0D-05 until final iterations.
 EnCoef did     2 forward-backward iterations
 Problem detected with inexpensive integrals.
 Switching to full accuracy and repeating last cycle.
 EnCoef did     3 forward-backward iterations
 EnCoef did   100 forward-backward iterations
 EnCoef did     7 forward-backward iterations
 Restarting incremental Fock formation.
 SCF Done:  E(RB3LYP) =  -990.136486255     A.U. after   28 cycles
             Convg  =    0.8963D-08             -V/T =  2.0073
 Range of M.O.s used for correlation:     1   344
 NBasis=   344 NAE=    77 NBE=    77 NFC=     0 NFV=     0
 NROrb=    344 NOA=    77 NOB=    77 NVA=   267 NVB=   267

 **** Warning!!: The smallest alpha delta epsilon is  0.48557170D-01

 Symmetrizing basis deriv contribution to polar:
 IMax=3 JMax=2 DiffMx= 0.00D+00
 G2DrvN: will do    43 centers at a time, making    1 passes doing MaxLOS=2.
 Calling FoFCou, ICntrl=  3107 FMM=F I1Cent=   0 AccDes= 0.00D+00.
 FoFDir/FoFCou used for L=0 through L=2.
 End of G2Drv Frequency-dependent properties file   721 does not exist.
 End of G2Drv Frequency-dependent properties file   722 does not exist.
          IDoAtm=111111111111111111111111111111111111111111
          Differentiating once with respect to nuclear coordinates.
          There are   129 degrees of freedom in the 1st order CPHF.  IDoFFX=5.
    123 vectors produced by pass  0 Test12= 2.06D-10 1.00D-07 XBig12= 2.89D+00 8.30D-01.
 AX will form   123 AO Fock derivatives at one time.
    123 vectors produced by pass  1 Test12= 2.06D-10 1.00D-07 XBig12= 6.15D-02 8.57D-02.
    123 vectors produced by pass  2 Test12= 2.06D-10 1.00D-07 XBig12= 1.82D-04 1.92D-03.
    123 vectors produced by pass  3 Test12= 2.06D-10 1.00D-07 XBig12= 2.87D-07 8.42D-05.
     80 vectors produced by pass  4 Test12= 2.06D-10 1.00D-07 XBig12= 2.92D-10 1.88D-06.
 Inverted reduced A of dimension   572 with in-core refinement.
 End of Minotr Frequency-dependent properties file   721 does not exist.
 End of Minotr Frequency-dependent properties file   722 does not exist.

 **********************************************************************

            Population analysis using the SCF density.

 **********************************************************************

 Orbital symmetries:
       Occupied  (A) (A) (A) (A) (A) (A) (A) (A) (A) (A) (A) (A)
                 (A) (A) (A) (A) (A) (A) (A) (A) (A) (A) (A) (A)
                 (A) (A) (A) (A) (A) (A) (A) (A) (A) (A) (A) (A)
                 (A) (A) (A) (A) (A) (A) (A) (A) (A) (A) (A) (A)
                 (A) (A) (A) (A) (A) (A) (A) (A) (A) (A) (A) (A)
                 (A) (A) (A) (A) (A) (A) (A) (A) (A) (A) (A) (A)
                 (A) (A) (A) (A) (A)
       Virtual   (A) (A) (A) (A) (A) (A) (A) (A) (A) (A) (A) (A)
                 (A) (A) (A) (A) (A) (A) (A) (A) (A) (A) (A) (A)
                 (A) (A) (A) (A) (A) (A) (A) (A) (A) (A) (A) (A)
                 (A) (A) (A) (A) (A) (A) (A) (A) (A) (A) (A) (A)
                 (A) (A) (A) (A) (A) (A) (A) (A) (A) (A) (A) (A)
                 (A) (A) (A) (A) (A) (A) (A) (A) (A) (A) (A) (A)
                 (A) (A) (A) (A) (A) (A) (A) (A) (A) (A) (A) (A)
                 (A) (A) (A) (A) (A) (A) (A) (A) (A) (A) (A) (A)
                 (A) (A) (A) (A) (A) (A) (A) (A) (A) (A) (A) (A)
                 (A) (A) (A) (A) (A) (A) (A) (A) (A) (A) (A) (A)
                 (A) (A) (A) (A) (A) (A) (A) (A) (A) (A) (A) (A)
                 (A) (A) (A) (A) (A) (A) (A) (A) (A) (A) (A) (A)
                 (A) (A) (A) (A) (A) (A) (A) (A) (A) (A) (A) (A)
                 (A) (A) (A) (A) (A) (A) (A) (A) (A) (A) (A) (A)
                 (A) (A) (A) (A) (A) (A) (A) (A) (A) (A) (A) (A)
                 (A) (A) (A) (A) (A) (A) (A) (A) (A) (A) (A) (A)
                 (A) (A) (A) (A) (A) (A) (A) (A) (A) (A) (A) (A)
                 (A) (A) (A) (A) (A) (A) (A) (A) (A) (A) (A) (A)
                 (A) (A) (A) (A) (A) (A) (A) (A) (A) (A) (A) (A)
                 (A) (A) (A) (A) (A) (A) (A) (A) (A) (A) (A) (A)
                 (A) (A) (A) (A) (A) (A) (A) (A) (A) (A) (A) (A)
                 (A) (A) (A) (A) (A) (A) (A) (A) (A) (A) (A) (A)
                 (A) (A) (A)
 The electronic state is 1-A.
 Alpha  occ. eigenvalues --  -19.16419 -19.15973 -19.11640 -19.08720 -14.37348
 Alpha  occ. eigenvalues --  -14.35658 -14.34400 -14.34360 -10.29052 -10.26743
 Alpha  occ. eigenvalues --  -10.25123 -10.24588 -10.23642 -10.23530 -10.22534
 Alpha  occ. eigenvalues --  -10.22341 -10.18671 -10.18047 -10.17735 -10.16595
 Alpha  occ. eigenvalues --   -1.15643  -1.04258  -1.02224  -1.01177  -0.94759
 Alpha  occ. eigenvalues --   -0.93593  -0.91886  -0.90978  -0.79700  -0.77892
 Alpha  occ. eigenvalues --   -0.75453  -0.71600  -0.71321  -0.68573  -0.66050
 Alpha  occ. eigenvalues --   -0.64120  -0.62193  -0.60085  -0.59754  -0.56466
 Alpha  occ. eigenvalues --   -0.55040  -0.54471  -0.52416  -0.49385  -0.48630
 Alpha  occ. eigenvalues --   -0.48286  -0.47668  -0.46288  -0.45435  -0.45081
 Alpha  occ. eigenvalues --   -0.43879  -0.43444  -0.43207  -0.42200  -0.41331
 Alpha  occ. eigenvalues --   -0.41086  -0.40101  -0.40068  -0.39974  -0.38976
 Alpha  occ. eigenvalues --   -0.38664  -0.38227  -0.37861  -0.37192  -0.36704
 Alpha  occ. eigenvalues --   -0.36344  -0.35545  -0.34541  -0.33136  -0.32051
 Alpha  occ. eigenvalues --   -0.27258  -0.26215  -0.25754  -0.24562  -0.23688
 Alpha  occ. eigenvalues --   -0.22535  -0.04198
 Alpha virt. eigenvalues --    0.00657   0.02676   0.03952   0.04859   0.06125
 Alpha virt. eigenvalues --    0.06929   0.09705   0.10514   0.11525   0.13265
 Alpha virt. eigenvalues --    0.14086   0.14226   0.14492   0.14839   0.15102
 Alpha virt. eigenvalues --    0.15478   0.15953   0.16146   0.16435   0.16866
 Alpha virt. eigenvalues --    0.17515   0.17920   0.18611   0.19188   0.19624
 Alpha virt. eigenvalues --    0.20536   0.20894   0.21352   0.21741   0.22326
 Alpha virt. eigenvalues --    0.23680   0.25123   0.25706   0.25798   0.26367
 Alpha virt. eigenvalues --    0.29929   0.30728   0.34344   0.34730   0.35151
 Alpha virt. eigenvalues --    0.37603   0.40753   0.42794   0.44270   0.47401
 Alpha virt. eigenvalues --    0.50169   0.51058   0.51423   0.51706   0.52608
 Alpha virt. eigenvalues --    0.53264   0.53852   0.54583   0.54639   0.55049
 Alpha virt. eigenvalues --    0.56059   0.56447   0.57233   0.57518   0.58359
 Alpha virt. eigenvalues --    0.58734   0.59999   0.61457   0.62274   0.62747
 Alpha virt. eigenvalues --    0.63892   0.65287   0.65993   0.67983   0.68921
 Alpha virt. eigenvalues --    0.69706   0.70353   0.70680   0.72614   0.73581
 Alpha virt. eigenvalues --    0.74434   0.74673   0.75277   0.76678   0.77177
 Alpha virt. eigenvalues --    0.78437   0.79855   0.80460   0.81062   0.81867
 Alpha virt. eigenvalues --    0.83602   0.84867   0.85384   0.85945   0.86813
 Alpha virt. eigenvalues --    0.87119   0.87666   0.88095   0.88540   0.89320
 Alpha virt. eigenvalues --    0.89566   0.89856   0.90307   0.90415   0.91194
 Alpha virt. eigenvalues --    0.91688   0.92066   0.92930   0.94052   0.94402
 Alpha virt. eigenvalues --    0.94930   0.95772   0.96285   0.96409   0.97194
 Alpha virt. eigenvalues --    0.98093   0.99615   1.01183   1.01442   1.03116
 Alpha virt. eigenvalues --    1.04508   1.06143   1.07939   1.09364   1.11598
 Alpha virt. eigenvalues --    1.12102   1.13975   1.16088   1.17793   1.21294
 Alpha virt. eigenvalues --    1.23310   1.25873   1.27368   1.28263   1.29471
 Alpha virt. eigenvalues --    1.31439   1.31680   1.32699   1.34217   1.35383
 Alpha virt. eigenvalues --    1.35829   1.38393   1.39658   1.42290   1.43378
 Alpha virt. eigenvalues --    1.45443   1.46903   1.47858   1.49127   1.50671
 Alpha virt. eigenvalues --    1.51441   1.51927   1.54218   1.57139   1.60521
 Alpha virt. eigenvalues --    1.62083   1.65050   1.66644   1.68166   1.70061
 Alpha virt. eigenvalues --    1.71403   1.72473   1.74481   1.75684   1.76703
 Alpha virt. eigenvalues --    1.78022   1.78344   1.80114   1.82038   1.82271
 Alpha virt. eigenvalues --    1.82499   1.84113   1.84875   1.85101   1.85504
 Alpha virt. eigenvalues --    1.86158   1.88903   1.89644   1.91454   1.92978
 Alpha virt. eigenvalues --    1.94233   1.95415   1.95959   1.96082   1.96965
 Alpha virt. eigenvalues --    1.99475   2.01001   2.01940   2.03636   2.04228
 Alpha virt. eigenvalues --    2.04819   2.06100   2.06699   2.09491   2.11512
 Alpha virt. eigenvalues --    2.12550   2.14772   2.17266   2.18144   2.19942
 Alpha virt. eigenvalues --    2.20328   2.21146   2.24014   2.25124   2.25190
 Alpha virt. eigenvalues --    2.25738   2.28137   2.29232   2.29807   2.30425
 Alpha virt. eigenvalues --    2.31717   2.32608   2.33287   2.36035   2.37744
 Alpha virt. eigenvalues --    2.38687   2.40363   2.42136   2.42758   2.44950
 Alpha virt. eigenvalues --    2.45551   2.46277   2.47880   2.52236   2.54425
 Alpha virt. eigenvalues --    2.56279   2.58477   2.60129   2.60720   2.63449
 Alpha virt. eigenvalues --    2.66183   2.68709   2.69215   2.72065   2.73041
 Alpha virt. eigenvalues --    2.73981   2.76127   2.80601   2.83538   2.86877
 Alpha virt. eigenvalues --    2.89098   2.91187   2.94799   2.97089   2.99616
 Alpha virt. eigenvalues --    3.01791   3.10313   3.16603   3.19704   3.22031
 Alpha virt. eigenvalues --    3.37118   3.53862   3.96040   3.99861   4.02651
 Alpha virt. eigenvalues --    4.05045   4.08216   4.09542   4.12151   4.21566
 Alpha virt. eigenvalues --    4.23129   4.24536   4.29490   4.32585   4.37288
 Alpha virt. eigenvalues --    4.42569   4.44020   4.47003   4.59328   4.64728
 Alpha virt. eigenvalues --    4.67631   4.86108
          Condensed to atoms (all electrons):
              1          2          3          4          5          6
     1  H    0.508520   0.359356  -0.021698  -0.021689  -0.017863   0.005267
     2  C    0.359356   5.332896   0.349788   0.350406   0.355674  -0.079231
     3  H   -0.021698   0.349788   0.554978  -0.026925  -0.025083   0.001409
     4  H   -0.021689   0.350406  -0.026925   0.555966  -0.026437   0.001262
     5  C   -0.017863   0.355674  -0.025083  -0.026437   4.337982   0.590750
     6  O    0.005267  -0.079231   0.001409   0.001262   0.590750   8.088963
     7  N    0.004574  -0.136157   0.004065   0.004466   0.225767  -0.105982
     8  H   -0.000103  -0.001554   0.001548   0.001211  -0.015432   0.002833
     9  C   -0.000133   0.006941  -0.000248   0.000034  -0.019225   0.011258
    10  H    0.000006   0.000081   0.000005   0.000006   0.002018   0.002539
    11  C    0.000010  -0.000679   0.000009   0.000011  -0.009435  -0.016426
    12  H    0.000000  -0.000011   0.000000   0.000009   0.001346  -0.000313
    13  H    0.000000   0.000008   0.000000  -0.000001   0.000280   0.000378
    14  H    0.000000   0.000586  -0.000007  -0.000052   0.003748   0.022300
    15  C    0.000001  -0.000033  -0.000009   0.000000   0.007602   0.000836
    16  O    0.000000  -0.000039   0.000003   0.000001   0.000302  -0.000006
    17  N    0.000000   0.000001   0.000000   0.000000  -0.000050  -0.000004
    18  H    0.000000   0.000000   0.000000   0.000000  -0.000003   0.000003
    19  C    0.000000   0.000000   0.000000   0.000000   0.000001   0.000000
    20  H    0.000000   0.000000   0.000000   0.000000   0.000000   0.000000
    21  C    0.000000   0.000000   0.000000   0.000000   0.000000   0.000000
    22  H    0.000000   0.000000   0.000000   0.000000   0.000000   0.000000
    23  H    0.000000   0.000000   0.000000   0.000000   0.000000   0.000000
    24  H    0.000000   0.000000   0.000000   0.000000   0.000000   0.000000
    25  C    0.000000   0.000000   0.000000   0.000000   0.000001   0.000000
    26  O    0.000000   0.000000   0.000000   0.000000   0.000004   0.000000
    27  N    0.000000   0.000000   0.000000   0.000000   0.000000   0.000000
    28  H    0.000000   0.000000   0.000000   0.000000   0.000000   0.000000
    29  C    0.000000   0.000000   0.000000   0.000000   0.000000   0.000000
    30  H    0.000000   0.000000   0.000000   0.000000   0.000000   0.000000
    31  C    0.000000   0.000000   0.000000   0.000000   0.000000   0.000000
    32  H    0.000000   0.000000   0.000000   0.000000   0.000000   0.000000
    33  H    0.000000   0.000000   0.000000   0.000000   0.000000   0.000000
    34  H    0.000000   0.000000   0.000000   0.000000   0.000000   0.000000
    35  C    0.000000   0.000000   0.000000   0.000000   0.000000   0.000000
    36  O    0.000000   0.000000   0.000000   0.000000   0.000000   0.000000
    37  N    0.000000   0.000000   0.000000   0.000000   0.000000   0.000000
    38  H    0.000000   0.000000   0.000000   0.000000   0.000000   0.000000
    39  C    0.000000   0.000000   0.000000   0.000000   0.000000   0.000000
    40  H    0.000000   0.000000   0.000000   0.000000   0.000000   0.000000
    41  H    0.000000   0.000000   0.000000   0.000000   0.000000   0.000000
    42  H    0.000000   0.000000   0.000000   0.000000   0.000000   0.000000
              7          8          9         10         11         12
     1  H    0.004574  -0.000103  -0.000133   0.000006   0.000010   0.000000
     2  C   -0.136157  -0.001554   0.006941   0.000081  -0.000679  -0.000011
     3  H    0.004065   0.001548  -0.000248   0.000005   0.000009   0.000000
     4  H    0.004466   0.001211   0.000034   0.000006   0.000011   0.000009
     5  C    0.225767  -0.015432  -0.019225   0.002018  -0.009435   0.001346
     6  O   -0.105982   0.002833   0.011258   0.002539  -0.016426  -0.000313
     7  N    7.232576   0.271730   0.258589  -0.060193  -0.046868  -0.001624
     8  H    0.271730   0.416987  -0.050420   0.008422   0.000838   0.001479
     9  C    0.258589  -0.050420   5.028657   0.314718   0.372600  -0.037596
    10  H   -0.060193   0.008422   0.314718   0.687181  -0.064120   0.008415
    11  C   -0.046868   0.000838   0.372600  -0.064120   5.228445   0.350084
    12  H   -0.001624   0.001479  -0.037596   0.008415   0.350084   0.580637
    13  H    0.005255  -0.000217  -0.031093  -0.003202   0.352245  -0.029595
    14  H   -0.010721  -0.000076  -0.022040  -0.003738   0.358123  -0.024914
    15  C   -0.041550   0.010797   0.318960  -0.047493  -0.068611   0.008827
    16  O   -0.010587   0.021231  -0.042255   0.001424  -0.001115  -0.000040
    17  N    0.002039   0.001441  -0.121576   0.014795  -0.003844  -0.000749
    18  H    0.000161  -0.000051   0.001440  -0.000870   0.001124  -0.000361
    19  C   -0.000063  -0.000075   0.006730  -0.000260   0.000350   0.000015
    20  H   -0.000001   0.000004  -0.000769   0.000176   0.000010   0.000008
    21  C    0.000003  -0.000004   0.000677  -0.000098  -0.000102  -0.000154
    22  H    0.000000   0.000002  -0.000225   0.000013   0.000053   0.000138
    23  H    0.000000   0.000000   0.000017  -0.000001  -0.000001  -0.000002
    24  H    0.000000   0.000000  -0.000070   0.000012   0.000015   0.000016
    25  C    0.000019  -0.000002  -0.001705   0.000051  -0.000037   0.000089
    26  O   -0.000323   0.001493  -0.004713   0.000563  -0.000223   0.000093
    27  N    0.000000   0.000001  -0.000029   0.000002   0.000000   0.000000
    28  H    0.000000   0.000000   0.000003   0.000000   0.000000   0.000000
    29  C    0.000000  -0.000001   0.000001   0.000000   0.000000   0.000000
    30  H    0.000000   0.000001  -0.000001   0.000000   0.000000   0.000000
    31  C    0.000000   0.000000   0.000001   0.000000   0.000000   0.000000
    32  H    0.000000   0.000000   0.000000   0.000000   0.000000   0.000000
    33  H    0.000000   0.000000   0.000000   0.000000   0.000000   0.000000
    34  H    0.000000   0.000006  -0.000005   0.000000   0.000000   0.000000
    35  C    0.000000   0.000000   0.000000   0.000000   0.000000   0.000000
    36  O    0.000000   0.000000   0.000000   0.000000   0.000000   0.000000
    37  N    0.000000   0.000000   0.000000   0.000000   0.000000   0.000000
    38  H    0.000000   0.000000   0.000000   0.000000   0.000000   0.000000
    39  C    0.000000   0.000000   0.000000   0.000000   0.000000   0.000000
    40  H    0.000000   0.000000   0.000000   0.000000   0.000000   0.000000
    41  H    0.000000   0.000000   0.000000   0.000000   0.000000   0.000000
    42  H    0.000000   0.000000   0.000000   0.000000   0.000000   0.000000
             13         14         15         16         17         18
     1  H    0.000000   0.000000   0.000001   0.000000   0.000000   0.000000
     2  C    0.000008   0.000586  -0.000033  -0.000039   0.000001   0.000000
     3  H    0.000000  -0.000007  -0.000009   0.000003   0.000000   0.000000
     4  H   -0.000001  -0.000052   0.000000   0.000001   0.000000   0.000000
     5  C    0.000280   0.003748   0.007602   0.000302  -0.000050  -0.000003
     6  O    0.000378   0.022300   0.000836  -0.000006  -0.000004   0.000003
     7  N    0.005255  -0.010721  -0.041550  -0.010587   0.002039   0.000161
     8  H   -0.000217  -0.000076   0.010797   0.021231   0.001441  -0.000051
     9  C   -0.031093  -0.022040   0.318960  -0.042255  -0.121576   0.001440
    10  H   -0.003202  -0.003738  -0.047493   0.001424   0.014795  -0.000870
    11  C    0.352245   0.358123  -0.068611  -0.001115  -0.003844   0.001124
    12  H   -0.029595  -0.024914   0.008827  -0.000040  -0.000749  -0.000361
    13  H    0.609370  -0.022536  -0.010331   0.000088   0.002964   0.008396
    14  H   -0.022536   0.487150   0.005268  -0.000034   0.000354  -0.000309
    15  C   -0.010331   0.005268   4.795728   0.273193   0.235247  -0.023198
    16  O    0.000088  -0.000034   0.273193   8.670995  -0.090159   0.003998
    17  N    0.002964   0.000354   0.235247  -0.090159   7.184178   0.310807
    18  H    0.008396  -0.000309  -0.023198   0.003998   0.310807   0.394899
    19  C   -0.000177  -0.000002  -0.008951   0.023440   0.203289  -0.029214
    20  H   -0.000024   0.000001  -0.004865  -0.001717  -0.030201  -0.004415
    21  C    0.000326  -0.000003   0.000197   0.003439  -0.052084   0.003244
    22  H   -0.000022   0.000002   0.002788  -0.001133  -0.003724  -0.000776
    23  H    0.000006   0.000000   0.000013   0.000203   0.006597   0.000042
    24  H   -0.000044   0.000000  -0.000283  -0.000089  -0.005974   0.002662
    25  C   -0.000080   0.000001   0.002266   0.004084  -0.013146   0.001847
    26  O   -0.000026   0.000001   0.024188  -0.517738   0.015850  -0.000481
    27  N    0.000000   0.000000  -0.001356  -0.001719   0.003940  -0.000108
    28  H    0.000000   0.000000   0.000086   0.000312   0.000066   0.000009
    29  C    0.000000   0.000000   0.000012   0.000602  -0.000099   0.000003
    30  H    0.000000   0.000000   0.000042  -0.000577   0.000009   0.000000
    31  C    0.000000   0.000000  -0.000025   0.000508  -0.000005   0.000000
    32  H    0.000000   0.000000  -0.000001  -0.000017   0.000001   0.000000
    33  H    0.000000   0.000000   0.000000  -0.000009   0.000000   0.000000
    34  H    0.000000   0.000000   0.000083  -0.001335   0.000019   0.000000
    35  C    0.000000   0.000000   0.000001   0.000005   0.000000   0.000000
    36  O    0.000000   0.000000   0.000000   0.000000   0.000000   0.000000
    37  N    0.000000   0.000000   0.000000   0.000000   0.000000   0.000000
    38  H    0.000000   0.000000   0.000000   0.000000   0.000000   0.000000
    39  C    0.000000   0.000000   0.000000   0.000000   0.000000   0.000000
    40  H    0.000000   0.000000   0.000000   0.000000   0.000000   0.000000
    41  H    0.000000   0.000000   0.000000   0.000000   0.000000   0.000000
    42  H    0.000000   0.000000   0.000000   0.000000   0.000000   0.000000
             19         20         21         22         23         24
     1  H    0.000000   0.000000   0.000000   0.000000   0.000000   0.000000
     2  C    0.000000   0.000000   0.000000   0.000000   0.000000   0.000000
     3  H    0.000000   0.000000   0.000000   0.000000   0.000000   0.000000
     4  H    0.000000   0.000000   0.000000   0.000000   0.000000   0.000000
     5  C    0.000001   0.000000   0.000000   0.000000   0.000000   0.000000
     6  O    0.000000   0.000000   0.000000   0.000000   0.000000   0.000000
     7  N   -0.000063  -0.000001   0.000003   0.000000   0.000000   0.000000
     8  H   -0.000075   0.000004  -0.000004   0.000002   0.000000   0.000000
     9  C    0.006730  -0.000769   0.000677  -0.000225   0.000017  -0.000070
    10  H   -0.000260   0.000176  -0.000098   0.000013  -0.000001   0.000012
    11  C    0.000350   0.000010  -0.000102   0.000053  -0.000001   0.000015
    12  H    0.000015   0.000008  -0.000154   0.000138  -0.000002   0.000016
    13  H   -0.000177  -0.000024   0.000326  -0.000022   0.000006  -0.000044
    14  H   -0.000002   0.000001  -0.000003   0.000002   0.000000   0.000000
    15  C   -0.008951  -0.004865   0.000197   0.002788   0.000013  -0.000283
    16  O    0.023440  -0.001717   0.003439  -0.001133   0.000203  -0.000089
    17  N    0.203289  -0.030201  -0.052084  -0.003724   0.006597  -0.005974
    18  H   -0.029214  -0.004415   0.003244  -0.000776   0.000042   0.002662
    19  C    5.101663   0.339976   0.357911  -0.032450  -0.017686  -0.027579
    20  H    0.339976   0.627330  -0.062109   0.007242  -0.006671  -0.001699
    21  C    0.357911  -0.062109   5.201962   0.360236   0.337853   0.354394
    22  H   -0.032450   0.007242   0.360236   0.557300  -0.032655  -0.025488
    23  H   -0.017686  -0.006671   0.337853  -0.032655   0.609112  -0.034090
    24  H   -0.027579  -0.001699   0.354394  -0.025488  -0.034090   0.587989
    25  C    0.333058  -0.031990  -0.052418   0.007212  -0.030853   0.008353
    26  O   -0.110214   0.005427  -0.004076   0.001504  -0.000283   0.000004
    27  N   -0.136538   0.010243  -0.000958  -0.000411   0.001415   0.000564
    28  H    0.014780  -0.003989  -0.005037  -0.000988   0.020368  -0.000745
    29  C    0.007510  -0.000089  -0.000039  -0.000165   0.000718   0.000000
    30  H   -0.000583   0.000044   0.000019   0.000077  -0.000235   0.000000
    31  C    0.000164  -0.000087  -0.000011  -0.000004   0.000060   0.000000
    32  H   -0.000055   0.000023   0.000000   0.000000  -0.000004   0.000000
    33  H    0.000000   0.000000   0.000000   0.000000   0.000000   0.000000
    34  H   -0.000072   0.000009  -0.000002   0.000001  -0.000006   0.000000
    35  C    0.000134  -0.000045  -0.000103  -0.000011   0.000155   0.000000
    36  O   -0.000094   0.000004   0.000013   0.000002  -0.000204   0.000000
    37  N    0.000000   0.000000   0.000000   0.000000  -0.000001   0.000000
    38  H    0.000000   0.000000   0.000000   0.000000   0.000000   0.000000
    39  C    0.000000   0.000000   0.000000   0.000000   0.000000   0.000000
    40  H    0.000000   0.000000   0.000000   0.000000   0.000000   0.000000
    41  H    0.000000   0.000000   0.000000   0.000000   0.000000   0.000000
    42  H    0.000000   0.000000   0.000000   0.000000   0.000000   0.000000
             25         26         27         28         29         30
     1  H    0.000000   0.000000   0.000000   0.000000   0.000000   0.000000
     2  C    0.000000   0.000000   0.000000   0.000000   0.000000   0.000000
     3  H    0.000000   0.000000   0.000000   0.000000   0.000000   0.000000
     4  H    0.000000   0.000000   0.000000   0.000000   0.000000   0.000000
     5  C    0.000001   0.000004   0.000000   0.000000   0.000000   0.000000
     6  O    0.000000   0.000000   0.000000   0.000000   0.000000   0.000000
     7  N    0.000019  -0.000323   0.000000   0.000000   0.000000   0.000000
     8  H   -0.000002   0.001493   0.000001   0.000000  -0.000001   0.000001
     9  C   -0.001705  -0.004713  -0.000029   0.000003   0.000001  -0.000001
    10  H    0.000051   0.000563   0.000002   0.000000   0.000000   0.000000
    11  C   -0.000037  -0.000223   0.000000   0.000000   0.000000   0.000000
    12  H    0.000089   0.000093   0.000000   0.000000   0.000000   0.000000
    13  H   -0.000080  -0.000026   0.000000   0.000000   0.000000   0.000000
    14  H    0.000001   0.000001   0.000000   0.000000   0.000000   0.000000
    15  C    0.002266   0.024188  -0.001356   0.000086   0.000012   0.000042
    16  O    0.004084  -0.517738  -0.001719   0.000312   0.000602  -0.000577
    17  N   -0.013146   0.015850   0.003940   0.000066  -0.000099   0.000009
    18  H    0.001847  -0.000481  -0.000108   0.000009   0.000003   0.000000
    19  C    0.333058  -0.110214  -0.136538   0.014780   0.007510  -0.000583
    20  H   -0.031990   0.005427   0.010243  -0.003989  -0.000089   0.000044
    21  C   -0.052418  -0.004076  -0.000958  -0.005037  -0.000039   0.000019
    22  H    0.007212   0.001504  -0.000411  -0.000988  -0.000165   0.000077
    23  H   -0.030853  -0.000283   0.001415   0.020368   0.000718  -0.000235
    24  H    0.008353   0.000004   0.000564  -0.000745   0.000000   0.000000
    25  C    4.760878   0.293920   0.223598  -0.027176  -0.029801  -0.008733
    26  O    0.293920   8.682728  -0.053737   0.001825   0.006569   0.000138
    27  N    0.223598  -0.053737   7.215516   0.253956   0.287640  -0.043589
    28  H   -0.027176   0.001825   0.253956   0.425770  -0.052601   0.001432
    29  C   -0.029801   0.006569   0.287640  -0.052601   5.101242   0.372432
    30  H   -0.008733   0.000138  -0.043589   0.001432   0.372432   0.621957
    31  C    0.012124  -0.010527  -0.081475   0.007301   0.317635  -0.066163
    32  H   -0.000330  -0.000220   0.001596   0.000402  -0.033759   0.006458
    33  H   -0.000274   0.000111   0.005938  -0.000182  -0.031854   0.001223
    34  H   -0.005309   0.017356  -0.004775  -0.000590  -0.021548  -0.004753
    35  C    0.006711   0.000491  -0.029579   0.005210   0.297557  -0.042823
    36  O    0.001028  -0.000003  -0.008130   0.030031  -0.089302   0.001855
    37  N   -0.000074   0.000000   0.003303   0.001205  -0.122326   0.001160
    38  H   -0.000014   0.000000   0.000063  -0.000062   0.001754   0.001269
    39  C    0.000002   0.000000  -0.000070  -0.000006   0.005825  -0.000332
    40  H    0.000000   0.000000  -0.000001  -0.000025   0.001169  -0.000047
    41  H    0.000000   0.000000   0.000000   0.000000  -0.000191   0.000023
    42  H    0.000000   0.000000   0.000001   0.000000  -0.000036  -0.000008
             31         32         33         34         35         36
     1  H    0.000000   0.000000   0.000000   0.000000   0.000000   0.000000
     2  C    0.000000   0.000000   0.000000   0.000000   0.000000   0.000000
     3  H    0.000000   0.000000   0.000000   0.000000   0.000000   0.000000
     4  H    0.000000   0.000000   0.000000   0.000000   0.000000   0.000000
     5  C    0.000000   0.000000   0.000000   0.000000   0.000000   0.000000
     6  O    0.000000   0.000000   0.000000   0.000000   0.000000   0.000000
     7  N    0.000000   0.000000   0.000000   0.000000   0.000000   0.000000
     8  H    0.000000   0.000000   0.000000   0.000006   0.000000   0.000000
     9  C    0.000001   0.000000   0.000000  -0.000005   0.000000   0.000000
    10  H    0.000000   0.000000   0.000000   0.000000   0.000000   0.000000
    11  C    0.000000   0.000000   0.000000   0.000000   0.000000   0.000000
    12  H    0.000000   0.000000   0.000000   0.000000   0.000000   0.000000
    13  H    0.000000   0.000000   0.000000   0.000000   0.000000   0.000000
    14  H    0.000000   0.000000   0.000000   0.000000   0.000000   0.000000
    15  C   -0.000025  -0.000001   0.000000   0.000083   0.000001   0.000000
    16  O    0.000508  -0.000017  -0.000009  -0.001335   0.000005   0.000000
    17  N   -0.000005   0.000001   0.000000   0.000019   0.000000   0.000000
    18  H    0.000000   0.000000   0.000000   0.000000   0.000000   0.000000
    19  C    0.000164  -0.000055   0.000000  -0.000072   0.000134  -0.000094
    20  H   -0.000087   0.000023   0.000000   0.000009  -0.000045   0.000004
    21  C   -0.000011   0.000000   0.000000  -0.000002  -0.000103   0.000013
    22  H   -0.000004   0.000000   0.000000   0.000001  -0.000011   0.000002
    23  H    0.000060  -0.000004   0.000000  -0.000006   0.000155  -0.000204
    24  H    0.000000   0.000000   0.000000   0.000000   0.000000   0.000000
    25  C    0.012124  -0.000330  -0.000274  -0.005309   0.006711   0.001028
    26  O   -0.010527  -0.000220   0.000111   0.017356   0.000491  -0.000003
    27  N   -0.081475   0.001596   0.005938  -0.004775  -0.029579  -0.008130
    28  H    0.007301   0.000402  -0.000182  -0.000590   0.005210   0.030031
    29  C    0.317635  -0.033759  -0.031854  -0.021548   0.297557  -0.089302
    30  H   -0.066163   0.006458   0.001223  -0.004753  -0.042823   0.001855
    31  C    5.228250   0.366964   0.346081   0.365119  -0.028781  -0.001278
    32  H    0.366964   0.556275  -0.026657  -0.025805  -0.003715   0.001042
    33  H    0.346081  -0.026657   0.608122  -0.023056  -0.009897   0.000002
    34  H    0.365119  -0.025805  -0.023056   0.500905   0.003133  -0.000082
    35  C   -0.028781  -0.003715  -0.009897   0.003133   4.374561   0.597300
    36  O   -0.001278   0.001042   0.000002  -0.000082   0.597300   8.088770
    37  N    0.002281  -0.000392   0.003552   0.000242   0.269452  -0.100968
    38  H    0.000170  -0.000090   0.006933  -0.000200  -0.022146   0.003638
    39  C    0.000084  -0.000078   0.000044   0.000005  -0.024005  -0.009206
    40  H   -0.000054  -0.000009  -0.000009   0.000001  -0.000968   0.021391
    41  H   -0.000006   0.000001   0.000005   0.000000   0.001305   0.000570
    42  H    0.000018   0.000001  -0.000008  -0.000002   0.001381   0.000572
             37         38         39         40         41         42
     1  H    0.000000   0.000000   0.000000   0.000000   0.000000   0.000000
     2  C    0.000000   0.000000   0.000000   0.000000   0.000000   0.000000
     3  H    0.000000   0.000000   0.000000   0.000000   0.000000   0.000000
     4  H    0.000000   0.000000   0.000000   0.000000   0.000000   0.000000
     5  C    0.000000   0.000000   0.000000   0.000000   0.000000   0.000000
     6  O    0.000000   0.000000   0.000000   0.000000   0.000000   0.000000
     7  N    0.000000   0.000000   0.000000   0.000000   0.000000   0.000000
     8  H    0.000000   0.000000   0.000000   0.000000   0.000000   0.000000
     9  C    0.000000   0.000000   0.000000   0.000000   0.000000   0.000000
    10  H    0.000000   0.000000   0.000000   0.000000   0.000000   0.000000
    11  C    0.000000   0.000000   0.000000   0.000000   0.000000   0.000000
    12  H    0.000000   0.000000   0.000000   0.000000   0.000000   0.000000
    13  H    0.000000   0.000000   0.000000   0.000000   0.000000   0.000000
    14  H    0.000000   0.000000   0.000000   0.000000   0.000000   0.000000
    15  C    0.000000   0.000000   0.000000   0.000000   0.000000   0.000000
    16  O    0.000000   0.000000   0.000000   0.000000   0.000000   0.000000
    17  N    0.000000   0.000000   0.000000   0.000000   0.000000   0.000000
    18  H    0.000000   0.000000   0.000000   0.000000   0.000000   0.000000
    19  C    0.000000   0.000000   0.000000   0.000000   0.000000   0.000000
    20  H    0.000000   0.000000   0.000000   0.000000   0.000000   0.000000
    21  C    0.000000   0.000000   0.000000   0.000000   0.000000   0.000000
    22  H    0.000000   0.000000   0.000000   0.000000   0.000000   0.000000
    23  H   -0.000001   0.000000   0.000000   0.000000   0.000000   0.000000
    24  H    0.000000   0.000000   0.000000   0.000000   0.000000   0.000000
    25  C   -0.000074  -0.000014   0.000002   0.000000   0.000000   0.000000
    26  O    0.000000   0.000000   0.000000   0.000000   0.000000   0.000000
[...]
    28  H    0.000000   0.000000   0.000001   0.000001   0.000033  -0.000002
    29  C    0.000000   0.000000  -0.000005   0.000004  -0.000066   0.000003
    30  H    0.000000   0.000000   0.000001   0.000001  -0.000003   0.000000
    31  C    0.000000   0.000000   0.000001  -0.000001   0.000002   0.000000
    32  H    0.000000   0.000000   0.000000   0.000000   0.000000   0.000000
    33  H    0.000000   0.000000   0.000000   0.000000   0.000000   0.000000
    34  H    0.000000   0.000000  -0.000003   0.000004   0.000001   0.000000
    35  C    0.000000   0.000000   0.000000   0.000000   0.000000   0.000000
    36  O    0.000000   0.000000   0.000000   0.000000   0.000000   0.000000
    37  N    0.000000   0.000000   0.000000   0.000000   0.000000   0.000000
    38  H    0.000000   0.000000   0.000000   0.000000   0.000000   0.000000
    39  C    0.000000   0.000000   0.000000   0.000000   0.000000   0.000000
    40  H    0.000000   0.000000   0.000000   0.000000   0.000000   0.000000
    41  H    0.000000   0.000000   0.000000   0.000000   0.000000   0.000000
    42  H    0.000000   0.000000   0.000000   0.000000   0.000000   0.000000
             19         20         21         22         23         24
     1  H    0.000000   0.000000   0.000000   0.000000   0.000000   0.000000
     2  C    0.000000   0.000000   0.000000   0.000000   0.000000   0.000000
     3  H    0.000000   0.000000   0.000000   0.000000   0.000000   0.000000
     4  H    0.000000   0.000000   0.000000   0.000000   0.000000   0.000000
     5  C    0.000000   0.000000   0.000000   0.000000   0.000000   0.000000
     6  O    0.000000   0.000000   0.000000   0.000000   0.000000   0.000000
     7  N   -0.000134   0.000003   0.000001   0.000001   0.000000   0.000000
     8  H   -0.000016   0.000001   0.000000   0.000000   0.000000   0.000000
     9  C    0.006582  -0.000236  -0.000301  -0.000137   0.000006  -0.000030
    10  H    0.000401  -0.000005  -0.000066   0.000001   0.000000  -0.000009
    11  C   -0.000539  -0.000004  -0.000073   0.000020   0.000001  -0.000003
    12  H    0.000085   0.000001  -0.000025   0.000030   0.000000   0.000000
    13  H   -0.000565   0.000019   0.000407   0.001527   0.000008  -0.000007
    14  H    0.000000   0.000000   0.000002  -0.000001   0.000000   0.000000
    15  C   -0.023297   0.000781   0.002722   0.000343  -0.000066  -0.000048
    16  O    0.000744  -0.000051   0.000068  -0.000017   0.000001   0.000000
    17  N    0.231498  -0.042201  -0.050601   0.000132   0.005029  -0.006633
    18  H   -0.042379   0.000943  -0.002444  -0.000103   0.000116   0.007612
    19  C    5.075279   0.356640   0.359073  -0.034575  -0.025529  -0.029619
    20  H    0.356640   0.602857  -0.051739   0.005642   0.000320  -0.005592
    21  C    0.359073  -0.051739   5.165721   0.370615   0.358499   0.363974
    22  H   -0.034575   0.005642   0.370615   0.538007  -0.022754  -0.032269
    23  H   -0.025529   0.000320   0.358499  -0.022754   0.539246  -0.026257
    24  H   -0.029619  -0.005592   0.363974  -0.032269  -0.026257   0.571680
    25  C    0.326032  -0.038946  -0.035829  -0.003854  -0.007867   0.004082
    26  O   -0.066476   0.001652  -0.001549   0.001055  -0.000056  -0.000071
    27  N   -0.122494   0.004511   0.000711   0.000237   0.005632   0.000308
    28  H    0.001620   0.001428  -0.000560  -0.000021   0.003732  -0.000144
    29  C    0.006518  -0.000320   0.000337  -0.000067  -0.000084   0.000006
    30  H    0.000603  -0.000008  -0.000085   0.000001  -0.000036  -0.000001
    31  C   -0.000560   0.000066   0.000002   0.000001   0.000013   0.000000
    32  H    0.000006  -0.000002   0.000000   0.000000  -0.000002   0.000000
    33  H    0.000005  -0.000001   0.000000   0.000000   0.000000   0.000000
    34  H    0.000228  -0.000043   0.000000  -0.000001   0.000000   0.000000
    35  C   -0.000064  -0.000021  -0.000074  -0.000007   0.000118   0.000001
    36  O   -0.000107  -0.000008  -0.000065   0.000001   0.000233   0.000000
    37  N    0.000000   0.000000   0.000000   0.000000  -0.000002   0.000000
    38  H    0.000000   0.000000   0.000000   0.000000   0.000000   0.000000
    39  C    0.000000   0.000000   0.000000   0.000000   0.000000   0.000000
    40  H    0.000000   0.000000   0.000000   0.000000   0.000000   0.000000
    41  H    0.000000   0.000000   0.000000   0.000000   0.000000   0.000000
    42  H    0.000000   0.000000   0.000000   0.000000   0.000000   0.000000
             25         26         27         28         29         30
     1  H    0.000000   0.000000   0.000000   0.000000   0.000000   0.000000
     2  C    0.000000   0.000000   0.000000   0.000000   0.000000   0.000000
     3  H    0.000000   0.000000   0.000000   0.000000   0.000000   0.000000
     4  H    0.000000   0.000000   0.000000   0.000000   0.000000   0.000000
     5  C    0.000000   0.000000   0.000000   0.000000   0.000000   0.000000
     6  O    0.000000   0.000000   0.000000   0.000000   0.000000   0.000000
     7  N    0.000004   0.000002   0.000000   0.000000   0.000000   0.000000
     8  H   -0.000007   0.000015   0.000000   0.000000   0.000000   0.000000
     9  C    0.000037  -0.000331  -0.000002   0.000000   0.000000   0.000000
    10  H   -0.000020  -0.000002   0.000000   0.000000   0.000000   0.000000
    11  C    0.000020   0.000046   0.000000   0.000000   0.000000   0.000000
    12  H   -0.000022   0.000030   0.000000   0.000000   0.000000   0.000000
    13  H   -0.000020   0.000004   0.000000   0.000000   0.000000   0.000000
    14  H    0.000000   0.000000   0.000000   0.000000   0.000000   0.000000
    15  C    0.002753   0.010029   0.000216   0.000001  -0.000005   0.000001
    16  O    0.004913  -0.011332  -0.000006   0.000001   0.000004   0.000001
    17  N   -0.027226   0.000043   0.002756   0.000033  -0.000066  -0.000003
    18  H    0.003143  -0.000124  -0.000095  -0.000002   0.000003   0.000000
    19  C    0.326032  -0.066476  -0.122494   0.001620   0.006518   0.000603
    20  H   -0.038946   0.001652   0.004511   0.001428  -0.000320  -0.000008
    21  C   -0.035829  -0.001549   0.000711  -0.000560   0.000337  -0.000085
    22  H   -0.003854   0.001055   0.000237  -0.000021  -0.000067   0.000001
    23  H   -0.007867  -0.000056   0.005632   0.003732  -0.000084  -0.000036
    24  H    0.004082  -0.000071   0.000308  -0.000144   0.000006  -0.000001
    25  C    4.387491   0.573212   0.227452  -0.017141  -0.020545  -0.000848
    26  O    0.573212   8.066827  -0.102008   0.002689   0.010315   0.009703
    27  N    0.227452  -0.102008   7.224230   0.276123   0.257595  -0.052495
    28  H   -0.017141   0.002689   0.276123   0.388042  -0.049262   0.005573
    29  C   -0.020545   0.010315   0.257595  -0.049262   5.066857   0.368619
    30  H   -0.000848   0.009703  -0.052495   0.005573   0.368619   0.578498
    31  C   -0.005647  -0.007141  -0.053109   0.002052   0.352680  -0.048077
    32  H    0.000363   0.000001  -0.001147   0.001594  -0.034327   0.005532
    33  H    0.000107   0.000014   0.004975  -0.000073  -0.029636  -0.000124
    34  H    0.004459   0.009593  -0.008925  -0.000354  -0.022460  -0.004921
    35  C    0.006042   0.000575  -0.028154  -0.004266   0.303890  -0.034770
    36  O    0.000894  -0.000005  -0.014947   0.039482  -0.082895   0.002173
    37  N   -0.000083  -0.000002   0.002592   0.001682  -0.108848   0.001481
    38  H   -0.000006   0.000001   0.000039  -0.000067   0.001779   0.002368
    39  C    0.000002   0.000000  -0.000096  -0.000012   0.005767  -0.000096
    40  H    0.000000   0.000000   0.000006  -0.000045   0.001090  -0.000034
    41  H    0.000000   0.000000   0.000003   0.000000  -0.000153   0.000001
    42  H    0.000000   0.000000   0.000000   0.000000  -0.000110  -0.000006
             31         32         33         34         35         36
     1  H    0.000000   0.000000   0.000000   0.000000   0.000000   0.000000
     2  C    0.000000   0.000000   0.000000   0.000000   0.000000   0.000000
     3  H    0.000000   0.000000   0.000000   0.000000   0.000000   0.000000
     4  H    0.000000   0.000000   0.000000   0.000000   0.000000   0.000000
     5  C    0.000000   0.000000   0.000000   0.000000   0.000000   0.000000
     6  O    0.000000   0.000000   0.000000   0.000000   0.000000   0.000000
     7  N    0.000000   0.000000   0.000000   0.000000   0.000000   0.000000
     8  H    0.000000   0.000000   0.000000   0.000000   0.000000   0.000000
     9  C    0.000000   0.000000   0.000000   0.000000   0.000000   0.000000
    10  H    0.000000   0.000000   0.000000   0.000000   0.000000   0.000000
    11  C    0.000000   0.000000   0.000000   0.000000   0.000000   0.000000
    12  H    0.000000   0.000000   0.000000   0.000000   0.000000   0.000000
    13  H    0.000000   0.000000   0.000000   0.000000   0.000000   0.000000
    14  H    0.000000   0.000000   0.000000   0.000000   0.000000   0.000000
    15  C    0.000001   0.000000   0.000000  -0.000003   0.000000   0.000000
    16  O   -0.000001   0.000000   0.000000   0.000004   0.000000   0.000000
    17  N    0.000002   0.000000   0.000000   0.000001   0.000000   0.000000
    18  H    0.000000   0.000000   0.000000   0.000000   0.000000   0.000000
    19  C   -0.000560   0.000006   0.000005   0.000228  -0.000064  -0.000107
    20  H    0.000066  -0.000002  -0.000001  -0.000043  -0.000021  -0.000008
    21  C    0.000002   0.000000   0.000000   0.000000  -0.000074  -0.000065
    22  H    0.000001   0.000000   0.000000  -0.000001  -0.000007   0.000001
    23  H    0.000013  -0.000002   0.000000   0.000000   0.000118   0.000233
    24  H    0.000000   0.000000   0.000000   0.000000   0.000001   0.000000
    25  C   -0.005647   0.000363   0.000107   0.004459   0.006042   0.000894
    26  O   -0.007141   0.000001   0.000014   0.009593   0.000575  -0.000005
    27  N   -0.053109  -0.001147   0.004975  -0.008925  -0.028154  -0.014947
    28  H    0.002052   0.001594  -0.000073  -0.000354  -0.004266   0.039482
    29  C    0.352680  -0.034327  -0.029636  -0.022460   0.303890  -0.082895
    30  H   -0.048077   0.005532  -0.000124  -0.004921  -0.034770   0.002173
    31  C    5.152209   0.369817   0.355114   0.370705  -0.036619  -0.002352
    32  H    0.369817   0.556436  -0.027581  -0.026532  -0.004313   0.001999
    33  H    0.355114  -0.027581   0.582942  -0.025406  -0.002575  -0.000019
    34  H    0.370705  -0.026532  -0.025406   0.501424   0.003644  -0.000074
    35  C   -0.036619  -0.004313  -0.002575   0.003644   4.373628   0.571864
    36  O   -0.002352   0.001999  -0.000019  -0.000074   0.571864   8.093619
    37  N   -0.000080  -0.000012   0.003339   0.000017   0.287070  -0.091944
    38  H    0.000198  -0.000013   0.001605  -0.000072  -0.021653   0.003298
    39  C   -0.000243   0.000001  -0.000075   0.000005  -0.023170  -0.007500
    40  H   -0.000038  -0.000009  -0.000002   0.000001  -0.001277   0.019607
    41  H   -0.000006   0.000000   0.000004   0.000000   0.000632   0.000415
    42  H    0.000045  -0.000001  -0.000015  -0.000001   0.001617   0.000441
             37         38         39         40         41         42
     1  H    0.000000   0.000000   0.000000   0.000000   0.000000   0.000000
     2  C    0.000000   0.000000   0.000000   0.000000   0.000000   0.000000
     3  H    0.000000   0.000000   0.000000   0.000000   0.000000   0.000000
     4  H    0.000000   0.000000   0.000000   0.000000   0.000000   0.000000
     5  C    0.000000   0.000000   0.000000   0.000000   0.000000   0.000000
     6  O    0.000000   0.000000   0.000000   0.000000   0.000000   0.000000
     7  N    0.000000   0.000000   0.000000   0.000000   0.000000   0.000000
     8  H    0.000000   0.000000   0.000000   0.000000   0.000000   0.000000
     9  C    0.000000   0.000000   0.000000   0.000000   0.000000   0.000000
    10  H    0.000000   0.000000   0.000000   0.000000   0.000000   0.000000
    11  C    0.000000   0.000000   0.000000   0.000000   0.000000   0.000000
    12  H    0.000000   0.000000   0.000000   0.000000   0.000000   0.000000
    13  H    0.000000   0.000000   0.000000   0.000000   0.000000   0.000000
    14  H    0.000000   0.000000   0.000000   0.000000   0.000000   0.000000
    15  C    0.000000   0.000000   0.000000   0.000000   0.000000   0.000000
    16  O    0.000000   0.000000   0.000000   0.000000   0.000000   0.000000
    17  N    0.000000   0.000000   0.000000   0.000000   0.000000   0.000000
    18  H    0.000000   0.000000   0.000000   0.000000   0.000000   0.000000
    19  C    0.000000   0.000000   0.000000   0.000000   0.000000   0.000000
    20  H    0.000000   0.000000   0.000000   0.000000   0.000000   0.000000
    21  C    0.000000   0.000000   0.000000   0.000000   0.000000   0.000000
    22  H    0.000000   0.000000   0.000000   0.000000   0.000000   0.000000
    23  H   -0.000002   0.000000   0.000000   0.000000   0.000000   0.000000
    24  H    0.000000   0.000000   0.000000   0.000000   0.000000   0.000000
    25  C   -0.000083  -0.000006   0.000002   0.000000   0.000000   0.000000
    26  O   -0.000002   0.000001   0.000000   0.000000   0.000000   0.000000
    27  N    0.002592   0.000039  -0.000096   0.000006   0.000003   0.000000
    28  H    0.001682  -0.000067  -0.000012  -0.000045   0.000000   0.000000
    29  C   -0.108848   0.001779   0.005767   0.001090  -0.000153  -0.000110
    30  H    0.001481   0.002368  -0.000096  -0.000034   0.000001  -0.000006
    31  C   -0.000080   0.000198  -0.000243  -0.000038  -0.000006   0.000045
    32  H   -0.000012  -0.000013   0.000001  -0.000009   0.000000  -0.000001
    33  H    0.003339   0.001605  -0.000075  -0.000002   0.000004  -0.000015
    34  H    0.000017  -0.000072   0.000005   0.000001   0.000000  -0.000001
    35  C    0.287070  -0.021653  -0.023170  -0.001277   0.000632   0.001617
    36  O   -0.091944   0.003298  -0.007500   0.019607   0.000415   0.000441
    37  N    7.046533   0.306393   0.264751  -0.039106  -0.040291  -0.041049
    38  H    0.306393   0.402613  -0.031525   0.004000  -0.000949  -0.000857
    39  C    0.264751  -0.031525   4.964593   0.378072   0.382360   0.381335
    40  H   -0.039106   0.004000   0.378072   0.478540  -0.024417  -0.024116
    41  H   -0.040291  -0.000949   0.382360  -0.024417   0.557157  -0.039246
    42  H   -0.041049  -0.000857   0.381335  -0.024116  -0.039246   0.557967
 Mulliken atomic charges:
              1
     1  H    0.179963
     2  C   -0.532452
     3  H    0.179930
     4  H    0.148575
     5  C    0.596680
     6  O   -0.528850
     7  N   -0.603837
     8  H    0.347119
     9  C   -0.046524
    10  H    0.164593
    11  C   -0.444123
    12  H    0.162398
    13  H    0.129334
    14  H    0.188484
    15  C    0.617575
    16  O   -0.486081
    17  N   -0.631304
    18  H    0.326877
    19  C   -0.018962
    20  H    0.164311
    21  C   -0.478719
    22  H    0.176193
    23  H    0.169699
    24  H    0.153021
    25  C    0.617056
    26  O   -0.496708
    27  N   -0.623907
    28  H    0.347897
    29  C   -0.026681
    30  H    0.166951
    31  C   -0.449032
    32  H    0.158190
    33  H    0.137400
    34  H    0.198709
    35  C    0.607883
    36  O   -0.534110
    37  N   -0.592442
    38  H    0.332847
    39  C   -0.314167
    40  H    0.207729
    41  H    0.164489
    42  H    0.163996
 Sum of Mulliken atomic charges =   0.00000
 Mulliken charges with hydrogens summed into heavy atoms:
              1
     2  C   -0.023984
     5  C    0.596680
     6  O   -0.528850
     7  N   -0.256718
     9  C    0.118069
    11  C    0.036093
    15  C    0.617575
    16  O   -0.486081
    17  N   -0.304426
    19  C    0.145350
    21  C    0.020193
    25  C    0.617056
    26  O   -0.496708
    27  N   -0.276010
    29  C    0.140270
    31  C    0.045267
    35  C    0.607883
    36  O   -0.534110
    37  N   -0.259595
    39  C    0.222047
 Sum of Mulliken charges with hydrogens summed into heavy atoms =   0.00000
 Electronic spatial extent (au):  <R**2>=          10617.1705
 Charge=              0.0000 electrons
 Dipole moment (field-independent basis, Debye):
    X=              6.5961    Y=              0.0696    Z=              1.0786  Tot=              6.6841
 Quadrupole moment (field-independent basis, Debye-Ang):
   XX=           -117.1722   YY=           -116.7122   ZZ=           -115.1752
   XY=              0.0151   XZ=             12.4458   YZ=             -3.0066
 Traceless Quadrupole moment (field-independent basis, Debye-Ang):
   XX=             -0.8190   YY=             -0.3590   ZZ=              1.1780
   XY=              0.0151   XZ=             12.4458   YZ=             -3.0066
 Octapole moment (field-independent basis, Debye-Ang**2):
  XXX=            321.0999  YYY=              2.8540  ZZZ=              3.3425  XYY=              3.0728
  XXY=           -162.2651  XXZ=             69.8982  XZZ=             11.0093  YZZ=             -2.3015
  YYZ=             -0.7714  XYZ=              1.3788
 Hexadecapole moment (field-independent basis, Debye-Ang**3):
 XXXX=         -11927.7841 YYYY=          -1055.0992 ZZZZ=           -485.3099 XXXY=            380.4789
 XXXZ=            537.8443 YYYX=            -11.9062 YYYZ=            -20.6061 ZZZX=             20.3689
 ZZZY=            -11.2686 XXYY=          -2195.5917 XXZZ=          -2005.8497 YYZZ=           -255.6199
 XXYZ=            -42.3320 YYXZ=             23.3550 ZZXY=            -18.1453
 N-N= 1.584196558420D+03 E-N=-5.477937288375D+03  KE= 9.812982103633D+02
 1\1\GINC-NODE002\FOpt\RB3LYP\6-31G(d)\C12H22N4O4\STEBOSS\29-Dec-2016\0
 \\# b3lyp/6-31G* Opt=(ModRedundant, maxcycles=1000, calcfc) geom=nocro
 wd\\Phi Psi fixed scan\\0,1\H,8.7311627044,0.4415386064,0.877077179\C,
 8.5827467614,1.0803383373,0.0008430324\H,8.2358073624,0.4380767521,-0.
 8147794147\H,9.540722251,1.5284718416,-0.2800996417\C,7.4995524212,2.1
 022331655,0.3156063144\O,6.3668837203,1.7669571818,0.6548855004\N,7.87
 20698697,3.4058182864,0.1991754357\H,8.7846435875,3.6852334174,-0.1433
 156938\C,6.9421517832,4.497080503,0.4027832099\H,5.9810540987,4.213359
 5069,-0.0466554137\C,6.7141982795,4.7873108175,1.8992654515\H,7.654190
 8968,5.0807166241,2.3778184526\H,5.9841545619,5.5920801966,2.043728137
 4\H,6.3333028682,3.8824651118,2.3794740473\C,7.5318941082,5.7301786763
 ,-0.3184717889\O,8.7073678814,5.7567072987,-0.6367629974\N,6.574757645
 5,6.6853109058,-0.6055099002\H,5.6523173829,6.3631804057,-0.3384023362
 \C,6.5728478629,8.1586095259,-0.6739550037\H,6.2949385985,8.4465160232
 ,-1.6996527346\C,5.4691555987,8.6657412809,0.2785257258\H,5.7392399509
 ,8.4563295877,1.318930505\H,5.3039529741,9.7407238524,0.1763051535\H,4
 .5174860182,8.1666302023,0.0582334969\C,7.9073447072,8.882386926,-0.36
 85605366\O,8.9229037068,8.3512500596,0.0501114663\N,7.7901367501,10.24
 12414912,-0.4610004468\H,6.9825039659,10.7031179294,-0.864017313\C,8.9
 011869223,11.129336075,-0.1766265503\H,9.3549702389,10.8135230849,0.77
 0552171\C,9.982720757,11.1010778112,-1.2755445204\H,9.5618514317,11.42
 70308724,-2.2324920773\H,10.8209479153,11.7605085507,-1.0233507048\H,1
 0.3605327229,10.081058963,-1.3774459901\C,8.2999000773,12.5376257316,-
 0.0372637716\O,7.2126214118,12.8175116143,-0.5388483913\N,9.0703609043
 ,13.4308918373,0.6363636516\H,9.9380410454,13.1077242437,1.0407251054\
 C,8.6992073061,14.8258090487,0.8098175051\H,7.7438250586,14.9750226926
 ,0.3057783685\H,8.5875650875,15.0742610209,1.8713544762\H,9.4488808034
 ,15.4908139404,0.3661008412\\Version=EM64L-G09RevA.02\State=1-A\HF=-99
 0.4775066\RMSD=4.837e-09\RMSF=2.120e-03\Dipole=0.353735,2.5849393,0.32
 92902\Quadrupole=1.277932,-0.456495,-0.821437,2.0865047,3.134778,8.705
 3993\PG=C01 [X(C12H22N4O4)]\\@


 QUANTUM MECHANICS IS BOHRING -- M.S. GORDON
 Job cpu time:  0 days 13 hours  2 minutes 12.3 seconds.
 File lengths (MBytes):  RWF=    608 Int=      0 D2E=      0 Chk=     11 Scr=      1
 Normal termination of Gaussian 09 at Thu Dec 29 11:36:29 2016.
