 Entering Gaussian System, Link 0=g09
 Initial command:
 /home/steboss/Software/g09/l1.exe /tmp/Gau-14818.inp -scrdir=/tmp/
 Entering Link 1 = /home/steboss/Software/g09/l1.exe PID=     14825.
  
 Copyright (c) 1988,1990,1992,1993,1995,1998,2003,2009, Gaussian, Inc.
                  All Rights Reserved.
  
 This is part of the Gaussian(R) 09 program.  It is based on
 the Gaussian(R) 03 system (copyright 2003, Gaussian, Inc.),
 the Gaussian(R) 98 system (copyright 1998, Gaussian, Inc.),
 the Gaussian(R) 94 system (copyright 1995, Gaussian, Inc.),
 the Gaussian 92(TM) system (copyright 1992, Gaussian, Inc.),
 the Gaussian 90(TM) system (copyright 1990, Gaussian, Inc.),
 the Gaussian 88(TM) system (copyright 1988, Gaussian, Inc.),
 the Gaussian 86(TM) system (copyright 1986, Carnegie Mellon
 University), and the Gaussian 82(TM) system (copyright 1983,
 Carnegie Mellon University). Gaussian is a federally registered
 trademark of Gaussian, Inc.
  
 This software contains proprietary and confidential information,
 including trade secrets, belonging to Gaussian, Inc.
  
 This software is provided under written license and may be
 used, copied, transmitted, or stored only in accord with that
 written license.
  
 The following legend is applicable only to US Government
 contracts under FAR:
  
                    RESTRICTED RIGHTS LEGEND
  
 Use, reproduction and disclosure by the US Government is
 subject to restrictions as set forth in subparagraphs (a)
 and (c) of the Commercial Computer Software - Restricted
 Rights clause in FAR 52.227-19.
  
 Gaussian, Inc.
 340 Quinnipiac St., Bldg. 40, Wallingford CT 06492
  
  
 ---------------------------------------------------------------
 Warning -- This program may not be used in any manner that
 competes with the business of Gaussian, Inc. or will provide
 assistance to any competitor of Gaussian, Inc.  The licensee
 of this program is prohibited from giving any competitor of
 Gaussian, Inc. access to this program.  By using this program,
 the user acknowledges that Gaussian, Inc. is engaged in the
 business of creating and licensing software in the field of
 computational chemistry and represents and warrants to the
 licensee that it is not a competitor of Gaussian, Inc. and that
 it will not use this program in any manner prohibited above.
 ---------------------------------------------------------------
  

 Cite this work as:
 Gaussian 09, Revision A.02,
 M. J. Frisch, G. W. Trucks, H. B. Schlegel, G. E. Scuseria, 
 M. A. Robb, J. R. Cheeseman, G. Scalmani, V. Barone, B. Mennucci, 
 G. A. Petersson, H. Nakatsuji, M. Caricato, X. Li, H. P. Hratchian, 
 A. F. Izmaylov, J. Bloino, G. Zheng, J. L. Sonnenberg, M. Hada, 
 M. Ehara, K. Toyota, R. Fukuda, J. Hasegawa, M. Ishida, T. Nakajima, 
 Y. Honda, O. Kitao, H. Nakai, T. Vreven, J. A. Montgomery, Jr., 
 J. E. Peralta, F. Ogliaro, M. Bearpark, J. J. Heyd, E. Brothers, 
 K. N. Kudin, V. N. Staroverov, R. Kobayashi, J. Normand, 
 K. Raghavachari, A. Rendell, J. C. Burant, S. S. Iyengar, J. Tomasi, 
 M. Cossi, N. Rega, J. M. Millam, M. Klene, J. E. Knox, J. B. Cross, 
 V. Bakken, C. Adamo, J. Jaramillo, R. Gomperts, R. E. Stratmann, 
 O. Yazyev, A. J. Austin, R. Cammi, C. Pomelli, J. W. Ochterski, 
 R. L. Martin, K. Morokuma, V. G. Zakrzewski, G. A. Voth, 
 P. Salvador, J. J. Dannenberg, S. Dapprich, A. D. Daniels, 
 O. Farkas, J. B. Foresman, J. V. Ortiz, J. Cioslowski, 
 and D. J. Fox, Gaussian, Inc., Wallingford CT, 2009.
 
 ******************************************
 Gaussian 09:  EM64L-G09RevA.02 11-Jun-2009
                28-Dec-2016 
 ******************************************
 %chk=structure_30.chk
 ----------------------------------------------------------------------
 # b3lyp/6-31G* Opt=(ModRedundant, maxcycles=1000, calcfc) geom=nocrowd
 ----------------------------------------------------------------------
 1/6=1000,10=4,14=-1,18=120,19=15,26=3,38=1/1,3;
 2/9=110,12=1,17=6,18=5,40=1/2;
 3/5=1,6=6,7=1,11=2,16=1,25=1,30=1,71=2,74=-5/1,2,3;
 4//1;
 5/5=2,38=5/2;
 8/6=4,10=90,11=11/1;
 11/6=1,8=1,9=11,15=111,16=1/1,2,10;
 10/6=1,7=6,13=1/2;
 6/7=2,8=2,9=2,10=2,28=1/1;
 7/10=1,18=20,25=1/1,2,3,16;
 1/6=1000,10=4,14=-1,18=20,19=15/3(2);
 2/9=110,12=1/2;
 99//99;
 2/9=110,12=1/2;
 3/5=1,6=6,7=1,11=2,16=1,25=1,30=1,71=1,74=-5/1,2,3;
 4/5=5,16=3/1;
 5/5=2,38=5/2;
 7//1,2,3,16;
 1/6=1000,14=-1,18=20,19=15/3(-5);
 2/9=110,12=1/2;
 6/7=2,8=2,9=2,10=2,19=2,28=1/1;
 99/9=1/99;
 ------------------
 Phi Psi fixed scan
 ------------------
 Symbolic Z-matrix:
 Charge =  0 Multiplicity = 1
 H                     9.6921    1.        0. 
 C                     9.6921    2.09      0. 
 H                     10.2058   2.4538   -0.8898 
 H                     10.2058   2.4538    0.8898 
 C                     8.2647    2.6408    0. 
 O                     7.3015    1.8774    0. 
 N                     8.1367    3.9696    0. 
 H                     8.959     4.5561    0. 
 C                     6.8388    4.6139    0. 
 H                     6.2845    4.3155   -0.8898 
 C                     6.0308    4.2208    1.2321 
 H                     6.5688    4.5213    2.1312 
 H                     5.0616    4.7189    1.2058 
 H                     5.8836    3.1409    1.2414 
 C                     6.9794    6.1294    0. 
 O                     8.0915    6.6527    0. 
 N                     5.846     6.8349    0. 
 H                     4.9551    6.3592    0. 
 C                     5.8461    8.2839    0. 
 H                     5.3323    8.6477   -0.8898 
 C                     5.1347    8.8329    1.2322 
 H                     5.6431    8.4846    2.1312 
 H                     5.1499    9.9224    1.2058 
 H                     4.1019    8.4846    1.2414 
 C                     7.266     8.8318    0. 
 O                     7.5178    9.9119    0.5295 
 N                     8.1958    8.0825   -0.5969 
 H                     7.94      7.2011   -1.0185 
 C                     9.5836    8.4938   -0.6638 
 H                     9.6567    9.4425   -1.1954 
 C                     10.1717   8.6708    0.7321 
 H                     10.114    7.7266    1.2737 
 H                     11.2139   8.9796    0.6514 
 H                     9.6082    9.4329    1.2704 
 C                     10.4268   7.4597   -1.396 
 O                     9.9117    6.4362   -1.8403 
 N                     11.7283   7.7297   -1.5211 
 H                     12.1056   8.585    -1.1388 
 C                     12.6364   6.8252   -2.197 
 H                     12.0854   5.9542   -2.5517 
 H                     13.0938   7.3352   -3.0449 
 H                     13.4141   6.505    -1.5037 
 
 The following ModRedundant input section has been read:
 D   15   17   19   25 F                                                       
 D   17   19   25   27 F                                                       

 GradGradGradGradGradGradGradGradGradGradGradGradGradGradGradGradGradGrad
 Berny optimization.
 Initialization pass.
                           ----------------------------
                           !    Initial Parameters    !
                           ! (Angstroms and Degrees)  !
 --------------------------                            --------------------------
 ! Name  Definition              Value          Derivative Info.                !
 --------------------------------------------------------------------------------
 ! R1    R(1,2)                  1.09           calculate D2E/DX2 analytically  !
 ! R2    R(2,3)                  1.0899         calculate D2E/DX2 analytically  !
 ! R3    R(2,4)                  1.0899         calculate D2E/DX2 analytically  !
 ! R4    R(2,5)                  1.53           calculate D2E/DX2 analytically  !
 ! R5    R(5,6)                  1.229          calculate D2E/DX2 analytically  !
 ! R6    R(5,7)                  1.335          calculate D2E/DX2 analytically  !
 ! R7    R(7,8)                  1.01           calculate D2E/DX2 analytically  !
 ! R8    R(7,9)                  1.449          calculate D2E/DX2 analytically  !
 ! R9    R(9,10)                 1.09           calculate D2E/DX2 analytically  !
 ! R10   R(9,11)                 1.5249         calculate D2E/DX2 analytically  !
 ! R11   R(9,15)                 1.522          calculate D2E/DX2 analytically  !
 ! R12   R(11,12)                1.09           calculate D2E/DX2 analytically  !
 ! R13   R(11,13)                1.09           calculate D2E/DX2 analytically  !
 ! R14   R(11,14)                1.0899         calculate D2E/DX2 analytically  !
 ! R15   R(15,16)                1.2291         calculate D2E/DX2 analytically  !
 ! R16   R(15,17)                1.335          calculate D2E/DX2 analytically  !
 ! R17   R(16,27)                1.5529         calculate D2E/DX2 analytically  !
 ! R18   R(16,28)                1.1666         calculate D2E/DX2 analytically  !
 ! R19   R(17,18)                1.0099         calculate D2E/DX2 analytically  !
 ! R20   R(17,19)                1.449          calculate D2E/DX2 analytically  !
 ! R21   R(19,20)                1.09           calculate D2E/DX2 analytically  !
 ! R22   R(19,21)                1.5251         calculate D2E/DX2 analytically  !
 ! R23   R(19,25)                1.5219         calculate D2E/DX2 analytically  !
 ! R24   R(21,22)                1.0899         calculate D2E/DX2 analytically  !
 ! R25   R(21,23)                1.0899         calculate D2E/DX2 analytically  !
 ! R26   R(21,24)                1.09           calculate D2E/DX2 analytically  !
 ! R27   R(25,26)                1.229          calculate D2E/DX2 analytically  !
 ! R28   R(25,27)                1.335          calculate D2E/DX2 analytically  !
 ! R29   R(27,28)                1.01           calculate D2E/DX2 analytically  !
 ! R30   R(27,29)                1.449          calculate D2E/DX2 analytically  !
 ! R31   R(29,30)                1.0899         calculate D2E/DX2 analytically  !
 ! R32   R(29,31)                1.525          calculate D2E/DX2 analytically  !
 ! R33   R(29,35)                1.522          calculate D2E/DX2 analytically  !
 ! R34   R(31,32)                1.09           calculate D2E/DX2 analytically  !
 ! R35   R(31,33)                1.09           calculate D2E/DX2 analytically  !
 ! R36   R(31,34)                1.09           calculate D2E/DX2 analytically  !
 ! R37   R(35,36)                1.2289         calculate D2E/DX2 analytically  !
 ! R38   R(35,37)                1.3351         calculate D2E/DX2 analytically  !
 ! R39   R(37,38)                1.01           calculate D2E/DX2 analytically  !
 ! R40   R(37,39)                1.449          calculate D2E/DX2 analytically  !
 ! R41   R(39,40)                1.09           calculate D2E/DX2 analytically  !
 ! R42   R(39,41)                1.0901         calculate D2E/DX2 analytically  !
 ! R43   R(39,42)                1.09           calculate D2E/DX2 analytically  !
 ! A1    A(1,2,3)              109.4982         calculate D2E/DX2 analytically  !
 ! A2    A(1,2,4)              109.4982         calculate D2E/DX2 analytically  !
 ! A3    A(1,2,5)              111.1004         calculate D2E/DX2 analytically  !
 ! A4    A(3,2,4)              109.4463         calculate D2E/DX2 analytically  !
 ! A5    A(3,2,5)              108.6355         calculate D2E/DX2 analytically  !
 ! A6    A(4,2,5)              108.6355         calculate D2E/DX2 analytically  !
 ! A7    A(2,5,6)              120.5004         calculate D2E/DX2 analytically  !
 ! A8    A(2,5,7)              116.6026         calculate D2E/DX2 analytically  !
 ! A9    A(6,5,7)              122.897          calculate D2E/DX2 analytically  !
 ! A10   A(5,7,8)              119.9959         calculate D2E/DX2 analytically  !
 ! A11   A(5,7,9)              121.9028         calculate D2E/DX2 analytically  !
 ! A12   A(8,7,9)              118.1013         calculate D2E/DX2 analytically  !
 ! A13   A(7,9,10)             109.4983         calculate D2E/DX2 analytically  !
 ! A14   A(7,9,11)             111.0986         calculate D2E/DX2 analytically  !
 ! A15   A(7,9,15)             111.1002         calculate D2E/DX2 analytically  !
 ! A16   A(10,9,11)            108.636          calculate D2E/DX2 analytically  !
 ! A17   A(10,9,15)            108.6373         calculate D2E/DX2 analytically  !
 ! A18   A(11,9,15)            107.7957         calculate D2E/DX2 analytically  !
 ! A19   A(9,11,12)            109.5034         calculate D2E/DX2 analytically  !
 ! A20   A(9,11,13)            109.5016         calculate D2E/DX2 analytically  !
 ! A21   A(9,11,14)            109.5033         calculate D2E/DX2 analytically  !
 ! A22   A(12,11,13)           109.4381         calculate D2E/DX2 analytically  !
 ! A23   A(12,11,14)           109.437          calculate D2E/DX2 analytically  !
 ! A24   A(13,11,14)           109.4437         calculate D2E/DX2 analytically  !
 ! A25   A(9,15,16)            120.4998         calculate D2E/DX2 analytically  !
 ! A26   A(9,15,17)            116.6003         calculate D2E/DX2 analytically  !
 ! A27   A(16,15,17)           122.8999         calculate D2E/DX2 analytically  !
 ! A28   A(15,16,27)           116.9229         calculate D2E/DX2 analytically  !
 ! A29   A(15,16,28)            94.7403         calculate D2E/DX2 analytically  !
 ! A30   A(15,17,18)           119.9991         calculate D2E/DX2 analytically  !
 ! A31   A(15,17,19)           121.8968         calculate D2E/DX2 analytically  !
 ! A32   A(18,17,19)           118.1041         calculate D2E/DX2 analytically  !
 ! A33   A(17,19,20)           109.4954         calculate D2E/DX2 analytically  !
 ! A34   A(17,19,21)           111.0974         calculate D2E/DX2 analytically  !
 ! A35   A(17,19,25)           111.1042         calculate D2E/DX2 analytically  !
 ! A36   A(20,19,21)           108.6349         calculate D2E/DX2 analytically  !
 ! A37   A(20,19,25)           108.6399         calculate D2E/DX2 analytically  !
 ! A38   A(21,19,25)           107.7944         calculate D2E/DX2 analytically  !
 ! A39   A(19,21,22)           109.4996         calculate D2E/DX2 analytically  !
 ! A40   A(19,21,23)           109.4977         calculate D2E/DX2 analytically  !
 ! A41   A(19,21,24)           109.4988         calculate D2E/DX2 analytically  !
 ! A42   A(22,21,23)           109.4452         calculate D2E/DX2 analytically  !
 ! A43   A(22,21,24)           109.4447         calculate D2E/DX2 analytically  !
 ! A44   A(23,21,24)           109.4412         calculate D2E/DX2 analytically  !
 ! A45   A(19,25,26)           120.5            calculate D2E/DX2 analytically  !
 ! A46   A(19,25,27)           116.5974         calculate D2E/DX2 analytically  !
 ! A47   A(26,25,27)           122.9027         calculate D2E/DX2 analytically  !
 ! A48   A(16,27,25)           107.3457         calculate D2E/DX2 analytically  !
 ! A49   A(16,27,29)           110.0855         calculate D2E/DX2 analytically  !
 ! A50   A(25,27,28)           120.0038         calculate D2E/DX2 analytically  !
 ! A51   A(25,27,29)           121.8959         calculate D2E/DX2 analytically  !
 ! A52   A(28,27,29)           118.1003         calculate D2E/DX2 analytically  !
 ! A53   A(27,29,30)           109.5007         calculate D2E/DX2 analytically  !
 ! A54   A(27,29,31)           111.1017         calculate D2E/DX2 analytically  !
 ! A55   A(27,29,35)           111.0978         calculate D2E/DX2 analytically  !
 ! A56   A(30,29,31)           108.6355         calculate D2E/DX2 analytically  !
 ! A57   A(30,29,35)           108.6386         calculate D2E/DX2 analytically  !
 ! A58   A(31,29,35)           107.7917         calculate D2E/DX2 analytically  !
 ! A59   A(29,31,32)           109.5023         calculate D2E/DX2 analytically  !
 ! A60   A(29,31,33)           109.502          calculate D2E/DX2 analytically  !
 ! A61   A(29,31,34)           109.501          calculate D2E/DX2 analytically  !
 ! A62   A(32,31,33)           109.4392         calculate D2E/DX2 analytically  !
 ! A63   A(32,31,34)           109.4443         calculate D2E/DX2 analytically  !
 ! A64   A(33,31,34)           109.4385         calculate D2E/DX2 analytically  !
 ! A65   A(29,35,36)           120.5025         calculate D2E/DX2 analytically  !
 ! A66   A(29,35,37)           116.5992         calculate D2E/DX2 analytically  !
 ! A67   A(36,35,37)           122.8984         calculate D2E/DX2 analytically  !
 ! A68   A(35,37,38)           119.9981         calculate D2E/DX2 analytically  !
 ! A69   A(35,37,39)           121.8981         calculate D2E/DX2 analytically  !
 ! A70   A(38,37,39)           118.1038         calculate D2E/DX2 analytically  !
 ! A71   A(37,39,40)           109.4996         calculate D2E/DX2 analytically  !
 ! A72   A(37,39,41)           109.4967         calculate D2E/DX2 analytically  !
 ! A73   A(37,39,42)           109.5019         calculate D2E/DX2 analytically  !
 ! A74   A(40,39,41)           109.4424         calculate D2E/DX2 analytically  !
 ! A75   A(40,39,42)           109.4467         calculate D2E/DX2 analytically  !
 ! A76   A(41,39,42)           109.4399         calculate D2E/DX2 analytically  !
 ! D1    D(1,2,5,6)              0.0            calculate D2E/DX2 analytically  !
 ! D2    D(1,2,5,7)            180.0            calculate D2E/DX2 analytically  !
 ! D3    D(3,2,5,6)            120.51           calculate D2E/DX2 analytically  !
 ! D4    D(3,2,5,7)            -59.49           calculate D2E/DX2 analytically  !
 ! D5    D(4,2,5,6)           -120.51           calculate D2E/DX2 analytically  !
 ! D6    D(4,2,5,7)             59.49           calculate D2E/DX2 analytically  !
 ! D7    D(2,5,7,8)              0.0            calculate D2E/DX2 analytically  !
 ! D8    D(2,5,7,9)            180.0            calculate D2E/DX2 analytically  !
 ! D9    D(6,5,7,8)            180.0            calculate D2E/DX2 analytically  !
 ! D10   D(6,5,7,9)              0.0            calculate D2E/DX2 analytically  !
 ! D11   D(5,7,9,10)           -59.9991         calculate D2E/DX2 analytically  !
 ! D12   D(5,7,9,11)            59.9992         calculate D2E/DX2 analytically  !
 ! D13   D(5,7,9,15)           180.0            calculate D2E/DX2 analytically  !
 ! D14   D(8,7,9,10)           120.0009         calculate D2E/DX2 analytically  !
 ! D15   D(8,7,9,11)          -120.0008         calculate D2E/DX2 analytically  !
 ! D16   D(8,7,9,15)             0.0            calculate D2E/DX2 analytically  !
 ! D17   D(7,9,11,12)           60.0014         calculate D2E/DX2 analytically  !
 ! D18   D(7,9,11,13)          179.9992         calculate D2E/DX2 analytically  !
 ! D19   D(7,9,11,14)          -59.9962         calculate D2E/DX2 analytically  !
 ! D20   D(10,9,11,12)        -179.4894         calculate D2E/DX2 analytically  !
 ! D21   D(10,9,11,13)         -59.4916         calculate D2E/DX2 analytically  !
 ! D22   D(10,9,11,14)          60.5131         calculate D2E/DX2 analytically  !
 ! D23   D(15,9,11,12)         -61.9437         calculate D2E/DX2 analytically  !
 ! D24   D(15,9,11,13)          58.0541         calculate D2E/DX2 analytically  !
 ! D25   D(15,9,11,14)         178.0588         calculate D2E/DX2 analytically  !
 ! D26   D(7,9,15,16)            0.0            calculate D2E/DX2 analytically  !
 ! D27   D(7,9,15,17)          180.0            calculate D2E/DX2 analytically  !
 ! D28   D(10,9,15,16)        -120.5111         calculate D2E/DX2 analytically  !
 ! D29   D(10,9,15,17)          59.4889         calculate D2E/DX2 analytically  !
 ! D30   D(11,9,15,16)         121.9441         calculate D2E/DX2 analytically  !
 ! D31   D(11,9,15,17)         -58.0559         calculate D2E/DX2 analytically  !
 ! D32   D(9,15,16,27)         154.4625         calculate D2E/DX2 analytically  !
 ! D33   D(9,15,16,28)         118.8341         calculate D2E/DX2 analytically  !
 ! D34   D(17,15,16,27)        -25.5375         calculate D2E/DX2 analytically  !
 ! D35   D(17,15,16,28)        -61.1659         calculate D2E/DX2 analytically  !
 ! D36   D(9,15,17,18)           0.0            calculate D2E/DX2 analytically  !
 ! D37   D(9,15,17,19)         180.0            calculate D2E/DX2 analytically  !
 ! D38   D(16,15,17,18)        180.0            calculate D2E/DX2 analytically  !
 ! D39   D(16,15,17,19)          0.0            calculate D2E/DX2 analytically  !
 ! D40   D(15,16,27,25)         51.8082         calculate D2E/DX2 analytically  !
 ! D41   D(15,16,27,29)       -173.4745         calculate D2E/DX2 analytically  !
 ! D42   D(15,17,19,20)        120.0048         calculate D2E/DX2 analytically  !
 ! D43   D(15,17,19,21)       -120.0009         calculate D2E/DX2 analytically  !
 ! D44   D(15,17,19,25)          0.0            frozen, calculate D2E/DX2 analyt!
 ! D45   D(18,17,19,20)        -59.9952         calculate D2E/DX2 analytically  !
 ! D46   D(18,17,19,21)         59.9991         calculate D2E/DX2 analytically  !
 ! D47   D(18,17,19,25)        180.0            calculate D2E/DX2 analytically  !
 ! D48   D(17,19,21,22)         60.0039         calculate D2E/DX2 analytically  !
 ! D49   D(17,19,21,23)       -179.9943         calculate D2E/DX2 analytically  !
 ! D50   D(17,19,21,24)        -59.998          calculate D2E/DX2 analytically  !
 ! D51   D(20,19,21,22)       -179.4919         calculate D2E/DX2 analytically  !
 ! D52   D(20,19,21,23)        -59.4901         calculate D2E/DX2 analytically  !
 ! D53   D(20,19,21,24)         60.5062         calculate D2E/DX2 analytically  !
 ! D54   D(25,19,21,22)        -61.9445         calculate D2E/DX2 analytically  !
 ! D55   D(25,19,21,23)         58.0573         calculate D2E/DX2 analytically  !
 ! D56   D(25,19,21,24)        178.0536         calculate D2E/DX2 analytically  !
 ! D57   D(17,19,25,26)       -149.9976         calculate D2E/DX2 analytically  !
 ! D58   D(17,19,25,27)         30.0017         frozen, calculate D2E/DX2 analyt!
 ! D59   D(20,19,25,26)         89.4907         calculate D2E/DX2 analytically  !
 ! D60   D(20,19,25,27)        -90.5099         calculate D2E/DX2 analytically  !
 ! D61   D(21,19,25,26)        -28.0535         calculate D2E/DX2 analytically  !
 ! D62   D(21,19,25,27)        151.9459         calculate D2E/DX2 analytically  !
 ! D63   D(19,25,27,16)        -51.8181         calculate D2E/DX2 analytically  !
 ! D64   D(19,25,27,28)         -0.0011         calculate D2E/DX2 analytically  !
 ! D65   D(19,25,27,29)       -179.9996         calculate D2E/DX2 analytically  !
 ! D66   D(26,25,27,16)        128.1812         calculate D2E/DX2 analytically  !
 ! D67   D(26,25,27,28)        179.9982         calculate D2E/DX2 analytically  !
 ! D68   D(26,25,27,29)         -0.0002         calculate D2E/DX2 analytically  !
 ! D69   D(16,27,29,30)        173.0235         calculate D2E/DX2 analytically  !
 ! D70   D(16,27,29,31)        -66.9753         calculate D2E/DX2 analytically  !
 ! D71   D(16,27,29,35)         53.0209         calculate D2E/DX2 analytically  !
 ! D72   D(25,27,29,30)        -60.0016         calculate D2E/DX2 analytically  !
 ! D73   D(25,27,29,31)         59.9997         calculate D2E/DX2 analytically  !
 ! D74   D(25,27,29,35)        179.9959         calculate D2E/DX2 analytically  !
 ! D75   D(28,27,29,30)        120.0            calculate D2E/DX2 analytically  !
 ! D76   D(28,27,29,31)       -119.9988         calculate D2E/DX2 analytically  !
 ! D77   D(28,27,29,35)         -0.0026         calculate D2E/DX2 analytically  !
 ! D78   D(27,29,31,32)         60.0004         calculate D2E/DX2 analytically  !
 ! D79   D(27,29,31,33)        179.9991         calculate D2E/DX2 analytically  !
 ! D80   D(27,29,31,34)        -60.0039         calculate D2E/DX2 analytically  !
 ! D81   D(30,29,31,32)       -179.4857         calculate D2E/DX2 analytically  !
 ! D82   D(30,29,31,33)        -59.487          calculate D2E/DX2 analytically  !
 ! D83   D(30,29,31,34)         60.51           calculate D2E/DX2 analytically  !
 ! D84   D(35,29,31,32)        -61.941          calculate D2E/DX2 analytically  !
 ! D85   D(35,29,31,33)         58.0577         calculate D2E/DX2 analytically  !
 ! D86   D(35,29,31,34)        178.0547         calculate D2E/DX2 analytically  !
 ! D87   D(27,29,35,36)          0.0048         calculate D2E/DX2 analytically  !
 ! D88   D(27,29,35,37)        179.9987         calculate D2E/DX2 analytically  !
 ! D89   D(30,29,35,36)       -120.5087         calculate D2E/DX2 analytically  !
 ! D90   D(30,29,35,37)         59.4852         calculate D2E/DX2 analytically  !
 ! D91   D(31,29,35,36)        121.9486         calculate D2E/DX2 analytically  !
 ! D92   D(31,29,35,37)        -58.0575         calculate D2E/DX2 analytically  !
 ! D93   D(29,35,37,38)          0.0044         calculate D2E/DX2 analytically  !
 ! D94   D(29,35,37,39)       -179.9996         calculate D2E/DX2 analytically  !
 ! D95   D(36,35,37,38)        179.9981         calculate D2E/DX2 analytically  !
 ! D96   D(36,35,37,39)         -0.0059         calculate D2E/DX2 analytically  !
 ! D97   D(35,37,39,40)          0.0057         calculate D2E/DX2 analytically  !
 ! D98   D(35,37,39,41)        120.0034         calculate D2E/DX2 analytically  !
 ! D99   D(35,37,39,42)       -120.0005         calculate D2E/DX2 analytically  !
 ! D100  D(38,37,39,40)       -179.9982         calculate D2E/DX2 analytically  !
 ! D101  D(38,37,39,41)        -60.0005         calculate D2E/DX2 analytically  !
 ! D102  D(38,37,39,42)         59.9956         calculate D2E/DX2 analytically  !
 --------------------------------------------------------------------------------
 Trust Radius=3.00D-01 FncErr=1.00D-07 GrdErr=1.00D-06
 Number of steps in this run= 252 maximum allowed number of steps= 252.
 GradGradGradGradGradGradGradGradGradGradGradGradGradGradGradGradGradGrad

                          Input orientation:                          
 ---------------------------------------------------------------------
 Center     Atomic      Atomic             Coordinates (Angstroms)
 Number     Number       Type             X           Y           Z
 ---------------------------------------------------------------------
      1          1           0        9.692100    1.000000    0.000000
      2          6           0        9.692100    2.090000    0.000000
      3          1           0       10.205800    2.453800   -0.889800
      4          1           0       10.205800    2.453800    0.889800
      5          6           0        8.264700    2.640800    0.000000
      6          8           0        7.301500    1.877400    0.000000
      7          7           0        8.136700    3.969600    0.000000
      8          1           0        8.959000    4.556100    0.000000
      9          6           0        6.838800    4.613900    0.000000
     10          1           0        6.284500    4.315500   -0.889800
     11          6           0        6.030800    4.220800    1.232100
     12          1           0        6.568800    4.521300    2.131200
     13          1           0        5.061600    4.718900    1.205800
     14          1           0        5.883600    3.140900    1.241400
     15          6           0        6.979400    6.129400    0.000000
     16          8           0        8.091500    6.652700    0.000000
     17          7           0        5.846000    6.834900    0.000000
     18          1           0        4.955100    6.359200    0.000000
     19          6           0        5.846100    8.283900    0.000000
     20          1           0        5.332300    8.647700   -0.889800
     21          6           0        5.134700    8.832900    1.232200
     22          1           0        5.643100    8.484600    2.131200
     23          1           0        5.149900    9.922400    1.205800
     24          1           0        4.101900    8.484600    1.241400
     25          6           0        7.266000    8.831800    0.000000
     26          8           0        7.517800    9.911900    0.529500
     27          7           0        8.195800    8.082500   -0.596900
     28          1           0        7.940000    7.201100   -1.018500
     29          6           0        9.583600    8.493800   -0.663800
     30          1           0        9.656700    9.442500   -1.195400
     31          6           0       10.171700    8.670800    0.732100
     32          1           0       10.114000    7.726600    1.273700
     33          1           0       11.213900    8.979600    0.651400
     34          1           0        9.608200    9.432900    1.270400
     35          6           0       10.426800    7.459700   -1.396000
     36          8           0        9.911700    6.436200   -1.840300
     37          7           0       11.728300    7.729700   -1.521100
     38          1           0       12.105600    8.585000   -1.138800
     39          6           0       12.636400    6.825200   -2.197000
     40          1           0       12.085400    5.954200   -2.551700
     41          1           0       13.093800    7.335200   -3.044900
     42          1           0       13.414100    6.505000   -1.503700
 ---------------------------------------------------------------------
                    Distance matrix (angstroms):
                    1          2          3          4          5
     1  H    0.000000
     2  C    1.090000   0.000000
     3  H    1.780215   1.089946   0.000000
     4  H    1.780215   1.089946   1.779600   0.000000
     5  C    2.174786   1.529984   2.143498   2.143498   0.000000
     6  O    2.546527   2.400035   3.091753   3.091753   1.229038
     7  N    3.352282   2.439706   2.714879   2.714879   1.334951
     8  H    3.630879   2.572758   2.601138   2.601138   2.037260
     9  C    4.604519   3.809382   4.098105   4.098105   2.434402
    10  H    4.836943   4.166093   4.340797   4.691428   2.741816
    11  C    5.029587   4.411745   5.005534   4.546436   3.000796
    12  H    5.166872   4.495357   5.160307   4.363874   3.309739
    13  H    6.060173   5.459542   5.998751   5.629683   4.004036
    14  H    4.541938   4.141272   4.867806   4.390574   2.731449
    15  C    5.802541   4.865747   4.971060   4.971060   3.717839
    16  O    5.874942   4.835303   4.784639   4.784639   4.015637
    17  N    6.988458   6.107910   6.244489   6.244489   4.841548
    18  H    7.152635   6.376930   6.604070   6.604070   4.977946
    19  C    8.236924   7.290824   7.334084   7.334084   6.139561
    20  H    8.847989   7.924836   7.881332   8.079751   6.743409
    21  C    9.145629   8.231337   8.420918   8.156360   7.046795
    22  H    8.772437   7.863035   8.143416   7.663541   6.750170
    23  H   10.084382   9.134113   9.259247   9.024520   8.011094
    24  H    9.423940   8.583841   8.841389   8.587885   7.281482
    25  C    8.198967   7.165042   7.079057   7.079057   6.271035
    26  O    9.188575   8.135728   8.053758   7.935894   7.328515
    27  N    7.263402   6.205261   5.983991   6.158948   5.474773
    28  H    6.523867   5.498231   5.261869   5.595741   4.683920
    29  C    7.523925   6.439026   6.076167   6.267568   6.036368
    30  H    8.526784   7.449127   7.016896   7.313788   7.044840
    31  C    7.720567   6.638743   6.425170   6.219093   6.366594
    32  H    6.859115   5.794098   5.700139   5.287554   5.559459
    33  H    8.149492   7.085675   6.780681   6.607508   7.021573
    34  H    8.528467   7.452458   7.330172   7.014971   7.039285
    35  C    6.649536   5.596631   5.036280   5.507518   5.463084
    36  O    5.743448   4.724869   4.104809   4.837298   4.528176
    37  N    7.193658   6.185958   5.527356   5.997130   6.340913
    38  H    8.040776   7.021885   6.423617   6.731721   7.168186
    39  C    6.886847   5.993149   5.169693   5.877524   6.437995
    40  H    6.064912   5.212590   4.306693   5.256388   5.664587
    41  H    7.808824   6.953783   6.067377   6.902932   7.391144
    42  H    6.813180   5.967129   5.204064   5.695108   6.611314
                    6          7          8          9         10
     6  O    0.000000
     7  N    2.252745   0.000000
     8  H    3.150038   1.010029   0.000000
     9  C    2.775342   1.449023   2.120988   0.000000
    10  H    2.787537   2.083755   2.828884   1.089970   0.000000
    11  C    2.936711   2.452751   3.194503   1.524947   2.139110
    12  H    3.474057   2.702720   3.202543   2.150230   3.041319
    13  H    3.813821   3.386982   4.082914   2.150214   2.459625
    14  H    2.268909   2.702643   3.605822   2.150165   2.466256
    15  C    4.264183   2.450322   2.528654   1.522008   2.136554
    16  O    4.840206   2.683481   2.268984   2.392898   3.085368
    17  N    5.166748   3.668413   3.857940   2.432795   2.707656
    18  H    5.058866   3.979041   4.391171   2.567956   2.595334
    19  C    6.569736   4.884673   4.856608   3.801888   4.090494
    20  H    7.106789   5.526393   5.539484   4.396911   4.435611
    21  C    7.388662   5.846538   5.868101   4.714047   5.121702
    22  H    7.137744   5.580796   5.565098   4.577557   5.188374
    23  H    8.414592   6.768364   6.690319   5.699694   6.092305
    24  H    7.445375   6.181093   6.369113   4.900410   5.165961
    25  C    6.954491   4.939545   4.598680   4.239479   4.706597
    26  O    8.054834   5.997861   5.571537   5.367515   5.903824
    27  N    6.297565   4.156408   3.657084   3.772125   4.234282
    28  H    5.457729   3.393910   3.011931   2.990583   3.329254
    29  C    7.030317   4.796096   4.041811   4.798769   5.328539
    30  H    8.012907   5.804482   5.078649   5.717073   6.144205
    31  C    7.411093   5.174792   4.351709   5.301191   6.058838
    32  H    6.614046   4.432502   3.606717   4.694481   5.566094
    33  H    8.134644   5.915537   5.007619   6.214914   6.959031
    34  H    8.001272   5.798868   5.081196   5.701426   6.473116
    35  C    6.548159   4.401610   3.540360   4.787602   5.225025
    36  O    5.566193   3.552667   2.798056   4.018731   4.307830
    37  N    7.493979   5.417720   4.478226   5.994094   6.456799
    38  H    8.328754   6.192814   5.237365   6.693705   7.223284
    39  C    7.600572   5.764422   4.847566   6.582463   6.953704
    40  H    6.783596   5.103140   4.270859   5.986183   6.252815
    41  H    8.521135   6.720976   5.838783   7.470068   7.754329
    42  H    7.812789   6.044859   5.089916   7.005137   7.483447
                   11         12         13         14         15
    11  C    0.000000
    12  H    1.090011   0.000000
    13  H    1.090020   1.779624   0.000000
    14  H    1.089926   1.779536   1.779617   0.000000
    15  C    2.461842   2.701220   2.668599   3.416575   0.000000
    16  O    3.417410   3.376906   3.791283   4.329969   1.229068
    17  N    2.895814   3.227568   2.558651   3.897194   1.335038
    18  H    2.692203   3.244059   2.038598   3.572204   2.037302
    19  C    4.249820   4.384229   3.844297   5.290834   2.434387
    20  H    4.958609   5.261421   4.460974   5.930497   3.137916
    21  C    4.698347   4.631926   4.114734   5.741063   3.497163
    22  H    4.374778   4.069971   3.921097   5.422611   3.445965
    23  H    5.769308   5.660523   5.204249   6.821167   4.380396
    24  H    4.679822   4.752377   3.886231   5.632902   3.920210
    25  C    4.930021   4.858859   4.819676   5.986522   2.717555
    26  O    5.923971   5.703035   5.784250   7.001704   3.857143
    27  N    4.790114   4.771981   4.938293   5.757172   2.377082
    28  H    4.194333   4.356848   4.403864   5.081452   1.763132
    29  C    5.871572   5.716800   6.180110   6.780363   3.579508
    30  H    6.804855   6.694744   7.013779   7.738504   4.424200
    31  C    6.099144   5.670690   6.477270   7.016194   4.145535
    32  H    5.381904   4.855687   5.880273   6.239068   3.741534
    33  H    7.060306   6.606300   7.504113   7.927838   5.145770
    34  H    6.321807   5.839755   6.549621   7.311823   4.408811
    35  C    6.059884   5.996624   6.562524   6.800631   3.950074
    36  O    5.423009   5.533049   5.979240   6.048261   3.475516
    37  N    7.235606   7.088975   7.806778   7.927737   5.237056
    38  H    7.846694   7.606754   8.370294   8.603305   5.796962
    39  C    7.885149   7.801092   8.566980   8.425970   6.108404
    40  H    7.347108   7.376695   8.060927   7.795164   5.710788
    41  H    8.824862   8.791227   9.456728   9.378246   6.936228
    42  H    8.198493   8.000356   8.960792   8.692593   6.618727
                   16         17         18         19         20
    16  O    0.000000
    17  N    2.252880   0.000000
    18  H    3.150103   1.009947   0.000000
    19  C    2.775362   1.449000   2.120932   0.000000
    20  H    3.519226   2.083717   2.484201   1.089993   0.000000
    21  C    3.874823   2.452808   2.769434   1.525060   2.139212
    22  H    3.727269   2.702719   3.087504   2.150233   3.041322
    23  H    4.560472   3.386911   3.766735   2.150193   2.459608
    24  H    4.562219   2.702678   2.605062   2.150253   2.466272
    25  C    2.330220   2.450308   3.384377   1.521943   2.136547
    26  O    3.351401   3.541640   4.412423   2.392767   2.896381
    27  N    1.552899   2.726601   3.718627   2.432682   2.933407
    28  H    1.166635   2.357176   3.264317   2.567920   2.984847
    29  C    2.461025   4.142733   5.140054   3.801788   4.260084
    30  H    3.414940   4.769695   5.748109   4.158366   4.407441
    31  C    2.989303   4.755857   5.752598   4.404143   5.104007
    32  H    2.620320   4.542385   5.486925   4.488637   5.328584
    33  H    3.948185   5.817079   6.816406   5.451752   6.089226
    34  H    3.412302   4.745279   5.719518   4.133705   4.854516
    35  C    2.837903   4.829381   5.753209   4.859108   5.255617
    36  O    2.597442   4.480578   5.287770   4.830093   5.173499
    37  N    4.086562   6.141324   7.075892   6.100915   6.492309
    38  H    4.598222   6.598660   7.575005   6.369369   6.778165
    39  C    5.051008   7.136977   8.002895   7.284421   7.640691
    40  H    4.790648   6.798303   7.583955   7.132148   7.457963
    41  H    5.895780   7.877330   8.744280   7.918371   8.161372
    42  H    5.532902   7.723088   8.592849   7.918347   8.383527
                   21         22         23         24         25
    21  C    0.000000
    22  H    1.089947   0.000000
    23  H    1.089926   1.779573   0.000000
    24  H    1.089988   1.779618   1.779562   0.000000
    25  C    2.461861   2.701179   2.668565   3.416599   0.000000
    26  O    2.708726   2.849057   2.462609   3.769928   1.228979
    27  N    3.644042   3.757724   3.989043   4.505668   1.335016
    28  H    3.949447   4.104112   4.487498   4.635249   2.037351
    29  C    4.847939   4.831113   5.019362   5.803353   2.434367
    30  H    5.168495   5.300266   5.129065   6.140958   2.741784
    31  C    5.064360   4.743455   5.197054   6.093975   3.000831
    32  H    5.100887   4.615064   5.428484   6.059782   3.309816
    33  H    6.108643   5.785209   6.161844   7.153577   4.004008
    34  H    4.513719   4.166805   4.485557   5.587437   2.731508
    35  C    6.066254   6.031198   6.378082   6.928972   3.717813
    36  O    6.164751   6.179782   6.641314   6.888149   4.015636
    37  N    7.230026   7.137144   7.451125   8.146365   4.841538
    38  H    7.367262   7.243403   7.461069   8.350727   4.977902
    39  C    8.489156   8.390064   8.787456   9.349540   6.139581
    40  H    8.421226   8.356776   8.829869   9.193846   6.165904
    41  H    9.158819   9.144729   9.373772  10.027350   6.743477
    42  H    9.025117   8.804530   9.344357   9.908151   6.743459
                   26         27         28         29         30
    26  O    0.000000
    27  N    2.252813   0.000000
    28  H    3.150078   1.009973   0.000000
    29  C    2.775338   1.449011   2.120921   0.000000
    30  H    2.787563   2.083754   2.828821   1.089942   0.000000
    31  C    2.936760   2.452859   3.194543   1.525034   2.139159
    32  H    3.474136   2.702832   3.202594   2.150308   3.041363
    33  H    3.813817   3.387030   4.082897   2.150263   2.459638
    34  H    2.268953   2.702825   3.605951   2.150266   2.466296
    35  C    4.264167   2.450266   2.528548   1.521994   2.136537
    36  O    4.840165   2.683405   2.268927   2.392806   3.085249
    37  N    5.166746   3.668402   3.857880   2.432807   2.707636
    38  H    5.058834   3.979032   4.391113   2.567962   2.595308
    39  C    6.569748   4.884675   4.856577   3.801910   4.090486
    40  H    6.783815   4.845605   4.592364   4.033948   4.461656
    41  H    7.106862   5.526442   5.539489   4.396987   4.435653
    42  H    7.106843   5.526432   5.539472   4.396986   4.779332
                   31         32         33         34         35
    31  C    0.000000
    32  H    1.090034   0.000000
    33  H    1.089977   1.779620   0.000000
    34  H    1.089998   1.779692   1.779583   0.000000
    35  C    2.461839   2.701181   2.668608   3.416623   0.000000
    36  O    3.417350   3.376841   3.791197   4.329986   1.228936
    37  N    2.895787   3.227519   2.558635   3.897202   1.335085
    38  H    2.692136   3.243991   2.038542   3.572140   2.037356
    39  C    4.249778   4.384151   3.844259   5.290837   2.434445
    40  H    4.671778   4.654192   4.491370   5.731171   2.520541
    41  H    4.958652   5.261436   4.461021   5.930562   3.138034
    42  H    4.494736   4.482959   3.950820   5.545548   3.137995
                   36         37         38         39         40
    36  O    0.000000
    37  N    2.252791   0.000000
    38  H    3.150022   1.009974   0.000000
    39  C    2.775346   1.449002   2.120951   0.000000
    40  H    2.337389   2.083760   2.986269   1.089979   0.000000
    41  H    3.519236   2.083791   2.484302   1.090068   1.779685
    42  H    3.519210   2.083774   2.484296   1.089959   1.779643
                   41         42
    41  H    0.000000
    42  H    1.779641   0.000000
 Stoichiometry    C12H22N4O4
 Framework group  C1[X(C12H22N4O4)]
 Deg. of freedom   120
 Full point group                 C1      NOp   1
 Largest Abelian subgroup         C1      NOp   1
 Largest concise Abelian subgroup C1      NOp   1
                         Standard orientation:                         
 ---------------------------------------------------------------------
 Center     Atomic      Atomic             Coordinates (Angstroms)
 Number     Number       Type             X           Y           Z
 ---------------------------------------------------------------------
      1          1           0        5.020498    2.386114    0.614804
      2          6           0        3.957358    2.145887    0.625954
      3          1           0        3.421733    2.835350   -0.026524
      4          1           0        3.574501    2.236727    1.642394
      5          6           0        3.710241    0.717605    0.136264
      6          8           0        4.650593    0.003971   -0.205786
      7          7           0        2.440201    0.307555    0.105440
      8          1           0        1.701026    0.931172    0.396787
      9          6           0        2.075567   -1.022766   -0.338355
     10          1           0        2.402888   -1.165192   -1.368215
     11          6           0        2.728970   -2.090369    0.532708
     12          1           0        2.403712   -1.966458    1.565655
     13          1           0        2.437870   -3.078674    0.176816
     14          1           0        3.812974   -1.990269    0.479303
     15          6           0        0.568836   -1.228040   -0.274063
     16          8           0       -0.167595   -0.325162    0.117201
     17          7           0        0.111078   -2.421238   -0.660148
     18          1           0        0.756125   -3.132082   -0.974167
     19          6           0       -1.302236   -2.740494   -0.645291
     20          1           0       -1.629029   -2.991782   -1.654323
     21          6           0       -1.587343   -3.927317    0.269025
     22          1           0       -1.273781   -3.687483    1.284969
     23          1           0       -2.655351   -4.144636    0.260686
     24          1           0       -1.036926   -4.799254   -0.084304
     25          6           0       -2.125220   -1.561223   -0.146965
     26          8           0       -3.184426   -1.746841    0.448029
     27          7           0       -1.634601   -0.343997   -0.391755
     28          1           0       -0.759122   -0.242130   -0.884916
     29          6           0       -2.323570    0.858493    0.031295
     30          1           0       -3.309383    0.895156   -0.432171
     31          6           0       -2.495906    0.888378    1.546265
     32          1           0       -1.516752    0.861459    2.024499
     33          1           0       -3.015844    1.801678    1.835398
     34          1           0       -3.078488    0.023418    1.863341
     35          6           0       -1.549182    2.104710   -0.373344
     36          8           0       -0.484353    2.008122   -0.979226
     37          7           0       -2.087789    3.278904   -0.036267
     38          1           0       -2.965878    3.307251    0.461933
     39          6           0       -1.448165    4.537041   -0.364261
     40          1           0       -0.517090    4.343835   -0.897013
     41          1           0       -2.111349    5.128642   -0.995486
     42          1           0       -1.234402    5.086439    0.552515
 ---------------------------------------------------------------------
 Rotational constants (GHZ):      0.3555864      0.2902614      0.1710725
 Standard basis: 6-31G(d) (6D, 7F)
 There are   344 symmetry adapted basis functions of A   symmetry.
 Integral buffers will be    131072 words long.
 Raffenetti 2 integral format.
 Two-electron integral symmetry is turned on.
   344 basis functions,   648 primitive gaussians,   344 cartesian basis functions
    77 alpha electrons       77 beta electrons
       nuclear repulsion energy      1755.4651738844 Hartrees.
 NAtoms=   42 NActive=   42 NUniq=   42 SFac= 7.50D-01 NAtFMM=   80 NAOKFM=F Big=F
 One-electron integrals computed using PRISM.
 NBasis=   344 RedAO= T  NBF=   344
 NBsUse=   344 1.00D-06 NBFU=   344
 Harris functional with IExCor=  402 diagonalized for initial guess.
 ExpMin= 1.61D-01 ExpMax= 5.48D+03 ExpMxC= 8.25D+02 IAcc=1 IRadAn=         1 AccDes= 0.00D+00
 HarFok:  IExCor=  402 AccDes= 0.00D+00 IRadAn=         1 IDoV= 1
 ScaDFX=  1.000000  1.000000  1.000000  1.000000
 FoFCou: FMM=F IPFlag=           0 FMFlag=      100000 FMFlg1=           0
         NFxFlg=           0 DoJE=T BraDBF=F KetDBF=T FulRan=T
         Omega=  0.000000  0.000000  1.000000  0.000000  0.000000 ICntrl=     500 IOpCl=  0
         NMat0=    1 NMatS0=    1 NMatT0=    0 NMatD0=    1 NMtDS0=    0 NMtDT0=    0
         I1Cent=           4 NGrid=           0.
 Petite list used in FoFCou.
 Initial guess orbital symmetries:
       Occupied  (A) (A) (A) (A) (A) (A) (A) (A) (A) (A) (A) (A)
                 (A) (A) (A) (A) (A) (A) (A) (A) (A) (A) (A) (A)
                 (A) (A) (A) (A) (A) (A) (A) (A) (A) (A) (A) (A)
                 (A) (A) (A) (A) (A) (A) (A) (A) (A) (A) (A) (A)
                 (A) (A) (A) (A) (A) (A) (A) (A) (A) (A) (A) (A)
                 (A) (A) (A) (A) (A) (A) (A) (A) (A) (A) (A) (A)
                 (A) (A) (A) (A) (A)
       Virtual   (A) (A) (A) (A) (A) (A) (A) (A) (A) (A) (A) (A)
                 (A) (A) (A) (A) (A) (A) (A) (A) (A) (A) (A) (A)
                 (A) (A) (A) (A) (A) (A) (A) (A) (A) (A) (A) (A)
                 (A) (A) (A) (A) (A) (A) (A) (A) (A) (A) (A) (A)
                 (A) (A) (A) (A) (A) (A) (A) (A) (A) (A) (A) (A)
                 (A) (A) (A) (A) (A) (A) (A) (A) (A) (A) (A) (A)
                 (A) (A) (A) (A) (A) (A) (A) (A) (A) (A) (A) (A)
                 (A) (A) (A) (A) (A) (A) (A) (A) (A) (A) (A) (A)
                 (A) (A) (A) (A) (A) (A) (A) (A) (A) (A) (A) (A)
                 (A) (A) (A) (A) (A) (A) (A) (A) (A) (A) (A) (A)
                 (A) (A) (A) (A) (A) (A) (A) (A) (A) (A) (A) (A)
                 (A) (A) (A) (A) (A) (A) (A) (A) (A) (A) (A) (A)
                 (A) (A) (A) (A) (A) (A) (A) (A) (A) (A) (A) (A)
                 (A) (A) (A) (A) (A) (A) (A) (A) (A) (A) (A) (A)
                 (A) (A) (A) (A) (A) (A) (A) (A) (A) (A) (A) (A)
                 (A) (A) (A) (A) (A) (A) (A) (A) (A) (A) (A) (A)
                 (A) (A) (A) (A) (A) (A) (A) (A) (A) (A) (A) (A)
                 (A) (A) (A) (A) (A) (A) (A) (A) (A) (A) (A) (A)
                 (A) (A) (A) (A) (A) (A) (A) (A) (A) (A) (A) (A)
                 (A) (A) (A) (A) (A) (A) (A) (A) (A) (A) (A) (A)
                 (A) (A) (A) (A) (A) (A) (A) (A) (A) (A) (A) (A)
                 (A) (A) (A) (A) (A) (A) (A) (A) (A) (A) (A) (A)
                 (A) (A) (A)
 The electronic state of the initial guess is 1-A.
 Requested convergence on RMS density matrix=1.00D-08 within 128 cycles.
 Requested convergence on MAX density matrix=1.00D-06.
 Requested convergence on             energy=1.00D-06.
 No special actions if energy rises.
 Integral accuracy reduced to 1.0D-05 until final iterations.
 EnCoef did     4 forward-backward iterations
 Initial convergence to 1.0D-05 achieved.  Increase integral accuracy.
 SCF Done:  E(RB3LYP) =  -990.176933522     A.U. after   20 cycles
             Convg  =    0.5785D-08             -V/T =  2.0070
 Range of M.O.s used for correlation:     1   344
 NBasis=   344 NAE=    77 NBE=    77 NFC=     0 NFV=     0
 NROrb=    344 NOA=    77 NOB=    77 NVA=   267 NVB=   267
 Symmetrizing basis deriv contribution to polar:
 IMax=3 JMax=2 DiffMx= 0.00D+00
 G2DrvN: will do    43 centers at a time, making    1 passes doing MaxLOS=2.
 Calling FoFCou, ICntrl=  3107 FMM=F I1Cent=   0 AccDes= 0.00D+00.
 FoFDir/FoFCou used for L=0 through L=2.
 End of G2Drv Frequency-dependent properties file   721 does not exist.
 End of G2Drv Frequency-dependent properties file   722 does not exist.
          IDoAtm=111111111111111111111111111111111111111111
          Differentiating once with respect to nuclear coordinates.
          There are   129 degrees of freedom in the 1st order CPHF.  IDoFFX=5.
    123 vectors produced by pass  0 Test12= 2.06D-10 1.00D-07 XBig12= 5.67D-01 3.82D-01.
 AX will form   123 AO Fock derivatives at one time.
    123 vectors produced by pass  1 Test12= 2.06D-10 1.00D-07 XBig12= 6.29D-02 8.39D-02.
    123 vectors produced by pass  2 Test12= 2.06D-10 1.00D-07 XBig12= 1.46D-04 1.50D-03.
    123 vectors produced by pass  3 Test12= 2.06D-10 1.00D-07 XBig12= 2.81D-07 6.68D-05.
     78 vectors produced by pass  4 Test12= 2.06D-10 1.00D-07 XBig12= 3.17D-10 2.37D-06.
 Inverted reduced A of dimension   570 with in-core refinement.
 End of Minotr Frequency-dependent properties file   721 does not exist.
 End of Minotr Frequency-dependent properties file   722 does not exist.

 **********************************************************************

            Population analysis using the SCF density.

 **********************************************************************

 Orbital symmetries:
       Occupied  (A) (A) (A) (A) (A) (A) (A) (A) (A) (A) (A) (A)
                 (A) (A) (A) (A) (A) (A) (A) (A) (A) (A) (A) (A)
                 (A) (A) (A) (A) (A) (A) (A) (A) (A) (A) (A) (A)
                 (A) (A) (A) (A) (A) (A) (A) (A) (A) (A) (A) (A)
                 (A) (A) (A) (A) (A) (A) (A) (A) (A) (A) (A) (A)
                 (A) (A) (A) (A) (A) (A) (A) (A) (A) (A) (A) (A)
                 (A) (A) (A) (A) (A)
       Virtual   (A) (A) (A) (A) (A) (A) (A) (A) (A) (A) (A) (A)
                 (A) (A) (A) (A) (A) (A) (A) (A) (A) (A) (A) (A)
                 (A) (A) (A) (A) (A) (A) (A) (A) (A) (A) (A) (A)
                 (A) (A) (A) (A) (A) (A) (A) (A) (A) (A) (A) (A)
                 (A) (A) (A) (A) (A) (A) (A) (A) (A) (A) (A) (A)
                 (A) (A) (A) (A) (A) (A) (A) (A) (A) (A) (A) (A)
                 (A) (A) (A) (A) (A) (A) (A) (A) (A) (A) (A) (A)
                 (A) (A) (A) (A) (A) (A) (A) (A) (A) (A) (A) (A)
                 (A) (A) (A) (A) (A) (A) (A) (A) (A) (A) (A) (A)
                 (A) (A) (A) (A) (A) (A) (A) (A) (A) (A) (A) (A)
                 (A) (A) (A) (A) (A) (A) (A) (A) (A) (A) (A) (A)
                 (A) (A) (A) (A) (A) (A) (A) (A) (A) (A) (A) (A)
                 (A) (A) (A) (A) (A) (A) (A) (A) (A) (A) (A) (A)
                 (A) (A) (A) (A) (A) (A) (A) (A) (A) (A) (A) (A)
                 (A) (A) (A) (A) (A) (A) (A) (A) (A) (A) (A) (A)
                 (A) (A) (A) (A) (A) (A) (A) (A) (A) (A) (A) (A)
                 (A) (A) (A) (A) (A) (A) (A) (A) (A) (A) (A) (A)
                 (A) (A) (A) (A) (A) (A) (A) (A) (A) (A) (A) (A)
                 (A) (A) (A) (A) (A) (A) (A) (A) (A) (A) (A) (A)
                 (A) (A) (A) (A) (A) (A) (A) (A) (A) (A) (A) (A)
                 (A) (A) (A) (A) (A) (A) (A) (A) (A) (A) (A) (A)
                 (A) (A) (A) (A) (A) (A) (A) (A) (A) (A) (A) (A)
                 (A) (A) (A)
 The electronic state is 1-A.
 Alpha  occ. eigenvalues --  -19.14921 -19.11724 -19.09433 -19.06551 -14.38483
 Alpha  occ. eigenvalues --  -14.37436 -14.35118 -14.34587 -10.29419 -10.29145
 Alpha  occ. eigenvalues --  -10.27432 -10.23649 -10.23627 -10.23452 -10.23407
 Alpha  occ. eigenvalues --  -10.22704 -10.18161 -10.17913 -10.17604 -10.17595
 Alpha  occ. eigenvalues --   -1.16087  -1.04384  -1.02055  -0.99759  -0.97041
 Alpha  occ. eigenvalues --   -0.93712  -0.92450  -0.90613  -0.80422  -0.77855
 Alpha  occ. eigenvalues --   -0.76060  -0.71976  -0.71741  -0.68363  -0.66947
 Alpha  occ. eigenvalues --   -0.64385  -0.63287  -0.61606  -0.59969  -0.57208
 Alpha  occ. eigenvalues --   -0.55068  -0.53805  -0.53094  -0.49370  -0.49076
 Alpha  occ. eigenvalues --   -0.48061  -0.47474  -0.46537  -0.45706  -0.44762
 Alpha  occ. eigenvalues --   -0.44079  -0.43585  -0.42322  -0.42126  -0.41386
 Alpha  occ. eigenvalues --   -0.40552  -0.40377  -0.39975  -0.39455  -0.38822
 Alpha  occ. eigenvalues --   -0.38399  -0.37914  -0.37494  -0.37200  -0.36958
 Alpha  occ. eigenvalues --   -0.36455  -0.34757  -0.34233  -0.33683  -0.29153
 Alpha  occ. eigenvalues --   -0.27813  -0.26450  -0.25421  -0.24597  -0.23241
 Alpha  occ. eigenvalues --   -0.21800  -0.11047
 Alpha virt. eigenvalues --   -0.00304   0.02449   0.03882   0.04863   0.05864
 Alpha virt. eigenvalues --    0.07300   0.09827   0.11377   0.12170   0.13134
 Alpha virt. eigenvalues --    0.13670   0.13737   0.14024   0.14972   0.15178
 Alpha virt. eigenvalues --    0.15627   0.15945   0.16150   0.16814   0.17114
 Alpha virt. eigenvalues --    0.17667   0.17744   0.18569   0.18867   0.19718
 Alpha virt. eigenvalues --    0.20079   0.20380   0.21176   0.21938   0.22447
 Alpha virt. eigenvalues --    0.23239   0.24152   0.24630   0.25723   0.26646
 Alpha virt. eigenvalues --    0.28979   0.30923   0.34198   0.34950   0.35750
 Alpha virt. eigenvalues --    0.37719   0.40802   0.42364   0.42980   0.46178
 Alpha virt. eigenvalues --    0.49785   0.50687   0.51597   0.52372   0.52533
 Alpha virt. eigenvalues --    0.52750   0.53485   0.54000   0.54821   0.55217
 Alpha virt. eigenvalues --    0.55597   0.55873   0.56391   0.57231   0.57930
 Alpha virt. eigenvalues --    0.59666   0.60423   0.61844   0.62763   0.63510
 Alpha virt. eigenvalues --    0.63883   0.64794   0.66324   0.67543   0.68431
 Alpha virt. eigenvalues --    0.69834   0.70299   0.71570   0.72437   0.72867
 Alpha virt. eigenvalues --    0.73843   0.75038   0.75473   0.75871   0.76929
 Alpha virt. eigenvalues --    0.78223   0.79295   0.80240   0.81021   0.81950
 Alpha virt. eigenvalues --    0.82938   0.83998   0.85781   0.86254   0.86693
 Alpha virt. eigenvalues --    0.86873   0.87328   0.87940   0.88134   0.88410
 Alpha virt. eigenvalues --    0.89530   0.90383   0.90582   0.91170   0.91659
 Alpha virt. eigenvalues --    0.92341   0.92929   0.93452   0.94245   0.94519
 Alpha virt. eigenvalues --    0.95440   0.95717   0.96466   0.96787   0.97857
 Alpha virt. eigenvalues --    0.98911   0.99222   1.02113   1.03730   1.03985
 Alpha virt. eigenvalues --    1.05516   1.07770   1.08941   1.09420   1.11701
 Alpha virt. eigenvalues --    1.12753   1.14082   1.16134   1.19254   1.20763
 Alpha virt. eigenvalues --    1.22076   1.25197   1.25551   1.27509   1.28802
 Alpha virt. eigenvalues --    1.30320   1.31278   1.32232   1.34260   1.36140
 Alpha virt. eigenvalues --    1.37499   1.37832   1.41160   1.42276   1.44144
 Alpha virt. eigenvalues --    1.46657   1.47125   1.47267   1.50007   1.51103
 Alpha virt. eigenvalues --    1.51929   1.52798   1.58027   1.61945   1.63905
 Alpha virt. eigenvalues --    1.64739   1.66656   1.68075   1.68550   1.71200
 Alpha virt. eigenvalues --    1.72095   1.73731   1.75224   1.76512   1.78117
 Alpha virt. eigenvalues --    1.78961   1.80552   1.82045   1.82930   1.83198
 Alpha virt. eigenvalues --    1.84106   1.84817   1.85082   1.85797   1.86276
 Alpha virt. eigenvalues --    1.87070   1.87508   1.90336   1.92087   1.92569
 Alpha virt. eigenvalues --    1.93889   1.94680   1.96126   1.97790   1.98296
 Alpha virt. eigenvalues --    1.99017   2.01093   2.01851   2.03539   2.04225
 Alpha virt. eigenvalues --    2.05350   2.06001   2.06543   2.06927   2.09942
 Alpha virt. eigenvalues --    2.11310   2.13234   2.15226   2.17194   2.17443
 Alpha virt. eigenvalues --    2.19743   2.21075   2.22281   2.24012   2.25466
 Alpha virt. eigenvalues --    2.27548   2.27956   2.28426   2.29394   2.29707
 Alpha virt. eigenvalues --    2.30743   2.32405   2.34667   2.35569   2.36011
 Alpha virt. eigenvalues --    2.38644   2.39966   2.42703   2.42934   2.44357
 Alpha virt. eigenvalues --    2.46622   2.47382   2.49254   2.51347   2.54335
 Alpha virt. eigenvalues --    2.57634   2.58715   2.60248   2.62431   2.63371
 Alpha virt. eigenvalues --    2.66770   2.67335   2.70108   2.72750   2.72996
 Alpha virt. eigenvalues --    2.75816   2.76742   2.79170   2.81802   2.87428
 Alpha virt. eigenvalues --    2.91180   2.94387   2.95718   2.98578   3.00330
 Alpha virt. eigenvalues --    3.02590   3.07924   3.11405   3.18079   3.21595
 Alpha virt. eigenvalues --    3.25567   3.33434   3.96726   4.01543   4.02434
 Alpha virt. eigenvalues --    4.06324   4.10137   4.11494   4.17345   4.21036
 Alpha virt. eigenvalues --    4.23475   4.24915   4.27611   4.30396   4.37044
 Alpha virt. eigenvalues --    4.46153   4.48389   4.50214   4.57973   4.61737
 Alpha virt. eigenvalues --    4.67542   4.77353
          Condensed to atoms (all electrons):
              1          2          3          4          5          6
     1  H    0.507725   0.359943  -0.021541  -0.021972  -0.018167   0.005109
     2  C    0.359943   5.328062   0.351483   0.350520   0.358334  -0.079403
     3  H   -0.021541   0.351483   0.544218  -0.026522  -0.024622   0.001407
     4  H   -0.021972   0.350520  -0.026522   0.556831  -0.026442   0.001319
     5  C   -0.018167   0.358334  -0.024622  -0.026442   4.330260   0.592406
     6  O    0.005109  -0.079403   0.001407   0.001319   0.592406   8.086920
     7  N    0.004574  -0.135141   0.004011   0.004515   0.230768  -0.107473
     8  H   -0.000120  -0.001470   0.001341   0.001013  -0.016477   0.002936
     9  C   -0.000147   0.007279  -0.000268   0.000004  -0.019825   0.012673
    10  H    0.000002   0.000126  -0.000012   0.000000   0.000051   0.003906
    11  C    0.000014  -0.000736   0.000014   0.000029  -0.007061  -0.017850
    12  H    0.000000  -0.000007   0.000000   0.000004   0.001084  -0.000235
    13  H    0.000000   0.000007   0.000000  -0.000001   0.000333   0.000342
    14  H    0.000000   0.000616  -0.000008  -0.000056   0.003116   0.023620
    15  C    0.000000  -0.000025  -0.000016  -0.000011   0.006827   0.000877
    16  O    0.000000  -0.000034   0.000002   0.000001   0.000333  -0.000006
    17  N    0.000000   0.000001   0.000000   0.000000  -0.000058  -0.000004
    18  H    0.000000   0.000000   0.000000   0.000000   0.000002   0.000003
    19  C    0.000000   0.000000   0.000000   0.000000   0.000001   0.000000
    20  H    0.000000   0.000000   0.000000   0.000000   0.000000   0.000000
    21  C    0.000000   0.000000   0.000000   0.000000   0.000000   0.000000
    22  H    0.000000   0.000000   0.000000   0.000000   0.000000   0.000000
    23  H    0.000000   0.000000   0.000000   0.000000   0.000000   0.000000
    24  H    0.000000   0.000000   0.000000   0.000000   0.000000   0.000000
    25  C    0.000000   0.000000   0.000000   0.000000   0.000000   0.000000
    26  O    0.000000   0.000000   0.000000   0.000000   0.000000   0.000000
    27  N    0.000000   0.000000   0.000000   0.000000   0.000009   0.000000
    28  H    0.000000  -0.000002   0.000000   0.000000   0.000021   0.000000
    29  C    0.000000   0.000000   0.000000   0.000000  -0.000001   0.000000
    30  H    0.000000   0.000000   0.000000   0.000000   0.000000   0.000000
    31  C    0.000000   0.000000   0.000000   0.000000   0.000000   0.000000
    32  H    0.000000   0.000000   0.000000   0.000000   0.000001   0.000000
    33  H    0.000000   0.000000   0.000000   0.000000   0.000000   0.000000
    34  H    0.000000   0.000000   0.000000   0.000000   0.000000   0.000000
    35  C    0.000000  -0.000001   0.000004   0.000000   0.000001   0.000000
    36  O    0.000000  -0.000043   0.000078  -0.000001   0.000004   0.000000
    37  N    0.000000   0.000000  -0.000001   0.000000   0.000000   0.000000
    38  H    0.000000   0.000000   0.000000   0.000000   0.000000   0.000000
    39  C    0.000000  -0.000001   0.000000   0.000000   0.000000   0.000000
    40  H    0.000000   0.000000   0.000027   0.000000   0.000000   0.000000
    41  H    0.000000   0.000000   0.000000   0.000000   0.000000   0.000000
    42  H    0.000000   0.000000   0.000000   0.000000   0.000000   0.000000
              7          8          9         10         11         12
     1  H    0.004574  -0.000120  -0.000147   0.000002   0.000014   0.000000
     2  C   -0.135141  -0.001470   0.007279   0.000126  -0.000736  -0.000007
     3  H    0.004011   0.001341  -0.000268  -0.000012   0.000014   0.000000
     4  H    0.004515   0.001013   0.000004   0.000000   0.000029   0.000004
     5  C    0.230768  -0.016477  -0.019825   0.000051  -0.007061   0.001084
     6  O   -0.107473   0.002936   0.012673   0.003906  -0.017850  -0.000235
     7  N    7.203958   0.284509   0.256150  -0.052959  -0.053014  -0.000506
     8  H    0.284509   0.385729  -0.045050   0.005769   0.002843   0.000958
     9  C    0.256150  -0.045050   5.035964   0.345416   0.361024  -0.038074
    10  H   -0.052959   0.005769   0.345416   0.627636  -0.054593   0.007223
    11  C   -0.053014   0.002843   0.361024  -0.054593   5.206239   0.360154
    12  H   -0.000506   0.000958  -0.038074   0.007223   0.360154   0.568909
    13  H    0.005239  -0.000134  -0.034692  -0.000496   0.350241  -0.027317
    14  H   -0.010499  -0.000232  -0.021448  -0.005438   0.361131  -0.025340
    15  C   -0.031009   0.001419   0.336250  -0.045408  -0.050024   0.001235
    16  O   -0.007926   0.016879  -0.062770   0.000901  -0.000944   0.000785
    17  N    0.002628   0.000980  -0.120487   0.007139  -0.001502  -0.000539
    18  H    0.000136  -0.000003  -0.002413   0.001780   0.001376  -0.000029
    19  C   -0.000070  -0.000006   0.004337  -0.000002   0.000207   0.000015
    20  H    0.000000   0.000001  -0.000492   0.000079  -0.000003   0.000004
    21  C    0.000002   0.000000   0.000032  -0.000019   0.000013  -0.000025
    22  H    0.000000   0.000000  -0.000143   0.000004   0.000041   0.000065
    23  H    0.000000   0.000000   0.000003   0.000000   0.000001   0.000000
    24  H    0.000000   0.000000   0.000008  -0.000003  -0.000012  -0.000004
    25  C    0.000008   0.000020  -0.000658  -0.000038  -0.000035   0.000023
    26  O    0.000000   0.000000  -0.000001   0.000000   0.000000   0.000000
    27  N   -0.000454   0.001813  -0.005463   0.001028  -0.000255   0.000101
    28  H   -0.000238   0.001149  -0.011224   0.001057   0.000225   0.000047
    29  C    0.000020  -0.000243   0.000345  -0.000031   0.000005  -0.000004
    30  H   -0.000001   0.000011  -0.000002   0.000000   0.000000   0.000000
    31  C    0.000007  -0.000138   0.000022  -0.000001   0.000000   0.000000
    32  H   -0.000025   0.000320  -0.000028   0.000001  -0.000003   0.000006
    33  H    0.000000   0.000000   0.000000   0.000000   0.000000   0.000000
    34  H    0.000000  -0.000004   0.000003   0.000000   0.000000   0.000000
    35  C    0.000052   0.000585  -0.000134   0.000008   0.000001   0.000000
    36  O   -0.001325   0.007969   0.000191  -0.000017   0.000002   0.000000
    37  N    0.000002  -0.000055  -0.000001   0.000000   0.000000   0.000000
    38  H    0.000000   0.000000   0.000000   0.000000   0.000000   0.000000
    39  C   -0.000001   0.000014   0.000000   0.000000   0.000000   0.000000
    40  H   -0.000001   0.000014   0.000000   0.000000   0.000000   0.000000
    41  H    0.000000   0.000000   0.000000   0.000000   0.000000   0.000000
    42  H    0.000000   0.000002   0.000000   0.000000   0.000000   0.000000
             13         14         15         16         17         18
     1  H    0.000000   0.000000   0.000000   0.000000   0.000000   0.000000
     2  C    0.000007   0.000616  -0.000025  -0.000034   0.000001   0.000000
     3  H    0.000000  -0.000008  -0.000016   0.000002   0.000000   0.000000
     4  H   -0.000001  -0.000056  -0.000011   0.000001   0.000000   0.000000
     5  C    0.000333   0.003116   0.006827   0.000333  -0.000058   0.000002
     6  O    0.000342   0.023620   0.000877  -0.000006  -0.000004   0.000003
     7  N    0.005239  -0.010499  -0.031009  -0.007926   0.002628   0.000136
     8  H   -0.000134  -0.000232   0.001419   0.016879   0.000980  -0.000003
     9  C   -0.034692  -0.021448   0.336250  -0.062770  -0.120487  -0.002413
    10  H   -0.000496  -0.005438  -0.045408   0.000901   0.007139   0.001780
    11  C    0.350241   0.361131  -0.050024  -0.000944  -0.001502   0.001376
    12  H   -0.027317  -0.025340   0.001235   0.000785  -0.000539  -0.000029
    13  H    0.604593  -0.021121  -0.008791  -0.000044   0.003162   0.007630
    14  H   -0.021121   0.477805   0.004568  -0.000048   0.000228  -0.000238
    15  C   -0.008791   0.004568   4.617482   0.392086   0.271437  -0.031557
    16  O   -0.000044  -0.000048   0.392086   9.270094  -0.097759   0.002747
    17  N    0.003162   0.000228   0.271437  -0.097759   7.151785   0.310928
    18  H    0.007630  -0.000238  -0.031557   0.002747   0.310928   0.388162
    19  C    0.000092  -0.000004  -0.019386  -0.003709   0.174137  -0.020882
    20  H    0.000003   0.000000  -0.002215  -0.000859  -0.041466  -0.002202
    21  C    0.000049  -0.000001   0.002047   0.001164  -0.060403  -0.000534
    22  H    0.000041   0.000001   0.001520  -0.000293  -0.002450  -0.000368
    23  H    0.000000   0.000000  -0.000096   0.000032   0.005354  -0.000232
    24  H    0.000024   0.000000  -0.000025   0.000004  -0.000791   0.003146
    25  C   -0.000020   0.000001  -0.014603  -0.009412  -0.016042   0.002393
    26  O    0.000000   0.000000  -0.000533   0.000949   0.002424  -0.000071
    27  N   -0.000011   0.000001   0.038834  -0.939670   0.017789  -0.000054
    28  H   -0.000009  -0.000005  -0.009788  -0.115047   0.013689  -0.000102
    29  C    0.000000   0.000000   0.002030   0.048126  -0.000896   0.000021
    30  H    0.000000   0.000000   0.000019  -0.001525   0.000024   0.000000
    31  C    0.000000   0.000000  -0.000216   0.002652  -0.000050  -0.000001
    32  H    0.000000   0.000000   0.000598   0.002794   0.000004   0.000000
    33  H    0.000000   0.000000  -0.000003   0.000006   0.000000   0.000000
    34  H    0.000000   0.000000  -0.000163   0.001774  -0.000021   0.000000
    35  C    0.000000   0.000000  -0.000181  -0.000785   0.000057   0.000001
    36  O    0.000000   0.000000   0.000049  -0.010501   0.000021   0.000001
    37  N    0.000000   0.000000  -0.000004  -0.000299   0.000000   0.000000
    38  H    0.000000   0.000000   0.000001  -0.000026   0.000000   0.000000
    39  C    0.000000   0.000000   0.000000   0.000002   0.000000   0.000000
    40  H    0.000000   0.000000   0.000000   0.000005   0.000000   0.000000
    41  H    0.000000   0.000000   0.000000   0.000000   0.000000   0.000000
    42  H    0.000000   0.000000   0.000000   0.000000   0.000000   0.000000
             19         20         21         22         23         24
     1  H    0.000000   0.000000   0.000000   0.000000   0.000000   0.000000
     2  C    0.000000   0.000000   0.000000   0.000000   0.000000   0.000000
     3  H    0.000000   0.000000   0.000000   0.000000   0.000000   0.000000
     4  H    0.000000   0.000000   0.000000   0.000000   0.000000   0.000000
     5  C    0.000001   0.000000   0.000000   0.000000   0.000000   0.000000
     6  O    0.000000   0.000000   0.000000   0.000000   0.000000   0.000000
     7  N   -0.000070   0.000000   0.000002   0.000000   0.000000   0.000000
     8  H   -0.000006   0.000001   0.000000   0.000000   0.000000   0.000000
     9  C    0.004337  -0.000492   0.000032  -0.000143   0.000003   0.000008
    10  H   -0.000002   0.000079  -0.000019   0.000004   0.000000  -0.000003
    11  C    0.000207  -0.000003   0.000013   0.000041   0.000001  -0.000012
    12  H    0.000015   0.000004  -0.000025   0.000065   0.000000  -0.000004
    13  H    0.000092   0.000003   0.000049   0.000041   0.000000   0.000024
    14  H   -0.000004   0.000000  -0.000001   0.000001   0.000000   0.000000
    15  C   -0.019386  -0.002215   0.002047   0.001520  -0.000096  -0.000025
    16  O   -0.003709  -0.000859   0.001164  -0.000293   0.000032   0.000004
    17  N    0.174137  -0.041466  -0.060403  -0.002450   0.005354  -0.000791
    18  H   -0.020882  -0.002202  -0.000534  -0.000368  -0.000232   0.003146
    19  C    5.163678   0.371419   0.367213  -0.032060  -0.026355  -0.038179
    20  H    0.371419   0.576801  -0.047611   0.005634  -0.000780  -0.003682
    21  C    0.367213  -0.047611   5.113058   0.376616   0.361831   0.352517
    22  H   -0.032060   0.005634   0.376616   0.549399  -0.020426  -0.032686
    23  H   -0.026355  -0.000780   0.361831  -0.020426   0.508399  -0.025989
    24  H   -0.038179  -0.003682   0.352517  -0.032686  -0.025989   0.616834
    25  C    0.324019  -0.028417  -0.041713  -0.004443  -0.004042   0.006347
    26  O   -0.091246   0.000961  -0.001588   0.000565   0.013471   0.000913
    27  N   -0.129511   0.000108   0.003171   0.000493   0.000519  -0.000070
    28  H   -0.003375   0.001071   0.000267   0.000024  -0.000049  -0.000013
    29  C    0.009064  -0.000484  -0.000082  -0.000049  -0.000001   0.000001
    30  H    0.000039   0.000040  -0.000019   0.000001  -0.000003   0.000000
    31  C   -0.000914  -0.000004   0.000049   0.000016   0.000003   0.000000
    32  H    0.000055   0.000000  -0.000004   0.000003  -0.000001   0.000000
    33  H    0.000007   0.000000  -0.000001   0.000000   0.000000   0.000000
    34  H    0.000694  -0.000009   0.000020  -0.000014  -0.000002   0.000000
    35  C   -0.000032   0.000002  -0.000002   0.000000   0.000000   0.000000
    36  O   -0.000085   0.000000   0.000000   0.000000   0.000000   0.000000
    37  N    0.000000   0.000000   0.000000   0.000000   0.000000   0.000000
    38  H    0.000000   0.000000   0.000000   0.000000   0.000000   0.000000
    39  C    0.000000   0.000000   0.000000   0.000000   0.000000   0.000000
    40  H    0.000000   0.000000   0.000000   0.000000   0.000000   0.000000
    41  H    0.000000   0.000000   0.000000   0.000000   0.000000   0.000000
    42  H    0.000000   0.000000   0.000000   0.000000   0.000000   0.000000
             25         26         27         28         29         30
     1  H    0.000000   0.000000   0.000000   0.000000   0.000000   0.000000
     2  C    0.000000   0.000000   0.000000  -0.000002   0.000000   0.000000
     3  H    0.000000   0.000000   0.000000   0.000000   0.000000   0.000000
     4  H    0.000000   0.000000   0.000000   0.000000   0.000000   0.000000
     5  C    0.000000   0.000000   0.000009   0.000021  -0.000001   0.000000
     6  O    0.000000   0.000000   0.000000   0.000000   0.000000   0.000000
     7  N    0.000008   0.000000  -0.000454  -0.000238   0.000020  -0.000001
     8  H    0.000020   0.000000   0.001813   0.001149  -0.000243   0.000011
     9  C   -0.000658  -0.000001  -0.005463  -0.011224   0.000345  -0.000002
    10  H   -0.000038   0.000000   0.001028   0.001057  -0.000031   0.000000
    11  C   -0.000035   0.000000  -0.000255   0.000225   0.000005   0.000000
    12  H    0.000023   0.000000   0.000101   0.000047  -0.000004   0.000000
    13  H   -0.000020   0.000000  -0.000011  -0.000009   0.000000   0.000000
    14  H    0.000001   0.000000   0.000001  -0.000005   0.000000   0.000000
    15  C   -0.014603  -0.000533   0.038834  -0.009788   0.002030   0.000019
    16  O   -0.009412   0.000949  -0.939670  -0.115047   0.048126  -0.001525
    17  N   -0.016042   0.002424   0.017789   0.013689  -0.000896   0.000024
    18  H    0.002393  -0.000071  -0.000054  -0.000102   0.000021   0.000000
    19  C    0.324019  -0.091246  -0.129511  -0.003375   0.009064   0.000039
    20  H   -0.028417   0.000961   0.000108   0.001071  -0.000484   0.000040
    21  C   -0.041713  -0.001588   0.003171   0.000267  -0.000082  -0.000019
    22  H   -0.004443   0.000565   0.000493   0.000024  -0.000049   0.000001
    23  H   -0.004042   0.013471   0.000519  -0.000049  -0.000001  -0.000003
    24  H    0.006347   0.000913  -0.000070  -0.000013   0.000001   0.000000
    25  C    4.441968   0.544027   0.263391  -0.018347  -0.015831  -0.006249
    26  O    0.544027   8.200086  -0.108504   0.003013   0.010603   0.006124
    27  N    0.263391  -0.108504   7.999148   0.331823   0.176890  -0.033152
    28  H   -0.018347   0.003013   0.331823   0.414381  -0.061188   0.001844
    29  C   -0.015831   0.010603   0.176890  -0.061188   5.140453   0.362078
    30  H   -0.006249   0.006124  -0.033152   0.001844   0.362078   0.571716
    31  C   -0.004416  -0.018895  -0.059405   0.006609   0.339193  -0.046685
    32  H    0.000773   0.000020  -0.004418   0.000506  -0.036048   0.005709
    33  H    0.000338   0.000361   0.005054  -0.000154  -0.035574  -0.001037
    34  H    0.003288   0.026464  -0.013520  -0.000336  -0.020695  -0.007424
    35  C    0.006070   0.000780  -0.026427   0.002714   0.304427  -0.032901
    36  O    0.000762  -0.000003  -0.009911   0.031949  -0.089066   0.001215
    37  N   -0.000079  -0.000001   0.003383   0.001382  -0.120381   0.000534
    38  H   -0.000004   0.000003   0.000186  -0.000048   0.002077   0.001813
    39  C    0.000002   0.000000  -0.000072  -0.000012   0.005860  -0.000277
    40  H    0.000000   0.000000  -0.000001  -0.000033   0.001224  -0.000033
    41  H    0.000000   0.000000   0.000001   0.000000  -0.000168   0.000029
    42  H    0.000000   0.000000   0.000001   0.000000  -0.000043  -0.000007
             31         32         33         34         35         36
     1  H    0.000000   0.000000   0.000000   0.000000   0.000000   0.000000
     2  C    0.000000   0.000000   0.000000   0.000000  -0.000001  -0.000043
     3  H    0.000000   0.000000   0.000000   0.000000   0.000004   0.000078
     4  H    0.000000   0.000000   0.000000   0.000000   0.000000  -0.000001
     5  C    0.000000   0.000001   0.000000   0.000000   0.000001   0.000004
     6  O    0.000000   0.000000   0.000000   0.000000   0.000000   0.000000
     7  N    0.000007  -0.000025   0.000000   0.000000   0.000052  -0.001325
     8  H   -0.000138   0.000320   0.000000  -0.000004   0.000585   0.007969
     9  C    0.000022  -0.000028   0.000000   0.000003  -0.000134   0.000191
    10  H   -0.000001   0.000001   0.000000   0.000000   0.000008  -0.000017
    11  C    0.000000  -0.000003   0.000000   0.000000   0.000001   0.000002
    12  H    0.000000   0.000006   0.000000   0.000000   0.000000   0.000000
    13  H    0.000000   0.000000   0.000000   0.000000   0.000000   0.000000
    14  H    0.000000   0.000000   0.000000   0.000000   0.000000   0.000000
    15  C   -0.000216   0.000598  -0.000003  -0.000163  -0.000181   0.000049
    16  O    0.002652   0.002794   0.000006   0.001774  -0.000785  -0.010501
    17  N   -0.000050   0.000004   0.000000  -0.000021   0.000057   0.000021
    18  H   -0.000001   0.000000   0.000000   0.000000   0.000001   0.000001
    19  C   -0.000914   0.000055   0.000007   0.000694  -0.000032  -0.000085
    20  H   -0.000004   0.000000   0.000000  -0.000009   0.000002   0.000000
    21  C    0.000049  -0.000004  -0.000001   0.000020  -0.000002   0.000000
    22  H    0.000016   0.000003   0.000000  -0.000014   0.000000   0.000000
    23  H    0.000003  -0.000001   0.000000  -0.000002   0.000000   0.000000
    24  H    0.000000   0.000000   0.000000   0.000000   0.000000   0.000000
    25  C   -0.004416   0.000773   0.000338   0.003288   0.006070   0.000762
    26  O   -0.018895   0.000020   0.000361   0.026464   0.000780  -0.000003
    27  N   -0.059405  -0.004418   0.005054  -0.013520  -0.026427  -0.009911
    28  H    0.006609   0.000506  -0.000154  -0.000336   0.002714   0.031949
    29  C    0.339193  -0.036048  -0.035574  -0.020695   0.304427  -0.089066
    30  H   -0.046685   0.005709  -0.001037  -0.007424  -0.032901   0.001215
    31  C    5.209952   0.373462   0.354754   0.355016  -0.045125  -0.000163
    32  H    0.373462   0.554746  -0.028995  -0.025353  -0.003214   0.000809
    33  H    0.354754  -0.028995   0.603751  -0.020903  -0.008061  -0.000037
    34  H    0.355016  -0.025353  -0.020903   0.482657   0.003957  -0.000095
    35  C   -0.045125  -0.003214  -0.008061   0.003957   4.383563   0.576962
    36  O   -0.000163   0.000809  -0.000037  -0.000095   0.576962   8.114203
    37  N    0.002080  -0.000480   0.003344   0.000208   0.272655  -0.098249
    38  H   -0.000303  -0.000035   0.007242  -0.000276  -0.023257   0.003486
    39  C   -0.000009  -0.000073   0.000094   0.000006  -0.024354  -0.009166
    40  H   -0.000079  -0.000006  -0.000006   0.000001  -0.000835   0.021599
    41  H   -0.000011   0.000001   0.000004   0.000000   0.001130   0.000552
    42  H    0.000023   0.000002   0.000004  -0.000002   0.001540   0.000582
             37         38         39         40         41         42
     1  H    0.000000   0.000000   0.000000   0.000000   0.000000   0.000000
     2  C    0.000000   0.000000  -0.000001   0.000000   0.000000   0.000000
     3  H   -0.000001   0.000000   0.000000   0.000027   0.000000   0.000000
     4  H    0.000000   0.000000   0.000000   0.000000   0.000000   0.000000
     5  C    0.000000   0.000000   0.000000   0.000000   0.000000   0.000000
     6  O    0.000000   0.000000   0.000000   0.000000   0.000000   0.000000
     7  N    0.000002   0.000000  -0.000001  -0.000001   0.000000   0.000000
     8  H   -0.000055   0.000000   0.000014   0.000014   0.000000   0.000002
     9  C   -0.000001   0.000000   0.000000   0.000000   0.000000   0.000000
    10  H    0.000000   0.000000   0.000000   0.000000   0.000000   0.000000
    11  C    0.000000   0.000000   0.000000   0.000000   0.000000   0.000000
    12  H    0.000000   0.000000   0.000000   0.000000   0.000000   0.000000
    13  H    0.000000   0.000000   0.000000   0.000000   0.000000   0.000000
    14  H    0.000000   0.000000   0.000000   0.000000   0.000000   0.000000
    15  C   -0.000004   0.000001   0.000000   0.000000   0.000000   0.000000
    16  O   -0.000299  -0.000026   0.000002   0.000005   0.000000   0.000000
    17  N    0.000000   0.000000   0.000000   0.000000   0.000000   0.000000
    18  H    0.000000   0.000000   0.000000   0.000000   0.000000   0.000000
    19  C    0.000000   0.000000   0.000000   0.000000   0.000000   0.000000
[...]
    34  H    0.000000   0.000000   0.000003   0.000003  -0.000007   0.000000
    35  C    0.000000   0.000000  -0.000016  -0.000250   0.000000   0.000000
    36  O    0.000000   0.000000  -0.000047  -0.000318   0.000002   0.000000
    37  N    0.000000   0.000000   0.000000  -0.000001   0.000000   0.000000
    38  H    0.000000   0.000000   0.000000   0.000000   0.000000   0.000000
    39  C    0.000000   0.000000   0.000000   0.000000   0.000000   0.000000
    40  H    0.000000   0.000000   0.000000   0.000000   0.000000   0.000000
    41  H    0.000000   0.000000   0.000000   0.000000   0.000000   0.000000
    42  H    0.000000   0.000000   0.000000   0.000000   0.000000   0.000000
             19         20         21         22         23         24
     1  H    0.000000   0.000000   0.000000   0.000000   0.000000   0.000000
     2  C    0.000000   0.000000   0.000000   0.000000   0.000000   0.000000
     3  H    0.000000   0.000000   0.000000   0.000000   0.000000   0.000000
     4  H    0.000000   0.000000   0.000000   0.000000   0.000000   0.000000
     5  C    0.000001   0.000000   0.000000   0.000000   0.000000   0.000000
     6  O    0.000000   0.000000   0.000000   0.000000   0.000000   0.000000
     7  N   -0.000097   0.000003   0.000000   0.000000   0.000000   0.000000
     8  H   -0.000012   0.000001   0.000000   0.000000   0.000000   0.000000
     9  C    0.004805  -0.000189  -0.000344  -0.000050   0.000004  -0.000020
    10  H    0.000109   0.000003  -0.000012   0.000000   0.000000  -0.000012
    11  C   -0.000257  -0.000008   0.000054   0.000008   0.000000  -0.000006
    12  H    0.000019   0.000000  -0.000002   0.000004   0.000000   0.000000
    13  H   -0.000227   0.000009   0.000134   0.000208   0.000001   0.000045
    14  H    0.000002   0.000000  -0.000001   0.000000   0.000000   0.000000
    15  C   -0.018114   0.000553   0.002765   0.000550  -0.000056   0.000038
    16  O    0.000397   0.000078  -0.000014  -0.000024   0.000000   0.000000
    17  N    0.167281  -0.044092  -0.062336   0.000424   0.004912  -0.003471
    18  H   -0.026308  -0.002139  -0.002259  -0.000405  -0.000192   0.005907
    19  C    5.141503   0.374288   0.355089  -0.034083  -0.025020  -0.034322
    20  H    0.374288   0.568829  -0.048540   0.005152   0.000558  -0.004306
    21  C    0.355089  -0.048540   5.143753   0.373803   0.359234   0.359731
    22  H   -0.034083   0.005152   0.373803   0.547433  -0.020019  -0.032492
    23  H   -0.025020   0.000558   0.359234  -0.020019   0.500066  -0.025458
    24  H   -0.034322  -0.004306   0.359731  -0.032492  -0.025458   0.598469
    25  C    0.318454  -0.031993  -0.029970  -0.004367  -0.006137   0.004879
    26  O   -0.081570  -0.000061  -0.006810   0.000810   0.015657   0.000664
    27  N   -0.104031  -0.001603   0.003076   0.000216   0.000460  -0.000047
    28  H    0.000083   0.000023   0.000003  -0.000013  -0.000004  -0.000005
    29  C    0.006393  -0.000222  -0.000096  -0.000017  -0.000012   0.000001
    30  H    0.000705  -0.000008  -0.000025   0.000000  -0.000005   0.000000
    31  C   -0.000327  -0.000008   0.000022   0.000001   0.000001   0.000000
    32  H    0.000002   0.000000  -0.000001   0.000000   0.000000   0.000000
    33  H    0.000003   0.000000   0.000000   0.000000   0.000000   0.000000
    34  H    0.000088   0.000001   0.000002   0.000001  -0.000004   0.000000
    35  C   -0.000079   0.000004   0.000000   0.000000   0.000000   0.000000
    36  O   -0.000022   0.000000   0.000000   0.000000   0.000000   0.000000
    37  N    0.000000   0.000000   0.000000   0.000000   0.000000   0.000000
    38  H    0.000000   0.000000   0.000000   0.000000   0.000000   0.000000
    39  C    0.000000   0.000000   0.000000   0.000000   0.000000   0.000000
    40  H    0.000000   0.000000   0.000000   0.000000   0.000000   0.000000
    41  H    0.000000   0.000000   0.000000   0.000000   0.000000   0.000000
    42  H    0.000000   0.000000   0.000000   0.000000   0.000000   0.000000
             25         26         27         28         29         30
     1  H    0.000000   0.000000   0.000000   0.000000   0.000000   0.000000
     2  C    0.000000   0.000000   0.000000   0.000000   0.000000   0.000000
     3  H    0.000000   0.000000   0.000000   0.000000   0.000000   0.000000
     4  H    0.000000   0.000000   0.000000   0.000000   0.000000   0.000000
     5  C    0.000000   0.000000   0.000000   0.000001   0.000000   0.000000
     6  O    0.000000   0.000000   0.000000   0.000000   0.000000   0.000000
     7  N    0.000002   0.000000  -0.000001   0.000004   0.000000   0.000000
     8  H   -0.000004   0.000000   0.000023  -0.000111  -0.000001   0.000000
     9  C    0.000029   0.000000  -0.000115   0.000942   0.000003   0.000000
    10  H   -0.000008   0.000000   0.000006  -0.000044   0.000000   0.000000
    11  C   -0.000007   0.000000   0.000001  -0.000006   0.000000   0.000000
    12  H   -0.000002   0.000000   0.000001  -0.000012   0.000000   0.000000
    13  H   -0.000002   0.000000   0.000000   0.000000   0.000000   0.000000
    14  H    0.000000   0.000000   0.000000   0.000000   0.000000   0.000000
    15  C   -0.001385   0.000002   0.004830  -0.002204   0.000084  -0.000002
    16  O    0.002466   0.000003  -0.036155   0.059026   0.001442  -0.000027
    17  N   -0.011889   0.002119   0.003686  -0.004008  -0.000190  -0.000005
    18  H    0.002424  -0.000059  -0.000201  -0.000054   0.000007   0.000000
    19  C    0.318454  -0.081570  -0.104031   0.000083   0.006393   0.000705
    20  H   -0.031993  -0.000061  -0.001603   0.000023  -0.000222  -0.000008
    21  C   -0.029970  -0.006810   0.003076   0.000003  -0.000096  -0.000025
    22  H   -0.004367   0.000810   0.000216  -0.000013  -0.000017   0.000000
    23  H   -0.006137   0.015657   0.000460  -0.000004  -0.000012  -0.000005
    24  H    0.004879   0.000664  -0.000047  -0.000005   0.000001   0.000000
    25  C    4.322577   0.544751   0.305834  -0.014716  -0.027052  -0.001446
    26  O    0.544751   8.139703  -0.097249   0.002136   0.003029   0.015596
    27  N    0.305834  -0.097249   7.222269   0.231612   0.247984  -0.049721
    28  H   -0.014716   0.002136   0.231612   0.330047  -0.033387   0.003459
    29  C   -0.027052   0.003029   0.247984  -0.033387   5.096434   0.361965
    30  H   -0.001446   0.015596  -0.049721   0.003459   0.361965   0.578887
    31  C   -0.004937  -0.003531  -0.054782   0.002354   0.354980  -0.043379
    32  H    0.000127  -0.000006  -0.002390   0.001907  -0.033985   0.005164
    33  H    0.000063  -0.000031   0.005008  -0.000075  -0.029394  -0.000437
    34  H    0.004016   0.005333  -0.007066  -0.000415  -0.025023  -0.004607
    35  C    0.005212   0.000593  -0.031975  -0.001981   0.301530  -0.036287
    36  O    0.000412  -0.000003  -0.005910   0.022776  -0.083555   0.002676
    37  N   -0.000122  -0.000004   0.002020   0.000918  -0.105413   0.003566
    38  H   -0.000020  -0.000009   0.000001  -0.000052   0.002598   0.003261
    39  C    0.000002   0.000000  -0.000118  -0.000009   0.006222  -0.000046
    40  H    0.000000   0.000000  -0.000002  -0.000022   0.001173  -0.000043
    41  H    0.000000   0.000000   0.000007   0.000000  -0.000145  -0.000011
    42  H    0.000000   0.000000  -0.000001   0.000000  -0.000169  -0.000008
             31         32         33         34         35         36
     1  H    0.000000   0.000000   0.000000   0.000000   0.000000   0.000000
     2  C    0.000000   0.000000   0.000000   0.000000   0.000000   0.000000
     3  H    0.000000   0.000000   0.000000   0.000000   0.000000   0.000000
     4  H    0.000000   0.000000   0.000000   0.000000   0.000000   0.000000
     5  C    0.000000   0.000000   0.000000   0.000000   0.000000   0.000000
     6  O    0.000000   0.000000   0.000000   0.000000   0.000000   0.000000
     7  N    0.000000   0.000000   0.000000   0.000000   0.000000   0.000000
     8  H    0.000000   0.000000   0.000000   0.000000   0.000000   0.000000
     9  C    0.000000   0.000000   0.000000   0.000000  -0.000001  -0.000001
    10  H    0.000000   0.000000   0.000000   0.000000   0.000000   0.000000
    11  C    0.000000   0.000000   0.000000   0.000000   0.000000   0.000000
    12  H    0.000000   0.000000   0.000000   0.000000   0.000000   0.000000
    13  H    0.000000   0.000000   0.000000   0.000000   0.000000   0.000000
    14  H    0.000000   0.000000   0.000000   0.000000   0.000000   0.000000
    15  C    0.000004   0.000007   0.000000   0.000003  -0.000016  -0.000047
    16  O   -0.000066   0.000189   0.000001   0.000003  -0.000250  -0.000318
    17  N    0.000006   0.000000   0.000000  -0.000007   0.000000   0.000002
    18  H    0.000000   0.000000   0.000000   0.000000   0.000000   0.000000
    19  C   -0.000327   0.000002   0.000003   0.000088  -0.000079  -0.000022
    20  H   -0.000008   0.000000   0.000000   0.000001   0.000004   0.000000
    21  C    0.000022  -0.000001   0.000000   0.000002   0.000000   0.000000
    22  H    0.000001   0.000000   0.000000   0.000001   0.000000   0.000000
    23  H    0.000001   0.000000   0.000000  -0.000004   0.000000   0.000000
    24  H    0.000000   0.000000   0.000000   0.000000   0.000000   0.000000
    25  C   -0.004937   0.000127   0.000063   0.004016   0.005212   0.000412
    26  O   -0.003531  -0.000006  -0.000031   0.005333   0.000593  -0.000003
    27  N   -0.054782  -0.002390   0.005008  -0.007066  -0.031975  -0.005910
    28  H    0.002354   0.001907  -0.000075  -0.000415  -0.001981   0.022776
    29  C    0.354980  -0.033985  -0.029394  -0.025023   0.301530  -0.083555
    30  H   -0.043379   0.005164  -0.000437  -0.004607  -0.036287   0.002676
    31  C    5.136077   0.374312   0.356147   0.371143  -0.036807  -0.002878
    32  H    0.374312   0.539559  -0.026963  -0.027055  -0.004739   0.003571
    33  H    0.356147  -0.026963   0.580363  -0.027207  -0.001406  -0.000116
    34  H    0.371143  -0.027055  -0.027207   0.530344   0.003922  -0.000050
    35  C   -0.036807  -0.004739  -0.001406   0.003922   4.382607   0.579995
    36  O   -0.002878   0.003571  -0.000116  -0.000050   0.579995   8.079700
    37  N   -0.002370   0.000255   0.003284  -0.000062   0.273696  -0.092460
    38  H   -0.000029  -0.000008   0.000372  -0.000042  -0.019600   0.003317
    39  C   -0.000264   0.000007  -0.000081   0.000005  -0.025007  -0.008009
    40  H   -0.000028  -0.000012  -0.000003   0.000001  -0.000544   0.021134
    41  H   -0.000008   0.000000   0.000004   0.000000   0.000466   0.000417
    42  H    0.000054  -0.000001  -0.000021  -0.000001   0.002014   0.000458
             37         38         39         40         41         42
     1  H    0.000000   0.000000   0.000000   0.000000   0.000000   0.000000
     2  C    0.000000   0.000000   0.000000   0.000000   0.000000   0.000000
     3  H    0.000000   0.000000   0.000000   0.000000   0.000000   0.000000
     4  H    0.000000   0.000000   0.000000   0.000000   0.000000   0.000000
     5  C    0.000000   0.000000   0.000000   0.000000   0.000000   0.000000
     6  O    0.000000   0.000000   0.000000   0.000000   0.000000   0.000000
     7  N    0.000000   0.000000   0.000000   0.000000   0.000000   0.000000
     8  H    0.000000   0.000000   0.000000   0.000000   0.000000   0.000000
     9  C    0.000000   0.000000   0.000000   0.000000   0.000000   0.000000
    10  H    0.000000   0.000000   0.000000   0.000000   0.000000   0.000000
    11  C    0.000000   0.000000   0.000000   0.000000   0.000000   0.000000
    12  H    0.000000   0.000000   0.000000   0.000000   0.000000   0.000000
    13  H    0.000000   0.000000   0.000000   0.000000   0.000000   0.000000
    14  H    0.000000   0.000000   0.000000   0.000000   0.000000   0.000000
    15  C    0.000000   0.000000   0.000000   0.000000   0.000000   0.000000
    16  O   -0.000001   0.000000   0.000000   0.000000   0.000000   0.000000
    17  N    0.000000   0.000000   0.000000   0.000000   0.000000   0.000000
    18  H    0.000000   0.000000   0.000000   0.000000   0.000000   0.000000
    19  C    0.000000   0.000000   0.000000   0.000000   0.000000   0.000000
    20  H    0.000000   0.000000   0.000000   0.000000   0.000000   0.000000
    21  C    0.000000   0.000000   0.000000   0.000000   0.000000   0.000000
    22  H    0.000000   0.000000   0.000000   0.000000   0.000000   0.000000
    23  H    0.000000   0.000000   0.000000   0.000000   0.000000   0.000000
    24  H    0.000000   0.000000   0.000000   0.000000   0.000000   0.000000
    25  C   -0.000122  -0.000020   0.000002   0.000000   0.000000   0.000000
    26  O   -0.000004  -0.000009   0.000000   0.000000   0.000000   0.000000
    27  N    0.002020   0.000001  -0.000118  -0.000002   0.000007  -0.000001
    28  H    0.000918  -0.000052  -0.000009  -0.000022   0.000000   0.000000
    29  C   -0.105413   0.002598   0.006222   0.001173  -0.000145  -0.000169
    30  H    0.003566   0.003261  -0.000046  -0.000043  -0.000011  -0.000008
    31  C   -0.002370  -0.000029  -0.000264  -0.000028  -0.000008   0.000054
    32  H    0.000255  -0.000008   0.000007  -0.000012   0.000000  -0.000001
    33  H    0.003284   0.000372  -0.000081  -0.000003   0.000004  -0.000021
    34  H   -0.000062  -0.000042   0.000005   0.000001   0.000000  -0.000001
    35  C    0.273696  -0.019600  -0.025007  -0.000544   0.000466   0.002014
    36  O   -0.092460   0.003317  -0.008009   0.021134   0.000417   0.000458
    37  N    7.062825   0.304123   0.266033  -0.040579  -0.040755  -0.041472
    38  H    0.304123   0.407740  -0.032014   0.004139  -0.000825  -0.001006
    39  C    0.266033  -0.032014   4.966281   0.376497   0.381986   0.380332
    40  H   -0.040579   0.004139   0.376497   0.481215  -0.024989  -0.023914
    41  H   -0.040755  -0.000825   0.381986  -0.024989   0.564492  -0.040369
    42  H   -0.041472  -0.001006   0.380332  -0.023914  -0.040369   0.565751
 Mulliken atomic charges:
              1
     1  H    0.182549
     2  C   -0.533510
     3  H    0.183514
     4  H    0.151414
     5  C    0.596963
     6  O   -0.524645
     7  N   -0.604743
     8  H    0.351554
     9  C   -0.035831
    10  H    0.169965
    11  C   -0.442882
    12  H    0.161099
    13  H    0.137755
    14  H    0.190685
    15  C    0.622149
    16  O   -0.543414
    17  N   -0.620158
    18  H    0.337202
    19  C   -0.044756
    20  H    0.183664
    21  C   -0.447258
    22  H    0.162859
    23  H    0.196012
    24  H    0.130405
    25  C    0.622808
    26  O   -0.541065
    27  N   -0.635669
    28  H    0.401826
    29  C   -0.045185
    30  H    0.160778
    31  C   -0.445689
    32  H    0.170059
    33  H    0.140489
    34  H    0.176677
    35  C    0.608651
    36  O   -0.521089
    37  N   -0.593482
    38  H    0.328053
    39  C   -0.311816
    40  H    0.205979
    41  H    0.159729
    42  H    0.158352
 Sum of Mulliken atomic charges =   0.00000
 Mulliken charges with hydrogens summed into heavy atoms:
              1
     2  C   -0.016033
     5  C    0.596963
     6  O   -0.524645
     7  N   -0.253189
     9  C    0.134134
    11  C    0.046657
    15  C    0.622149
    16  O   -0.543414
    17  N   -0.282957
    19  C    0.138908
    21  C    0.042018
    25  C    0.622808
    26  O   -0.541065
    27  N   -0.233842
    29  C    0.115593
    31  C    0.041536
    35  C    0.608651
    36  O   -0.521089
    37  N   -0.265429
    39  C    0.212243
 Sum of Mulliken charges with hydrogens summed into heavy atoms =   0.00000
 Electronic spatial extent (au):  <R**2>=           8336.2880
 Charge=              0.0000 electrons
 Dipole moment (field-independent basis, Debye):
    X=              3.1594    Y=              0.2241    Z=             -0.3208  Tot=              3.1835
 Quadrupole moment (field-independent basis, Debye-Ang):
   XX=           -119.1507   YY=           -115.5025   ZZ=           -116.3316
   XY=            -14.1136   XZ=             -7.0446   YZ=             -3.1035
 Traceless Quadrupole moment (field-independent basis, Debye-Ang):
   XX=             -2.1557   YY=              1.4924   ZZ=              0.6633
   XY=            -14.1136   XZ=             -7.0446   YZ=             -3.1035
 Octapole moment (field-independent basis, Debye-Ang**2):
  XXX=            286.6971  YYY=            -34.6059  ZZZ=             -5.1083  XYY=            -47.5485
  XXY=            -61.1035  XXZ=             27.9846  XZZ=              5.4744  YZZ=              3.1997
  YYZ=            -13.1190  XYZ=             17.1821
 Hexadecapole moment (field-independent basis, Debye-Ang**3):
 XXXX=          -7581.1764 YYYY=          -2882.3851 ZZZZ=           -510.1137 XXXY=           -327.5513
 XXXZ=           -299.5284 YYYX=            -67.6261 YYYZ=             -8.0482 ZZZX=              1.6856
 ZZZY=             -3.9953 XXYY=          -1573.3649 XXZZ=          -1310.0859 YYZZ=           -550.8997
 XXYZ=             -7.0471 YYXZ=            -11.5068 ZZXY=             -5.0408
 N-N= 1.625610705373D+03 E-N=-5.560729579045D+03  KE= 9.813084740690D+02
 1\1\GINC-NODE005\FOpt\RB3LYP\6-31G(d)\C12H22N4O4\MANAGER\29-Dec-2016\0
 \\# b3lyp/6-31G* Opt=(ModRedundant, maxcycles=1000, calcfc) geom=nocro
 wd\\Phi Psi fixed scan\\0,1\H,8.271948088,0.0578757649,0.6934457985\C,
 8.3681194652,0.8789487851,-0.0236806742\H,8.3346634803,0.4411531874,-1
 .0262377847\H,9.3365950324,1.367390115,0.1200688911\C,7.1812660262,1.8
 157600575,0.1406712386\O,6.0214531215,1.4301352219,0.0206671353\N,7.49
 03244327,3.1113988571,0.4310586236\H,8.4460441482,3.4432260668,0.48194
 16084\C,6.46654682,4.1284931378,0.5599215955\H,5.6923427811,3.91813656
 21,-0.1880298184\C,5.813971224,4.1205573573,1.9568724025\H,6.563176195
 8,4.324352919,2.7287543709\H,5.021317521,4.8737974965,2.0325239353\H,5
 .3763883996,3.1349065006,2.1338542493\C,7.1372332976,5.4863125424,0.27
 75299143\O,8.35238053,5.6109591261,0.4421394983\N,6.2706105438,6.45325
 81067,-0.1107151227\H,5.3210358611,6.1196404258,-0.2227464905\C,6.3401
 946616,7.9127603815,-0.3759767452\H,6.0991991524,8.0325932587,-1.44288
 9697\C,5.2265357882,8.5830506763,0.4417531007\H,5.4167434577,8.4693019
 856,1.5139084239\H,5.1884680269,9.6465650034,0.2072140603\H,4.25413424
 83,8.1310125278,0.2113121701\C,7.6558567048,8.7333862139,-0.2279145143
 \O,7.5296714964,9.9492632563,-0.075072614\N,8.8471485439,8.1404059923,
 -0.4466635517\H,8.9419112725,7.1270518178,-0.3449020471\C,10.069191642
 8,8.9306354812,-0.4244674888\H,9.8279034292,9.9072592422,-0.8557080507
 \C,10.6030604499,9.1366745434,1.0064825183\H,10.8280640757,8.169944542
 2,1.4678348989\H,11.5176995629,9.7407436143,1.0004597988\H,9.847375814
 2,9.6538623234,1.6040358373\C,11.1157620411,8.1993279618,-1.2765219356
 \O,11.1896629012,6.9759492255,-1.2930058822\N,11.9708421732,9.01711038
 56,-1.9556252641\H,11.8110734676,10.0137988303,-1.9244623434\C,13.0730
 607499,8.5123345054,-2.7557297661\H,13.0791303631,7.4266276294,-2.6508
 354958\H,12.9462687082,8.7684302495,-3.8143249312\H,14.0312242997,8.91
 44081223,-2.4064398519\\Version=EM64L-G09RevA.02\State=1-A\HF=-990.492
 6733\RMSD=5.469e-09\RMSF=2.045e-04\Dipole=0.5553903,1.064828,-0.355530
 1\Quadrupole=8.237715,-10.7671454,2.5294304,0.2508574,-3.9191398,-5.86
 22168\PG=C01 [X(C12H22N4O4)]\\@


            THE IRISH PIG
 'TWAS AN EVENING IN NOVEMBER,
 AS I VERY WELL REMEMBER
 I WAS STROLLING DOWN THE STREET IN DRUNKEN PRIDE,
 BUT MY KNEES WERE ALL A'FLUTTER
 SO I LANDED IN THE GUTTER,
 AND A PIG CAME UP AND LAY DOWN BY MY SIDE.

 YES, I LAY THERE IN THE GUTTER
 THINKING THOUGHTS I COULD NOT UTTER
 WHEN A COLLEEN PASSING BY DID SOFTLY SAY,
 'YE CAN TELL A MAN THAT BOOZES
 BY THE COMPANY THAT HE CHOOSES.' -
 AT THAT, THE PIG GOT UP AND WALKED AWAY!
     -- THE ECONOMIST, AUGUST 23, 1986
 Job cpu time:  0 days  5 hours 12 minutes 36.3 seconds.
 File lengths (MBytes):  RWF=    608 Int=      0 D2E=      0 Chk=     11 Scr=      1
 Normal termination of Gaussian 09 at Thu Dec 29 03:45:20 2016.
