 Entering Gaussian System, Link 0=g09
 Initial command:
 /home/steboss/Software/g09/l1.exe /tmp/Gau-6904.inp -scrdir=/tmp/
 Entering Link 1 = /home/steboss/Software/g09/l1.exe PID=      6908.
  
 Copyright (c) 1988,1990,1992,1993,1995,1998,2003,2009, Gaussian, Inc.
                  All Rights Reserved.
  
 This is part of the Gaussian(R) 09 program.  It is based on
 the Gaussian(R) 03 system (copyright 2003, Gaussian, Inc.),
 the Gaussian(R) 98 system (copyright 1998, Gaussian, Inc.),
 the Gaussian(R) 94 system (copyright 1995, Gaussian, Inc.),
 the Gaussian 92(TM) system (copyright 1992, Gaussian, Inc.),
 the Gaussian 90(TM) system (copyright 1990, Gaussian, Inc.),
 the Gaussian 88(TM) system (copyright 1988, Gaussian, Inc.),
 the Gaussian 86(TM) system (copyright 1986, Carnegie Mellon
 University), and the Gaussian 82(TM) system (copyright 1983,
 Carnegie Mellon University). Gaussian is a federally registered
 trademark of Gaussian, Inc.
  
 This software contains proprietary and confidential information,
 including trade secrets, belonging to Gaussian, Inc.
  
 This software is provided under written license and may be
 used, copied, transmitted, or stored only in accord with that
 written license.
  
 The following legend is applicable only to US Government
 contracts under FAR:
  
                    RESTRICTED RIGHTS LEGEND
  
 Use, reproduction and disclosure by the US Government is
 subject to restrictions as set forth in subparagraphs (a)
 and (c) of the Commercial Computer Software - Restricted
 Rights clause in FAR 52.227-19.
  
 Gaussian, Inc.
 340 Quinnipiac St., Bldg. 40, Wallingford CT 06492
  
  
 ---------------------------------------------------------------
 Warning -- This program may not be used in any manner that
 competes with the business of Gaussian, Inc. or will provide
 assistance to any competitor of Gaussian, Inc.  The licensee
 of this program is prohibited from giving any competitor of
 Gaussian, Inc. access to this program.  By using this program,
 the user acknowledges that Gaussian, Inc. is engaged in the
 business of creating and licensing software in the field of
 computational chemistry and represents and warrants to the
 licensee that it is not a competitor of Gaussian, Inc. and that
 it will not use this program in any manner prohibited above.
 ---------------------------------------------------------------
  

 Cite this work as:
 Gaussian 09, Revision A.02,
 M. J. Frisch, G. W. Trucks, H. B. Schlegel, G. E. Scuseria, 
 M. A. Robb, J. R. Cheeseman, G. Scalmani, V. Barone, B. Mennucci, 
 G. A. Petersson, H. Nakatsuji, M. Caricato, X. Li, H. P. Hratchian, 
 A. F. Izmaylov, J. Bloino, G. Zheng, J. L. Sonnenberg, M. Hada, 
 M. Ehara, K. Toyota, R. Fukuda, J. Hasegawa, M. Ishida, T. Nakajima, 
 Y. Honda, O. Kitao, H. Nakai, T. Vreven, J. A. Montgomery, Jr., 
 J. E. Peralta, F. Ogliaro, M. Bearpark, J. J. Heyd, E. Brothers, 
 K. N. Kudin, V. N. Staroverov, R. Kobayashi, J. Normand, 
 K. Raghavachari, A. Rendell, J. C. Burant, S. S. Iyengar, J. Tomasi, 
 M. Cossi, N. Rega, J. M. Millam, M. Klene, J. E. Knox, J. B. Cross, 
 V. Bakken, C. Adamo, J. Jaramillo, R. Gomperts, R. E. Stratmann, 
 O. Yazyev, A. J. Austin, R. Cammi, C. Pomelli, J. W. Ochterski, 
 R. L. Martin, K. Morokuma, V. G. Zakrzewski, G. A. Voth, 
 P. Salvador, J. J. Dannenberg, S. Dapprich, A. D. Daniels, 
 O. Farkas, J. B. Foresman, J. V. Ortiz, J. Cioslowski, 
 and D. J. Fox, Gaussian, Inc., Wallingford CT, 2009.
 
 ******************************************
 Gaussian 09:  EM64L-G09RevA.02 11-Jun-2009
                28-Dec-2016 
 ******************************************
 %chk=structure_150.chk
 ----------------------------------------------------------------------
 # b3lyp/6-31G* Opt=(ModRedundant, maxcycles=1000, calcfc) geom=nocrowd
 ----------------------------------------------------------------------
 1/6=1000,10=4,14=-1,18=120,19=15,26=3,38=1/1,3;
 2/9=110,12=1,17=6,18=5,40=1/2;
 3/5=1,6=6,7=1,11=2,16=1,25=1,30=1,71=2,74=-5/1,2,3;
 4//1;
 5/5=2,38=5/2;
 8/6=4,10=90,11=11/1;
 11/6=1,8=1,9=11,15=111,16=1/1,2,10;
 10/6=1,7=6,13=1/2;
 6/7=2,8=2,9=2,10=2,28=1/1;
 7/10=1,18=20,25=1/1,2,3,16;
 1/6=1000,10=4,14=-1,18=20,19=15/3(2);
 2/9=110,12=1/2;
 99//99;
 2/9=110,12=1/2;
 3/5=1,6=6,7=1,11=2,16=1,25=1,30=1,71=1,74=-5/1,2,3;
 4/5=5,16=3/1;
 5/5=2,38=5/2;
 7//1,2,3,16;
 1/6=1000,14=-1,18=20,19=15/3(-5);
 2/9=110,12=1/2;
 6/7=2,8=2,9=2,10=2,19=2,28=1/1;
 99/9=1/99;
 ------------------
 Phi Psi fixed scan
 ------------------
 Symbolic Z-matrix:
 Charge =  0 Multiplicity = 1
 H                     9.6921    1.        0. 
 C                     9.6921    2.09      0. 
 H                     10.2058   2.4538   -0.8898 
 H                     10.2058   2.4538    0.8898 
 C                     8.2647    2.6408    0. 
 O                     7.3015    1.8774    0. 
 N                     8.1367    3.9696    0. 
 H                     8.959     4.5561    0. 
 C                     6.8388    4.6139    0. 
 H                     6.2845    4.3155   -0.8898 
 C                     6.0308    4.2208    1.2321 
 H                     6.5688    4.5213    2.1312 
 H                     5.0616    4.7189    1.2058 
 H                     5.8836    3.1409    1.2414 
 C                     6.9794    6.1294    0. 
 O                     8.0915    6.6527    0. 
 N                     5.846     6.8349    0. 
 H                     4.9551    6.3592    0. 
 C                     5.8461    8.2839    0. 
 H                     5.3323    8.6477   -0.8898 
 C                     5.1347    8.8329    1.2322 
 H                     5.6431    8.4846    2.1312 
 H                     5.1499    9.9224    1.2058 
 H                     4.1019    8.4846    1.2414 
 C                     7.266     8.8318    0. 
 O                     8.1781    8.2008    0.5295 
 N                     7.4515    10.0115  -0.5968 
 H                     6.67      10.4926  -1.0184 
 C                     8.7559    10.639   -0.6638 
 H                     9.127     10.8154   0.3458 
 C                     9.754     9.7533   -1.402 
 H                     9.4006    9.5752   -2.4177 
 H                     10.724    10.2493  -1.4371 
 H                     9.8517    8.8016   -0.8798 
 C                     8.6859    11.9714  -1.396 
 O                     7.6167    12.3837  -1.8403 
 N                     9.8314    12.6456  -1.5211 
 H                     10.6854   12.2655  -1.1388 
 C                     9.8966    13.9257  -2.197 
 H                     8.9033    14.2009  -2.5517 
 H                     10.2576   14.6853  -1.5037 
 H                     10.5779   13.8551  -3.0449 
 
 The following ModRedundant input section has been read:
 D   15   17   19   25 F                                                       
 D   17   19   25   27 F                                                       

 GradGradGradGradGradGradGradGradGradGradGradGradGradGradGradGradGradGrad
 Berny optimization.
 Initialization pass.
                           ----------------------------
                           !    Initial Parameters    !
                           ! (Angstroms and Degrees)  !
 --------------------------                            --------------------------
 ! Name  Definition              Value          Derivative Info.                !
 --------------------------------------------------------------------------------
 ! R1    R(1,2)                  1.09           calculate D2E/DX2 analytically  !
 ! R2    R(2,3)                  1.0899         calculate D2E/DX2 analytically  !
 ! R3    R(2,4)                  1.0899         calculate D2E/DX2 analytically  !
 ! R4    R(2,5)                  1.53           calculate D2E/DX2 analytically  !
 ! R5    R(5,6)                  1.229          calculate D2E/DX2 analytically  !
 ! R6    R(5,7)                  1.335          calculate D2E/DX2 analytically  !
 ! R7    R(7,8)                  1.01           calculate D2E/DX2 analytically  !
 ! R8    R(7,9)                  1.449          calculate D2E/DX2 analytically  !
 ! R9    R(9,10)                 1.09           calculate D2E/DX2 analytically  !
 ! R10   R(9,11)                 1.5249         calculate D2E/DX2 analytically  !
 ! R11   R(9,15)                 1.522          calculate D2E/DX2 analytically  !
 ! R12   R(11,12)                1.09           calculate D2E/DX2 analytically  !
 ! R13   R(11,13)                1.09           calculate D2E/DX2 analytically  !
 ! R14   R(11,14)                1.0899         calculate D2E/DX2 analytically  !
 ! R15   R(15,16)                1.2291         calculate D2E/DX2 analytically  !
 ! R16   R(15,17)                1.335          calculate D2E/DX2 analytically  !
 ! R17   R(16,26)                1.6384         calculate D2E/DX2 analytically  !
 ! R18   R(17,18)                1.0099         calculate D2E/DX2 analytically  !
 ! R19   R(17,19)                1.449          calculate D2E/DX2 analytically  !
 ! R20   R(19,20)                1.09           calculate D2E/DX2 analytically  !
 ! R21   R(19,21)                1.5251         calculate D2E/DX2 analytically  !
 ! R22   R(19,25)                1.5219         calculate D2E/DX2 analytically  !
 ! R23   R(21,22)                1.0899         calculate D2E/DX2 analytically  !
 ! R24   R(21,23)                1.0899         calculate D2E/DX2 analytically  !
 ! R25   R(21,24)                1.09           calculate D2E/DX2 analytically  !
 ! R26   R(25,26)                1.229          calculate D2E/DX2 analytically  !
 ! R27   R(25,27)                1.335          calculate D2E/DX2 analytically  !
 ! R28   R(27,28)                1.0099         calculate D2E/DX2 analytically  !
 ! R29   R(27,29)                1.449          calculate D2E/DX2 analytically  !
 ! R30   R(29,30)                1.09           calculate D2E/DX2 analytically  !
 ! R31   R(29,31)                1.525          calculate D2E/DX2 analytically  !
 ! R32   R(29,35)                1.5219         calculate D2E/DX2 analytically  !
 ! R33   R(31,32)                1.0901         calculate D2E/DX2 analytically  !
 ! R34   R(31,33)                1.09           calculate D2E/DX2 analytically  !
 ! R35   R(31,34)                1.0899         calculate D2E/DX2 analytically  !
 ! R36   R(35,36)                1.2291         calculate D2E/DX2 analytically  !
 ! R37   R(35,37)                1.3351         calculate D2E/DX2 analytically  !
 ! R38   R(37,38)                1.0099         calculate D2E/DX2 analytically  !
 ! R39   R(37,39)                1.4491         calculate D2E/DX2 analytically  !
 ! R40   R(39,40)                1.09           calculate D2E/DX2 analytically  !
 ! R41   R(39,41)                1.0899         calculate D2E/DX2 analytically  !
 ! R42   R(39,42)                1.09           calculate D2E/DX2 analytically  !
 ! A1    A(1,2,3)              109.4982         calculate D2E/DX2 analytically  !
 ! A2    A(1,2,4)              109.4982         calculate D2E/DX2 analytically  !
 ! A3    A(1,2,5)              111.1004         calculate D2E/DX2 analytically  !
 ! A4    A(3,2,4)              109.4463         calculate D2E/DX2 analytically  !
 ! A5    A(3,2,5)              108.6355         calculate D2E/DX2 analytically  !
 ! A6    A(4,2,5)              108.6355         calculate D2E/DX2 analytically  !
 ! A7    A(2,5,6)              120.5004         calculate D2E/DX2 analytically  !
 ! A8    A(2,5,7)              116.6026         calculate D2E/DX2 analytically  !
 ! A9    A(6,5,7)              122.897          calculate D2E/DX2 analytically  !
 ! A10   A(5,7,8)              119.9959         calculate D2E/DX2 analytically  !
 ! A11   A(5,7,9)              121.9028         calculate D2E/DX2 analytically  !
 ! A12   A(8,7,9)              118.1013         calculate D2E/DX2 analytically  !
 ! A13   A(7,9,10)             109.4983         calculate D2E/DX2 analytically  !
 ! A14   A(7,9,11)             111.0986         calculate D2E/DX2 analytically  !
 ! A15   A(7,9,15)             111.1002         calculate D2E/DX2 analytically  !
 ! A16   A(10,9,11)            108.636          calculate D2E/DX2 analytically  !
 ! A17   A(10,9,15)            108.6373         calculate D2E/DX2 analytically  !
 ! A18   A(11,9,15)            107.7957         calculate D2E/DX2 analytically  !
 ! A19   A(9,11,12)            109.5034         calculate D2E/DX2 analytically  !
 ! A20   A(9,11,13)            109.5016         calculate D2E/DX2 analytically  !
 ! A21   A(9,11,14)            109.5033         calculate D2E/DX2 analytically  !
 ! A22   A(12,11,13)           109.4381         calculate D2E/DX2 analytically  !
 ! A23   A(12,11,14)           109.437          calculate D2E/DX2 analytically  !
 ! A24   A(13,11,14)           109.4437         calculate D2E/DX2 analytically  !
 ! A25   A(9,15,16)            120.4998         calculate D2E/DX2 analytically  !
 ! A26   A(9,15,17)            116.6003         calculate D2E/DX2 analytically  !
 ! A27   A(16,15,17)           122.8999         calculate D2E/DX2 analytically  !
 ! A28   A(15,16,26)           116.7513         calculate D2E/DX2 analytically  !
 ! A29   A(15,17,18)           119.9991         calculate D2E/DX2 analytically  !
 ! A30   A(15,17,19)           121.8968         calculate D2E/DX2 analytically  !
 ! A31   A(18,17,19)           118.1041         calculate D2E/DX2 analytically  !
 ! A32   A(17,19,20)           109.4954         calculate D2E/DX2 analytically  !
 ! A33   A(17,19,21)           111.0974         calculate D2E/DX2 analytically  !
 ! A34   A(17,19,25)           111.1042         calculate D2E/DX2 analytically  !
 ! A35   A(20,19,21)           108.6349         calculate D2E/DX2 analytically  !
 ! A36   A(20,19,25)           108.6399         calculate D2E/DX2 analytically  !
 ! A37   A(21,19,25)           107.7944         calculate D2E/DX2 analytically  !
 ! A38   A(19,21,22)           109.4996         calculate D2E/DX2 analytically  !
 ! A39   A(19,21,23)           109.4977         calculate D2E/DX2 analytically  !
 ! A40   A(19,21,24)           109.4988         calculate D2E/DX2 analytically  !
 ! A41   A(22,21,23)           109.4452         calculate D2E/DX2 analytically  !
 ! A42   A(22,21,24)           109.4447         calculate D2E/DX2 analytically  !
 ! A43   A(23,21,24)           109.4412         calculate D2E/DX2 analytically  !
 ! A44   A(19,25,26)           120.5009         calculate D2E/DX2 analytically  !
 ! A45   A(19,25,27)           116.5995         calculate D2E/DX2 analytically  !
 ! A46   A(26,25,27)           122.8996         calculate D2E/DX2 analytically  !
 ! A47   A(16,26,25)           107.8576         calculate D2E/DX2 analytically  !
 ! A48   A(25,27,28)           120.0031         calculate D2E/DX2 analytically  !
 ! A49   A(25,27,29)           121.8985         calculate D2E/DX2 analytically  !
 ! A50   A(28,27,29)           118.0984         calculate D2E/DX2 analytically  !
 ! A51   A(27,29,30)           109.4952         calculate D2E/DX2 analytically  !
 ! A52   A(27,29,31)           111.1026         calculate D2E/DX2 analytically  !
 ! A53   A(27,29,35)           111.0976         calculate D2E/DX2 analytically  !
 ! A54   A(30,29,31)           108.634          calculate D2E/DX2 analytically  !
 ! A55   A(30,29,35)           108.6378         calculate D2E/DX2 analytically  !
 ! A56   A(31,29,35)           107.7989         calculate D2E/DX2 analytically  !
 ! A57   A(29,31,32)           109.4963         calculate D2E/DX2 analytically  !
 ! A58   A(29,31,33)           109.4957         calculate D2E/DX2 analytically  !
 ! A59   A(29,31,34)           109.504          calculate D2E/DX2 analytically  !
 ! A60   A(32,31,33)           109.4414         calculate D2E/DX2 analytically  !
 ! A61   A(32,31,34)           109.44           calculate D2E/DX2 analytically  !
 ! A62   A(33,31,34)           109.4499         calculate D2E/DX2 analytically  !
 ! A63   A(29,35,36)           120.5047         calculate D2E/DX2 analytically  !
 ! A64   A(29,35,37)           116.5977         calculate D2E/DX2 analytically  !
 ! A65   A(36,35,37)           122.8976         calculate D2E/DX2 analytically  !
 ! A66   A(35,37,38)           120.0009         calculate D2E/DX2 analytically  !
 ! A67   A(35,37,39)           121.8996         calculate D2E/DX2 analytically  !
 ! A68   A(38,37,39)           118.0995         calculate D2E/DX2 analytically  !
 ! A69   A(37,39,40)           109.5002         calculate D2E/DX2 analytically  !
 ! A70   A(37,39,41)           109.5035         calculate D2E/DX2 analytically  !
 ! A71   A(37,39,42)           109.4964         calculate D2E/DX2 analytically  !
 ! A72   A(40,39,41)           109.4418         calculate D2E/DX2 analytically  !
 ! A73   A(40,39,42)           109.4389         calculate D2E/DX2 analytically  !
 ! A74   A(41,39,42)           109.4465         calculate D2E/DX2 analytically  !
 ! D1    D(1,2,5,6)              0.0            calculate D2E/DX2 analytically  !
 ! D2    D(1,2,5,7)            180.0            calculate D2E/DX2 analytically  !
 ! D3    D(3,2,5,6)            120.51           calculate D2E/DX2 analytically  !
 ! D4    D(3,2,5,7)            -59.49           calculate D2E/DX2 analytically  !
 ! D5    D(4,2,5,6)           -120.51           calculate D2E/DX2 analytically  !
 ! D6    D(4,2,5,7)             59.49           calculate D2E/DX2 analytically  !
 ! D7    D(2,5,7,8)              0.0            calculate D2E/DX2 analytically  !
 ! D8    D(2,5,7,9)            180.0            calculate D2E/DX2 analytically  !
 ! D9    D(6,5,7,8)            180.0            calculate D2E/DX2 analytically  !
 ! D10   D(6,5,7,9)              0.0            calculate D2E/DX2 analytically  !
 ! D11   D(5,7,9,10)           -59.9991         calculate D2E/DX2 analytically  !
 ! D12   D(5,7,9,11)            59.9992         calculate D2E/DX2 analytically  !
 ! D13   D(5,7,9,15)           180.0            calculate D2E/DX2 analytically  !
 ! D14   D(8,7,9,10)           120.0009         calculate D2E/DX2 analytically  !
 ! D15   D(8,7,9,11)          -120.0008         calculate D2E/DX2 analytically  !
 ! D16   D(8,7,9,15)             0.0            calculate D2E/DX2 analytically  !
 ! D17   D(7,9,11,12)           60.0014         calculate D2E/DX2 analytically  !
 ! D18   D(7,9,11,13)          179.9992         calculate D2E/DX2 analytically  !
 ! D19   D(7,9,11,14)          -59.9962         calculate D2E/DX2 analytically  !
 ! D20   D(10,9,11,12)        -179.4894         calculate D2E/DX2 analytically  !
 ! D21   D(10,9,11,13)         -59.4916         calculate D2E/DX2 analytically  !
 ! D22   D(10,9,11,14)          60.5131         calculate D2E/DX2 analytically  !
 ! D23   D(15,9,11,12)         -61.9437         calculate D2E/DX2 analytically  !
 ! D24   D(15,9,11,13)          58.0541         calculate D2E/DX2 analytically  !
 ! D25   D(15,9,11,14)         178.0588         calculate D2E/DX2 analytically  !
 ! D26   D(7,9,15,16)            0.0            calculate D2E/DX2 analytically  !
 ! D27   D(7,9,15,17)          180.0            calculate D2E/DX2 analytically  !
 ! D28   D(10,9,15,16)        -120.5111         calculate D2E/DX2 analytically  !
 ! D29   D(10,9,15,17)          59.4889         calculate D2E/DX2 analytically  !
 ! D30   D(11,9,15,16)         121.9441         calculate D2E/DX2 analytically  !
 ! D31   D(11,9,15,17)         -58.0559         calculate D2E/DX2 analytically  !
 ! D32   D(9,15,16,26)        -158.7825         calculate D2E/DX2 analytically  !
 ! D33   D(17,15,16,26)         21.2175         calculate D2E/DX2 analytically  !
 ! D34   D(9,15,17,18)           0.0            calculate D2E/DX2 analytically  !
 ! D35   D(9,15,17,19)         180.0            calculate D2E/DX2 analytically  !
 ! D36   D(16,15,17,18)        180.0            calculate D2E/DX2 analytically  !
 ! D37   D(16,15,17,19)          0.0            calculate D2E/DX2 analytically  !
 ! D38   D(15,16,26,25)        -45.9509         calculate D2E/DX2 analytically  !
 ! D39   D(15,17,19,20)        120.0048         calculate D2E/DX2 analytically  !
 ! D40   D(15,17,19,21)       -120.0009         calculate D2E/DX2 analytically  !
 ! D41   D(15,17,19,25)          0.0            frozen, calculate D2E/DX2 analyt!
 ! D42   D(18,17,19,20)        -59.9952         calculate D2E/DX2 analytically  !
 ! D43   D(18,17,19,21)         59.9991         calculate D2E/DX2 analytically  !
 ! D44   D(18,17,19,25)        180.0            calculate D2E/DX2 analytically  !
 ! D45   D(17,19,21,22)         60.0039         calculate D2E/DX2 analytically  !
 ! D46   D(17,19,21,23)       -179.9943         calculate D2E/DX2 analytically  !
 ! D47   D(17,19,21,24)        -59.998          calculate D2E/DX2 analytically  !
 ! D48   D(20,19,21,22)       -179.4919         calculate D2E/DX2 analytically  !
 ! D49   D(20,19,21,23)        -59.4901         calculate D2E/DX2 analytically  !
 ! D50   D(20,19,21,24)         60.5062         calculate D2E/DX2 analytically  !
 ! D51   D(25,19,21,22)        -61.9445         calculate D2E/DX2 analytically  !
 ! D52   D(25,19,21,23)         58.0573         calculate D2E/DX2 analytically  !
 ! D53   D(25,19,21,24)        178.0536         calculate D2E/DX2 analytically  !
 ! D54   D(17,19,25,26)        -30.0019         calculate D2E/DX2 analytically  !
 ! D55   D(17,19,25,27)        150.0033         frozen, calculate D2E/DX2 analyt!
 ! D56   D(20,19,25,26)       -150.5136         calculate D2E/DX2 analytically  !
 ! D57   D(20,19,25,27)         29.4916         calculate D2E/DX2 analytically  !
 ! D58   D(21,19,25,26)         91.9422         calculate D2E/DX2 analytically  !
 ! D59   D(21,19,25,27)        -88.0526         calculate D2E/DX2 analytically  !
 ! D60   D(19,25,26,16)         48.3427         calculate D2E/DX2 analytically  !
 ! D61   D(27,25,26,16)       -131.6628         calculate D2E/DX2 analytically  !
 ! D62   D(19,25,27,28)         -0.0047         calculate D2E/DX2 analytically  !
 ! D63   D(19,25,27,29)       -179.9949         calculate D2E/DX2 analytically  !
 ! D64   D(26,25,27,28)       -179.9994         calculate D2E/DX2 analytically  !
 ! D65   D(26,25,27,29)          0.0104         calculate D2E/DX2 analytically  !
 ! D66   D(25,27,29,30)        -60.0053         calculate D2E/DX2 analytically  !
 ! D67   D(25,27,29,31)         59.991          calculate D2E/DX2 analytically  !
 ! D68   D(25,27,29,35)        179.9968         calculate D2E/DX2 analytically  !
 ! D69   D(28,27,29,30)        120.0044         calculate D2E/DX2 analytically  !
 ! D70   D(28,27,29,31)       -119.9993         calculate D2E/DX2 analytically  !
 ! D71   D(28,27,29,35)          0.0065         calculate D2E/DX2 analytically  !
 ! D72   D(27,29,31,32)         60.0039         calculate D2E/DX2 analytically  !
 ! D73   D(27,29,31,33)        179.9978         calculate D2E/DX2 analytically  !
 ! D74   D(27,29,31,34)        -59.9933         calculate D2E/DX2 analytically  !
 ! D75   D(30,29,31,32)       -179.4894         calculate D2E/DX2 analytically  !
 ! D76   D(30,29,31,33)        -59.4956         calculate D2E/DX2 analytically  !
 ! D77   D(30,29,31,34)         60.5133         calculate D2E/DX2 analytically  !
 ! D78   D(35,29,31,32)        -61.9425         calculate D2E/DX2 analytically  !
 ! D79   D(35,29,31,33)         58.0514         calculate D2E/DX2 analytically  !
 ! D80   D(35,29,31,34)        178.0603         calculate D2E/DX2 analytically  !
 ! D81   D(27,29,35,36)         -0.0049         calculate D2E/DX2 analytically  !
 ! D82   D(27,29,35,37)        179.9973         calculate D2E/DX2 analytically  !
 ! D83   D(30,29,35,36)       -120.5109         calculate D2E/DX2 analytically  !
 ! D84   D(30,29,35,37)         59.4914         calculate D2E/DX2 analytically  !
 ! D85   D(31,29,35,36)        121.9446         calculate D2E/DX2 analytically  !
 ! D86   D(31,29,35,37)        -58.0531         calculate D2E/DX2 analytically  !
 ! D87   D(29,35,37,38)         -0.0062         calculate D2E/DX2 analytically  !
 ! D88   D(29,35,37,39)       -179.9986         calculate D2E/DX2 analytically  !
 ! D89   D(36,35,37,38)        179.9961         calculate D2E/DX2 analytically  !
 ! D90   D(36,35,37,39)          0.0037         calculate D2E/DX2 analytically  !
 ! D91   D(35,37,39,40)         -0.0043         calculate D2E/DX2 analytically  !
 ! D92   D(35,37,39,41)        119.9972         calculate D2E/DX2 analytically  !
 ! D93   D(35,37,39,42)       -119.9979         calculate D2E/DX2 analytically  !
 ! D94   D(38,37,39,40)       -179.9968         calculate D2E/DX2 analytically  !
 ! D95   D(38,37,39,41)        -59.9953         calculate D2E/DX2 analytically  !
 ! D96   D(38,37,39,42)         60.0096         calculate D2E/DX2 analytically  !
 --------------------------------------------------------------------------------
 Trust Radius=3.00D-01 FncErr=1.00D-07 GrdErr=1.00D-06
 Number of steps in this run= 252 maximum allowed number of steps= 252.
 GradGradGradGradGradGradGradGradGradGradGradGradGradGradGradGradGradGrad

                          Input orientation:                          
 ---------------------------------------------------------------------
 Center     Atomic      Atomic             Coordinates (Angstroms)
 Number     Number       Type             X           Y           Z
 ---------------------------------------------------------------------
      1          1           0        9.692100    1.000000    0.000000
      2          6           0        9.692100    2.090000    0.000000
      3          1           0       10.205800    2.453800   -0.889800
      4          1           0       10.205800    2.453800    0.889800
      5          6           0        8.264700    2.640800    0.000000
      6          8           0        7.301500    1.877400    0.000000
      7          7           0        8.136700    3.969600    0.000000
      8          1           0        8.959000    4.556100    0.000000
      9          6           0        6.838800    4.613900    0.000000
     10          1           0        6.284500    4.315500   -0.889800
     11          6           0        6.030800    4.220800    1.232100
     12          1           0        6.568800    4.521300    2.131200
     13          1           0        5.061600    4.718900    1.205800
     14          1           0        5.883600    3.140900    1.241400
     15          6           0        6.979400    6.129400    0.000000
     16          8           0        8.091500    6.652700    0.000000
     17          7           0        5.846000    6.834900    0.000000
     18          1           0        4.955100    6.359200    0.000000
     19          6           0        5.846100    8.283900    0.000000
     20          1           0        5.332300    8.647700   -0.889800
     21          6           0        5.134700    8.832900    1.232200
     22          1           0        5.643100    8.484600    2.131200
     23          1           0        5.149900    9.922400    1.205800
     24          1           0        4.101900    8.484600    1.241400
     25          6           0        7.266000    8.831800    0.000000
     26          8           0        8.178100    8.200800    0.529500
     27          7           0        7.451500   10.011500   -0.596800
     28          1           0        6.670000   10.492600   -1.018400
     29          6           0        8.755900   10.639000   -0.663800
     30          1           0        9.127000   10.815400    0.345800
     31          6           0        9.754000    9.753300   -1.402000
     32          1           0        9.400600    9.575200   -2.417700
     33          1           0       10.724000   10.249300   -1.437100
     34          1           0        9.851700    8.801600   -0.879800
     35          6           0        8.685900   11.971400   -1.396000
     36          8           0        7.616700   12.383700   -1.840300
     37          7           0        9.831400   12.645600   -1.521100
     38          1           0       10.685400   12.265500   -1.138800
     39          6           0        9.896600   13.925700   -2.197000
     40          1           0        8.903300   14.200900   -2.551700
     41          1           0       10.257600   14.685300   -1.503700
     42          1           0       10.577900   13.855100   -3.044900
 ---------------------------------------------------------------------
                    Distance matrix (angstroms):
                    1          2          3          4          5
     1  H    0.000000
     2  C    1.090000   0.000000
     3  H    1.780215   1.089946   0.000000
     4  H    1.780215   1.089946   1.779600   0.000000
     5  C    2.174786   1.529984   2.143498   2.143498   0.000000
     6  O    2.546527   2.400035   3.091753   3.091753   1.229038
     7  N    3.352282   2.439706   2.714879   2.714879   1.334951
     8  H    3.630879   2.572758   2.601138   2.601138   2.037260
     9  C    4.604519   3.809382   4.098105   4.098105   2.434402
    10  H    4.836943   4.166093   4.340797   4.691428   2.741816
    11  C    5.029587   4.411745   5.005534   4.546436   3.000796
    12  H    5.166872   4.495357   5.160307   4.363874   3.309739
    13  H    6.060173   5.459542   5.998751   5.629683   4.004036
    14  H    4.541938   4.141272   4.867806   4.390574   2.731449
    15  C    5.802541   4.865747   4.971060   4.971060   3.717839
    16  O    5.874942   4.835303   4.784639   4.784639   4.015637
    17  N    6.988458   6.107910   6.244489   6.244489   4.841548
    18  H    7.152635   6.376930   6.604070   6.604070   4.977946
    19  C    8.236924   7.290824   7.334084   7.334084   6.139561
    20  H    8.847989   7.924836   7.881332   8.079751   6.743409
    21  C    9.145629   8.231337   8.420918   8.156360   7.046795
    22  H    8.772437   7.863035   8.143416   7.663541   6.750170
    23  H   10.084382   9.134113   9.259247   9.024520   8.011094
    24  H    9.423940   8.583841   8.841389   8.587885   7.281482
    25  C    8.198967   7.165042   7.079057   7.079057   6.271035
    26  O    7.377268   6.317788   6.257315   6.104866   5.585828
    27  N    9.305030   8.253885   8.049276   8.180158   7.439401
    28  H   10.013974   8.987431   8.782979   8.986958   8.076569
    29  C    9.707081   8.625688   8.315695   8.456559   8.040716
    30  H    9.837733   8.750515   8.520967   8.448438   8.227225
    31  C    8.865083   7.790738   7.331383   7.664148   7.400762
    32  H    8.914275   7.871370   7.327835   7.893177   7.431113
    33  H    9.416986   8.348907   7.831851   8.151860   8.124204
    34  H    7.852674   6.770901   6.357677   6.599351   6.422466
    35  C   11.105533  10.030121   9.651479   9.905538   9.443851
    36  O   11.716766  10.660875  10.305814  10.618842   9.936333
    37  N   11.745346  10.665545  10.218195  10.479762  10.240328
    38  H   11.366398  10.287094   9.826570  10.030687   9.989570
    39  C   13.112679  12.039619  11.550276  11.883957  11.612014
    40  H   13.468376  12.401906  11.935358  12.309947  11.855585
    41  H   13.779272  12.697342  12.247006  12.463592  12.300518
    42  H   13.240455  12.184976  11.609158  12.066895  11.848326
                    6          7          8          9         10
     6  O    0.000000
     7  N    2.252745   0.000000
     8  H    3.150038   1.010029   0.000000
     9  C    2.775342   1.449023   2.120988   0.000000
    10  H    2.787537   2.083755   2.828884   1.089970   0.000000
    11  C    2.936711   2.452751   3.194503   1.524947   2.139110
    12  H    3.474057   2.702720   3.202543   2.150230   3.041319
    13  H    3.813821   3.386982   4.082914   2.150214   2.459625
    14  H    2.268909   2.702643   3.605822   2.150165   2.466256
    15  C    4.264183   2.450322   2.528654   1.522008   2.136554
    16  O    4.840206   2.683481   2.268984   2.392898   3.085368
    17  N    5.166748   3.668413   3.857940   2.432795   2.707656
    18  H    5.058866   3.979041   4.391171   2.567956   2.595334
    19  C    6.569736   4.884673   4.856608   3.801888   4.090494
    20  H    7.106789   5.526393   5.539484   4.396911   4.435611
    21  C    7.388662   5.846538   5.868101   4.714047   5.121702
    22  H    7.137744   5.580796   5.565098   4.577557   5.188374
    23  H    8.414592   6.768364   6.690319   5.699694   6.092305
    24  H    7.445375   6.181093   6.369113   4.900410   5.165961
    25  C    6.954491   4.939545   4.598680   4.239479   4.706597
    26  O    6.405793   4.264404   3.764839   3.865223   4.549252
    27  N    8.157344   6.109847   5.691231   5.464948   5.821697
    28  H    8.698138   6.762978   6.443500   5.968647   6.190453
    29  C    8.906264   6.730894   6.122381   6.357494   6.793051
    30  H    9.129067   6.925695   6.271095   6.619217   7.201056
    31  C    8.367207   6.167045   5.441371   6.072679   6.470661
    32  H    8.337123   6.234218   5.588528   6.084619   6.301508
    33  H    9.157919   6.942191   6.131314   6.994124   7.430927
    34  H    7.431158   5.202259   4.426650   5.233397   5.731501
    35  C   10.283687   8.141206   7.550502   7.713197   8.039637
    36  O   10.670913   8.628684   8.152288   8.022570   8.232500
    37  N   11.165495   8.969879   8.277369   8.705033   9.075770
    38  H   10.984547   8.752982   7.981990   8.639455   9.090238
    39  C   12.518901  10.346400   9.669297  10.044231  10.349492
    40  H   12.686433  10.572528   9.976795  10.133307  10.360558
    41  H   13.230342  11.026584  10.322217  10.741620  11.121832
    42  H   12.785598  10.627981   9.917845  10.423630  10.680904
                   11         12         13         14         15
    11  C    0.000000
    12  H    1.090011   0.000000
    13  H    1.090020   1.779624   0.000000
    14  H    1.089926   1.779536   1.779617   0.000000
    15  C    2.461842   2.701220   2.668599   3.416575   0.000000
    16  O    3.417410   3.376906   3.791283   4.329969   1.229068
    17  N    2.895814   3.227568   2.558651   3.897194   1.335038
    18  H    2.692203   3.244059   2.038598   3.572204   2.037302
    19  C    4.249820   4.384229   3.844297   5.290834   2.434387
    20  H    4.958609   5.261421   4.460974   5.930497   3.137916
    21  C    4.698347   4.631926   4.114734   5.741063   3.497163
    22  H    4.374778   4.069971   3.921097   5.422611   3.445965
    23  H    5.769308   5.660523   5.204249   6.821167   4.380396
    24  H    4.679822   4.752377   3.886231   5.632902   3.920210
    25  C    4.930021   4.858859   4.819676   5.986522   2.717555
    26  O    4.576565   4.323657   4.721608   5.601261   2.451112
    27  N    6.236623   6.193823   6.080510   7.283024   3.955976
    28  H    6.693938   6.751788   6.392936   7.731275   4.491145
    29  C    7.225918   7.072601   7.224323   8.252357   4.892144
    30  H    7.338987   7.024794   7.377966   8.379719   5.166271
    31  C    7.170025   7.071268   7.359648   8.105023   4.774585
    32  H    7.303848   7.365697   7.452538   8.195030   4.856029
    33  H    8.092810   7.925177   8.344640   9.007396   5.749858
    34  H    6.327964   6.177744   6.630477   7.231102   4.020548
    35  C    8.603968   8.510420   8.514909   9.632575   6.244191
    36  O    8.864968   8.870639   8.634606   9.895952   6.550506
    37  N    9.643751   9.486206   9.644664  10.656259   7.273824
    38  H    9.591854   9.360124   9.699250  10.582106   7.258307
    39  C   10.994918  10.874296  10.941729  12.009941   8.609248
    40  H   11.053090  11.003368  10.898889  12.076001   8.681110
    41  H   11.612760  11.407306  11.561528  12.646763   9.284995
    42  H   11.479921  11.401084  11.487740  12.458046   9.050252
                   16         17         18         19         20
    16  O    0.000000
    17  N    2.252880   0.000000
    18  H    3.150103   1.009947   0.000000
    19  C    2.775362   1.449000   2.120932   0.000000
    20  H    3.519226   2.083717   2.484201   1.089993   0.000000
    21  C    3.874823   2.452808   2.769434   1.525060   2.139212
    22  H    3.727269   2.702719   3.087504   2.150233   3.041322
    23  H    4.560472   3.386911   3.766735   2.150193   2.459608
    24  H    4.562219   2.702678   2.605062   2.150253   2.466272
    25  C    2.330220   2.450308   3.384377   1.521943   2.136547
    26  O    1.638439   2.754041   3.749612   2.392802   3.211341
    27  N    3.470923   3.608959   4.464020   2.432711   2.537087
    28  H    4.219317   3.885213   4.589446   2.567938   2.282463
    29  C    4.095442   4.835217   5.762239   3.801850   3.967038
    30  H    4.303476   5.170002   6.114086   4.158410   4.541517
    31  C    3.787246   5.074951   6.042761   4.404137   4.586516
    32  H    4.012483   5.098009   5.995865   4.488563   4.443625
    33  H    4.683038   6.125216   7.104811   5.451785   5.651114
    34  H    2.913782   4.548361   5.542207   4.133629   4.522031
    35  C    5.530886   6.033032   6.882185   4.859109   4.748669
    36  O    6.037922   6.108295   6.838525   4.830123   4.481030
    37  N    6.423072   7.208425   8.100054   6.100884   6.051747
    38  H    6.287186   7.362613   8.307682   6.369366   6.465768
    39  C    7.809080   8.456572   9.300385   7.284454   7.099218
    40  H    8.009090   8.373542   9.142850   7.132218   6.808229
    41  H    8.454334   9.129738   9.985067   7.918356   7.815886
    42  H    8.205374   8.996972   9.852706   7.918309   7.699207
                   21         22         23         24         25
    21  C    0.000000
    22  H    1.089947   0.000000
    23  H    1.089926   1.779573   0.000000
    24  H    1.089988   1.779618   1.779562   0.000000
    25  C    2.461861   2.701179   2.668565   3.416599   0.000000
    26  O    3.186789   3.012011   3.548420   4.147620   1.229007
    27  N    3.178349   3.611609   2.924836   4.114635   1.335018
    28  H    3.190133   3.873831   2.753706   3.966598   2.037305
    29  C    4.468770   4.705634   4.124579   5.470918   2.434421
    30  H    4.544719   4.556077   4.165858   5.611271   2.741818
    31  C    5.396673   5.567100   5.294049   6.367370   3.000818
    32  H    5.663098   6.000059   5.596316   6.531052   3.309748
    33  H    6.353867   6.454648   6.177570   7.358039   4.004039
    34  H    5.168328   5.184489   5.264299   6.136789   2.731447
    35  C    5.419284   5.818724   4.844694   6.334565   3.717798
    36  O    5.311192   5.905158   4.628372   6.087173   4.015680
    37  N    6.646528   6.942267   6.063682   7.600822   4.841497
    38  H    6.943677   7.100204   6.452056   7.956320   4.977897
    39  C    7.769924   8.150530   7.080722   8.660642   6.139600
    40  H    7.572032   8.076790   6.819999   8.373598   6.165968
    41  H    8.244989   8.541358   7.491008   9.158433   6.743460
    42  H    8.552456   8.943519   7.937113   9.442098   6.743415
                   26         27         28         29         30
    26  O    0.000000
    27  N    2.252806   0.000000
    28  H    3.150033   1.009924   0.000000
    29  C    2.775362   1.449036   2.120885   0.000000
    30  H    2.787524   2.083759   2.828797   1.090011   0.000000
    31  C    2.936734   2.452860   3.194490   1.524994   2.139156
    32  H    3.474114   2.702781   3.202474   2.150226   3.041362
    33  H    3.813853   3.387021   4.082820   2.150181   2.459596
    34  H    2.268926   2.702759   3.605816   2.150226   2.466308
    35  C    4.264134   2.450239   2.528494   1.521942   2.136533
    36  O    4.840225   2.683452   2.268925   2.392887   3.085386
    37  N    5.166683   3.668343   3.857793   2.432716   2.707605
    38  H    5.058811   3.978993   4.391026   2.567897   2.595272
    39  C    6.569743   4.884682   4.856565   3.801881   4.090487
    40  H    6.783871   4.845661   4.592399   4.033984   4.461744
    41  H    7.106825   5.526398   5.539415   4.396940   4.435655
    42  H    7.106791   5.526376   5.539385   4.396888   4.779303
                   31         32         33         34         35
    31  C    0.000000
    32  H    1.090072   0.000000
    33  H    1.090022   1.779712   0.000000
    34  H    1.089941   1.779630   1.779698   0.000000
    35  C    2.461878   2.701193   2.668552   3.416604   0.000000
    36  O    3.417479   3.376886   3.791246   4.330038   1.229058
    37  N    2.895786   3.227512   2.558524   3.897180   1.335053
    38  H    2.692198   3.244073   2.038513   3.572218   2.037314
    39  C    4.249857   4.384242   3.844211   5.290882   2.434478
    40  H    4.671900   4.654284   4.491372   5.731244   2.520630
    41  H    4.958687   5.261461   4.460948   5.930593   3.138008
    42  H    4.494741   4.482963   3.950716   5.545529   3.137971
                   36         37         38         39         40
    36  O    0.000000
    37  N    2.252860   0.000000
    38  H    3.150078   1.009923   0.000000
    39  C    2.775418   1.449051   2.120909   0.000000
    40  H    2.337444   2.083858   2.986292   1.090042   0.000000
    41  H    3.519235   2.083825   2.484270   1.089944   1.779628
    42  H    3.519202   2.083775   2.484271   1.089995   1.779637
                   41         42
    41  H    0.000000
    42  H    1.779641   0.000000
 Stoichiometry    C12H22N4O4
 Framework group  C1[X(C12H22N4O4)]
 Deg. of freedom   120
 Full point group                 C1      NOp   1
 Largest Abelian subgroup         C1      NOp   1
 Largest concise Abelian subgroup C1      NOp   1
                         Standard orientation:                         
 ---------------------------------------------------------------------
 Center     Atomic      Atomic             Coordinates (Angstroms)
 Number     Number       Type             X           Y           Z
 ---------------------------------------------------------------------
      1          1           0       -6.362358   -2.947409    0.107055
      2          6           0       -5.302130   -2.736523    0.246849
      3          1           0       -4.711241   -3.431142   -0.350090
      4          1           0       -5.043920   -2.852064    1.299446
      5          6           0       -4.962786   -1.308795   -0.185923
      6          8           0       -5.837872   -0.564982   -0.623530
      7          7           0       -3.687893   -0.933234   -0.060645
      8          1           0       -3.004263   -1.580859    0.304582
      9          6           0       -3.239783    0.392722   -0.435753
     10          1           0       -3.439965    0.558495   -1.494281
     11          6           0       -3.963657    1.465452    0.370917
     12          1           0       -3.765413    1.318199    1.432586
     13          1           0       -3.607608    2.450328    0.068606
     14          1           0       -5.036054    1.395790    0.189124
     15          6           0       -1.746329    0.555796   -0.191801
     16          8           0       -1.084297   -0.372288    0.267526
     17          7           0       -1.216056    1.741336   -0.501045
     18          1           0       -1.801352    2.473892   -0.876256
     19          6           0        0.193381    2.021587   -0.315173
     20          1           0        0.642884    2.277993   -1.274489
     21          6           0        0.399149    3.187212    0.646485
     22          1           0       -0.037741    2.941796    1.614412
     23          1           0        1.465917    3.375342    0.767106
     24          1           0       -0.083472    4.078749    0.246096
     25          6           0        0.921695    0.813371    0.255864
     26          8           0        0.334451    0.019373    0.987416
     27          7           0        2.206265    0.675721   -0.080598
     28          1           0        2.645503    1.354949   -0.685301
     29          6           0        3.008637   -0.431992    0.397811
     30          1           0        3.042548   -0.412821    1.487125
     31          6           0        2.422467   -1.767374   -0.048022
     32          1           0        2.390479   -1.805241   -1.136966
     33          1           0        3.044955   -2.580637    0.325155
     34          1           0        1.412585   -1.872009    0.348412
     35          6           0        4.431891   -0.347673   -0.134681
     36          8           0        4.768864    0.577144   -0.870714
     37          7           0        5.268684   -1.318183    0.239823
     38          1           0        4.945010   -2.057762    0.846621
     39          6           0        6.649145   -1.350801   -0.199509
     40          1           0        6.846457   -0.493605   -0.843305
     41          1           0        7.308066   -1.312371    0.667858
     42          1           0        6.832727   -2.270958   -0.754214
 ---------------------------------------------------------------------
 Rotational constants (GHZ):      0.7523454      0.1267370      0.1119904
 Standard basis: 6-31G(d) (6D, 7F)
 There are   344 symmetry adapted basis functions of A   symmetry.
 Integral buffers will be    131072 words long.
 Raffenetti 2 integral format.
 Two-electron integral symmetry is turned on.
   344 basis functions,   648 primitive gaussians,   344 cartesian basis functions
    77 alpha electrons       77 beta electrons
       nuclear repulsion energy      1642.2021314959 Hartrees.
 NAtoms=   42 NActive=   42 NUniq=   42 SFac= 7.50D-01 NAtFMM=   80 NAOKFM=F Big=F
 One-electron integrals computed using PRISM.
 NBasis=   344 RedAO= T  NBF=   344
 NBsUse=   344 1.00D-06 NBFU=   344
 Harris functional with IExCor=  402 diagonalized for initial guess.
 ExpMin= 1.61D-01 ExpMax= 5.48D+03 ExpMxC= 8.25D+02 IAcc=1 IRadAn=         1 AccDes= 0.00D+00
 HarFok:  IExCor=  402 AccDes= 0.00D+00 IRadAn=         1 IDoV= 1
 ScaDFX=  1.000000  1.000000  1.000000  1.000000
 FoFCou: FMM=F IPFlag=           0 FMFlag=      100000 FMFlg1=           0
         NFxFlg=           0 DoJE=T BraDBF=F KetDBF=T FulRan=T
         Omega=  0.000000  0.000000  1.000000  0.000000  0.000000 ICntrl=     500 IOpCl=  0
         NMat0=    1 NMatS0=    1 NMatT0=    0 NMatD0=    1 NMtDS0=    0 NMtDT0=    0
         I1Cent=           4 NGrid=           0.
 Petite list used in FoFCou.
 Initial guess orbital symmetries:
       Occupied  (A) (A) (A) (A) (A) (A) (A) (A) (A) (A) (A) (A)
                 (A) (A) (A) (A) (A) (A) (A) (A) (A) (A) (A) (A)
                 (A) (A) (A) (A) (A) (A) (A) (A) (A) (A) (A) (A)
                 (A) (A) (A) (A) (A) (A) (A) (A) (A) (A) (A) (A)
                 (A) (A) (A) (A) (A) (A) (A) (A) (A) (A) (A) (A)
                 (A) (A) (A) (A) (A) (A) (A) (A) (A) (A) (A) (A)
                 (A) (A) (A) (A) (A)
       Virtual   (A) (A) (A) (A) (A) (A) (A) (A) (A) (A) (A) (A)
                 (A) (A) (A) (A) (A) (A) (A) (A) (A) (A) (A) (A)
                 (A) (A) (A) (A) (A) (A) (A) (A) (A) (A) (A) (A)
                 (A) (A) (A) (A) (A) (A) (A) (A) (A) (A) (A) (A)
                 (A) (A) (A) (A) (A) (A) (A) (A) (A) (A) (A) (A)
                 (A) (A) (A) (A) (A) (A) (A) (A) (A) (A) (A) (A)
                 (A) (A) (A) (A) (A) (A) (A) (A) (A) (A) (A) (A)
                 (A) (A) (A) (A) (A) (A) (A) (A) (A) (A) (A) (A)
                 (A) (A) (A) (A) (A) (A) (A) (A) (A) (A) (A) (A)
                 (A) (A) (A) (A) (A) (A) (A) (A) (A) (A) (A) (A)
                 (A) (A) (A) (A) (A) (A) (A) (A) (A) (A) (A) (A)
                 (A) (A) (A) (A) (A) (A) (A) (A) (A) (A) (A) (A)
                 (A) (A) (A) (A) (A) (A) (A) (A) (A) (A) (A) (A)
                 (A) (A) (A) (A) (A) (A) (A) (A) (A) (A) (A) (A)
                 (A) (A) (A) (A) (A) (A) (A) (A) (A) (A) (A) (A)
                 (A) (A) (A) (A) (A) (A) (A) (A) (A) (A) (A) (A)
                 (A) (A) (A) (A) (A) (A) (A) (A) (A) (A) (A) (A)
                 (A) (A) (A) (A) (A) (A) (A) (A) (A) (A) (A) (A)
                 (A) (A) (A) (A) (A) (A) (A) (A) (A) (A) (A) (A)
                 (A) (A) (A) (A) (A) (A) (A) (A) (A) (A) (A) (A)
                 (A) (A) (A) (A) (A) (A) (A) (A) (A) (A) (A) (A)
                 (A) (A) (A) (A) (A) (A) (A) (A) (A) (A) (A) (A)
                 (A) (A) (A)
 The electronic state of the initial guess is 1-A.
 Requested convergence on RMS density matrix=1.00D-08 within 128 cycles.
 Requested convergence on MAX density matrix=1.00D-06.
 Requested convergence on             energy=1.00D-06.
 No special actions if energy rises.
 Integral accuracy reduced to 1.0D-05 until final iterations.
 Initial convergence to 1.0D-05 achieved.  Increase integral accuracy.
 SCF Done:  E(RB3LYP) =  -990.325694844     A.U. after   17 cycles
             Convg  =    0.8342D-08             -V/T =  2.0078
 Range of M.O.s used for correlation:     1   344
 NBasis=   344 NAE=    77 NBE=    77 NFC=     0 NFV=     0
 NROrb=    344 NOA=    77 NOB=    77 NVA=   267 NVB=   267
 Symmetrizing basis deriv contribution to polar:
 IMax=3 JMax=2 DiffMx= 0.00D+00
 G2DrvN: will do    43 centers at a time, making    1 passes doing MaxLOS=2.
 Calling FoFCou, ICntrl=  3107 FMM=F I1Cent=   0 AccDes= 0.00D+00.
 FoFDir/FoFCou used for L=0 through L=2.
 End of G2Drv Frequency-dependent properties file   721 does not exist.
 End of G2Drv Frequency-dependent properties file   722 does not exist.
          IDoAtm=111111111111111111111111111111111111111111
          Differentiating once with respect to nuclear coordinates.
          There are   129 degrees of freedom in the 1st order CPHF.  IDoFFX=5.
    123 vectors produced by pass  0 Test12= 2.06D-10 1.00D-07 XBig12= 2.50D-01 3.15D-01.
 AX will form   123 AO Fock derivatives at one time.
    123 vectors produced by pass  1 Test12= 2.06D-10 1.00D-07 XBig12= 5.80D-02 7.71D-02.
    123 vectors produced by pass  2 Test12= 2.06D-10 1.00D-07 XBig12= 4.67D-05 1.13D-03.
    123 vectors produced by pass  3 Test12= 2.06D-10 1.00D-07 XBig12= 1.37D-07 5.52D-05.
     71 vectors produced by pass  4 Test12= 2.06D-10 1.00D-07 XBig12= 1.63D-10 1.96D-06.
 Inverted reduced A of dimension   563 with in-core refinement.
 End of Minotr Frequency-dependent properties file   721 does not exist.
 End of Minotr Frequency-dependent properties file   722 does not exist.

 **********************************************************************

            Population analysis using the SCF density.

 **********************************************************************

 Orbital symmetries:
       Occupied  (A) (A) (A) (A) (A) (A) (A) (A) (A) (A) (A) (A)
                 (A) (A) (A) (A) (A) (A) (A) (A) (A) (A) (A) (A)
                 (A) (A) (A) (A) (A) (A) (A) (A) (A) (A) (A) (A)
                 (A) (A) (A) (A) (A) (A) (A) (A) (A) (A) (A) (A)
                 (A) (A) (A) (A) (A) (A) (A) (A) (A) (A) (A) (A)
                 (A) (A) (A) (A) (A) (A) (A) (A) (A) (A) (A) (A)
                 (A) (A) (A) (A) (A)
       Virtual   (A) (A) (A) (A) (A) (A) (A) (A) (A) (A) (A) (A)
                 (A) (A) (A) (A) (A) (A) (A) (A) (A) (A) (A) (A)
                 (A) (A) (A) (A) (A) (A) (A) (A) (A) (A) (A) (A)
                 (A) (A) (A) (A) (A) (A) (A) (A) (A) (A) (A) (A)
                 (A) (A) (A) (A) (A) (A) (A) (A) (A) (A) (A) (A)
                 (A) (A) (A) (A) (A) (A) (A) (A) (A) (A) (A) (A)
                 (A) (A) (A) (A) (A) (A) (A) (A) (A) (A) (A) (A)
                 (A) (A) (A) (A) (A) (A) (A) (A) (A) (A) (A) (A)
                 (A) (A) (A) (A) (A) (A) (A) (A) (A) (A) (A) (A)
                 (A) (A) (A) (A) (A) (A) (A) (A) (A) (A) (A) (A)
                 (A) (A) (A) (A) (A) (A) (A) (A) (A) (A) (A) (A)
                 (A) (A) (A) (A) (A) (A) (A) (A) (A) (A) (A) (A)
                 (A) (A) (A) (A) (A) (A) (A) (A) (A) (A) (A) (A)
                 (A) (A) (A) (A) (A) (A) (A) (A) (A) (A) (A) (A)
                 (A) (A) (A) (A) (A) (A) (A) (A) (A) (A) (A) (A)
                 (A) (A) (A) (A) (A) (A) (A) (A) (A) (A) (A) (A)
                 (A) (A) (A) (A) (A) (A) (A) (A) (A) (A) (A) (A)
                 (A) (A) (A) (A) (A) (A) (A) (A) (A) (A) (A) (A)
                 (A) (A) (A) (A) (A) (A) (A) (A) (A) (A) (A) (A)
                 (A) (A) (A) (A) (A) (A) (A) (A) (A) (A) (A) (A)
                 (A) (A) (A) (A) (A) (A) (A) (A) (A) (A) (A) (A)
                 (A) (A) (A) (A) (A) (A) (A) (A) (A) (A) (A) (A)
                 (A) (A) (A)
 The electronic state is 1-A.
 Alpha  occ. eigenvalues --  -19.11464 -19.10358 -19.10321 -19.08967 -14.37130
 Alpha  occ. eigenvalues --  -14.36875 -14.34478 -14.34124 -10.28835 -10.27531
 Alpha  occ. eigenvalues --  -10.26934 -10.25050 -10.24010 -10.23105 -10.22562
 Alpha  occ. eigenvalues --  -10.22377 -10.18923 -10.17822 -10.17453 -10.16926
 Alpha  occ. eigenvalues --   -1.07894  -1.04054  -1.01618  -1.00322  -0.94462
 Alpha  occ. eigenvalues --   -0.93391  -0.91618  -0.90887  -0.79842  -0.77819
 Alpha  occ. eigenvalues --   -0.75840  -0.71560  -0.71319  -0.66743  -0.65875
 Alpha  occ. eigenvalues --   -0.63459  -0.61355  -0.59756  -0.57602  -0.56585
 Alpha  occ. eigenvalues --   -0.54904  -0.52477  -0.51247  -0.49047  -0.48668
 Alpha  occ. eigenvalues --   -0.48031  -0.47476  -0.46104  -0.45219  -0.44689
 Alpha  occ. eigenvalues --   -0.43942  -0.43438  -0.42260  -0.41315  -0.41110
 Alpha  occ. eigenvalues --   -0.40665  -0.39935  -0.39766  -0.39325  -0.38946
 Alpha  occ. eigenvalues --   -0.38459  -0.37839  -0.37454  -0.36574  -0.36433
 Alpha  occ. eigenvalues --   -0.36161  -0.34895  -0.34256  -0.32995  -0.29533
 Alpha  occ. eigenvalues --   -0.26522  -0.25893  -0.25503  -0.24093  -0.23696
 Alpha  occ. eigenvalues --   -0.22772  -0.12261
 Alpha virt. eigenvalues --    0.02582   0.02953   0.04580   0.04777   0.06091
 Alpha virt. eigenvalues --    0.06504   0.09638   0.10570   0.11664   0.12777
 Alpha virt. eigenvalues --    0.13944   0.14446   0.14506   0.14876   0.15212
 Alpha virt. eigenvalues --    0.15671   0.16045   0.16055   0.16410   0.16975
 Alpha virt. eigenvalues --    0.17476   0.17893   0.18422   0.19314   0.19840
 Alpha virt. eigenvalues --    0.20351   0.20573   0.20844   0.21602   0.22548
 Alpha virt. eigenvalues --    0.23067   0.24646   0.25287   0.25405   0.26243
 Alpha virt. eigenvalues --    0.29374   0.30534   0.34567   0.35049   0.35142
 Alpha virt. eigenvalues --    0.38525   0.40973   0.42886   0.43714   0.45734
 Alpha virt. eigenvalues --    0.50488   0.50614   0.51623   0.52407   0.52609
 Alpha virt. eigenvalues --    0.53628   0.54058   0.54349   0.55043   0.55641
 Alpha virt. eigenvalues --    0.55743   0.56422   0.57168   0.57241   0.58335
 Alpha virt. eigenvalues --    0.59262   0.60855   0.61489   0.61823   0.63808
 Alpha virt. eigenvalues --    0.64820   0.64979   0.66857   0.68009   0.68894
 Alpha virt. eigenvalues --    0.69844   0.70169   0.70842   0.72904   0.73528
 Alpha virt. eigenvalues --    0.74110   0.74918   0.75699   0.76725   0.77267
 Alpha virt. eigenvalues --    0.78232   0.80296   0.80437   0.80790   0.82666
 Alpha virt. eigenvalues --    0.83764   0.84410   0.84945   0.85490   0.86213
 Alpha virt. eigenvalues --    0.86798   0.87369   0.87925   0.88654   0.88923
 Alpha virt. eigenvalues --    0.89434   0.89901   0.90240   0.90553   0.91441
 Alpha virt. eigenvalues --    0.91992   0.92700   0.92998   0.93668   0.94646
 Alpha virt. eigenvalues --    0.94965   0.95584   0.96236   0.96483   0.97102
 Alpha virt. eigenvalues --    0.98101   0.98816   1.01282   1.01682   1.03163
 Alpha virt. eigenvalues --    1.04134   1.05702   1.07989   1.09992   1.10876
 Alpha virt. eigenvalues --    1.11798   1.13833   1.16051   1.17560   1.19249
 Alpha virt. eigenvalues --    1.21886   1.24504   1.26047   1.27856   1.28950
 Alpha virt. eigenvalues --    1.30685   1.32234   1.34338   1.34565   1.35550
 Alpha virt. eigenvalues --    1.36368   1.38552   1.40029   1.42598   1.43203
 Alpha virt. eigenvalues --    1.46437   1.46880   1.47789   1.48192   1.49411
 Alpha virt. eigenvalues --    1.50847   1.51680   1.52029   1.56690   1.62204
 Alpha virt. eigenvalues --    1.64329   1.65783   1.68592   1.70507   1.70648
 Alpha virt. eigenvalues --    1.71582   1.72049   1.74545   1.76545   1.77459
 Alpha virt. eigenvalues --    1.77706   1.79338   1.80526   1.81174   1.82436
 Alpha virt. eigenvalues --    1.83281   1.83803   1.84360   1.85005   1.85353
 Alpha virt. eigenvalues --    1.85958   1.88214   1.89195   1.90859   1.91768
 Alpha virt. eigenvalues --    1.92448   1.92852   1.95447   1.97067   1.97291
 Alpha virt. eigenvalues --    1.97711   2.00078   2.01673   2.02125   2.04095
 Alpha virt. eigenvalues --    2.04529   2.05973   2.06976   2.09784   2.10668
 Alpha virt. eigenvalues --    2.11721   2.14808   2.16263   2.17876   2.19351
 Alpha virt. eigenvalues --    2.20207   2.20398   2.23102   2.25267   2.25553
 Alpha virt. eigenvalues --    2.26740   2.27415   2.28175   2.28589   2.29939
 Alpha virt. eigenvalues --    2.30464   2.32557   2.33287   2.33837   2.35718
 Alpha virt. eigenvalues --    2.36698   2.40590   2.41222   2.44752   2.45349
 Alpha virt. eigenvalues --    2.46342   2.47395   2.48894   2.52382   2.53485
 Alpha virt. eigenvalues --    2.55376   2.58962   2.60555   2.62097   2.64037
 Alpha virt. eigenvalues --    2.66402   2.67511   2.69688   2.71832   2.74994
 Alpha virt. eigenvalues --    2.75136   2.78591   2.81535   2.85748   2.88438
 Alpha virt. eigenvalues --    2.90383   2.93284   2.94168   2.98294   2.99173
 Alpha virt. eigenvalues --    3.02326   3.04022   3.13123   3.17196   3.21415
 Alpha virt. eigenvalues --    3.27508   3.30868   3.97267   4.02177   4.02736
 Alpha virt. eigenvalues --    4.06137   4.07863   4.09009   4.12413   4.21360
 Alpha virt. eigenvalues --    4.22366   4.23611   4.29369   4.30875   4.35248
 Alpha virt. eigenvalues --    4.42472   4.44821   4.46770   4.48171   4.60961
 Alpha virt. eigenvalues --    4.64632   4.74958
          Condensed to atoms (all electrons):
              1          2          3          4          5          6
     1  H    0.508597   0.359810  -0.021878  -0.021733  -0.018167   0.005188
     2  C    0.359810   5.328428   0.350638   0.351530   0.356587  -0.079509
     3  H   -0.021878   0.350638   0.552928  -0.026728  -0.024972   0.001465
     4  H   -0.021733   0.351530  -0.026728   0.552550  -0.026448   0.001285
     5  C   -0.018167   0.356587  -0.024972  -0.026448   4.338032   0.592290
     6  O    0.005188  -0.079509   0.001465   0.001285   0.592290   8.087970
     7  N    0.004616  -0.135443   0.004167   0.004632   0.228553  -0.107895
     8  H   -0.000138  -0.001381   0.001256   0.000881  -0.015219   0.003015
     9  C   -0.000146   0.007370  -0.000276   0.000006  -0.022616   0.013389
    10  H    0.000002   0.000157  -0.000020  -0.000002  -0.001726   0.005098
    11  C    0.000014  -0.000768   0.000018   0.000033  -0.005345  -0.018843
    12  H    0.000000  -0.000003  -0.000001   0.000002   0.000961  -0.000166
    13  H    0.000000   0.000007   0.000000  -0.000001   0.000352   0.000324
    14  H   -0.000001   0.000610  -0.000009  -0.000055   0.002665   0.023636
    15  C    0.000000  -0.000036  -0.000014  -0.000013   0.007082   0.000857
    16  O    0.000000  -0.000046   0.000001   0.000000   0.000521  -0.000005
    17  N    0.000000   0.000001   0.000000   0.000000  -0.000058  -0.000003
    18  H    0.000000   0.000000   0.000000   0.000000   0.000000   0.000003
    19  C    0.000000   0.000000   0.000000   0.000000   0.000001   0.000000
    20  H    0.000000   0.000000   0.000000   0.000000   0.000000   0.000000
    21  C    0.000000   0.000000   0.000000   0.000000   0.000000   0.000000
    22  H    0.000000   0.000000   0.000000   0.000000   0.000000   0.000000
    23  H    0.000000   0.000000   0.000000   0.000000   0.000000   0.000000
    24  H    0.000000   0.000000   0.000000   0.000000   0.000000   0.000000
    25  C    0.000000   0.000000   0.000000   0.000000   0.000001   0.000000
    26  O    0.000000   0.000000   0.000000   0.000000   0.000002   0.000000
    27  N    0.000000   0.000000   0.000000   0.000000   0.000000   0.000000
    28  H    0.000000   0.000000   0.000000   0.000000   0.000000   0.000000
    29  C    0.000000   0.000000   0.000000   0.000000   0.000000   0.000000
    30  H    0.000000   0.000000   0.000000   0.000000   0.000000   0.000000
    31  C    0.000000   0.000000   0.000000   0.000000   0.000000   0.000000
    32  H    0.000000   0.000000   0.000000   0.000000   0.000000   0.000000
    33  H    0.000000   0.000000   0.000000   0.000000   0.000000   0.000000
    34  H    0.000000   0.000000   0.000000   0.000000   0.000000   0.000000
    35  C    0.000000   0.000000   0.000000   0.000000   0.000000   0.000000
    36  O    0.000000   0.000000   0.000000   0.000000   0.000000   0.000000
    37  N    0.000000   0.000000   0.000000   0.000000   0.000000   0.000000
    38  H    0.000000   0.000000   0.000000   0.000000   0.000000   0.000000
    39  C    0.000000   0.000000   0.000000   0.000000   0.000000   0.000000
    40  H    0.000000   0.000000   0.000000   0.000000   0.000000   0.000000
    41  H    0.000000   0.000000   0.000000   0.000000   0.000000   0.000000
    42  H    0.000000   0.000000   0.000000   0.000000   0.000000   0.000000
              7          8          9         10         11         12
     1  H    0.004616  -0.000138  -0.000146   0.000002   0.000014   0.000000
     2  C   -0.135443  -0.001381   0.007370   0.000157  -0.000768  -0.000003
     3  H    0.004167   0.001256  -0.000276  -0.000020   0.000018  -0.000001
     4  H    0.004632   0.000881   0.000006  -0.000002   0.000033   0.000002
     5  C    0.228553  -0.015219  -0.022616  -0.001726  -0.005345   0.000961
     6  O   -0.107895   0.003015   0.013389   0.005098  -0.018843  -0.000166
     7  N    7.200704   0.281280   0.257030  -0.049683  -0.054879  -0.000036
     8  H    0.281280   0.401058  -0.056574   0.003702   0.006268   0.000657
     9  C    0.257030  -0.056574   5.091300   0.377968   0.326641  -0.036970
    10  H   -0.049683   0.003702   0.377968   0.590803  -0.054792   0.006251
    11  C   -0.054879   0.006268   0.326641  -0.054792   5.226657   0.369029
    12  H   -0.000036   0.000657  -0.036970   0.006251   0.369029   0.564094
    13  H    0.005288  -0.000102  -0.038119  -0.000164   0.352146  -0.027141
    14  H   -0.010632  -0.000456  -0.019559  -0.005481   0.355872  -0.026142
    15  C   -0.029479   0.007379   0.301700  -0.037873  -0.049927  -0.003625
    16  O   -0.010876   0.030559  -0.064000   0.000613  -0.001168   0.000923
    17  N    0.003109   0.001548  -0.130697  -0.000235   0.008027  -0.000331
    18  H    0.000041  -0.000065   0.001688   0.001745  -0.000258  -0.000111
    19  C   -0.000072  -0.000032   0.006425  -0.000110  -0.000040  -0.000042
    20  H    0.000001   0.000001  -0.000173   0.000004  -0.000001   0.000001
    21  C    0.000002   0.000001  -0.000370  -0.000004   0.000061   0.000008
    22  H    0.000000   0.000001  -0.000137   0.000000   0.000074   0.000040
    23  H    0.000000   0.000000  -0.000001   0.000000   0.000002   0.000000
    24  H    0.000000   0.000000   0.000062   0.000000  -0.000033  -0.000003
    25  C    0.000015   0.000053  -0.001157  -0.000042   0.000062  -0.000021
    26  O   -0.000054   0.000788  -0.003147  -0.000037   0.000257   0.000005
    27  N    0.000000   0.000001  -0.000019  -0.000001   0.000001   0.000000
    28  H    0.000000   0.000000   0.000001   0.000000   0.000000   0.000000
    29  C    0.000000  -0.000001   0.000001   0.000000   0.000000   0.000000
    30  H    0.000000   0.000000   0.000000   0.000000   0.000000   0.000000
    31  C    0.000000   0.000004  -0.000002   0.000000   0.000000   0.000000
    32  H    0.000000  -0.000001   0.000001   0.000000   0.000000   0.000000
    33  H    0.000000   0.000000   0.000000   0.000000   0.000000   0.000000
    34  H    0.000000  -0.000013   0.000009   0.000000   0.000000   0.000000
    35  C    0.000000   0.000000   0.000000   0.000000   0.000000   0.000000
    36  O    0.000000   0.000000   0.000000   0.000000   0.000000   0.000000
    37  N    0.000000   0.000000   0.000000   0.000000   0.000000   0.000000
    38  H    0.000000   0.000000   0.000000   0.000000   0.000000   0.000000
    39  C    0.000000   0.000000   0.000000   0.000000   0.000000   0.000000
    40  H    0.000000   0.000000   0.000000   0.000000   0.000000   0.000000
    41  H    0.000000   0.000000   0.000000   0.000000   0.000000   0.000000
    42  H    0.000000   0.000000   0.000000   0.000000   0.000000   0.000000
             13         14         15         16         17         18
     1  H    0.000000  -0.000001   0.000000   0.000000   0.000000   0.000000
     2  C    0.000007   0.000610  -0.000036  -0.000046   0.000001   0.000000
     3  H    0.000000  -0.000009  -0.000014   0.000001   0.000000   0.000000
     4  H   -0.000001  -0.000055  -0.000013   0.000000   0.000000   0.000000
     5  C    0.000352   0.002665   0.007082   0.000521  -0.000058   0.000000
     6  O    0.000324   0.023636   0.000857  -0.000005  -0.000003   0.000003
     7  N    0.005288  -0.010632  -0.029479  -0.010876   0.003109   0.000041
     8  H   -0.000102  -0.000456   0.007379   0.030559   0.001548  -0.000065
     9  C   -0.038119  -0.019559   0.301700  -0.064000  -0.130697   0.001688
    10  H   -0.000164  -0.005481  -0.037873   0.000613  -0.000235   0.001745
    11  C    0.352146   0.355872  -0.049927  -0.001168   0.008027  -0.000258
    12  H   -0.027141  -0.026142  -0.003625   0.000923  -0.000331  -0.000111
    13  H    0.612425  -0.022942  -0.009475  -0.000069   0.004946   0.006751
    14  H   -0.022942   0.492892   0.004595  -0.000085  -0.000061  -0.000122
    15  C   -0.009475   0.004595   4.496245   0.480123   0.254272  -0.020698
    16  O   -0.000069  -0.000085   0.480123   8.510115  -0.107773   0.004417
    17  N    0.004946  -0.000061   0.254272  -0.107773   7.186907   0.298743
    18  H    0.006751  -0.000122  -0.020698   0.004417   0.298743   0.402965
    19  C   -0.000023  -0.000001  -0.026998   0.005197   0.228541  -0.027302
    20  H    0.000006   0.000000   0.002713   0.000337  -0.047925  -0.003223
    21  C    0.000097  -0.000003  -0.001434  -0.000164  -0.057571  -0.000796
    22  H    0.000055   0.000000   0.000863  -0.000402   0.000241  -0.000632
    23  H    0.000001   0.000000  -0.000145  -0.000059   0.005510  -0.000223
    24  H   -0.000020   0.000001   0.000657   0.000073  -0.004152   0.004408
    25  C   -0.000004   0.000000  -0.006469  -0.002135  -0.010036   0.002700
    26  O    0.000014  -0.000001   0.022539  -0.402579   0.010274  -0.000549
    27  N    0.000000   0.000000   0.001110  -0.003548   0.001763  -0.000155
    28  H    0.000000   0.000000  -0.000047   0.000157   0.000120   0.000004
    29  C    0.000000   0.000000  -0.000049   0.000709  -0.000074   0.000004
    30  H    0.000000   0.000000   0.000003   0.000301  -0.000013   0.000000
    31  C    0.000000   0.000000   0.000199  -0.001951   0.000018   0.000000
    32  H    0.000000   0.000000  -0.000011   0.000169  -0.000005   0.000000
    33  H    0.000000   0.000000  -0.000002   0.000029   0.000000   0.000000
    34  H    0.000000   0.000000  -0.000215   0.004393  -0.000006   0.000000
    35  C    0.000000   0.000000  -0.000001   0.000003   0.000001   0.000000
    36  O    0.000000   0.000000   0.000000   0.000000   0.000000   0.000000
    37  N    0.000000   0.000000   0.000000   0.000000   0.000000   0.000000
    38  H    0.000000   0.000000   0.000000   0.000000   0.000000   0.000000
    39  C    0.000000   0.000000   0.000000   0.000000   0.000000   0.000000
    40  H    0.000000   0.000000   0.000000   0.000000   0.000000   0.000000
    41  H    0.000000   0.000000   0.000000   0.000000   0.000000   0.000000
    42  H    0.000000   0.000000   0.000000   0.000000   0.000000   0.000000
             19         20         21         22         23         24
     1  H    0.000000   0.000000   0.000000   0.000000   0.000000   0.000000
     2  C    0.000000   0.000000   0.000000   0.000000   0.000000   0.000000
     3  H    0.000000   0.000000   0.000000   0.000000   0.000000   0.000000
     4  H    0.000000   0.000000   0.000000   0.000000   0.000000   0.000000
     5  C    0.000001   0.000000   0.000000   0.000000   0.000000   0.000000
     6  O    0.000000   0.000000   0.000000   0.000000   0.000000   0.000000
     7  N   -0.000072   0.000001   0.000002   0.000000   0.000000   0.000000
     8  H   -0.000032   0.000001   0.000001   0.000001   0.000000   0.000000
     9  C    0.006425  -0.000173  -0.000370  -0.000137  -0.000001   0.000062
    10  H   -0.000110   0.000004  -0.000004   0.000000   0.000000   0.000000
    11  C   -0.000040  -0.000001   0.000061   0.000074   0.000002  -0.000033
    12  H   -0.000042   0.000001   0.000008   0.000040   0.000000  -0.000003
    13  H   -0.000023   0.000006   0.000097   0.000055   0.000001  -0.000020
    14  H   -0.000001   0.000000  -0.000003   0.000000   0.000000   0.000001
    15  C   -0.026998   0.002713  -0.001434   0.000863  -0.000145   0.000657
    16  O    0.005197   0.000337  -0.000164  -0.000402  -0.000059   0.000073
    17  N    0.228541  -0.047925  -0.057571   0.000241   0.005510  -0.004152
    18  H   -0.027302  -0.003223  -0.000796  -0.000632  -0.000223   0.004408
    19  C    5.015128   0.372731   0.363313  -0.032272  -0.029057  -0.032894
    20  H    0.372731   0.614183  -0.052112   0.006254   0.000390  -0.005287
    21  C    0.363313  -0.052112   5.133351   0.372371   0.359425   0.360130
    22  H   -0.032272   0.006254   0.372371   0.535480  -0.021331  -0.031102
    23  H   -0.029057   0.000390   0.359425  -0.021331   0.556692  -0.029110
    24  H   -0.032894  -0.005287   0.360130  -0.031102  -0.029110   0.593846
    25  C    0.347464  -0.045864  -0.029905  -0.009135  -0.008409   0.005531
    26  O   -0.082338   0.002392  -0.002439   0.004664   0.000108  -0.000215
    27  N   -0.100930   0.005909  -0.005574   0.000606   0.007081  -0.000249
    28  H   -0.000604   0.002448   0.000279  -0.000050   0.000362   0.000000
    29  C    0.007107   0.000216  -0.000355  -0.000007  -0.000011   0.000010
    30  H    0.000296   0.000005   0.000092  -0.000009  -0.000094   0.000001
    31  C   -0.000990  -0.000005  -0.000007   0.000002   0.000013   0.000000
    32  H    0.000059   0.000003   0.000002   0.000000  -0.000001   0.000000
    33  H    0.000012   0.000000   0.000000   0.000000   0.000000   0.000000
    34  H    0.000627  -0.000030  -0.000005  -0.000003  -0.000001   0.000000
    35  C   -0.000065  -0.000061   0.000000  -0.000001  -0.000021   0.000000
    36  O   -0.000073  -0.000016   0.000001   0.000000  -0.000004   0.000000
    37  N    0.000000   0.000000   0.000000   0.000000   0.000000   0.000000
    38  H    0.000000   0.000000   0.000000   0.000000   0.000000   0.000000
    39  C    0.000000   0.000000   0.000000   0.000000   0.000000   0.000000
    40  H    0.000000   0.000000   0.000000   0.000000   0.000000   0.000000
    41  H    0.000000   0.000000   0.000000   0.000000   0.000000   0.000000
    42  H    0.000000   0.000000   0.000000   0.000000   0.000000   0.000000
             25         26         27         28         29         30
     1  H    0.000000   0.000000   0.000000   0.000000   0.000000   0.000000
     2  C    0.000000   0.000000   0.000000   0.000000   0.000000   0.000000
     3  H    0.000000   0.000000   0.000000   0.000000   0.000000   0.000000
     4  H    0.000000   0.000000   0.000000   0.000000   0.000000   0.000000
     5  C    0.000001   0.000002   0.000000   0.000000   0.000000   0.000000
     6  O    0.000000   0.000000   0.000000   0.000000   0.000000   0.000000
     7  N    0.000015  -0.000054   0.000000   0.000000   0.000000   0.000000
     8  H    0.000053   0.000788   0.000001   0.000000  -0.000001   0.000000
     9  C   -0.001157  -0.003147  -0.000019   0.000001   0.000001   0.000000
    10  H   -0.000042  -0.000037  -0.000001   0.000000   0.000000   0.000000
    11  C    0.000062   0.000257   0.000001   0.000000   0.000000   0.000000
    12  H   -0.000021   0.000005   0.000000   0.000000   0.000000   0.000000
    13  H   -0.000004   0.000014   0.000000   0.000000   0.000000   0.000000
    14  H    0.000000  -0.000001   0.000000   0.000000   0.000000   0.000000
    15  C   -0.006469   0.022539   0.001110  -0.000047  -0.000049   0.000003
    16  O   -0.002135  -0.402579  -0.003548   0.000157   0.000709   0.000301
    17  N   -0.010036   0.010274   0.001763   0.000120  -0.000074  -0.000013
    18  H    0.002700  -0.000549  -0.000155   0.000004   0.000004   0.000000
    19  C    0.347464  -0.082338  -0.100930  -0.000604   0.007107   0.000296
    20  H   -0.045864   0.002392   0.005909   0.002448   0.000216   0.000005
    21  C   -0.029905  -0.002439  -0.005574   0.000279  -0.000355   0.000092
    22  H   -0.009135   0.004664   0.000606  -0.000050  -0.000007  -0.000009
    23  H   -0.008409   0.000108   0.007081   0.000362  -0.000011  -0.000094
    24  H    0.005531  -0.000215  -0.000249   0.000000   0.000010   0.000001
    25  C    4.576246   0.448088   0.186911  -0.016832  -0.028061   0.011008
    26  O    0.448088   8.493611  -0.081808   0.002564   0.007845   0.005815
    27  N    0.186911  -0.081808   7.218934   0.288697   0.274094  -0.062625
    28  H   -0.016832   0.002564   0.288697   0.397467  -0.051513   0.005054
    29  C   -0.028061   0.007845   0.274094  -0.051513   5.084896   0.357275
    30  H    0.011008   0.005815  -0.062625   0.005054   0.357275   0.612882
    31  C   -0.011959  -0.014367  -0.054903   0.003709   0.345143  -0.061456
    32  H    0.001067  -0.000256   0.000894   0.000771  -0.036059   0.006757
    33  H    0.000547   0.000311   0.005318  -0.000104  -0.035886   0.001529
    34  H    0.004181   0.015468  -0.009571  -0.000194  -0.020938  -0.004272
    35  C    0.005761   0.000601  -0.024869   0.000185   0.308432  -0.031289
    36  O    0.000841  -0.000004  -0.009195   0.031449  -0.090054   0.001155
    37  N   -0.000078  -0.000001   0.003297   0.001259  -0.121136  -0.000003
    38  H    0.000009   0.000003   0.000045  -0.000047   0.000523   0.001537
    39  C    0.000002   0.000000  -0.000068  -0.000011   0.005844  -0.000250
    40  H    0.000000   0.000000   0.000000  -0.000032   0.001203  -0.000034
    41  H    0.000000   0.000000   0.000000   0.000000  -0.000192   0.000024
    42  H    0.000000   0.000000   0.000001   0.000000  -0.000032  -0.000005
             31         32         33         34         35         36
     1  H    0.000000   0.000000   0.000000   0.000000   0.000000   0.000000
     2  C    0.000000   0.000000   0.000000   0.000000   0.000000   0.000000
     3  H    0.000000   0.000000   0.000000   0.000000   0.000000   0.000000
     4  H    0.000000   0.000000   0.000000   0.000000   0.000000   0.000000
     5  C    0.000000   0.000000   0.000000   0.000000   0.000000   0.000000
     6  O    0.000000   0.000000   0.000000   0.000000   0.000000   0.000000
     7  N    0.000000   0.000000   0.000000   0.000000   0.000000   0.000000
     8  H    0.000004  -0.000001   0.000000  -0.000013   0.000000   0.000000
     9  C   -0.000002   0.000001   0.000000   0.000009   0.000000   0.000000
    10  H    0.000000   0.000000   0.000000   0.000000   0.000000   0.000000
    11  C    0.000000   0.000000   0.000000   0.000000   0.000000   0.000000
    12  H    0.000000   0.000000   0.000000   0.000000   0.000000   0.000000
    13  H    0.000000   0.000000   0.000000   0.000000   0.000000   0.000000
    14  H    0.000000   0.000000   0.000000   0.000000   0.000000   0.000000
    15  C    0.000199  -0.000011  -0.000002  -0.000215  -0.000001   0.000000
    16  O   -0.001951   0.000169   0.000029   0.004393   0.000003   0.000000
    17  N    0.000018  -0.000005   0.000000  -0.000006   0.000001   0.000000
    18  H    0.000000   0.000000   0.000000   0.000000   0.000000   0.000000
    19  C   -0.000990   0.000059   0.000012   0.000627  -0.000065  -0.000073
    20  H   -0.000005   0.000003   0.000000  -0.000030  -0.000061  -0.000016
    21  C   -0.000007   0.000002   0.000000  -0.000005   0.000000   0.000001
    22  H    0.000002   0.000000   0.000000  -0.000003  -0.000001   0.000000
    23  H    0.000013  -0.000001   0.000000  -0.000001  -0.000021  -0.000004
    24  H    0.000000   0.000000   0.000000   0.000000   0.000000   0.000000
    25  C   -0.011959   0.001067   0.000547   0.004181   0.005761   0.000841
    26  O   -0.014367  -0.000256   0.000311   0.015468   0.000601  -0.000004
    27  N   -0.054903   0.000894   0.005318  -0.009571  -0.024869  -0.009195
    28  H    0.003709   0.000771  -0.000104  -0.000194   0.000185   0.031449
    29  C    0.345143  -0.036059  -0.035886  -0.020938   0.308432  -0.090054
    30  H   -0.061456   0.006757   0.001529  -0.004272  -0.031289   0.001155
    31  C    5.234945   0.362053   0.343254   0.357390  -0.046296  -0.000459
    32  H    0.362053   0.564684  -0.026113  -0.024637  -0.002553   0.000943
    33  H    0.343254  -0.026113   0.612886  -0.020882  -0.007806  -0.000037
    34  H    0.357390  -0.024637  -0.020882   0.485489   0.003849  -0.000094
    35  C   -0.046296  -0.002553  -0.007806   0.003849   4.365121   0.599360
    36  O   -0.000459   0.000943  -0.000037  -0.000094   0.599360   8.091545
    37  N    0.003271  -0.000532   0.003016   0.000198   0.269698  -0.101422
    38  H    0.000248  -0.000053   0.007366  -0.000174  -0.020740   0.003627
    39  C   -0.000015  -0.000071   0.000097   0.000006  -0.024187  -0.009201
    40  H   -0.000073  -0.000007  -0.000006   0.000001  -0.001120   0.021443
    41  H   -0.000006   0.000001   0.000005   0.000000   0.001318   0.000570
    42  H    0.000013   0.000002   0.000003  -0.000002   0.001373   0.000575
             37         38         39         40         41         42
     1  H    0.000000   0.000000   0.000000   0.000000   0.000000   0.000000
     2  C    0.000000   0.000000   0.000000   0.000000   0.000000   0.000000
     3  H    0.000000   0.000000   0.000000   0.000000   0.000000   0.000000
     4  H    0.000000   0.000000   0.000000   0.000000   0.000000   0.000000
     5  C    0.000000   0.000000   0.000000   0.000000   0.000000   0.000000
     6  O    0.000000   0.000000   0.000000   0.000000   0.000000   0.000000
     7  N    0.000000   0.000000   0.000000   0.000000   0.000000   0.000000
     8  H    0.000000   0.000000   0.000000   0.000000   0.000000   0.000000
     9  C    0.000000   0.000000   0.000000   0.000000   0.000000   0.000000
    10  H    0.000000   0.000000   0.000000   0.000000   0.000000   0.000000
    11  C    0.000000   0.000000   0.000000   0.000000   0.000000   0.000000
    12  H    0.000000   0.000000   0.000000   0.000000   0.000000   0.000000
    13  H    0.000000   0.000000   0.000000   0.000000   0.000000   0.000000
    14  H    0.000000   0.000000   0.000000   0.000000   0.000000   0.000000
    15  C    0.000000   0.000000   0.000000   0.000000   0.000000   0.000000
    16  O    0.000000   0.000000   0.000000   0.000000   0.000000   0.000000
    17  N    0.000000   0.000000   0.000000   0.000000   0.000000   0.000000
    18  H    0.000000   0.000000   0.000000   0.000000   0.000000   0.000000
    19  C    0.000000   0.000000   0.000000   0.000000   0.000000   0.000000
    20  H    0.000000   0.000000   0.000000   0.000000   0.000000   0.000000
    21  C    0.000000   0.000000   0.000000   0.000000   0.000000   0.000000
    22  H    0.000000   0.000000   0.000000   0.000000   0.000000   0.000000
    23  H    0.000000   0.000000   0.000000   0.000000   0.000000   0.000000
    24  H    0.000000   0.000000   0.000000   0.000000   0.000000   0.000000
    25  C   -0.000078   0.000009   0.000002   0.000000   0.000000   0.000000
    26  O   -0.000001   0.000003   0.000000   0.000000   0.000000   0.000000
    27  N    0.003297   0.000045  -0.000068   0.000000   0.000000   0.000001
    28  H    0.001259  -0.000047  -0.000011  -0.000032   0.000000   0.000000
    29  C   -0.121136   0.000523   0.005844   0.001203  -0.000192  -0.000032
[...]
    29  C    0.000000   0.000000  -0.000018   0.000013  -0.000050   0.000003
    30  H    0.000000   0.000000   0.000001   0.000003  -0.000008   0.000000
    31  C    0.000000   0.000000   0.000001  -0.000060   0.000008   0.000000
    32  H    0.000000   0.000000   0.000000   0.000000  -0.000001   0.000000
    33  H    0.000000   0.000000   0.000000   0.000000   0.000000   0.000000
    34  H    0.000000   0.000000  -0.000002   0.000315   0.000000   0.000000
    35  C    0.000000   0.000000   0.000000   0.000000   0.000001   0.000000
    36  O    0.000000   0.000000   0.000000   0.000000   0.000000   0.000000
    37  N    0.000000   0.000000   0.000000   0.000000   0.000000   0.000000
    38  H    0.000000   0.000000   0.000000   0.000000   0.000000   0.000000
    39  C    0.000000   0.000000   0.000000   0.000000   0.000000   0.000000
    40  H    0.000000   0.000000   0.000000   0.000000   0.000000   0.000000
    41  H    0.000000   0.000000   0.000000   0.000000   0.000000   0.000000
    42  H    0.000000   0.000000   0.000000   0.000000   0.000000   0.000000
             19         20         21         22         23         24
     1  H    0.000000   0.000000   0.000000   0.000000   0.000000   0.000000
     2  C    0.000000   0.000000   0.000000   0.000000   0.000000   0.000000
     3  H    0.000000   0.000000   0.000000   0.000000   0.000000   0.000000
     4  H    0.000000   0.000000   0.000000   0.000000   0.000000   0.000000
     5  C    0.000001   0.000000   0.000000   0.000000   0.000000   0.000000
     6  O    0.000000   0.000000   0.000000   0.000000   0.000000   0.000000
     7  N   -0.000138   0.000003   0.000001   0.000002   0.000000   0.000000
     8  H   -0.000017   0.000001   0.000000   0.000000   0.000000   0.000000
     9  C    0.007043  -0.000279  -0.000243  -0.000241   0.000005   0.000007
    10  H    0.000348  -0.000005  -0.000050   0.000000   0.000000  -0.000004
    11  C   -0.000517   0.000002  -0.000125   0.000155   0.000002  -0.000010
    12  H    0.000124   0.000001  -0.000045   0.000082   0.000000   0.000000
    13  H   -0.000470   0.000017   0.000345   0.001533   0.000006  -0.000023
    14  H   -0.000002   0.000000   0.000002   0.000002   0.000000   0.000000
    15  C   -0.028372   0.000736   0.002864   0.000726  -0.000060  -0.000022
    16  O   -0.000808  -0.000002   0.000197  -0.000022   0.000000   0.000000
    17  N    0.242220  -0.045388  -0.048210  -0.000828   0.004981  -0.005630
    18  H   -0.042105   0.001458  -0.002140   0.000023   0.000088   0.005982
    19  C    5.031525   0.356574   0.361222  -0.034198  -0.026118  -0.030392
    20  H    0.356574   0.619437  -0.049731   0.005876   0.000186  -0.004936
    21  C    0.361222  -0.049731   5.154393   0.368476   0.360122   0.367396
    22  H   -0.034198   0.005876   0.368476   0.529972  -0.022165  -0.030666
    23  H   -0.026118   0.000186   0.360122  -0.022165   0.541383  -0.027314
    24  H   -0.030392  -0.004936   0.367396  -0.030666  -0.027314   0.567867
    25  C    0.328944  -0.046552  -0.026072  -0.006958  -0.006074   0.004761
    26  O   -0.066507   0.003204  -0.004835   0.006029  -0.000283  -0.000002
    27  N   -0.097106   0.007474  -0.006943   0.000498   0.006138  -0.000036
    28  H    0.000489   0.003750  -0.000179  -0.000005   0.000366  -0.000034
    29  C    0.006984   0.000034  -0.000254  -0.000010  -0.000114   0.000007
    30  H    0.000222  -0.000020   0.000091  -0.000008  -0.000056   0.000000
    31  C   -0.000368   0.000025  -0.000011   0.000001   0.000009   0.000000
    32  H    0.000000  -0.000004   0.000001   0.000000   0.000000   0.000000
    33  H    0.000002   0.000000   0.000000   0.000000   0.000000   0.000000
    34  H    0.000222  -0.000031   0.000002  -0.000001   0.000000   0.000000
    35  C   -0.000020  -0.000056  -0.000018  -0.000002   0.000008   0.000000
    36  O   -0.000078  -0.000040  -0.000001   0.000000   0.000004   0.000000
    37  N    0.000001   0.000000   0.000000   0.000000   0.000000   0.000000
    38  H    0.000000   0.000000   0.000000   0.000000   0.000000   0.000000
    39  C    0.000000   0.000000   0.000000   0.000000   0.000000   0.000000
    40  H    0.000000   0.000000   0.000000   0.000000   0.000000   0.000000
    41  H    0.000000   0.000000   0.000000   0.000000   0.000000   0.000000
    42  H    0.000000   0.000000   0.000000   0.000000   0.000000   0.000000
             25         26         27         28         29         30
     1  H    0.000000   0.000000   0.000000   0.000000   0.000000   0.000000
     2  C    0.000000   0.000000   0.000000   0.000000   0.000000   0.000000
     3  H    0.000000   0.000000   0.000000   0.000000   0.000000   0.000000
     4  H    0.000000   0.000000   0.000000   0.000000   0.000000   0.000000
     5  C    0.000000   0.000000   0.000000   0.000000   0.000000   0.000000
     6  O    0.000000   0.000000   0.000000   0.000000   0.000000   0.000000
     7  N    0.000009   0.000005   0.000000   0.000000   0.000000   0.000000
     8  H   -0.000009   0.000022   0.000000   0.000000   0.000000   0.000000
     9  C   -0.000038  -0.001362  -0.000019   0.000000   0.000000   0.000000
    10  H   -0.000022  -0.000004   0.000000   0.000000   0.000000   0.000000
    11  C   -0.000023   0.000362   0.000001   0.000000   0.000000   0.000000
    12  H   -0.000058   0.000649   0.000001   0.000000   0.000000   0.000000
    13  H   -0.000033  -0.000002   0.000000   0.000000   0.000000   0.000000
    14  H    0.000003   0.000003   0.000000   0.000000   0.000000   0.000000
    15  C    0.004499   0.012594   0.000287  -0.000025  -0.000018   0.000001
    16  O    0.009251  -0.010319  -0.000544   0.000000   0.000013   0.000003
    17  N   -0.031428  -0.002936   0.002586   0.000024  -0.000050  -0.000008
    18  H    0.003056  -0.000253  -0.000132   0.000002   0.000003   0.000000
    19  C    0.328944  -0.066507  -0.097106   0.000489   0.006984   0.000222
    20  H   -0.046552   0.003204   0.007474   0.003750   0.000034  -0.000020
    21  C   -0.026072  -0.004835  -0.006943  -0.000179  -0.000254   0.000091
    22  H   -0.006958   0.006029   0.000498  -0.000005  -0.000010  -0.000008
    23  H   -0.006074  -0.000283   0.006138   0.000366  -0.000114  -0.000056
    24  H    0.004761  -0.000002  -0.000036  -0.000034   0.000007   0.000000
    25  C    4.401142   0.525293   0.236569  -0.016143  -0.023289   0.000207
    26  O    0.525293   8.133473  -0.094380   0.002643   0.009721   0.010112
    27  N    0.236569  -0.094380   7.187174   0.280039   0.253962  -0.053063
    28  H   -0.016143   0.002643   0.280039   0.384586  -0.048985   0.005201
    29  C   -0.023289   0.009721   0.253962  -0.048985   5.081122   0.368368
    30  H    0.000207   0.010112  -0.053063   0.005201   0.368368   0.578212
    31  C   -0.006210  -0.006853  -0.053129   0.002604   0.354406  -0.047368
    32  H    0.000377   0.000011  -0.001216   0.001435  -0.034430   0.005483
    33  H    0.000116   0.000016   0.005011  -0.000094  -0.030214  -0.000368
    34  H    0.004811   0.009361  -0.009074  -0.000326  -0.022211  -0.004546
    35  C    0.005595   0.000565  -0.027699  -0.003525   0.301417  -0.034752
    36  O    0.000763  -0.000005  -0.013973   0.038265  -0.083277   0.002139
    37  N   -0.000103  -0.000002   0.002586   0.001622  -0.109574   0.001593
    38  H   -0.000004   0.000001   0.000048  -0.000066   0.001759   0.002203
    39  C    0.000002   0.000000  -0.000094  -0.000013   0.005771  -0.000095
    40  H    0.000000   0.000000   0.000006  -0.000043   0.001094  -0.000035
    41  H    0.000000   0.000000   0.000003   0.000000  -0.000154   0.000001
    42  H    0.000000   0.000000   0.000000   0.000000  -0.000105  -0.000006
             31         32         33         34         35         36
     1  H    0.000000   0.000000   0.000000   0.000000   0.000000   0.000000
     2  C    0.000000   0.000000   0.000000   0.000000   0.000000   0.000000
     3  H    0.000000   0.000000   0.000000   0.000000   0.000000   0.000000
     4  H    0.000000   0.000000   0.000000   0.000000   0.000000   0.000000
     5  C    0.000000   0.000000   0.000000   0.000000   0.000000   0.000000
     6  O    0.000000   0.000000   0.000000   0.000000   0.000000   0.000000
     7  N    0.000000   0.000000   0.000000   0.000000   0.000000   0.000000
     8  H    0.000000   0.000000   0.000000   0.000000   0.000000   0.000000
     9  C    0.000000   0.000000   0.000000   0.000001   0.000000   0.000000
    10  H    0.000000   0.000000   0.000000   0.000000   0.000000   0.000000
    11  C    0.000000   0.000000   0.000000   0.000000   0.000000   0.000000
    12  H    0.000000   0.000000   0.000000   0.000000   0.000000   0.000000
    13  H    0.000000   0.000000   0.000000   0.000000   0.000000   0.000000
    14  H    0.000000   0.000000   0.000000   0.000000   0.000000   0.000000
    15  C    0.000001   0.000000   0.000000  -0.000002   0.000000   0.000000
    16  O   -0.000060   0.000000   0.000000   0.000315   0.000000   0.000000
    17  N    0.000008  -0.000001   0.000000   0.000000   0.000001   0.000000
    18  H    0.000000   0.000000   0.000000   0.000000   0.000000   0.000000
    19  C   -0.000368   0.000000   0.000002   0.000222  -0.000020  -0.000078
    20  H    0.000025  -0.000004   0.000000  -0.000031  -0.000056  -0.000040
    21  C   -0.000011   0.000001   0.000000   0.000002  -0.000018  -0.000001
    22  H    0.000001   0.000000   0.000000  -0.000001  -0.000002   0.000000
    23  H    0.000009   0.000000   0.000000   0.000000   0.000008   0.000004
    24  H    0.000000   0.000000   0.000000   0.000000   0.000000   0.000000
    25  C   -0.006210   0.000377   0.000116   0.004811   0.005595   0.000763
    26  O   -0.006853   0.000011   0.000016   0.009361   0.000565  -0.000005
    27  N   -0.053129  -0.001216   0.005011  -0.009074  -0.027699  -0.013973
    28  H    0.002604   0.001435  -0.000094  -0.000326  -0.003525   0.038265
    29  C    0.354406  -0.034430  -0.030214  -0.022211   0.301417  -0.083277
    30  H   -0.047368   0.005483  -0.000368  -0.004546  -0.034752   0.002139
    31  C    5.148955   0.370698   0.354765   0.370194  -0.036847  -0.002264
    32  H    0.370698   0.553079  -0.027875  -0.025738  -0.004214   0.001937
    33  H    0.354765  -0.027875   0.586237  -0.024987  -0.002610  -0.000016
    34  H    0.370194  -0.025738  -0.024987   0.493830   0.003572  -0.000073
    35  C   -0.036847  -0.004214  -0.002610   0.003572   4.374739   0.575123
    36  O   -0.002264   0.001937  -0.000016  -0.000073   0.575123   8.089373
    37  N    0.000085  -0.000012   0.003209   0.000014   0.284679  -0.092314
    38  H    0.000242  -0.000019   0.001754  -0.000071  -0.021555   0.003304
    39  C   -0.000245   0.000000  -0.000072   0.000005  -0.023083  -0.007541
    40  H   -0.000038  -0.000009  -0.000001   0.000001  -0.001240   0.019665
    41  H   -0.000006   0.000000   0.000004   0.000000   0.000776   0.000410
    42  H    0.000044  -0.000001  -0.000014  -0.000001   0.001484   0.000447
             37         38         39         40         41         42
     1  H    0.000000   0.000000   0.000000   0.000000   0.000000   0.000000
     2  C    0.000000   0.000000   0.000000   0.000000   0.000000   0.000000
     3  H    0.000000   0.000000   0.000000   0.000000   0.000000   0.000000
     4  H    0.000000   0.000000   0.000000   0.000000   0.000000   0.000000
     5  C    0.000000   0.000000   0.000000   0.000000   0.000000   0.000000
     6  O    0.000000   0.000000   0.000000   0.000000   0.000000   0.000000
     7  N    0.000000   0.000000   0.000000   0.000000   0.000000   0.000000
     8  H    0.000000   0.000000   0.000000   0.000000   0.000000   0.000000
     9  C    0.000000   0.000000   0.000000   0.000000   0.000000   0.000000
    10  H    0.000000   0.000000   0.000000   0.000000   0.000000   0.000000
    11  C    0.000000   0.000000   0.000000   0.000000   0.000000   0.000000
    12  H    0.000000   0.000000   0.000000   0.000000   0.000000   0.000000
    13  H    0.000000   0.000000   0.000000   0.000000   0.000000   0.000000
    14  H    0.000000   0.000000   0.000000   0.000000   0.000000   0.000000
    15  C    0.000000   0.000000   0.000000   0.000000   0.000000   0.000000
    16  O    0.000000   0.000000   0.000000   0.000000   0.000000   0.000000
    17  N    0.000000   0.000000   0.000000   0.000000   0.000000   0.000000
    18  H    0.000000   0.000000   0.000000   0.000000   0.000000   0.000000
    19  C    0.000001   0.000000   0.000000   0.000000   0.000000   0.000000
    20  H    0.000000   0.000000   0.000000   0.000000   0.000000   0.000000
    21  C    0.000000   0.000000   0.000000   0.000000   0.000000   0.000000
    22  H    0.000000   0.000000   0.000000   0.000000   0.000000   0.000000
    23  H    0.000000   0.000000   0.000000   0.000000   0.000000   0.000000
    24  H    0.000000   0.000000   0.000000   0.000000   0.000000   0.000000
    25  C   -0.000103  -0.000004   0.000002   0.000000   0.000000   0.000000
    26  O   -0.000002   0.000001   0.000000   0.000000   0.000000   0.000000
    27  N    0.002586   0.000048  -0.000094   0.000006   0.000003   0.000000
    28  H    0.001622  -0.000066  -0.000013  -0.000043   0.000000   0.000000
    29  C   -0.109574   0.001759   0.005771   0.001094  -0.000154  -0.000105
    30  H    0.001593   0.002203  -0.000095  -0.000035   0.000001  -0.000006
    31  C    0.000085   0.000242  -0.000245  -0.000038  -0.000006   0.000044
    32  H   -0.000012  -0.000019   0.000000  -0.000009   0.000000  -0.000001
    33  H    0.003209   0.001754  -0.000072  -0.000001   0.000004  -0.000014
    34  H    0.000014  -0.000071   0.000005   0.000001   0.000000  -0.000001
    35  C    0.284679  -0.021555  -0.023083  -0.001240   0.000776   0.001484
    36  O   -0.092314   0.003304  -0.007541   0.019665   0.000410   0.000447
    37  N    7.050381   0.306210   0.264999  -0.039170  -0.040221  -0.041281
    38  H    0.306210   0.403229  -0.031590   0.004006  -0.000966  -0.000833
    39  C    0.264999  -0.031590   4.964279   0.378045   0.382058   0.381582
    40  H   -0.039170   0.004006   0.378045   0.478414  -0.024236  -0.024324
    41  H   -0.040221  -0.000966   0.382058  -0.024236   0.557996  -0.039371
    42  H   -0.041281  -0.000833   0.381582  -0.024324  -0.039371   0.558543
 Mulliken atomic charges:
              1
     1  H    0.180274
     2  C   -0.532561
     3  H    0.147844
     4  H    0.180432
     5  C    0.597617
     6  O   -0.527771
     7  N   -0.604473
     8  H    0.346748
     9  C   -0.044102
    10  H    0.167291
    11  C   -0.444469
    12  H    0.169807
    13  H    0.130085
    14  H    0.186883
    15  C    0.624586
    16  O   -0.505772
    17  N   -0.621939
    18  H    0.324697
    19  C   -0.008707
    20  H    0.148268
    21  C   -0.476254
    22  H    0.181729
    23  H    0.168891
    24  H    0.153049
    25  C    0.637618
    26  O   -0.526320
    27  N   -0.624974
    28  H    0.348411
    29  C   -0.031976
    30  H    0.166489
    31  C   -0.448635
    32  H    0.160499
    33  H    0.135137
    34  H    0.204736
    35  C    0.607663
    36  O   -0.531848
    37  N   -0.592700
    38  H    0.332348
    39  C   -0.314008
    40  H    0.207867
    41  H    0.163705
    42  H    0.163835
 Sum of Mulliken atomic charges =   0.00000
 Mulliken charges with hydrogens summed into heavy atoms:
              1
     2  C   -0.024011
     5  C    0.597617
     6  O   -0.527771
     7  N   -0.257725
     9  C    0.123188
    11  C    0.042307
    15  C    0.624586
    16  O   -0.505772
    17  N   -0.297243
    19  C    0.139562
    21  C    0.027415
    25  C    0.637618
    26  O   -0.526320
    27  N   -0.276563
    29  C    0.134514
    31  C    0.051737
    35  C    0.607663
    36  O   -0.531848
    37  N   -0.260352
    39  C    0.221398
 Sum of Mulliken charges with hydrogens summed into heavy atoms =   0.00000
 Electronic spatial extent (au):  <R**2>=          10072.5850
 Charge=              0.0000 electrons
 Dipole moment (field-independent basis, Debye):
    X=              6.3255    Y=              0.0327    Z=              1.2659  Tot=              6.4510
 Quadrupole moment (field-independent basis, Debye-Ang):
   XX=           -119.7099   YY=           -108.3888   ZZ=           -119.8431
   XY=             -0.8784   XZ=             12.9785   YZ=             -1.9819
 Traceless Quadrupole moment (field-independent basis, Debye-Ang):
   XX=             -3.7293   YY=              7.5918   ZZ=             -3.8625
   XY=             -0.8784   XZ=             12.9785   YZ=             -1.9819
 Octapole moment (field-independent basis, Debye-Ang**2):
  XXX=            356.3733  YYY=              7.1061  ZZZ=              3.0641  XYY=            -10.1072
  XXY=           -130.8649  XXZ=             69.2768  XZZ=             -0.5290  YZZ=             -3.3902
  YYZ=             -0.8164  XYZ=             -6.1029
 Hexadecapole moment (field-independent basis, Debye-Ang**3):
 XXXX=         -11338.8982 YYYY=          -1231.7643 ZZZZ=           -446.8017 XXXY=            200.2177
 XXXZ=            432.8524 YYYX=             -5.5320 YYYZ=            -18.9103 ZZZX=             24.6401
 ZZZY=             -7.3293 XXYY=          -1964.3839 XXZZ=          -1910.6842 YYZZ=           -282.7016
 XXYZ=            -22.9869 YYXZ=             18.0406 ZZXY=            -17.0936
 N-N= 1.600529154553D+03 E-N=-5.510709390589D+03  KE= 9.813214594154D+02
 1\1\GINC-NODE002\FOpt\RB3LYP\6-31G(d)\C12H22N4O4\STEBOSS\29-Dec-2016\0
 \\# b3lyp/6-31G* Opt=(ModRedundant, maxcycles=1000, calcfc) geom=nocro
 wd\\Phi Psi fixed scan\\0,1\H,8.6731552775,0.5684317217,-0.5313953416\
 C,8.951970004,1.3271359806,0.2064157833\H,9.8293178987,1.8724694833,-0
 .1546818529\H,9.2151418272,0.8016702603,1.1298838663\C,7.7466980965,2.
 2173036966,0.4739572217\O,6.674712019,1.7618104834,0.8652118832\N,7.94
 02317046,3.5469764149,0.2568500325\H,8.80217556,3.9161998372,-0.128056
 7114\C,6.87688789,4.5181626488,0.4122335928\H,5.9521576495,4.080150484
 7,0.0134947379\C,6.6455016378,4.8910315495,1.8903986598\H,7.538463508,
 5.3665215335,2.3078352991\H,5.8022939429,5.582665286,2.0000766027\H,6.
 4214896494,3.9801508154,2.4510447488\C,7.2754963321,5.7570745633,-0.40
 69040556\O,8.4250397474,5.9248181607,-0.7835775823\N,6.2207018028,6.58
 73879152,-0.7303419151\H,5.3384712256,6.2429096567,-0.3677774611\C,6.2
 196452558,8.0571590736,-0.7961321017\H,5.9347395074,8.354977952,-1.815
 0833307\C,5.1727381694,8.611524766,0.1853311917\H,5.4656970313,8.38103
 08902,1.2144258511\H,5.0872010424,9.6971713042,0.0797072411\H,4.185938
 8529,8.1756979102,-0.0131234963\C,7.5727098398,8.7141637713,-0.4579795
 205\O,8.2687288066,8.3440926952,0.4795323942\N,7.7768983218,9.89480210
 41,-1.1024396938\H,7.2310726758,10.1817669541,-1.9077873009\C,8.920113
 9674,10.7391754606,-0.8114511496\H,9.0008271462,10.8353355688,0.278250
 5382\C,10.2373929576,10.1496016266,-1.3552429362\H,10.1947424197,10.06
 54955752,-2.4460909857\H,11.0931644715,10.7803182333,-1.0886607609\H,1
 0.3864985843,9.1561140333,-0.92595627\C,8.6247490365,12.1065125227,-1.
 4483747042\O,7.8068124249,12.2221857304,-2.3585756387\N,9.3537594972,1
 3.1415524582,-0.9545550014\H,9.9935703567,12.9582742369,-0.1944698466\
 C,9.268882739,14.4934555204,-1.4822465001\H,8.5311108383,14.4851350499
 ,-2.2852321809\H,8.9481582621,15.1983377714,-0.7068843516\H,10.2343420
 222,14.8220482995,-1.8839289547\\Version=EM64L-G09RevA.02\State=1-A\HF
 =-990.488539\RMSD=4.217e-09\RMSF=2.574e-03\Dipole=0.4164249,2.5036078,
 0.0045266\Quadrupole=6.3992856,0.2584747,-6.6577602,1.4613747,0.700148
 9,8.619903\PG=C01 [X(C12H22N4O4)]\\@


 Time has a wonderful way of weeding out the trivial.
                                -- Richard Ben Sapir
 Job cpu time:  0 days  6 hours 53 minutes 50.6 seconds.
 File lengths (MBytes):  RWF=    608 Int=      0 D2E=      0 Chk=     11 Scr=      1
 Normal termination of Gaussian 09 at Thu Dec 29 05:26:58 2016.
