 Entering Gaussian System, Link 0=g09
 Initial command:
 /home/steboss/Software/g09/l1.exe /tmp/Gau-20921.inp -scrdir=/tmp/
 Entering Link 1 = /home/steboss/Software/g09/l1.exe PID=     20923.
  
 Copyright (c) 1988,1990,1992,1993,1995,1998,2003,2009, Gaussian, Inc.
                  All Rights Reserved.
  
 This is part of the Gaussian(R) 09 program.  It is based on
 the Gaussian(R) 03 system (copyright 2003, Gaussian, Inc.),
 the Gaussian(R) 98 system (copyright 1998, Gaussian, Inc.),
 the Gaussian(R) 94 system (copyright 1995, Gaussian, Inc.),
 the Gaussian 92(TM) system (copyright 1992, Gaussian, Inc.),
 the Gaussian 90(TM) system (copyright 1990, Gaussian, Inc.),
 the Gaussian 88(TM) system (copyright 1988, Gaussian, Inc.),
 the Gaussian 86(TM) system (copyright 1986, Carnegie Mellon
 University), and the Gaussian 82(TM) system (copyright 1983,
 Carnegie Mellon University). Gaussian is a federally registered
 trademark of Gaussian, Inc.
  
 This software contains proprietary and confidential information,
 including trade secrets, belonging to Gaussian, Inc.
  
 This software is provided under written license and may be
 used, copied, transmitted, or stored only in accord with that
 written license.
  
 The following legend is applicable only to US Government
 contracts under FAR:
  
                    RESTRICTED RIGHTS LEGEND
  
 Use, reproduction and disclosure by the US Government is
 subject to restrictions as set forth in subparagraphs (a)
 and (c) of the Commercial Computer Software - Restricted
 Rights clause in FAR 52.227-19.
  
 Gaussian, Inc.
 340 Quinnipiac St., Bldg. 40, Wallingford CT 06492
  
  
 ---------------------------------------------------------------
 Warning -- This program may not be used in any manner that
 competes with the business of Gaussian, Inc. or will provide
 assistance to any competitor of Gaussian, Inc.  The licensee
 of this program is prohibited from giving any competitor of
 Gaussian, Inc. access to this program.  By using this program,
 the user acknowledges that Gaussian, Inc. is engaged in the
 business of creating and licensing software in the field of
 computational chemistry and represents and warrants to the
 licensee that it is not a competitor of Gaussian, Inc. and that
 it will not use this program in any manner prohibited above.
 ---------------------------------------------------------------
  

 Cite this work as:
 Gaussian 09, Revision A.02,
 M. J. Frisch, G. W. Trucks, H. B. Schlegel, G. E. Scuseria, 
 M. A. Robb, J. R. Cheeseman, G. Scalmani, V. Barone, B. Mennucci, 
 G. A. Petersson, H. Nakatsuji, M. Caricato, X. Li, H. P. Hratchian, 
 A. F. Izmaylov, J. Bloino, G. Zheng, J. L. Sonnenberg, M. Hada, 
 M. Ehara, K. Toyota, R. Fukuda, J. Hasegawa, M. Ishida, T. Nakajima, 
 Y. Honda, O. Kitao, H. Nakai, T. Vreven, J. A. Montgomery, Jr., 
 J. E. Peralta, F. Ogliaro, M. Bearpark, J. J. Heyd, E. Brothers, 
 K. N. Kudin, V. N. Staroverov, R. Kobayashi, J. Normand, 
 K. Raghavachari, A. Rendell, J. C. Burant, S. S. Iyengar, J. Tomasi, 
 M. Cossi, N. Rega, J. M. Millam, M. Klene, J. E. Knox, J. B. Cross, 
 V. Bakken, C. Adamo, J. Jaramillo, R. Gomperts, R. E. Stratmann, 
 O. Yazyev, A. J. Austin, R. Cammi, C. Pomelli, J. W. Ochterski, 
 R. L. Martin, K. Morokuma, V. G. Zakrzewski, G. A. Voth, 
 P. Salvador, J. J. Dannenberg, S. Dapprich, A. D. Daniels, 
 O. Farkas, J. B. Foresman, J. V. Ortiz, J. Cioslowski, 
 and D. J. Fox, Gaussian, Inc., Wallingford CT, 2009.
 
 ******************************************
 Gaussian 09:  EM64L-G09RevA.02 11-Jun-2009
                29-Dec-2016 
 ******************************************
 %chk=structure_180.chk
 ----------------------------------------------------------------------
 # b3lyp/6-31G* Opt=(ModRedundant, maxcycles=1000, calcfc) geom=nocrowd
 ----------------------------------------------------------------------
 1/6=1000,10=4,14=-1,18=120,19=15,26=3,38=1/1,3;
 2/9=110,12=1,17=6,18=5,40=1/2;
 3/5=1,6=6,7=1,11=2,16=1,25=1,30=1,71=2,74=-5/1,2,3;
 4//1;
 5/5=2,38=5/2;
 8/6=4,10=90,11=11/1;
 11/6=1,8=1,9=11,15=111,16=1/1,2,10;
 10/6=1,7=6,13=1/2;
 6/7=2,8=2,9=2,10=2,28=1/1;
 7/10=1,18=20,25=1/1,2,3,16;
 1/6=1000,10=4,14=-1,18=20,19=15/3(2);
 2/9=110,12=1/2;
 99//99;
 2/9=110,12=1/2;
 3/5=1,6=6,7=1,11=2,16=1,25=1,30=1,71=1,74=-5/1,2,3;
 4/5=5,16=3/1;
 5/5=2,38=5/2;
 7//1,2,3,16;
 1/6=1000,14=-1,18=20,19=15/3(-5);
 2/9=110,12=1/2;
 6/7=2,8=2,9=2,10=2,19=2,28=1/1;
 99/9=1/99;
 ------------------
 Phi Psi fixed scan
 ------------------
 Symbolic Z-matrix:
 Charge =  0 Multiplicity = 1
 H                     5.846     1.       -3.8461 
 C                     5.846     2.09     -3.8461 
 H                     4.9562    2.4539   -4.3598 
 H                     6.7359    2.4539   -4.3598 
 C                     5.846     2.6408   -2.4186 
 O                     5.846     1.8774   -1.4555 
 N                     5.846     3.9697   -2.2907 
 H                     5.846     4.5562   -3.1129 
 C                     5.846     4.6139   -0.9928 
 H                     4.9562    4.3155   -0.4385 
 C                     7.0782    4.2208   -0.1847 
 H                     7.9772    4.5214   -0.7228 
 H                     7.0518    4.7189    0.7844 
 H                     7.0874    3.1409   -0.0375 
 C                     5.846     6.1294   -1.1334 
 O                     5.846     6.6527   -2.2454 
 N                     5.846     6.8349    0. 
 H                     5.846     6.3592    0.891 
 C                     5.8461    8.2839    0. 
 H                     5.3323    8.6477   -0.8898 
 C                     5.1347    8.8329    1.2322 
 H                     5.6431    8.4846    2.1312 
 H                     5.1499    9.9224    1.2058 
 H                     4.1019    8.4846    1.2414 
 C                     7.266     8.8318    0. 
 O                     8.2292    8.0684    0. 
 N                     7.394     10.1607   0. 
 H                     6.5717    10.7472   0. 
 C                     8.6919    10.8049   0. 
 H                     9.2462    10.5065   0.8898 
 C                     9.4999    10.4118  -1.2322 
 H                     8.9619    10.7124  -2.1312 
 H                     10.4691   10.9099  -1.2058 
 H                     9.6471    9.3319   -1.2414 
 C                     8.5513    12.3204   0. 
 O                     7.4392    12.8437   0. 
 N                     9.6846    13.0259   0. 
 H                     10.5756   12.5502   0. 
 C                     9.6846    14.4749   0. 
 H                     8.6572    14.8387   0. 
 H                     10.1984   14.8387   0.8898 
 H                     10.1984   14.8387  -0.8898 
 
 The following ModRedundant input section has been read:
 D   15   17   19   25 F                                                       
 D   17   19   25   27 F                                                       

 GradGradGradGradGradGradGradGradGradGradGradGradGradGradGradGradGradGrad
 Berny optimization.
 Initialization pass.
                           ----------------------------
                           !    Initial Parameters    !
                           ! (Angstroms and Degrees)  !
 --------------------------                            --------------------------
 ! Name  Definition              Value          Derivative Info.                !
 --------------------------------------------------------------------------------
 ! R1    R(1,2)                  1.09           calculate D2E/DX2 analytically  !
 ! R2    R(2,3)                  1.09           calculate D2E/DX2 analytically  !
 ! R3    R(2,4)                  1.0901         calculate D2E/DX2 analytically  !
 ! R4    R(2,5)                  1.5301         calculate D2E/DX2 analytically  !
 ! R5    R(5,6)                  1.229          calculate D2E/DX2 analytically  !
 ! R6    R(5,7)                  1.335          calculate D2E/DX2 analytically  !
 ! R7    R(7,8)                  1.0099         calculate D2E/DX2 analytically  !
 ! R8    R(7,9)                  1.449          calculate D2E/DX2 analytically  !
 ! R9    R(9,10)                 1.09           calculate D2E/DX2 analytically  !
 ! R10   R(9,11)                 1.5251         calculate D2E/DX2 analytically  !
 ! R11   R(9,15)                 1.522          calculate D2E/DX2 analytically  !
 ! R12   R(11,12)                1.09           calculate D2E/DX2 analytically  !
 ! R13   R(11,13)                1.0899         calculate D2E/DX2 analytically  !
 ! R14   R(11,14)                1.0899         calculate D2E/DX2 analytically  !
 ! R15   R(15,16)                1.229          calculate D2E/DX2 analytically  !
 ! R16   R(15,17)                1.335          calculate D2E/DX2 analytically  !
 ! R17   R(17,18)                1.01           calculate D2E/DX2 analytically  !
 ! R18   R(17,19)                1.449          calculate D2E/DX2 analytically  !
 ! R19   R(19,20)                1.09           calculate D2E/DX2 analytically  !
 ! R20   R(19,21)                1.5251         calculate D2E/DX2 analytically  !
 ! R21   R(19,25)                1.5219         calculate D2E/DX2 analytically  !
 ! R22   R(21,22)                1.0899         calculate D2E/DX2 analytically  !
 ! R23   R(21,23)                1.0899         calculate D2E/DX2 analytically  !
 ! R24   R(21,24)                1.09           calculate D2E/DX2 analytically  !
 ! R25   R(25,26)                1.229          calculate D2E/DX2 analytically  !
 ! R26   R(25,27)                1.3351         calculate D2E/DX2 analytically  !
 ! R27   R(27,28)                1.01           calculate D2E/DX2 analytically  !
 ! R28   R(27,29)                1.449          calculate D2E/DX2 analytically  !
 ! R29   R(29,30)                1.09           calculate D2E/DX2 analytically  !
 ! R30   R(29,31)                1.525          calculate D2E/DX2 analytically  !
 ! R31   R(29,35)                1.522          calculate D2E/DX2 analytically  !
 ! R32   R(31,32)                1.09           calculate D2E/DX2 analytically  !
 ! R33   R(31,33)                1.09           calculate D2E/DX2 analytically  !
 ! R34   R(31,34)                1.0899         calculate D2E/DX2 analytically  !
 ! R35   R(35,36)                1.2291         calculate D2E/DX2 analytically  !
 ! R36   R(35,37)                1.335          calculate D2E/DX2 analytically  !
 ! R37   R(37,38)                1.01           calculate D2E/DX2 analytically  !
 ! R38   R(37,39)                1.449          calculate D2E/DX2 analytically  !
 ! R39   R(39,40)                1.0899         calculate D2E/DX2 analytically  !
 ! R40   R(39,41)                1.09           calculate D2E/DX2 analytically  !
 ! R41   R(39,42)                1.09           calculate D2E/DX2 analytically  !
 ! A1    A(1,2,3)              109.5032         calculate D2E/DX2 analytically  !
 ! A2    A(1,2,4)              109.5017         calculate D2E/DX2 analytically  !
 ! A3    A(1,2,5)              111.0991         calculate D2E/DX2 analytically  !
 ! A4    A(3,2,4)              109.4443         calculate D2E/DX2 analytically  !
 ! A5    A(3,2,5)              108.6335         calculate D2E/DX2 analytically  !
 ! A6    A(4,2,5)              108.6321         calculate D2E/DX2 analytically  !
 ! A7    A(2,5,6)              120.4989         calculate D2E/DX2 analytically  !
 ! A8    A(2,5,7)              116.5966         calculate D2E/DX2 analytically  !
 ! A9    A(6,5,7)              122.9046         calculate D2E/DX2 analytically  !
 ! A10   A(5,7,8)              120.0039         calculate D2E/DX2 analytically  !
 ! A11   A(5,7,9)              121.8946         calculate D2E/DX2 analytically  !
 ! A12   A(8,7,9)              118.1015         calculate D2E/DX2 analytically  !
 ! A13   A(7,9,10)             109.5            calculate D2E/DX2 analytically  !
 ! A14   A(7,9,11)             111.1021         calculate D2E/DX2 analytically  !
 ! A15   A(7,9,15)             111.0966         calculate D2E/DX2 analytically  !
 ! A16   A(10,9,11)            108.6355         calculate D2E/DX2 analytically  !
 ! A17   A(10,9,15)            108.6373         calculate D2E/DX2 analytically  !
 ! A18   A(11,9,15)            107.7945         calculate D2E/DX2 analytically  !
 ! A19   A(9,11,12)            109.4942         calculate D2E/DX2 analytically  !
 ! A20   A(9,11,13)            109.4975         calculate D2E/DX2 analytically  !
 ! A21   A(9,11,14)            109.4977         calculate D2E/DX2 analytically  !
 ! A22   A(12,11,13)           109.4439         calculate D2E/DX2 analytically  !
 ! A23   A(12,11,14)           109.4481         calculate D2E/DX2 analytically  !
 ! A24   A(13,11,14)           109.446          calculate D2E/DX2 analytically  !
 ! A25   A(9,15,16)            120.5018         calculate D2E/DX2 analytically  !
 ! A26   A(9,15,17)            116.6003         calculate D2E/DX2 analytically  !
 ! A27   A(16,15,17)           122.8979         calculate D2E/DX2 analytically  !
 ! A28   A(15,17,18)           120.0017         calculate D2E/DX2 analytically  !
 ! A29   A(15,17,19)           121.9008         calculate D2E/DX2 analytically  !
 ! A30   A(18,17,19)           118.0975         calculate D2E/DX2 analytically  !
 ! A31   A(17,19,20)           109.4954         calculate D2E/DX2 analytically  !
 ! A32   A(17,19,21)           111.0974         calculate D2E/DX2 analytically  !
 ! A33   A(17,19,25)           111.1042         calculate D2E/DX2 analytically  !
 ! A34   A(20,19,21)           108.6349         calculate D2E/DX2 analytically  !
 ! A35   A(20,19,25)           108.6399         calculate D2E/DX2 analytically  !
 ! A36   A(21,19,25)           107.7944         calculate D2E/DX2 analytically  !
 ! A37   A(19,21,22)           109.4996         calculate D2E/DX2 analytically  !
 ! A38   A(19,21,23)           109.4977         calculate D2E/DX2 analytically  !
 ! A39   A(19,21,24)           109.4988         calculate D2E/DX2 analytically  !
 ! A40   A(22,21,23)           109.4452         calculate D2E/DX2 analytically  !
 ! A41   A(22,21,24)           109.4447         calculate D2E/DX2 analytically  !
 ! A42   A(23,21,24)           109.4412         calculate D2E/DX2 analytically  !
 ! A43   A(19,25,26)           120.5006         calculate D2E/DX2 analytically  !
 ! A44   A(19,25,27)           116.602          calculate D2E/DX2 analytically  !
 ! A45   A(26,25,27)           122.8974         calculate D2E/DX2 analytically  !
 ! A46   A(25,27,28)           119.9963         calculate D2E/DX2 analytically  !
 ! A47   A(25,27,29)           121.8988         calculate D2E/DX2 analytically  !
 ! A48   A(28,27,29)           118.1048         calculate D2E/DX2 analytically  !
 ! A49   A(27,29,30)           109.5            calculate D2E/DX2 analytically  !
 ! A50   A(27,29,31)           111.0992         calculate D2E/DX2 analytically  !
 ! A51   A(27,29,35)           111.0966         calculate D2E/DX2 analytically  !
 ! A52   A(30,29,31)           108.6382         calculate D2E/DX2 analytically  !
 ! A53   A(30,29,35)           108.6373         calculate D2E/DX2 analytically  !
 ! A54   A(31,29,35)           107.7947         calculate D2E/DX2 analytically  !
 ! A55   A(29,31,32)           109.5007         calculate D2E/DX2 analytically  !
 ! A56   A(29,31,33)           109.4959         calculate D2E/DX2 analytically  !
 ! A57   A(29,31,34)           109.4978         calculate D2E/DX2 analytically  !
 ! A58   A(32,31,33)           109.441          calculate D2E/DX2 analytically  !
 ! A59   A(32,31,34)           109.4482         calculate D2E/DX2 analytically  !
 ! A60   A(33,31,34)           109.4436         calculate D2E/DX2 analytically  !
 ! A61   A(29,35,36)           120.4998         calculate D2E/DX2 analytically  !
 ! A62   A(29,35,37)           116.6026         calculate D2E/DX2 analytically  !
 ! A63   A(36,35,37)           122.8976         calculate D2E/DX2 analytically  !
 ! A64   A(35,37,38)           119.9995         calculate D2E/DX2 analytically  !
 ! A65   A(35,37,39)           121.903          calculate D2E/DX2 analytically  !
 ! A66   A(38,37,39)           118.0975         calculate D2E/DX2 analytically  !
 ! A67   A(37,39,40)           109.4989         calculate D2E/DX2 analytically  !
 ! A68   A(37,39,41)           109.4974         calculate D2E/DX2 analytically  !
 ! A69   A(37,39,42)           109.4974         calculate D2E/DX2 analytically  !
 ! A70   A(40,39,41)           109.4472         calculate D2E/DX2 analytically  !
 ! A71   A(40,39,42)           109.4472         calculate D2E/DX2 analytically  !
 ! A72   A(41,39,42)           109.4392         calculate D2E/DX2 analytically  !
 ! D1    D(1,2,5,6)              0.0            calculate D2E/DX2 analytically  !
 ! D2    D(1,2,5,7)            180.0            calculate D2E/DX2 analytically  !
 ! D3    D(3,2,5,6)            120.5141         calculate D2E/DX2 analytically  !
 ! D4    D(3,2,5,7)            -59.4859         calculate D2E/DX2 analytically  !
 ! D5    D(4,2,5,6)           -120.5112         calculate D2E/DX2 analytically  !
 ! D6    D(4,2,5,7)             59.4888         calculate D2E/DX2 analytically  !
 ! D7    D(2,5,7,8)              0.0            calculate D2E/DX2 analytically  !
 ! D8    D(2,5,7,9)            180.0            calculate D2E/DX2 analytically  !
 ! D9    D(6,5,7,8)            180.0            calculate D2E/DX2 analytically  !
 ! D10   D(6,5,7,9)              0.0            calculate D2E/DX2 analytically  !
 ! D11   D(5,7,9,10)           -60.0002         calculate D2E/DX2 analytically  !
 ! D12   D(5,7,9,11)            60.0009         calculate D2E/DX2 analytically  !
 ! D13   D(5,7,9,15)           180.0            calculate D2E/DX2 analytically  !
 ! D14   D(8,7,9,10)           119.9998         calculate D2E/DX2 analytically  !
 ! D15   D(8,7,9,11)          -119.9991         calculate D2E/DX2 analytically  !
 ! D16   D(8,7,9,15)             0.0            calculate D2E/DX2 analytically  !
 ! D17   D(7,9,11,12)           59.9998         calculate D2E/DX2 analytically  !
 ! D18   D(7,9,11,13)          179.9965         calculate D2E/DX2 analytically  !
 ! D19   D(7,9,11,14)          -60.0021         calculate D2E/DX2 analytically  !
 ! D20   D(10,9,11,12)        -179.4869         calculate D2E/DX2 analytically  !
 ! D21   D(10,9,11,13)         -59.4902         calculate D2E/DX2 analytically  !
 ! D22   D(10,9,11,14)          60.5112         calculate D2E/DX2 analytically  !
 ! D23   D(15,9,11,12)         -61.9422         calculate D2E/DX2 analytically  !
 ! D24   D(15,9,11,13)          58.0545         calculate D2E/DX2 analytically  !
 ! D25   D(15,9,11,14)         178.0559         calculate D2E/DX2 analytically  !
 ! D26   D(7,9,15,16)            0.0            calculate D2E/DX2 analytically  !
 ! D27   D(7,9,15,17)          180.0            calculate D2E/DX2 analytically  !
 ! D28   D(10,9,15,16)        -120.5111         calculate D2E/DX2 analytically  !
 ! D29   D(10,9,15,17)          59.4889         calculate D2E/DX2 analytically  !
 ! D30   D(11,9,15,16)         121.9454         calculate D2E/DX2 analytically  !
 ! D31   D(11,9,15,17)         -58.0546         calculate D2E/DX2 analytically  !
 ! D32   D(9,15,17,18)           0.0            calculate D2E/DX2 analytically  !
 ! D33   D(9,15,17,19)         179.9953         calculate D2E/DX2 analytically  !
 ! D34   D(16,15,17,18)        180.0            calculate D2E/DX2 analytically  !
 ! D35   D(16,15,17,19)         -0.0047         calculate D2E/DX2 analytically  !
 ! D36   D(15,17,19,20)         30.0072         calculate D2E/DX2 analytically  !
 ! D37   D(15,17,19,21)        150.0015         calculate D2E/DX2 analytically  !
 ! D38   D(15,17,19,25)        -89.9975         frozen, calculate D2E/DX2 analyt!
 ! D39   D(18,17,19,20)       -149.9973         calculate D2E/DX2 analytically  !
 ! D40   D(18,17,19,21)        -30.003          calculate D2E/DX2 analytically  !
 ! D41   D(18,17,19,25)         89.9979         calculate D2E/DX2 analytically  !
 ! D42   D(17,19,21,22)         60.0039         calculate D2E/DX2 analytically  !
 ! D43   D(17,19,21,23)       -179.9943         calculate D2E/DX2 analytically  !
 ! D44   D(17,19,21,24)        -59.998          calculate D2E/DX2 analytically  !
 ! D45   D(20,19,21,22)       -179.4919         calculate D2E/DX2 analytically  !
 ! D46   D(20,19,21,23)        -59.4901         calculate D2E/DX2 analytically  !
 ! D47   D(20,19,21,24)         60.5062         calculate D2E/DX2 analytically  !
 ! D48   D(25,19,21,22)        -61.9445         calculate D2E/DX2 analytically  !
 ! D49   D(25,19,21,23)         58.0573         calculate D2E/DX2 analytically  !
 ! D50   D(25,19,21,24)        178.0536         calculate D2E/DX2 analytically  !
 ! D51   D(17,19,25,26)          0.0            calculate D2E/DX2 analytically  !
 ! D52   D(17,19,25,27)        180.0            frozen, calculate D2E/DX2 analyt!
 ! D53   D(20,19,25,26)       -120.5117         calculate D2E/DX2 analytically  !
 ! D54   D(20,19,25,27)         59.4883         calculate D2E/DX2 analytically  !
 ! D55   D(21,19,25,26)        121.9442         calculate D2E/DX2 analytically  !
 ! D56   D(21,19,25,27)        -58.0558         calculate D2E/DX2 analytically  !
 ! D57   D(19,25,27,28)          0.0            calculate D2E/DX2 analytically  !
 ! D58   D(19,25,27,29)        180.0            calculate D2E/DX2 analytically  !
 ! D59   D(26,25,27,28)        180.0            calculate D2E/DX2 analytically  !
 ! D60   D(26,25,27,29)          0.0            calculate D2E/DX2 analytically  !
 ! D61   D(25,27,29,30)        -60.0002         calculate D2E/DX2 analytically  !
 ! D62   D(25,27,29,31)         60.0024         calculate D2E/DX2 analytically  !
 ! D63   D(25,27,29,35)        180.0            calculate D2E/DX2 analytically  !
 ! D64   D(28,27,29,30)        119.9998         calculate D2E/DX2 analytically  !
 ! D65   D(28,27,29,31)       -119.9976         calculate D2E/DX2 analytically  !
 ! D66   D(28,27,29,35)          0.0            calculate D2E/DX2 analytically  !
 ! D67   D(27,29,31,32)         60.0024         calculate D2E/DX2 analytically  !
 ! D68   D(27,29,31,33)        179.9986         calculate D2E/DX2 analytically  !
 ! D69   D(27,29,31,34)        -60.0038         calculate D2E/DX2 analytically  !
 ! D70   D(30,29,31,32)       -179.4843         calculate D2E/DX2 analytically  !
 ! D71   D(30,29,31,33)        -59.4881         calculate D2E/DX2 analytically  !
 ! D72   D(30,29,31,34)         60.5095         calculate D2E/DX2 analytically  !
 ! D73   D(35,29,31,32)        -61.938          calculate D2E/DX2 analytically  !
 ! D74   D(35,29,31,33)         58.0582         calculate D2E/DX2 analytically  !
 ! D75   D(35,29,31,34)        178.0558         calculate D2E/DX2 analytically  !
 ! D76   D(27,29,35,36)          0.0            calculate D2E/DX2 analytically  !
 ! D77   D(27,29,35,37)        180.0            calculate D2E/DX2 analytically  !
 ! D78   D(30,29,35,36)       -120.5111         calculate D2E/DX2 analytically  !
 ! D79   D(30,29,35,37)         59.4889         calculate D2E/DX2 analytically  !
 ! D80   D(31,29,35,36)        121.942          calculate D2E/DX2 analytically  !
 ! D81   D(31,29,35,37)        -58.058          calculate D2E/DX2 analytically  !
 ! D82   D(29,35,37,38)          0.0            calculate D2E/DX2 analytically  !
 ! D83   D(29,35,37,39)        180.0            calculate D2E/DX2 analytically  !
 ! D84   D(36,35,37,38)        180.0            calculate D2E/DX2 analytically  !
 ! D85   D(36,35,37,39)          0.0            calculate D2E/DX2 analytically  !
 ! D86   D(35,37,39,40)          0.0            calculate D2E/DX2 analytically  !
 ! D87   D(35,37,39,41)        120.0036         calculate D2E/DX2 analytically  !
 ! D88   D(35,37,39,42)       -120.0036         calculate D2E/DX2 analytically  !
 ! D89   D(38,37,39,40)        180.0            calculate D2E/DX2 analytically  !
 ! D90   D(38,37,39,41)        -59.9964         calculate D2E/DX2 analytically  !
 ! D91   D(38,37,39,42)         59.9964         calculate D2E/DX2 analytically  !
 --------------------------------------------------------------------------------
 Trust Radius=3.00D-01 FncErr=1.00D-07 GrdErr=1.00D-06
 Number of steps in this run= 252 maximum allowed number of steps= 252.
 GradGradGradGradGradGradGradGradGradGradGradGradGradGradGradGradGradGrad

                          Input orientation:                          
 ---------------------------------------------------------------------
 Center     Atomic      Atomic             Coordinates (Angstroms)
 Number     Number       Type             X           Y           Z
 ---------------------------------------------------------------------
      1          1           0        5.846000    1.000000   -3.846100
      2          6           0        5.846000    2.090000   -3.846100
      3          1           0        4.956200    2.453900   -4.359800
      4          1           0        6.735900    2.453900   -4.359800
      5          6           0        5.846000    2.640800   -2.418600
      6          8           0        5.846000    1.877400   -1.455500
      7          7           0        5.846000    3.969700   -2.290700
      8          1           0        5.846000    4.556200   -3.112900
      9          6           0        5.846000    4.613900   -0.992800
     10          1           0        4.956200    4.315500   -0.438500
     11          6           0        7.078200    4.220800   -0.184700
     12          1           0        7.977200    4.521400   -0.722800
     13          1           0        7.051800    4.718900    0.784400
     14          1           0        7.087400    3.140900   -0.037500
     15          6           0        5.846000    6.129400   -1.133400
     16          8           0        5.846000    6.652700   -2.245400
     17          7           0        5.846000    6.834900    0.000000
     18          1           0        5.846000    6.359200    0.891000
     19          6           0        5.846100    8.283900    0.000000
     20          1           0        5.332300    8.647700   -0.889800
     21          6           0        5.134700    8.832900    1.232200
     22          1           0        5.643100    8.484600    2.131200
     23          1           0        5.149900    9.922400    1.205800
     24          1           0        4.101900    8.484600    1.241400
     25          6           0        7.266000    8.831800    0.000000
     26          8           0        8.229200    8.068400    0.000000
     27          7           0        7.394000   10.160700    0.000000
     28          1           0        6.571700   10.747200    0.000000
     29          6           0        8.691900   10.804900    0.000000
     30          1           0        9.246200   10.506500    0.889800
     31          6           0        9.499900   10.411800   -1.232200
     32          1           0        8.961900   10.712400   -2.131200
     33          1           0       10.469100   10.909900   -1.205800
     34          1           0        9.647100    9.331900   -1.241400
     35          6           0        8.551300   12.320400    0.000000
     36          8           0        7.439200   12.843700    0.000000
     37          7           0        9.684600   13.025900    0.000000
     38          1           0       10.575600   12.550200    0.000000
     39          6           0        9.684600   14.474900    0.000000
     40          1           0        8.657200   14.838700    0.000000
     41          1           0       10.198400   14.838700    0.889800
     42          1           0       10.198400   14.838700   -0.889800
 ---------------------------------------------------------------------
                    Distance matrix (angstroms):
                    1          2          3          4          5
     1  H    0.000000
     2  C    1.090000   0.000000
     3  H    1.780297   1.089979   0.000000
     4  H    1.780347   1.090061   1.779700   0.000000
     5  C    2.174852   1.530077   2.143580   2.143621   0.000000
     6  O    2.546527   2.400035   3.091772   3.091801   1.228959
     7  N    3.352370   2.439783   2.714879   2.714912   1.335041
     8  H    3.630997   2.572883   2.601186   2.601220   2.037354
     9  C    4.604519   3.809382   4.098052   4.098074   2.434344
    10  H    4.836943   4.166093   4.340754   4.691426   2.741744
    11  C    5.029684   4.411856   5.005625   4.546489   3.000838
    12  H    5.166941   4.495411   5.160307   4.363846   3.309744
    13  H    6.060173   5.459542   5.998713   5.629637   4.003956
    14  H    4.542022   4.141364   4.867880   4.390649   2.731449
    15  C    5.802541   4.865747   4.970986   4.971004   3.717804
    16  O    5.874969   4.835336   4.784595   4.784614   4.015637
    17  N    6.988458   6.107910   6.244418   6.244433   4.841498
    18  H    7.152702   6.377004   6.604091   6.604104   4.977946
    19  C    8.236971   7.290877   7.334076   7.334064   6.139561
    20  H    8.215285   7.211590   7.109537   7.236999   6.219643
    21  C    9.362126   8.471232   8.484926   8.632841   7.223323
    22  H    9.580633   8.755581   8.886746   8.927297   7.408903
    23  H   10.276939   9.346269   9.316218   9.448269   8.163488
    24  H    9.216495   8.355564   8.274818   8.641802   7.112488
    25  C    8.840021   7.890548   8.063538   7.743802   6.796654
    26  O    8.392521   7.497559   7.825790   7.263636   6.402196
    27  N   10.055208   9.073312   9.183980   8.878948   8.049523
    28  H   10.503668   9.500855   9.507709   9.370893   8.490582
    29  C   10.909981   9.941887  10.134225   9.621486   8.977823
    30  H   11.151845  10.238534  10.526479   9.935002   9.185647
    31  C   10.429067   9.457051   9.682730   8.986086   8.668735
    32  H   10.343134   9.327138   9.445375   8.838810   8.656914
    33  H   11.249460  10.302178  10.575619   9.766700   9.551018
    34  H    9.521207   8.583585   8.890211   8.093602   7.784920
    35  C   12.258164  11.259317  11.370155  10.938526  10.337453
    36  O   12.554043  11.531385  11.537811  11.289395  10.605993
    37  N   13.196576  12.211521  12.374684  11.809736  11.332907
    38  H   13.060196  12.106915  12.349931  11.648452  11.243440
    39  C   14.529290  13.524536  13.633417  13.122771  12.674005
    40  H   14.635742  13.609727  13.641427  13.269609  12.749166
    41  H   15.260464  14.279408  14.436836  13.889942  13.367036
    42  H   14.805158  13.791753  13.889018  13.319650  13.041065
                    6          7          8          9         10
     6  O    0.000000
     7  N    2.252838   0.000000
     8  H    3.150071   1.009948   0.000000
     9  C    2.775342   1.448978   2.120885   0.000000
    10  H    2.787537   2.083739   2.828798   1.089970   0.000000
    11  C    2.936796   2.452877   3.194552   1.525080   2.139221
    12  H    3.474133   2.702720   3.202468   2.150225   3.041326
    13  H    3.813821   3.386959   4.082814   2.150214   2.459625
    14  H    2.268971   2.702757   3.605861   2.150210   2.466272
    15  C    4.264183   2.450234   2.528513   1.522008   2.136554
    16  O    4.840189   2.683382   2.268891   2.392846   3.085310
    17  N    5.166748   3.668334   3.857800   2.432795   2.707656
    18  H    5.058912   3.979061   4.391130   2.568029   2.595385
    19  C    6.569758   4.884632   4.856531   3.801914   4.090526
    20  H    6.813286   4.910203   4.684702   4.067682   4.371851
    21  C    7.490571   6.047106   6.138078   4.822503   4.819751
    22  H    7.520683   6.322870   6.555462   4.978239   4.945360
    23  H    8.502300   6.938639   6.923282   5.787795   5.846244
    24  H    7.346444   5.991823   6.118345   4.797484   4.575291
    25  C    7.245589   5.559112   5.476066   4.559905   5.091603
    26  O    6.791657   5.265576   5.263586   4.312640   4.998907
    27  N    8.551482   6.780272   6.595216   5.843710   6.348347
    28  H    9.017676   7.190859   6.967443   6.255371   6.645968
    29  C    9.482504   7.750252   7.538935   6.885730   7.500670
    30  H    9.566774   8.025378   7.936563   7.058915   7.648331
    31  C    9.286379   7.481448   7.153745   6.857401   7.644609
    32  H    9.392690   7.429554   6.969316   6.942369   7.735063
    33  H   10.149949   8.409307   8.085765   7.813964   8.629422
    34  H    8.370410   6.656018   6.384214   6.063801   6.914728
    35  C   10.885466   9.071943   8.791564   8.227663   8.786094
    36  O   11.176605   9.302337   8.995059   8.441182   8.893130
    37  N   11.880336  10.099352   9.806162   9.299583   9.920742
    38  H   11.764194  10.061879   9.796086   9.291912   9.978989
    39  C   13.249541  11.416715  11.081769  10.628256  11.214431
    40  H   13.342287  11.457980  11.105080  10.650588  11.163665
    41  H   13.872243  12.132359  11.861484  11.270941  11.831432
    42  H   13.684250  11.791568  11.384874  11.113079  11.765291
                   11         12         13         14         15
    11  C    0.000000
    12  H    1.090006   0.000000
    13  H    1.089934   1.779613   0.000000
    14  H    1.089925   1.779652   1.779570   0.000000
    15  C    2.461931   2.701161   2.668599   3.416607   0.000000
    16  O    3.417446   3.376798   3.791204   4.329969   1.228978
    17  N    2.895850   3.227497   2.558651   3.897193   1.335038
    18  H    2.692248   3.244052   2.038603   3.572204   2.037401
    19  C    4.249820   4.384111   3.844245   5.290811   2.434433
    20  H    4.810694   4.904053   4.603813   5.842229   2.581678
    21  C    5.201564   5.521853   4.560789   6.150125   3.662093
    22  H    5.059930   5.412975   4.240142   5.945115   4.030602
    23  H    6.177384   6.394054   5.556187   7.161595   4.510350
    24  H    5.391856   5.880730   4.805336   6.253313   3.772072
    25  C    4.618518   4.428069   4.192507   5.693825   3.256372
    26  O    4.020316   3.628657   3.636029   5.058198   3.274746
    27  N    5.951156   5.715266   5.508681   7.026592   4.464558
    28  H    6.548630   6.423275   6.098047   7.623854   4.809918
    29  C    6.781483   6.365187   6.351740   7.830244   5.589637
    30  H    6.735340   6.327105   6.190542   7.731259   5.900314
    31  C    6.729812   6.105319   6.516823   7.753286   5.630248
    32  H    7.034064   6.425084   6.933343   8.076196   5.631015
    33  H    7.568679   6.874284   7.346245   8.553256   6.650675
    34  H    5.817148   5.118439   5.667382   6.806609   4.971522
    35  C    8.234541   7.853434   7.787592   9.295570   6.850673
    36  O    8.632430   8.370935   8.171765   9.709248   6.993190
    37  N    9.184619   8.704262   8.749467  10.220571   7.973779
    38  H    9.035753   8.469696   8.623324  10.035132   8.054836
    39  C   10.581777  10.124713  10.135406  11.627829   9.255637
    40  H   10.736254  10.364918  10.276329  11.802720   9.221678
    41  H   11.118903  10.676183  10.598233  12.139882   9.944276
    42  H   11.089302  10.555013  10.729137  12.134383   9.739334
                   16         17         18         19         20
    16  O    0.000000
    17  N    2.252780   0.000000
    18  H    3.150103   1.010035   0.000000
    19  C    2.775362   1.449000   2.120932   0.000000
    20  H    2.466083   2.083717   2.944889   1.089993   0.000000
    21  C    4.165684   2.452808   2.596451   1.525060   2.139212
    22  H    4.748858   2.702719   2.469127   2.150233   3.041322
    23  H    4.804818   3.386911   3.644180   2.150193   2.459608
    24  H    4.307611   2.702678   2.771640   2.150253   2.466272
    25  C    3.436088   2.450308   2.987312   1.521943   2.136547
    26  O    3.567306   2.683499   3.065108   2.392824   3.085346
    27  N    4.443443   3.668412   4.200189   2.432771   2.707678
    28  H    4.725822   3.979037   4.535975   2.567945   2.595334
    29  C    5.511963   4.884675   5.353249   3.801844   4.090497
    30  H    6.020184   5.082691   5.362971   4.158410   4.684093
    31  C    5.339325   5.259612   5.855129   4.404149   4.538521
    32  H    5.118890   5.411640   6.147591   4.488634   4.356381
    33  H    6.370053   6.279541   6.817514   5.451785   5.621754
    34  H    4.757572   4.714281   5.275646   4.133640   4.382836
    35  C    6.669580   6.116319   6.606696   4.859160   4.964114
    36  O    6.775588   6.216427   6.736535   4.830087   4.778827
    37  N    7.771380   7.284458   7.744264   6.100873   6.237218
    38  H    7.886155   7.418475   7.841650   6.369418   6.596472
    39  C    8.997971   8.550114   9.021825   7.284405   7.327381
    40  H    8.941771   8.483140   8.977675   7.132159   7.083444
    41  H    9.786903   9.154012   9.531280   7.918312   8.073065
    42  H    9.369719   9.154012   9.696213   7.918312   7.874478
                   21         22         23         24         25
    21  C    0.000000
    22  H    1.089947   0.000000
    23  H    1.089926   1.779573   0.000000
    24  H    1.089988   1.779618   1.779562   0.000000
    25  C    2.461861   2.701179   2.668565   3.416599   0.000000
    26  O    3.417412   3.376855   3.791221   4.330000   1.229038
    27  N    2.895826   3.227534   2.558657   3.897218   1.335050
    28  H    2.692179   3.244021   2.038569   3.572162   2.037354
    29  C    4.249797   4.384175   3.844285   5.290838   2.434402
    30  H    4.452259   4.314103   4.149783   5.538549   2.741816
    31  C    5.255584   5.468223   5.010574   6.242692   3.000838
    32  H    5.430694   5.843422   5.127476   6.321165   3.309796
    33  H    6.222025   6.348852   5.923247   7.239620   4.004036
    34  H    5.170053   5.303241   5.153861   6.134448   2.731449
    35  C    5.035288   5.264314   4.332884   6.004298   3.717839
    36  O    4.787019   5.173948   3.902415   5.628534   4.015637
    37  N    6.308816   6.441983   5.625760   7.302809   4.841498
    38  H    6.703732   6.738002   6.147968   7.744609   4.977946
    39  C    7.352011   7.533885   6.537791   8.281987   6.139561
    40  H    7.070782   7.348564   6.158337   7.916212   6.165897
    41  H    7.863074   7.916212   7.053879   8.812804   6.743409
    42  H    8.137172   8.381634   7.351796   9.060017   6.743409
                   26         27         28         29         30
    26  O    0.000000
    27  N    2.252838   0.000000
    28  H    3.150123   1.010029   0.000000
    29  C    2.775342   1.448978   2.120985   0.000000
    30  H    2.787537   2.083739   2.828892   1.089970   0.000000
    31  C    2.936753   2.452791   3.194552   1.525027   2.139209
    32  H    3.474133   2.702720   3.202543   2.150225   3.041326
    33  H    3.813821   3.386959   4.082910   2.150214   2.459625
    34  H    2.268909   2.702673   3.605861   2.150165   2.466256
    35  C    4.264183   2.450234   2.528591   1.522008   2.136554
    36  O    4.840206   2.683381   2.268891   2.392898   3.085368
    37  N    5.166720   3.668272   3.857800   2.432754   2.707640
    38  H    5.058866   3.978981   4.391130   2.567956   2.595334
    39  C    6.569736   4.884585   4.856531   3.801888   4.090494
    40  H    6.783815   4.845550   4.592350   4.033949   4.461684
    41  H    7.106789   5.526309   5.539411   4.396911   4.435611
    42  H    7.106789   5.526309   5.539411   4.396911   4.779291
                   31         32         33         34         35
    31  C    0.000000
    32  H    1.089957   0.000000
    33  H    1.090023   1.779613   0.000000
    34  H    1.089925   1.779613   1.779617   0.000000
    35  C    2.461892   2.701161   2.668599   3.416575   0.000000
    36  O    3.417446   3.376843   3.791283   4.329969   1.229068
    37  N    2.895850   3.227474   2.558681   3.897193   1.334953
    38  H    2.692248   3.244002   2.038598   3.572204   2.037302
    39  C    4.249849   4.384144   3.844297   5.290834   2.434387
    40  H    4.671820   4.654160   4.491370   5.731127   2.520526
    41  H    4.958652   5.261343   4.460974   5.930497   3.137916
    42  H    4.494728   4.482896   3.950773   5.545485   3.137916
                   36         37         38         39         40
    36  O    0.000000
    37  N    2.252780   0.000000
    38  H    3.150103   1.010035   0.000000
    39  C    2.775362   1.449000   2.120932   0.000000
    40  H    2.337424   2.083697   2.986217   1.089909   0.000000
    41  H    3.519226   2.083741   2.484201   1.089993   1.779618
    42  H    3.519226   2.083741   2.484201   1.089993   1.779618
                   41         42
    41  H    0.000000
    42  H    1.779600   0.000000
 Stoichiometry    C12H22N4O4
 Framework group  C1[X(C12H22N4O4)]
 Deg. of freedom   120
 Full point group                 C1      NOp   1
 Largest Abelian subgroup         C1      NOp   1
 Largest concise Abelian subgroup C1      NOp   1
                         Standard orientation:                         
 ---------------------------------------------------------------------
 Center     Atomic      Atomic             Coordinates (Angstroms)
 Number     Number       Type             X           Y           Z
 ---------------------------------------------------------------------
      1          1           0       -7.425883   -1.765446   -0.600871
      2          6           0       -6.407581   -1.671592   -0.978169
      3          1           0       -6.432919   -1.329361   -2.012717
      4          1           0       -5.910369   -2.640378   -0.928509
      5          6           0       -5.603897   -0.666642   -0.150337
      6          8           0       -6.122024   -0.086356    0.801059
      7          7           0       -4.336506   -0.466426   -0.519075
      8          1           0       -3.955107   -0.967433   -1.308710
      9          6           0       -3.471815    0.459634    0.183960
     10          1           0       -3.899583    1.461220    0.140655
     11          6           0       -3.313596    0.060135    1.647256
     12          1           0       -2.877790   -0.937172    1.706962
     13          1           0       -2.659738    0.772514    2.150189
     14          1           0       -4.289948    0.059111    2.131686
     15          6           0       -2.084478    0.495815   -0.440937
     16          8           0       -1.820815   -0.205022   -1.415461
     17          7           0       -1.195835    1.316812    0.123512
     18          1           0       -1.459788    1.873508    0.923881
     19          6           0        0.157882    1.441504   -0.377991
     20          1           0        0.166678    1.254469   -1.451781
     21          6           0        0.711450    2.839351   -0.122269
     22          1           0        0.717412    3.037870    0.949430
     23          1           0        1.728401    2.904256   -0.508970
     24          1           0        0.084677    3.576345   -0.624334
     25          6           0        1.086648    0.442711    0.297372
     26          8           0        0.656275   -0.332563    1.148408
     27          7           0        2.365718    0.462844   -0.084641
     28          1           0        2.672198    1.119092   -0.788607
     29          6           0        3.348629   -0.437787    0.483065
     30          1           0        3.412822   -0.274955    1.558890
     31          6           0        2.969069   -1.893370    0.232229
     32          1           0        2.909854   -2.074191   -0.840992
     33          1           0        3.724325   -2.546735    0.669095
     34          1           0        2.001560   -2.100961    0.689142
     35          6           0        4.723159   -0.203722   -0.127172
     36          8           0        4.885506    0.660565   -0.985811
     37          7           0        5.715009   -0.977822    0.319039
     38          1           0        5.532212   -1.675137    1.026505
     39          6           0        7.068696   -0.853056   -0.182525
     40          1           0        7.106903   -0.064897   -0.934353
     41          1           0        7.739639   -0.603372    0.639411
     42          1           0        7.379213   -1.797073   -0.630292
 ---------------------------------------------------------------------
 Rotational constants (GHZ):      0.9692869      0.1052463      0.1014021
 Standard basis: 6-31G(d) (6D, 7F)
 There are   344 symmetry adapted basis functions of A   symmetry.
 Integral buffers will be    131072 words long.
 Raffenetti 2 integral format.
 Two-electron integral symmetry is turned on.
   344 basis functions,   648 primitive gaussians,   344 cartesian basis functions
    77 alpha electrons       77 beta electrons
       nuclear repulsion energy      1597.2504875117 Hartrees.
 NAtoms=   42 NActive=   42 NUniq=   42 SFac= 7.50D-01 NAtFMM=   80 NAOKFM=F Big=F
 One-electron integrals computed using PRISM.
 NBasis=   344 RedAO= T  NBF=   344
 NBsUse=   344 1.00D-06 NBFU=   344
 Harris functional with IExCor=  402 diagonalized for initial guess.
 ExpMin= 1.61D-01 ExpMax= 5.48D+03 ExpMxC= 8.25D+02 IAcc=1 IRadAn=         1 AccDes= 0.00D+00
 HarFok:  IExCor=  402 AccDes= 0.00D+00 IRadAn=         1 IDoV= 1
 ScaDFX=  1.000000  1.000000  1.000000  1.000000
 FoFCou: FMM=F IPFlag=           0 FMFlag=      100000 FMFlg1=           0
         NFxFlg=           0 DoJE=T BraDBF=F KetDBF=T FulRan=T
         Omega=  0.000000  0.000000  1.000000  0.000000  0.000000 ICntrl=     500 IOpCl=  0
         NMat0=    1 NMatS0=    1 NMatT0=    0 NMatD0=    1 NMtDS0=    0 NMtDT0=    0
         I1Cent=           4 NGrid=           0.
 Petite list used in FoFCou.
 Initial guess orbital symmetries:
       Occupied  (A) (A) (A) (A) (A) (A) (A) (A) (A) (A) (A) (A)
                 (A) (A) (A) (A) (A) (A) (A) (A) (A) (A) (A) (A)
                 (A) (A) (A) (A) (A) (A) (A) (A) (A) (A) (A) (A)
                 (A) (A) (A) (A) (A) (A) (A) (A) (A) (A) (A) (A)
                 (A) (A) (A) (A) (A) (A) (A) (A) (A) (A) (A) (A)
                 (A) (A) (A) (A) (A) (A) (A) (A) (A) (A) (A) (A)
                 (A) (A) (A) (A) (A)
       Virtual   (A) (A) (A) (A) (A) (A) (A) (A) (A) (A) (A) (A)
                 (A) (A) (A) (A) (A) (A) (A) (A) (A) (A) (A) (A)
                 (A) (A) (A) (A) (A) (A) (A) (A) (A) (A) (A) (A)
                 (A) (A) (A) (A) (A) (A) (A) (A) (A) (A) (A) (A)
                 (A) (A) (A) (A) (A) (A) (A) (A) (A) (A) (A) (A)
                 (A) (A) (A) (A) (A) (A) (A) (A) (A) (A) (A) (A)
                 (A) (A) (A) (A) (A) (A) (A) (A) (A) (A) (A) (A)
                 (A) (A) (A) (A) (A) (A) (A) (A) (A) (A) (A) (A)
                 (A) (A) (A) (A) (A) (A) (A) (A) (A) (A) (A) (A)
                 (A) (A) (A) (A) (A) (A) (A) (A) (A) (A) (A) (A)
                 (A) (A) (A) (A) (A) (A) (A) (A) (A) (A) (A) (A)
                 (A) (A) (A) (A) (A) (A) (A) (A) (A) (A) (A) (A)
                 (A) (A) (A) (A) (A) (A) (A) (A) (A) (A) (A) (A)
                 (A) (A) (A) (A) (A) (A) (A) (A) (A) (A) (A) (A)
                 (A) (A) (A) (A) (A) (A) (A) (A) (A) (A) (A) (A)
                 (A) (A) (A) (A) (A) (A) (A) (A) (A) (A) (A) (A)
                 (A) (A) (A) (A) (A) (A) (A) (A) (A) (A) (A) (A)
                 (A) (A) (A) (A) (A) (A) (A) (A) (A) (A) (A) (A)
                 (A) (A) (A) (A) (A) (A) (A) (A) (A) (A) (A) (A)
                 (A) (A) (A) (A) (A) (A) (A) (A) (A) (A) (A) (A)
                 (A) (A) (A) (A) (A) (A) (A) (A) (A) (A) (A) (A)
                 (A) (A) (A) (A) (A) (A) (A) (A) (A) (A) (A) (A)
                 (A) (A) (A)
 The electronic state of the initial guess is 1-A.
 Requested convergence on RMS density matrix=1.00D-08 within 128 cycles.
 Requested convergence on MAX density matrix=1.00D-06.
 Requested convergence on             energy=1.00D-06.
 No special actions if energy rises.
 Integral accuracy reduced to 1.0D-05 until final iterations.
 Initial convergence to 1.0D-05 achieved.  Increase integral accuracy.
 SCF Done:  E(RB3LYP) =  -990.486201048     A.U. after   14 cycles
             Convg  =    0.5169D-08             -V/T =  2.0087
 Range of M.O.s used for correlation:     1   344
 NBasis=   344 NAE=    77 NBE=    77 NFC=     0 NFV=     0
 NROrb=    344 NOA=    77 NOB=    77 NVA=   267 NVB=   267
 Symmetrizing basis deriv contribution to polar:
 IMax=3 JMax=2 DiffMx= 0.00D+00
 G2DrvN: will do    43 centers at a time, making    1 passes doing MaxLOS=2.
 Calling FoFCou, ICntrl=  3107 FMM=F I1Cent=   0 AccDes= 0.00D+00.
 FoFDir/FoFCou used for L=0 through L=2.
 End of G2Drv Frequency-dependent properties file   721 does not exist.
 End of G2Drv Frequency-dependent properties file   722 does not exist.
          IDoAtm=111111111111111111111111111111111111111111
          Differentiating once with respect to nuclear coordinates.
          There are   129 degrees of freedom in the 1st order CPHF.  IDoFFX=5.
    123 vectors produced by pass  0 Test12= 2.06D-10 1.00D-07 XBig12= 1.56D-01 8.60D-02.
 AX will form   123 AO Fock derivatives at one time.
    123 vectors produced by pass  1 Test12= 2.06D-10 1.00D-07 XBig12= 3.74D-02 6.70D-02.
    123 vectors produced by pass  2 Test12= 2.06D-10 1.00D-07 XBig12= 3.22D-05 1.26D-03.
    123 vectors produced by pass  3 Test12= 2.06D-10 1.00D-07 XBig12= 1.03D-07 6.95D-05.
     71 vectors produced by pass  4 Test12= 2.06D-10 1.00D-07 XBig12= 1.02D-10 1.86D-06.
 Inverted reduced A of dimension   563 with in-core refinement.
 End of Minotr Frequency-dependent properties file   721 does not exist.
 End of Minotr Frequency-dependent properties file   722 does not exist.

 **********************************************************************

            Population analysis using the SCF density.

 **********************************************************************

 Orbital symmetries:
       Occupied  (A) (A) (A) (A) (A) (A) (A) (A) (A) (A) (A) (A)
                 (A) (A) (A) (A) (A) (A) (A) (A) (A) (A) (A) (A)
                 (A) (A) (A) (A) (A) (A) (A) (A) (A) (A) (A) (A)
                 (A) (A) (A) (A) (A) (A) (A) (A) (A) (A) (A) (A)
                 (A) (A) (A) (A) (A) (A) (A) (A) (A) (A) (A) (A)
                 (A) (A) (A) (A) (A) (A) (A) (A) (A) (A) (A) (A)
                 (A) (A) (A) (A) (A)
       Virtual   (A) (A) (A) (A) (A) (A) (A) (A) (A) (A) (A) (A)
                 (A) (A) (A) (A) (A) (A) (A) (A) (A) (A) (A) (A)
                 (A) (A) (A) (A) (A) (A) (A) (A) (A) (A) (A) (A)
                 (A) (A) (A) (A) (A) (A) (A) (A) (A) (A) (A) (A)
                 (A) (A) (A) (A) (A) (A) (A) (A) (A) (A) (A) (A)
                 (A) (A) (A) (A) (A) (A) (A) (A) (A) (A) (A) (A)
                 (A) (A) (A) (A) (A) (A) (A) (A) (A) (A) (A) (A)
                 (A) (A) (A) (A) (A) (A) (A) (A) (A) (A) (A) (A)
                 (A) (A) (A) (A) (A) (A) (A) (A) (A) (A) (A) (A)
                 (A) (A) (A) (A) (A) (A) (A) (A) (A) (A) (A) (A)
                 (A) (A) (A) (A) (A) (A) (A) (A) (A) (A) (A) (A)
                 (A) (A) (A) (A) (A) (A) (A) (A) (A) (A) (A) (A)
                 (A) (A) (A) (A) (A) (A) (A) (A) (A) (A) (A) (A)
                 (A) (A) (A) (A) (A) (A) (A) (A) (A) (A) (A) (A)
                 (A) (A) (A) (A) (A) (A) (A) (A) (A) (A) (A) (A)
                 (A) (A) (A) (A) (A) (A) (A) (A) (A) (A) (A) (A)
                 (A) (A) (A) (A) (A) (A) (A) (A) (A) (A) (A) (A)
                 (A) (A) (A) (A) (A) (A) (A) (A) (A) (A) (A) (A)
                 (A) (A) (A) (A) (A) (A) (A) (A) (A) (A) (A) (A)
                 (A) (A) (A) (A) (A) (A) (A) (A) (A) (A) (A) (A)
                 (A) (A) (A) (A) (A) (A) (A) (A) (A) (A) (A) (A)
                 (A) (A) (A) (A) (A) (A) (A) (A) (A) (A) (A) (A)
                 (A) (A) (A)
 The electronic state is 1-A.
 Alpha  occ. eigenvalues --  -19.12324 -19.11295 -19.10817 -19.09027 -14.37858
 Alpha  occ. eigenvalues --  -14.36696 -14.36319 -14.34657 -10.29704 -10.28598
 Alpha  occ. eigenvalues --  -10.28166 -10.27010 -10.24286 -10.24015 -10.22902
 Alpha  occ. eigenvalues --  -10.22865 -10.20107 -10.18263 -10.17830 -10.16735
 Alpha  occ. eigenvalues --   -1.05017  -1.04173  -1.03077  -1.01510  -0.94142
 Alpha  occ. eigenvalues --   -0.93497  -0.93067  -0.91387  -0.80898  -0.78360
 Alpha  occ. eigenvalues --   -0.76240  -0.71997  -0.71547  -0.67497  -0.65945
 Alpha  occ. eigenvalues --   -0.63906  -0.60979  -0.60147  -0.58426  -0.56826
 Alpha  occ. eigenvalues --   -0.56464  -0.52455  -0.50582  -0.50013  -0.48556
 Alpha  occ. eigenvalues --   -0.47978  -0.46782  -0.45984  -0.45059  -0.44157
 Alpha  occ. eigenvalues --   -0.44053  -0.43384  -0.42866  -0.42315  -0.41512
 Alpha  occ. eigenvalues --   -0.40756  -0.40559  -0.40434  -0.39809  -0.39116
 Alpha  occ. eigenvalues --   -0.38935  -0.38202  -0.37593  -0.37459  -0.37108
 Alpha  occ. eigenvalues --   -0.36043  -0.35846  -0.34736  -0.33492  -0.27052
 Alpha  occ. eigenvalues --   -0.26730  -0.26209  -0.25550  -0.25203  -0.24512
 Alpha  occ. eigenvalues --   -0.24057  -0.22785
 Alpha virt. eigenvalues --    0.01741   0.02806   0.02899   0.04652   0.05735
 Alpha virt. eigenvalues --    0.06678   0.08113   0.10460   0.11168   0.12544
 Alpha virt. eigenvalues --    0.13574   0.13981   0.14160   0.14632   0.14763
 Alpha virt. eigenvalues --    0.15162   0.15721   0.15800   0.16213   0.16894
 Alpha virt. eigenvalues --    0.17264   0.17766   0.18461   0.18926   0.19445
 Alpha virt. eigenvalues --    0.19641   0.20326   0.21235   0.21587   0.21991
 Alpha virt. eigenvalues --    0.23766   0.24661   0.24824   0.25273   0.26858
 Alpha virt. eigenvalues --    0.28732   0.31478   0.33900   0.34855   0.35141
 Alpha virt. eigenvalues --    0.36994   0.40154   0.40740   0.43141   0.44166
 Alpha virt. eigenvalues --    0.49560   0.50196   0.50568   0.51106   0.51908
 Alpha virt. eigenvalues --    0.52788   0.53267   0.54021   0.54132   0.54649
 Alpha virt. eigenvalues --    0.54941   0.56167   0.56657   0.57098   0.58215
 Alpha virt. eigenvalues --    0.59301   0.59432   0.61352   0.62015   0.63006
 Alpha virt. eigenvalues --    0.63988   0.65717   0.67191   0.67617   0.68943
 Alpha virt. eigenvalues --    0.69532   0.70200   0.70567   0.71120   0.73354
 Alpha virt. eigenvalues --    0.73879   0.74475   0.75125   0.76129   0.76740
 Alpha virt. eigenvalues --    0.77920   0.79364   0.80231   0.80898   0.82408
 Alpha virt. eigenvalues --    0.83570   0.83723   0.84880   0.85510   0.85815
 Alpha virt. eigenvalues --    0.86334   0.86829   0.87295   0.87802   0.88340
 Alpha virt. eigenvalues --    0.89061   0.89195   0.89596   0.90766   0.90984
 Alpha virt. eigenvalues --    0.91106   0.91815   0.92534   0.92981   0.93809
 Alpha virt. eigenvalues --    0.93832   0.94909   0.95458   0.96164   0.96503
 Alpha virt. eigenvalues --    0.97467   0.98511   0.99588   1.00000   1.01723
 Alpha virt. eigenvalues --    1.03447   1.03975   1.06227   1.07260   1.09781
 Alpha virt. eigenvalues --    1.10550   1.11473   1.13108   1.13852   1.17950
 Alpha virt. eigenvalues --    1.19219   1.20059   1.23845   1.25105   1.28805
 Alpha virt. eigenvalues --    1.29537   1.30246   1.31256   1.32496   1.33556
 Alpha virt. eigenvalues --    1.35119   1.36344   1.38128   1.38641   1.41917
 Alpha virt. eigenvalues --    1.43032   1.45263   1.45967   1.47617   1.48756
 Alpha virt. eigenvalues --    1.50218   1.50361   1.51315   1.53092   1.60353
 Alpha virt. eigenvalues --    1.63691   1.64359   1.68290   1.69545   1.70439
 Alpha virt. eigenvalues --    1.71327   1.72335   1.74501   1.75063   1.77424
 Alpha virt. eigenvalues --    1.77705   1.79413   1.80383   1.80842   1.81375
 Alpha virt. eigenvalues --    1.83478   1.83690   1.84421   1.84518   1.85385
 Alpha virt. eigenvalues --    1.85811   1.86779   1.87663   1.89298   1.89923
 Alpha virt. eigenvalues --    1.91949   1.92504   1.93387   1.93828   1.95377
 Alpha virt. eigenvalues --    1.96541   1.97603   1.99762   2.00123   2.02636
 Alpha virt. eigenvalues --    2.03278   2.03602   2.05027   2.05491   2.06271
 Alpha virt. eigenvalues --    2.08678   2.09857   2.11652   2.13302   2.14575
 Alpha virt. eigenvalues --    2.17458   2.18251   2.19867   2.20895   2.24571
 Alpha virt. eigenvalues --    2.24862   2.26095   2.27036   2.27848   2.28543
 Alpha virt. eigenvalues --    2.29385   2.30539   2.31684   2.33108   2.33266
 Alpha virt. eigenvalues --    2.34099   2.36260   2.39826   2.40383   2.43695
 Alpha virt. eigenvalues --    2.44726   2.45721   2.46503   2.48813   2.50792
 Alpha virt. eigenvalues --    2.53849   2.55430   2.58441   2.60766   2.61846
 Alpha virt. eigenvalues --    2.64191   2.65223   2.67076   2.68035   2.71102
 Alpha virt. eigenvalues --    2.73608   2.74348   2.77959   2.83174   2.85352
 Alpha virt. eigenvalues --    2.88328   2.90787   2.94110   2.95476   2.98071
 Alpha virt. eigenvalues --    2.98863   3.02591   3.04902   3.15583   3.16934
 Alpha virt. eigenvalues --    3.23711   3.24572   3.95498   3.99077   4.02232
 Alpha virt. eigenvalues --    4.05550   4.07250   4.08128   4.10566   4.16478
 Alpha virt. eigenvalues --    4.21343   4.22860   4.25733   4.28474   4.30555
 Alpha virt. eigenvalues --    4.39237   4.43814   4.46034   4.48986   4.58889
 Alpha virt. eigenvalues --    4.64145   4.67289
          Condensed to atoms (all electrons):
              1          2          3          4          5          6
     1  H    0.507824   0.359987  -0.021835  -0.021636  -0.018201   0.005142
     2  C    0.359987   5.328294   0.350708   0.351662   0.356581  -0.079534
     3  H   -0.021835   0.350708   0.552299  -0.026681  -0.025010   0.001473
     4  H   -0.021636   0.351662  -0.026681   0.551464  -0.026499   0.001284
     5  C   -0.018201   0.356581  -0.025010  -0.026499   4.336776   0.593613
     6  O    0.005142  -0.079534   0.001473   0.001284   0.593613   8.085956
     7  N    0.004618  -0.135417   0.004240   0.004657   0.228846  -0.107990
     8  H   -0.000144  -0.001244   0.001160   0.000849  -0.016092   0.003093
     9  C   -0.000146   0.007366  -0.000275   0.000008  -0.021429   0.013166
    10  H    0.000002   0.000145  -0.000020  -0.000002  -0.001579   0.005028
    11  C    0.000014  -0.000753   0.000017   0.000032  -0.006054  -0.018305
    12  H    0.000000  -0.000006  -0.000001   0.000002   0.000860  -0.000163
    13  H    0.000000   0.000007   0.000000  -0.000001   0.000322   0.000325
    14  H    0.000000   0.000600  -0.000008  -0.000053   0.003041   0.022827
    15  C    0.000000  -0.000049  -0.000016  -0.000013   0.006553   0.000774
    16  O    0.000000  -0.000049   0.000000  -0.000001   0.000531  -0.000005
    17  N    0.000000   0.000001   0.000000   0.000000  -0.000071  -0.000002
    18  H    0.000000   0.000000   0.000000   0.000000   0.000002   0.000003
    19  C    0.000000   0.000000   0.000000   0.000000   0.000001   0.000000
    20  H    0.000000   0.000000   0.000000   0.000000   0.000000   0.000000
    21  C    0.000000   0.000000   0.000000   0.000000   0.000000   0.000000
    22  H    0.000000   0.000000   0.000000   0.000000   0.000000   0.000000
    23  H    0.000000   0.000000   0.000000   0.000000   0.000000   0.000000
    24  H    0.000000   0.000000   0.000000   0.000000   0.000000   0.000000
    25  C    0.000000   0.000000   0.000000   0.000000   0.000000   0.000000
    26  O    0.000000   0.000000   0.000000   0.000000   0.000000   0.000000
    27  N    0.000000   0.000000   0.000000   0.000000   0.000000   0.000000
    28  H    0.000000   0.000000   0.000000   0.000000   0.000000   0.000000
    29  C    0.000000   0.000000   0.000000   0.000000   0.000000   0.000000
    30  H    0.000000   0.000000   0.000000   0.000000   0.000000   0.000000
    31  C    0.000000   0.000000   0.000000   0.000000   0.000000   0.000000
    32  H    0.000000   0.000000   0.000000   0.000000   0.000000   0.000000
    33  H    0.000000   0.000000   0.000000   0.000000   0.000000   0.000000
    34  H    0.000000   0.000000   0.000000   0.000000   0.000000   0.000000
    35  C    0.000000   0.000000   0.000000   0.000000   0.000000   0.000000
    36  O    0.000000   0.000000   0.000000   0.000000   0.000000   0.000000
    37  N    0.000000   0.000000   0.000000   0.000000   0.000000   0.000000
    38  H    0.000000   0.000000   0.000000   0.000000   0.000000   0.000000
    39  C    0.000000   0.000000   0.000000   0.000000   0.000000   0.000000
    40  H    0.000000   0.000000   0.000000   0.000000   0.000000   0.000000
    41  H    0.000000   0.000000   0.000000   0.000000   0.000000   0.000000
    42  H    0.000000   0.000000   0.000000   0.000000   0.000000   0.000000
              7          8          9         10         11         12
     1  H    0.004618  -0.000144  -0.000146   0.000002   0.000014   0.000000
     2  C   -0.135417  -0.001244   0.007366   0.000145  -0.000753  -0.000006
     3  H    0.004240   0.001160  -0.000275  -0.000020   0.000017  -0.000001
     4  H    0.004657   0.000849   0.000008  -0.000002   0.000032   0.000002
     5  C    0.228846  -0.016092  -0.021429  -0.001579  -0.006054   0.000860
     6  O   -0.107990   0.003093   0.013166   0.005028  -0.018305  -0.000163
     7  N    7.195971   0.290855   0.248183  -0.049472  -0.055298   0.000039
     8  H    0.290855   0.388689  -0.051041   0.004195   0.004436   0.000612
     9  C    0.248183  -0.051041   5.087483   0.367393   0.352984  -0.036129
    10  H   -0.049472   0.004195   0.367393   0.590628  -0.050892   0.006149
    11  C   -0.055298   0.004436   0.352984  -0.050892   5.192917   0.370409
    12  H    0.000039   0.000612  -0.036129   0.006149   0.370409   0.546609
    13  H    0.005152  -0.000125  -0.035525   0.000022   0.353119  -0.024867
    14  H   -0.010474  -0.000294  -0.021696  -0.006262   0.358944  -0.026094
    15  C   -0.025702   0.000034   0.312017  -0.033625  -0.048396  -0.003022
    16  O   -0.009346   0.030993  -0.086854   0.001447  -0.000911   0.000963
    17  N    0.003216   0.001289  -0.118217   0.000659   0.002598  -0.000577
    18  H    0.000054  -0.000044  -0.000121   0.001315   0.001043  -0.000087
    19  C   -0.000065  -0.000035   0.007203  -0.000417   0.000224  -0.000203
    20  H   -0.000003  -0.000019   0.000623  -0.000043  -0.000023  -0.000004
    21  C    0.000000   0.000000  -0.000126   0.000004  -0.000018   0.000001
    22  H    0.000000   0.000000  -0.000016   0.000002  -0.000003   0.000000
    23  H    0.000000   0.000000   0.000005   0.000000   0.000000   0.000000
    24  H    0.000000   0.000000   0.000000   0.000004   0.000000   0.000000
    25  C    0.000003   0.000002  -0.000307   0.000010  -0.000066   0.000114
    26  O    0.000001   0.000000  -0.000321  -0.000003   0.000187   0.000395
    27  N    0.000000   0.000000  -0.000004   0.000000   0.000000   0.000001
    28  H    0.000000   0.000000   0.000000   0.000000   0.000000   0.000000
    29  C    0.000000   0.000000   0.000000   0.000000   0.000000   0.000000
    30  H    0.000000   0.000000   0.000000   0.000000   0.000000   0.000000
    31  C    0.000000   0.000000   0.000000   0.000000   0.000000   0.000000
    32  H    0.000000   0.000000   0.000000   0.000000   0.000000   0.000000
    33  H    0.000000   0.000000   0.000000   0.000000   0.000000   0.000000
    34  H    0.000000   0.000000   0.000000   0.000000   0.000000   0.000000
    35  C    0.000000   0.000000   0.000000   0.000000   0.000000   0.000000
    36  O    0.000000   0.000000   0.000000   0.000000   0.000000   0.000000
    37  N    0.000000   0.000000   0.000000   0.000000   0.000000   0.000000
    38  H    0.000000   0.000000   0.000000   0.000000   0.000000   0.000000
    39  C    0.000000   0.000000   0.000000   0.000000   0.000000   0.000000
    40  H    0.000000   0.000000   0.000000   0.000000   0.000000   0.000000
    41  H    0.000000   0.000000   0.000000   0.000000   0.000000   0.000000
    42  H    0.000000   0.000000   0.000000   0.000000   0.000000   0.000000
             13         14         15         16         17         18
     1  H    0.000000   0.000000   0.000000   0.000000   0.000000   0.000000
     2  C    0.000007   0.000600  -0.000049  -0.000049   0.000001   0.000000
     3  H    0.000000  -0.000008  -0.000016   0.000000   0.000000   0.000000
     4  H   -0.000001  -0.000053  -0.000013  -0.000001   0.000000   0.000000
     5  C    0.000322   0.003041   0.006553   0.000531  -0.000071   0.000002
     6  O    0.000325   0.022827   0.000774  -0.000005  -0.000002   0.000003
     7  N    0.005152  -0.010474  -0.025702  -0.009346   0.003216   0.000054
     8  H   -0.000125  -0.000294   0.000034   0.030993   0.001289  -0.000044
     9  C   -0.035525  -0.021696   0.312017  -0.086854  -0.118217  -0.000121
    10  H    0.000022  -0.006262  -0.033625   0.001447   0.000659   0.001315
    11  C    0.353119   0.358944  -0.048396  -0.000911   0.002598   0.001043
    12  H   -0.024867  -0.026094  -0.003022   0.000963  -0.000577  -0.000087
    13  H    0.595551  -0.022281  -0.008394  -0.000042   0.002812   0.007222
    14  H   -0.022281   0.493166   0.004201  -0.000087   0.000134  -0.000209
    15  C   -0.008394   0.004201   4.365285   0.587295   0.251991  -0.020745
    16  O   -0.000042  -0.000087   0.587295   8.101122  -0.104002   0.003472
    17  N    0.002812   0.000134   0.251991  -0.104002   7.123416   0.300205
    18  H    0.007222  -0.000209  -0.020745   0.003472   0.300205   0.398566
    19  C    0.000205   0.000003  -0.026663   0.004169   0.272250  -0.031615
    20  H    0.000002   0.000001  -0.000771   0.014907  -0.043802   0.004085
    21  C   -0.000033   0.000000   0.005178   0.000666  -0.048543  -0.002543
    22  H   -0.000003   0.000000  -0.000104  -0.000011  -0.004555   0.004640
    23  H    0.000000   0.000000  -0.000048   0.000002   0.003990  -0.000047
    24  H   -0.000003   0.000000   0.000005  -0.000005   0.000424   0.000535
    25  C    0.000000   0.000000   0.003468   0.000175  -0.062182   0.000591
    26  O    0.000323   0.000005   0.007643  -0.000807  -0.002109   0.000582
    27  N    0.000001   0.000000   0.000293  -0.000038   0.003016  -0.000059
    28  H    0.000000   0.000000  -0.000027  -0.000003   0.000072  -0.000004
    29  C    0.000000   0.000000  -0.000012   0.000002  -0.000108   0.000003
    30  H    0.000000   0.000000  -0.000001   0.000000   0.000005   0.000000
    31  C    0.000000   0.000000   0.000005  -0.000002   0.000003   0.000000
    32  H    0.000000   0.000000  -0.000001   0.000001   0.000001   0.000000
    33  H    0.000000   0.000000   0.000000   0.000000   0.000000   0.000000
    34  H    0.000000   0.000000  -0.000002   0.000000  -0.000005   0.000000
    35  C    0.000000   0.000000   0.000000   0.000000   0.000000   0.000000
    36  O    0.000000   0.000000   0.000000   0.000000   0.000000   0.000000
    37  N    0.000000   0.000000   0.000000   0.000000   0.000000   0.000000
    38  H    0.000000   0.000000   0.000000   0.000000   0.000000   0.000000
    39  C    0.000000   0.000000   0.000000   0.000000   0.000000   0.000000
    40  H    0.000000   0.000000   0.000000   0.000000   0.000000   0.000000
    41  H    0.000000   0.000000   0.000000   0.000000   0.000000   0.000000
    42  H    0.000000   0.000000   0.000000   0.000000   0.000000   0.000000
             19         20         21         22         23         24
     1  H    0.000000   0.000000   0.000000   0.000000   0.000000   0.000000
     2  C    0.000000   0.000000   0.000000   0.000000   0.000000   0.000000
     3  H    0.000000   0.000000   0.000000   0.000000   0.000000   0.000000
     4  H    0.000000   0.000000   0.000000   0.000000   0.000000   0.000000
     5  C    0.000001   0.000000   0.000000   0.000000   0.000000   0.000000
     6  O    0.000000   0.000000   0.000000   0.000000   0.000000   0.000000
     7  N   -0.000065  -0.000003   0.000000   0.000000   0.000000   0.000000
     8  H   -0.000035  -0.000019   0.000000   0.000000   0.000000   0.000000
     9  C    0.007203   0.000623  -0.000126  -0.000016   0.000005   0.000000
    10  H   -0.000417  -0.000043   0.000004   0.000002   0.000000   0.000004
    11  C    0.000224  -0.000023  -0.000018  -0.000003   0.000000   0.000000
    12  H   -0.000203  -0.000004   0.000001   0.000000   0.000000   0.000000
    13  H    0.000205   0.000002  -0.000033  -0.000003   0.000000  -0.000003
    14  H    0.000003   0.000001   0.000000   0.000000   0.000000   0.000000
    15  C   -0.026663  -0.000771   0.005178  -0.000104  -0.000048   0.000005
    16  O    0.004169   0.014907   0.000666  -0.000011   0.000002  -0.000005
    17  N    0.272250  -0.043802  -0.048543  -0.004555   0.003990   0.000424
    18  H   -0.031615   0.004085  -0.002543   0.004640  -0.000047   0.000535
    19  C    5.130130   0.369473   0.339017  -0.033365  -0.032074  -0.030775
    20  H    0.369473   0.537262  -0.034903   0.005329  -0.002711  -0.005933
    21  C    0.339017  -0.034903   5.156800   0.369881   0.370912   0.366907
    22  H   -0.033365   0.005329   0.369881   0.560081  -0.025599  -0.031194
    23  H   -0.032074  -0.002711   0.370912  -0.025599   0.539310  -0.021655
    24  H   -0.030775  -0.005933   0.366907  -0.031194  -0.021655   0.549646
    25  C    0.309685  -0.040388  -0.052679  -0.004514  -0.006058   0.004875
    26  O   -0.086252   0.000861  -0.000730   0.001011  -0.000005  -0.000086
    27  N   -0.130452   0.002543   0.002570  -0.000007   0.005088   0.000251
    28  H    0.000453   0.001128   0.001034  -0.000062   0.005299  -0.000264
    29  C    0.006725  -0.000125   0.000112  -0.000083   0.000305   0.000010
    30  H    0.000330   0.000001  -0.000089   0.000011  -0.000019  -0.000002
    31  C   -0.001019   0.000025   0.000015   0.000002   0.000008   0.000000
    32  H    0.000040   0.000006  -0.000001   0.000000  -0.000001   0.000000
    33  H    0.000012  -0.000001   0.000000   0.000000   0.000000   0.000000
    34  H    0.000582  -0.000042  -0.000005  -0.000002   0.000000   0.000000
    35  C   -0.000002  -0.000014  -0.000059  -0.000003  -0.000049   0.000000
    36  O   -0.000068  -0.000001  -0.000010   0.000001  -0.000084   0.000000
    37  N    0.000000   0.000000   0.000000   0.000000  -0.000001   0.000000
    38  H    0.000000   0.000000   0.000000   0.000000   0.000000   0.000000
    39  C    0.000000   0.000000   0.000000   0.000000   0.000000   0.000000
    40  H    0.000000   0.000000   0.000000   0.000000   0.000000   0.000000
    41  H    0.000000   0.000000   0.000000   0.000000   0.000000   0.000000
    42  H    0.000000   0.000000   0.000000   0.000000   0.000000   0.000000
             25         26         27         28         29         30
     1  H    0.000000   0.000000   0.000000   0.000000   0.000000   0.000000
     2  C    0.000000   0.000000   0.000000   0.000000   0.000000   0.000000
     3  H    0.000000   0.000000   0.000000   0.000000   0.000000   0.000000
     4  H    0.000000   0.000000   0.000000   0.000000   0.000000   0.000000
     5  C    0.000000   0.000000   0.000000   0.000000   0.000000   0.000000
     6  O    0.000000   0.000000   0.000000   0.000000   0.000000   0.000000
     7  N    0.000003   0.000001   0.000000   0.000000   0.000000   0.000000
     8  H    0.000002   0.000000   0.000000   0.000000   0.000000   0.000000
     9  C   -0.000307  -0.000321  -0.000004   0.000000   0.000000   0.000000
    10  H    0.000010  -0.000003   0.000000   0.000000   0.000000   0.000000
    11  C   -0.000066   0.000187   0.000000   0.000000   0.000000   0.000000
    12  H    0.000114   0.000395   0.000001   0.000000   0.000000   0.000000
    13  H    0.000000   0.000323   0.000001   0.000000   0.000000   0.000000
    14  H    0.000000   0.000005   0.000000   0.000000   0.000000   0.000000
    15  C    0.003468   0.007643   0.000293  -0.000027  -0.000012  -0.000001
    16  O    0.000175  -0.000807  -0.000038  -0.000003   0.000002   0.000000
    17  N   -0.062182  -0.002109   0.003016   0.000072  -0.000108   0.000005
    18  H    0.000591   0.000582  -0.000059  -0.000004   0.000003   0.000000
    19  C    0.309685  -0.086252  -0.130452   0.000453   0.006725   0.000330
    20  H   -0.040388   0.000861   0.002543   0.001128  -0.000125   0.000001
    21  C   -0.052679  -0.000730   0.002570   0.001034   0.000112  -0.000089
    22  H   -0.004514   0.001011  -0.000007  -0.000062  -0.000083   0.000011
    23  H   -0.006058  -0.000005   0.005088   0.005299   0.000305  -0.000019
    24  H    0.004875  -0.000086   0.000251  -0.000264   0.000010  -0.000002
    25  C    4.410971   0.592750   0.237530  -0.019773  -0.023653  -0.001296
    26  O    0.592750   8.104969  -0.106806   0.003049   0.011945   0.004826
    27  N    0.237530  -0.106806   7.214573   0.283742   0.250113  -0.049977
    28  H   -0.019773   0.003049   0.283742   0.385054  -0.051354   0.004568
    29  C   -0.023653   0.011945   0.250113  -0.051354   5.092525   0.370354
    30  H   -0.001296   0.004826  -0.049977   0.004568   0.370354   0.582858
    31  C   -0.006350  -0.017593  -0.054567   0.003844   0.348929  -0.050280
    32  H    0.000797  -0.000138  -0.000343   0.000713  -0.036876   0.006153
    33  H    0.000315   0.000295   0.005244  -0.000104  -0.035928  -0.000197
    34  H    0.002814   0.021651  -0.009906  -0.000335  -0.021419  -0.005986
    35  C    0.006357   0.000662  -0.025319   0.000210   0.307972  -0.033742
    36  O    0.000800  -0.000004  -0.009326   0.033730  -0.090133   0.001325
    37  N   -0.000064  -0.000001   0.003343   0.001305  -0.121885   0.000594
    38  H    0.000001   0.000003   0.000054  -0.000053   0.000887   0.001034
    39  C    0.000002   0.000000  -0.000068  -0.000012   0.005809  -0.000277
    40  H    0.000000   0.000000   0.000000  -0.000033   0.001192  -0.000035
    41  H    0.000000   0.000000   0.000000   0.000000  -0.000194   0.000021
    42  H    0.000000   0.000000   0.000001   0.000000  -0.000030  -0.000006
             31         32         33         34         35         36
     1  H    0.000000   0.000000   0.000000   0.000000   0.000000   0.000000
     2  C    0.000000   0.000000   0.000000   0.000000   0.000000   0.000000
     3  H    0.000000   0.000000   0.000000   0.000000   0.000000   0.000000
     4  H    0.000000   0.000000   0.000000   0.000000   0.000000   0.000000
     5  C    0.000000   0.000000   0.000000   0.000000   0.000000   0.000000
     6  O    0.000000   0.000000   0.000000   0.000000   0.000000   0.000000
     7  N    0.000000   0.000000   0.000000   0.000000   0.000000   0.000000
     8  H    0.000000   0.000000   0.000000   0.000000   0.000000   0.000000
     9  C    0.000000   0.000000   0.000000   0.000000   0.000000   0.000000
    10  H    0.000000   0.000000   0.000000   0.000000   0.000000   0.000000
    11  C    0.000000   0.000000   0.000000   0.000000   0.000000   0.000000
    12  H    0.000000   0.000000   0.000000   0.000000   0.000000   0.000000
    13  H    0.000000   0.000000   0.000000   0.000000   0.000000   0.000000
    14  H    0.000000   0.000000   0.000000   0.000000   0.000000   0.000000
    15  C    0.000005  -0.000001   0.000000  -0.000002   0.000000   0.000000
    16  O   -0.000002   0.000001   0.000000   0.000000   0.000000   0.000000
    17  N    0.000003   0.000001   0.000000  -0.000005   0.000000   0.000000
    18  H    0.000000   0.000000   0.000000   0.000000   0.000000   0.000000
    19  C   -0.001019   0.000040   0.000012   0.000582  -0.000002  -0.000068
    20  H    0.000025   0.000006  -0.000001  -0.000042  -0.000014  -0.000001
    21  C    0.000015  -0.000001   0.000000  -0.000005  -0.000059  -0.000010
    22  H    0.000002   0.000000   0.000000  -0.000002  -0.000003   0.000001
    23  H    0.000008  -0.000001   0.000000   0.000000  -0.000049  -0.000084
    24  H    0.000000   0.000000   0.000000   0.000000   0.000000   0.000000
    25  C   -0.006350   0.000797   0.000315   0.002814   0.006357   0.000800
    26  O   -0.017593  -0.000138   0.000295   0.021651   0.000662  -0.000004
    27  N   -0.054567  -0.000343   0.005244  -0.009906  -0.025319  -0.009326
    28  H    0.003844   0.000713  -0.000104  -0.000335   0.000210   0.033730
    29  C    0.348929  -0.036876  -0.035928  -0.021419   0.307972  -0.090133
    30  H   -0.050280   0.006153  -0.000197  -0.005986  -0.033742   0.001325
    31  C    5.194923   0.369737   0.352242   0.362543  -0.044733  -0.000712
    32  H    0.369737   0.553660  -0.026748  -0.025154  -0.002770   0.000977
    33  H    0.352242  -0.026748   0.602256  -0.021822  -0.008231  -0.000023
    34  H    0.362543  -0.025154  -0.021822   0.480174   0.003775  -0.000089
    35  C   -0.044733  -0.002770  -0.008231   0.003775   4.363789   0.597514
    36  O   -0.000712   0.000977  -0.000023  -0.000089   0.597514   8.090190
    37  N    0.002705  -0.000510   0.003346   0.000225   0.274100  -0.101317
    38  H    0.000713  -0.000107   0.007030  -0.000197  -0.021427   0.003603
    39  C    0.000021  -0.000073   0.000082   0.000005  -0.024605  -0.009041
    40  H   -0.000070  -0.000007  -0.000006   0.000001  -0.001326   0.020870
    41  H   -0.000005   0.000001   0.000004   0.000000   0.001311   0.000568
    42  H    0.000013   0.000002   0.000001  -0.000002   0.001379   0.000568
             37         38         39         40         41         42
     1  H    0.000000   0.000000   0.000000   0.000000   0.000000   0.000000
     2  C    0.000000   0.000000   0.000000   0.000000   0.000000   0.000000
     3  H    0.000000   0.000000   0.000000   0.000000   0.000000   0.000000
     4  H    0.000000   0.000000   0.000000   0.000000   0.000000   0.000000
     5  C    0.000000   0.000000   0.000000   0.000000   0.000000   0.000000
     6  O    0.000000   0.000000   0.000000   0.000000   0.000000   0.000000
     7  N    0.000000   0.000000   0.000000   0.000000   0.000000   0.000000
     8  H    0.000000   0.000000   0.000000   0.000000   0.000000   0.000000
     9  C    0.000000   0.000000   0.000000   0.000000   0.000000   0.000000
    10  H    0.000000   0.000000   0.000000   0.000000   0.000000   0.000000
    11  C    0.000000   0.000000   0.000000   0.000000   0.000000   0.000000
    12  H    0.000000   0.000000   0.000000   0.000000   0.000000   0.000000
    13  H    0.000000   0.000000   0.000000   0.000000   0.000000   0.000000
    14  H    0.000000   0.000000   0.000000   0.000000   0.000000   0.000000
    15  C    0.000000   0.000000   0.000000   0.000000   0.000000   0.000000
    16  O    0.000000   0.000000   0.000000   0.000000   0.000000   0.000000
    17  N    0.000000   0.000000   0.000000   0.000000   0.000000   0.000000
    18  H    0.000000   0.000000   0.000000   0.000000   0.000000   0.000000
    19  C    0.000000   0.000000   0.000000   0.000000   0.000000   0.000000
    20  H    0.000000   0.000000   0.000000   0.000000   0.000000   0.000000
    21  C    0.000000   0.000000   0.000000   0.000000   0.000000   0.000000
    22  H    0.000000   0.000000   0.000000   0.000000   0.000000   0.000000
    23  H   -0.000001   0.000000   0.000000   0.000000   0.000000   0.000000
    24  H    0.000000   0.000000   0.000000   0.000000   0.000000   0.000000
    25  C   -0.000064   0.000001   0.000002   0.000000   0.000000   0.000000
    26  O   -0.000001   0.000003   0.000000   0.000000   0.000000   0.000000
    27  N    0.003343   0.000054  -0.000068   0.000000   0.000000   0.000001
    28  H    0.001305  -0.000053  -0.000012  -0.000033   0.000000   0.000000
    29  C   -0.121885   0.000887   0.005809   0.001192  -0.000194  -0.000030
    30  H    0.000594   0.001034  -0.000277  -0.000035   0.000021  -0.000006
    31  C    0.002705   0.000713   0.000021  -0.000070  -0.000005   0.000013
    32  H   -0.000510  -0.000107  -0.000073  -0.000007   0.000001   0.000002
    33  H    0.003346   0.007030   0.000082  -0.000006   0.000004   0.000001
    34  H    0.000225  -0.000197   0.000005   0.000001   0.000000  -0.000002
    35  C    0.274100  -0.021427  -0.024605  -0.001326   0.001311   0.001379
    36  O   -0.101317   0.003603  -0.009041   0.020870   0.000568   0.000568
    37  N    7.081809   0.303233   0.265614  -0.036613  -0.043226  -0.044160
    38  H    0.303233   0.400414  -0.030576   0.003672  -0.001467  -0.000237
[...]
    31  C    0.000000   0.000000   0.000001   0.000000   0.000001   0.000001
    32  H    0.000000   0.000000   0.000000   0.000000   0.000000   0.000000
    33  H    0.000000   0.000000   0.000000   0.000000   0.000000   0.000000
    34  H   -0.000001   0.000000   0.000001   0.000000   0.000000  -0.000003
    35  C    0.000000   0.000000   0.000000   0.000000   0.000000   0.000000
    36  O    0.000000   0.000000   0.000000   0.000000   0.000000   0.000000
    37  N    0.000000   0.000000   0.000000   0.000000   0.000000   0.000000
    38  H    0.000000   0.000000   0.000000   0.000000   0.000000   0.000000
    39  C    0.000000   0.000000   0.000000   0.000000   0.000000   0.000000
    40  H    0.000000   0.000000   0.000000   0.000000   0.000000   0.000000
    41  H    0.000000   0.000000   0.000000   0.000000   0.000000   0.000000
    42  H    0.000000   0.000000   0.000000   0.000000   0.000000   0.000000
             19         20         21         22         23         24
     1  H    0.000000   0.000000   0.000000   0.000000   0.000000   0.000000
     2  C    0.000000   0.000000   0.000000   0.000000   0.000000   0.000000
     3  H    0.000000   0.000000   0.000000   0.000000   0.000000   0.000000
     4  H    0.000000   0.000000   0.000000   0.000000   0.000000   0.000000
     5  C    0.000001   0.000000   0.000000   0.000000   0.000000   0.000000
     6  O    0.000000   0.000000   0.000000   0.000000   0.000000   0.000000
     7  N   -0.000124   0.000005   0.000002   0.000000   0.000000   0.000000
     8  H   -0.000023  -0.000039   0.000000   0.000000   0.000000   0.000000
     9  C    0.007580   0.001107  -0.000212  -0.000006   0.000003   0.000001
    10  H    0.000132  -0.000043  -0.000004   0.000001   0.000000   0.000000
    11  C   -0.000573  -0.000052   0.000001   0.000000   0.000000   0.000001
    12  H    0.000023  -0.000010   0.000000   0.000000   0.000000   0.000000
    13  H   -0.000618   0.000001   0.000007  -0.000001   0.000000   0.000000
    14  H    0.000007   0.000001   0.000000   0.000000   0.000000   0.000000
    15  C   -0.023075  -0.002330   0.002701  -0.000101  -0.000027   0.000316
    16  O   -0.003634   0.021547   0.000287  -0.000008   0.000002   0.000018
    17  N    0.267076  -0.044882  -0.054598  -0.003441   0.003942   0.000062
    18  H   -0.040773   0.005676  -0.000832   0.003459  -0.000153  -0.000410
    19  C    5.134151   0.360779   0.349692  -0.032830  -0.029375  -0.026998
    20  H    0.360779   0.520189  -0.033688   0.004326  -0.001871  -0.004167
    21  C    0.349692  -0.033688   5.123905   0.372626   0.363974   0.368905
    22  H   -0.032830   0.004326   0.372626   0.563854  -0.028599  -0.029650
    23  H   -0.029375  -0.001871   0.363974  -0.028599   0.553826  -0.024062
    24  H   -0.026998  -0.004167   0.368905  -0.029650  -0.024062   0.539574
    25  C    0.319508  -0.029618  -0.045145  -0.003376  -0.002285   0.003673
    26  O   -0.081656   0.000987  -0.000163   0.000586   0.000011  -0.000067
    27  N   -0.119457   0.001449   0.003890   0.000090   0.002256   0.000127
    28  H   -0.000077   0.000589   0.001439  -0.000083   0.004109  -0.000161
    29  C    0.006352  -0.000178   0.000001  -0.000052   0.000066   0.000007
    30  H    0.000618  -0.000003  -0.000079   0.000000  -0.000008   0.000000
    31  C   -0.000580   0.000041   0.000006   0.000001   0.000004   0.000000
    32  H    0.000019  -0.000001   0.000000   0.000000  -0.000001   0.000000
    33  H    0.000006   0.000000   0.000000   0.000000   0.000000   0.000000
    34  H    0.000202  -0.000028   0.000000   0.000000   0.000000   0.000000
    35  C   -0.000040  -0.000012  -0.000040  -0.000004   0.000018   0.000000
    36  O   -0.000079  -0.000001  -0.000048   0.000001   0.000074   0.000000
    37  N    0.000000   0.000000   0.000000   0.000000  -0.000001   0.000000
    38  H    0.000000   0.000000   0.000000   0.000000   0.000000   0.000000
    39  C    0.000000   0.000000   0.000000   0.000000   0.000000   0.000000
    40  H    0.000000   0.000000   0.000000   0.000000   0.000000   0.000000
    41  H    0.000000   0.000000   0.000000   0.000000   0.000000   0.000000
    42  H    0.000000   0.000000   0.000000   0.000000   0.000000   0.000000
             25         26         27         28         29         30
     1  H    0.000000   0.000000   0.000000   0.000000   0.000000   0.000000
     2  C    0.000000   0.000000   0.000000   0.000000   0.000000   0.000000
     3  H    0.000000   0.000000   0.000000   0.000000   0.000000   0.000000
     4  H    0.000000   0.000000   0.000000   0.000000   0.000000   0.000000
     5  C    0.000000   0.000000   0.000000   0.000000   0.000000   0.000000
     6  O    0.000000   0.000000   0.000000   0.000000   0.000000   0.000000
     7  N    0.000002   0.000001   0.000000   0.000000   0.000000   0.000000
     8  H    0.000000   0.000000   0.000000   0.000000   0.000000   0.000000
     9  C   -0.000626  -0.000975  -0.000006   0.000000   0.000000   0.000000
    10  H   -0.000010  -0.000019   0.000000   0.000000   0.000000   0.000000
    11  C    0.000244  -0.001042  -0.000002   0.000000   0.000000   0.000000
    12  H    0.000033  -0.000014   0.000000   0.000000   0.000000   0.000000
    13  H    0.000344   0.006880   0.000025   0.000000  -0.000001  -0.000001
    14  H    0.000001   0.000039   0.000000   0.000000   0.000000   0.000000
    15  C    0.002431   0.005294   0.000025  -0.000010  -0.000004  -0.000001
    16  O   -0.000224  -0.000204  -0.000019  -0.000002   0.000001   0.000000
    17  N   -0.050880  -0.008559   0.003806   0.000063  -0.000113   0.000003
    18  H   -0.000534   0.009645   0.000323  -0.000008  -0.000013   0.000000
    19  C    0.319508  -0.081656  -0.119457  -0.000077   0.006352   0.000618
    20  H   -0.029618   0.000987   0.001449   0.000589  -0.000178  -0.000003
    21  C   -0.045145  -0.000163   0.003890   0.001439   0.000001  -0.000079
    22  H   -0.003376   0.000586   0.000090  -0.000083  -0.000052   0.000000
    23  H   -0.002285   0.000011   0.002256   0.004109   0.000066  -0.000008
    24  H    0.003673  -0.000067   0.000127  -0.000161   0.000007   0.000000
    25  C    4.393259   0.576270   0.246162  -0.017408  -0.019751  -0.000762
    26  O    0.576270   8.107154  -0.101850   0.002546   0.009394   0.009130
    27  N    0.246162  -0.101850   7.200052   0.279881   0.253535  -0.051739
    28  H   -0.017408   0.002546   0.279881   0.377150  -0.051180   0.005047
    29  C   -0.019751   0.009394   0.253535  -0.051180   5.079662   0.370116
    30  H   -0.000762   0.009130  -0.051739   0.005047   0.370116   0.575644
    31  C   -0.005006  -0.006224  -0.053794   0.002811   0.352112  -0.047588
    32  H    0.000373  -0.000015  -0.000796   0.001161  -0.033976   0.005435
    33  H    0.000077   0.000009   0.004912  -0.000090  -0.029995  -0.000198
    34  H    0.004012   0.009128  -0.009089  -0.000299  -0.022265  -0.004937
    35  C    0.005736   0.000495  -0.028299  -0.003592   0.304436  -0.034682
    36  O    0.000914  -0.000005  -0.015199   0.041003  -0.083879   0.001981
    37  N   -0.000072  -0.000001   0.002751   0.001714  -0.111168   0.001427
    38  H   -0.000005   0.000001   0.000052  -0.000071   0.001711   0.001936
    39  C    0.000001   0.000000  -0.000092  -0.000013   0.005701  -0.000113
    40  H    0.000000   0.000000   0.000006  -0.000046   0.001084  -0.000034
    41  H    0.000000   0.000000   0.000002   0.000000  -0.000153   0.000003
    42  H    0.000000   0.000000   0.000000   0.000000  -0.000095  -0.000006
             31         32         33         34         35         36
     1  H    0.000000   0.000000   0.000000   0.000000   0.000000   0.000000
     2  C    0.000000   0.000000   0.000000   0.000000   0.000000   0.000000
     3  H    0.000000   0.000000   0.000000   0.000000   0.000000   0.000000
     4  H    0.000000   0.000000   0.000000   0.000000   0.000000   0.000000
     5  C    0.000000   0.000000   0.000000   0.000000   0.000000   0.000000
     6  O    0.000000   0.000000   0.000000   0.000000   0.000000   0.000000
     7  N    0.000000   0.000000   0.000000   0.000000   0.000000   0.000000
     8  H    0.000000   0.000000   0.000000   0.000000   0.000000   0.000000
     9  C    0.000000   0.000000   0.000000   0.000000   0.000000   0.000000
    10  H    0.000000   0.000000   0.000000   0.000000   0.000000   0.000000
    11  C    0.000000   0.000000   0.000000   0.000001   0.000000   0.000000
    12  H    0.000000   0.000000   0.000000   0.000001   0.000000   0.000000
    13  H    0.000000   0.000000   0.000000  -0.000001   0.000000   0.000000
    14  H    0.000000   0.000000   0.000000   0.000000   0.000000   0.000000
    15  C    0.000001   0.000000   0.000000   0.000001   0.000000   0.000000
    16  O    0.000000   0.000000   0.000000   0.000000   0.000000   0.000000
    17  N    0.000001   0.000000   0.000000   0.000000   0.000000   0.000000
    18  H    0.000001   0.000000   0.000000  -0.000003   0.000000   0.000000
    19  C   -0.000580   0.000019   0.000006   0.000202  -0.000040  -0.000079
    20  H    0.000041  -0.000001   0.000000  -0.000028  -0.000012  -0.000001
    21  C    0.000006   0.000000   0.000000   0.000000  -0.000040  -0.000048
    22  H    0.000001   0.000000   0.000000   0.000000  -0.000004   0.000001
    23  H    0.000004  -0.000001   0.000000   0.000000   0.000018   0.000074
    24  H    0.000000   0.000000   0.000000   0.000000   0.000000   0.000000
    25  C   -0.005006   0.000373   0.000077   0.004012   0.005736   0.000914
    26  O   -0.006224  -0.000015   0.000009   0.009128   0.000495  -0.000005
    27  N   -0.053794  -0.000796   0.004912  -0.009089  -0.028299  -0.015199
    28  H    0.002811   0.001161  -0.000090  -0.000299  -0.003592   0.041003
    29  C    0.352112  -0.033976  -0.029995  -0.022265   0.304436  -0.083879
    30  H   -0.047588   0.005435  -0.000198  -0.004937  -0.034682   0.001981
    31  C    5.143421   0.371289   0.356063   0.370279  -0.036009  -0.001858
    32  H    0.371289   0.550387  -0.027471  -0.026658  -0.004056   0.001612
    33  H    0.356063  -0.027471   0.583358  -0.025743  -0.003164  -0.000014
    34  H    0.370279  -0.026658  -0.025743   0.507660   0.003585  -0.000078
    35  C   -0.036009  -0.004056  -0.003164   0.003585   4.370710   0.575109
    36  O   -0.001858   0.001612  -0.000014  -0.000078   0.575109   8.086939
    37  N    0.000633  -0.000036   0.003230   0.000031   0.286899  -0.092061
    38  H    0.000357  -0.000026   0.002131  -0.000082  -0.022073   0.003296
    39  C   -0.000229  -0.000005  -0.000063   0.000005  -0.022937  -0.007478
    40  H   -0.000039  -0.000008  -0.000001   0.000001  -0.001351   0.019388
    41  H   -0.000005   0.000000   0.000004   0.000000   0.000830   0.000416
    42  H    0.000037  -0.000001  -0.000013  -0.000001   0.001412   0.000442
             37         38         39         40         41         42
     1  H    0.000000   0.000000   0.000000   0.000000   0.000000   0.000000
     2  C    0.000000   0.000000   0.000000   0.000000   0.000000   0.000000
     3  H    0.000000   0.000000   0.000000   0.000000   0.000000   0.000000
     4  H    0.000000   0.000000   0.000000   0.000000   0.000000   0.000000
     5  C    0.000000   0.000000   0.000000   0.000000   0.000000   0.000000
     6  O    0.000000   0.000000   0.000000   0.000000   0.000000   0.000000
     7  N    0.000000   0.000000   0.000000   0.000000   0.000000   0.000000
     8  H    0.000000   0.000000   0.000000   0.000000   0.000000   0.000000
     9  C    0.000000   0.000000   0.000000   0.000000   0.000000   0.000000
    10  H    0.000000   0.000000   0.000000   0.000000   0.000000   0.000000
    11  C    0.000000   0.000000   0.000000   0.000000   0.000000   0.000000
    12  H    0.000000   0.000000   0.000000   0.000000   0.000000   0.000000
    13  H    0.000000   0.000000   0.000000   0.000000   0.000000   0.000000
    14  H    0.000000   0.000000   0.000000   0.000000   0.000000   0.000000
    15  C    0.000000   0.000000   0.000000   0.000000   0.000000   0.000000
    16  O    0.000000   0.000000   0.000000   0.000000   0.000000   0.000000
    17  N    0.000000   0.000000   0.000000   0.000000   0.000000   0.000000
    18  H    0.000000   0.000000   0.000000   0.000000   0.000000   0.000000
    19  C    0.000000   0.000000   0.000000   0.000000   0.000000   0.000000
    20  H    0.000000   0.000000   0.000000   0.000000   0.000000   0.000000
    21  C    0.000000   0.000000   0.000000   0.000000   0.000000   0.000000
    22  H    0.000000   0.000000   0.000000   0.000000   0.000000   0.000000
    23  H   -0.000001   0.000000   0.000000   0.000000   0.000000   0.000000
    24  H    0.000000   0.000000   0.000000   0.000000   0.000000   0.000000
    25  C   -0.000072  -0.000005   0.000001   0.000000   0.000000   0.000000
    26  O   -0.000001   0.000001   0.000000   0.000000   0.000000   0.000000
    27  N    0.002751   0.000052  -0.000092   0.000006   0.000002   0.000000
    28  H    0.001714  -0.000071  -0.000013  -0.000046   0.000000   0.000000
    29  C   -0.111168   0.001711   0.005701   0.001084  -0.000153  -0.000095
    30  H    0.001427   0.001936  -0.000113  -0.000034   0.000003  -0.000006
    31  C    0.000633   0.000357  -0.000229  -0.000039  -0.000005   0.000037
    32  H   -0.000036  -0.000026  -0.000005  -0.000008   0.000000  -0.000001
    33  H    0.003230   0.002131  -0.000063  -0.000001   0.000004  -0.000013
    34  H    0.000031  -0.000082   0.000005   0.000001   0.000000  -0.000001
    35  C    0.286899  -0.022073  -0.022937  -0.001351   0.000830   0.001412
    36  O   -0.092061   0.003296  -0.007478   0.019388   0.000416   0.000442
    37  N    7.048419   0.306419   0.264624  -0.038879  -0.040152  -0.041161
    38  H    0.306419   0.402880  -0.031429   0.003978  -0.001075  -0.000723
    39  C    0.264624  -0.031429   4.964209   0.378358   0.382191   0.381733
    40  H   -0.038879   0.003978   0.378358   0.477187  -0.024016  -0.024394
    41  H   -0.040152  -0.001075   0.382191  -0.024016   0.556224  -0.039103
    42  H   -0.041161  -0.000723   0.381733  -0.024394  -0.039103   0.556997
 Mulliken atomic charges:
              1
     1  H    0.180676
     2  C   -0.532805
     3  H    0.180765
     4  H    0.146220
     5  C    0.598299
     6  O   -0.525853
     7  N   -0.604433
     8  H    0.342967
     9  C   -0.036112
    10  H    0.170496
    11  C   -0.449510
    12  H    0.156026
    13  H    0.163479
    14  H    0.179932
    15  C    0.606783
    16  O   -0.528989
    17  N   -0.575410
    18  H    0.333148
    19  C   -0.086233
    20  H    0.200226
    21  C   -0.452626
    22  H    0.153209
    23  H    0.158097
    24  H    0.172831
    25  C    0.622658
    26  O   -0.536779
    27  N   -0.619004
    28  H    0.355524
    29  C   -0.031354
    30  H    0.168810
    31  C   -0.445724
    32  H    0.162773
    33  H    0.136964
    34  H    0.194281
    35  C    0.607027
    36  O   -0.530475
    37  N   -0.592617
    38  H    0.332723
    39  C   -0.314463
    40  H    0.208765
    41  H    0.164833
    42  H    0.164875
 Sum of Mulliken atomic charges =   0.00000
 Mulliken charges with hydrogens summed into heavy atoms:
              1
     2  C   -0.025144
     5  C    0.598299
     6  O   -0.525853
     7  N   -0.261466
     9  C    0.134384
    11  C    0.049926
    15  C    0.606783
    16  O   -0.528989
    17  N   -0.242262
    19  C    0.113993
    21  C    0.031510
    25  C    0.622658
    26  O   -0.536779
    27  N   -0.263480
    29  C    0.137456
    31  C    0.048295
    35  C    0.607027
    36  O   -0.530475
    37  N   -0.259894
    39  C    0.224009
 Sum of Mulliken charges with hydrogens summed into heavy atoms =   0.00000
 Electronic spatial extent (au):  <R**2>=          10501.7818
 Charge=              0.0000 electrons
 Dipole moment (field-independent basis, Debye):
    X=             -6.8933    Y=             -0.7060    Z=             -0.1290  Tot=              6.9306
 Quadrupole moment (field-independent basis, Debye-Ang):
   XX=           -108.7546   YY=           -115.7422   ZZ=           -122.1941
   XY=             14.6296   XZ=             19.6184   YZ=             -3.7446
 Traceless Quadrupole moment (field-independent basis, Debye-Ang):
   XX=              6.8090   YY=             -0.1785   ZZ=             -6.6305
   XY=             14.6296   XZ=             19.6184   YZ=             -3.7446
 Octapole moment (field-independent basis, Debye-Ang**2):
  XXX=           -302.0712  YYY=             -1.4110  ZZZ=             -4.7931  XYY=             -8.0751
  XXY=            -70.0784  XXZ=             60.5420  XZZ=            -16.9870  YZZ=              0.4234
  YYZ=             -1.6957  XYZ=             -9.4234
 Hexadecapole moment (field-independent basis, Debye-Ang**3):
 XXXX=         -11041.6387 YYYY=          -1001.5067 ZZZZ=           -528.0990 XXXY=            498.9004
 XXXZ=            903.3947 YYYX=             20.0502 YYYZ=             15.0896 ZZZX=              9.6677
 ZZZY=             -0.4705 XXYY=          -2108.8809 XXZZ=          -2179.6213 YYZZ=           -259.5911
 XXYZ=            -29.5346 YYXZ=             12.6808 ZZXY=             11.0662
 N-N= 1.585923081133D+03 E-N=-5.481313671096D+03  KE= 9.813345466322D+02
 1\1\GINC-NODE006\FOpt\RB3LYP\6-31G(d)\C12H22N4O4\MANAGER\29-Dec-2016\0
 \\# b3lyp/6-31G* Opt=(ModRedundant, maxcycles=1000, calcfc) geom=nocro
 wd\\Phi Psi fixed scan\\0,1\H,5.7673260675,0.9509697051,-3.4284688593\
 C,5.0738402618,1.7592277713,-3.1758954178\H,4.1081133019,1.2990666997,
 -2.9448272621\H,4.9586196221,2.4140433054,-4.0451792132\C,5.5852527799
 ,2.4750093947,-1.9334819405\O,5.7607038077,1.8870442582,-0.869605613\N
 ,5.8330228378,3.8053472399,-2.0842053029\H,5.6577429336,4.2929967325,-
 2.9543300992\C,6.2931559226,4.6372509269,-0.9884650183\H,5.7748702114,
 4.3162662196,-0.0773786784\C,7.8149376084,4.5167285506,-0.7643503815\H
 ,8.3499319617,4.7793942377,-1.6826224349\H,8.1570249252,5.1879281458,0
 .0299133889\H,8.0505607759,3.4840336455,-0.4945367018\C,5.9189046679,6
 .0835507394,-1.3290849447\O,5.7643079728,6.4505642848,-2.4901883865\N,
 5.7544427036,6.912419128,-0.2501953872\H,6.1394221165,6.5697614788,0.6
 227569172\C,5.823421568,8.355685054,-0.4136595464\H,5.5317695318,8.555
 1820935,-1.4495083884\C,4.8493116513,9.0549109617,0.5476007128\H,5.122
 11852,8.8642207606,1.5923045452\H,4.8401609593,10.1390856553,0.3990162
 667\H,3.8358135715,8.6781650884,0.3834415407\C,7.2882532029,8.82154461
 01,-0.2203783407\O,8.1867762519,8.0321277733,0.0654534248\N,7.49618495
 86,10.154584358,-0.3467624016\H,6.7515510105,10.8082551515,-0.56421423
 18\C,8.7986280477,10.7661929147,-0.1573105963\H,9.2599925686,10.321845
 1254,0.7333728163\C,9.7308885171,10.5358821682,-1.3629452169\H,9.30618
 75708,10.986094489,-2.2660121172\H,10.7210574358,10.9725309597,-1.1899
 891129\H,9.8487897223,9.461169901,-1.5209596948\C,8.5436282894,12.2659
 237736,0.0744727346\O,7.4727373933,12.7845574978,-0.2343996777\N,9.586
 1293235,12.9527796584,0.609299299\H,10.4238001728,12.4429330168,0.8523
 718551\C,9.5516938803,14.386874119,0.8472733603\H,8.5697449975,14.7465
 095657,0.5383248061\H,9.6987044105,14.611393107,1.9096593185\H,10.3236
 759662,14.9022497336,0.2644939801\\Version=EM64L-G09RevA.02\State=1-A\
 HF=-990.5066957\RMSD=3.758e-09\RMSF=4.758e-04\Dipole=1.0976831,2.43650
 51,0.5417106\Quadrupole=7.0120358,-8.491929,1.4798932,11.6084393,3.368
 9925,12.4872936\PG=C01 [X(C12H22N4O4)]\\@


 YE HAVE SOWN MUCH, AND BRING IN LITTLE.
 YE EAT, BUT YE HAVE NOT ENOUGH.
 YE DRINK, BUT YE ARE NOT FILLED WITH DRINK.
 YE CLOTHE YOU, BUT THERE IS NONE WARM.
 AND HE THAT EARNETH WAGES EARNETH WAGES TO PUT
 IT INTO A BAG WITH HOLES.
                                     HAGGAI I,6
 Job cpu time:  0 days  2 hours 57 minutes 20.6 seconds.
 File lengths (MBytes):  RWF=    608 Int=      0 D2E=      0 Chk=     11 Scr=      1
 Normal termination of Gaussian 09 at Thu Dec 29 17:30:47 2016.
