 Entering Gaussian System, Link 0=g09
 Initial command:
 /home/steboss/Software/g09/l1.exe /tmp/Gau-21110.inp -scrdir=/tmp/
 Entering Link 1 = /home/steboss/Software/g09/l1.exe PID=     21112.
  
 Copyright (c) 1988,1990,1992,1993,1995,1998,2003,2009, Gaussian, Inc.
                  All Rights Reserved.
  
 This is part of the Gaussian(R) 09 program.  It is based on
 the Gaussian(R) 03 system (copyright 2003, Gaussian, Inc.),
 the Gaussian(R) 98 system (copyright 1998, Gaussian, Inc.),
 the Gaussian(R) 94 system (copyright 1995, Gaussian, Inc.),
 the Gaussian 92(TM) system (copyright 1992, Gaussian, Inc.),
 the Gaussian 90(TM) system (copyright 1990, Gaussian, Inc.),
 the Gaussian 88(TM) system (copyright 1988, Gaussian, Inc.),
 the Gaussian 86(TM) system (copyright 1986, Carnegie Mellon
 University), and the Gaussian 82(TM) system (copyright 1983,
 Carnegie Mellon University). Gaussian is a federally registered
 trademark of Gaussian, Inc.
  
 This software contains proprietary and confidential information,
 including trade secrets, belonging to Gaussian, Inc.
  
 This software is provided under written license and may be
 used, copied, transmitted, or stored only in accord with that
 written license.
  
 The following legend is applicable only to US Government
 contracts under FAR:
  
                    RESTRICTED RIGHTS LEGEND
  
 Use, reproduction and disclosure by the US Government is
 subject to restrictions as set forth in subparagraphs (a)
 and (c) of the Commercial Computer Software - Restricted
 Rights clause in FAR 52.227-19.
  
 Gaussian, Inc.
 340 Quinnipiac St., Bldg. 40, Wallingford CT 06492
  
  
 ---------------------------------------------------------------
 Warning -- This program may not be used in any manner that
 competes with the business of Gaussian, Inc. or will provide
 assistance to any competitor of Gaussian, Inc.  The licensee
 of this program is prohibited from giving any competitor of
 Gaussian, Inc. access to this program.  By using this program,
 the user acknowledges that Gaussian, Inc. is engaged in the
 business of creating and licensing software in the field of
 computational chemistry and represents and warrants to the
 licensee that it is not a competitor of Gaussian, Inc. and that
 it will not use this program in any manner prohibited above.
 ---------------------------------------------------------------
  

 Cite this work as:
 Gaussian 09, Revision A.02,
 M. J. Frisch, G. W. Trucks, H. B. Schlegel, G. E. Scuseria, 
 M. A. Robb, J. R. Cheeseman, G. Scalmani, V. Barone, B. Mennucci, 
 G. A. Petersson, H. Nakatsuji, M. Caricato, X. Li, H. P. Hratchian, 
 A. F. Izmaylov, J. Bloino, G. Zheng, J. L. Sonnenberg, M. Hada, 
 M. Ehara, K. Toyota, R. Fukuda, J. Hasegawa, M. Ishida, T. Nakajima, 
 Y. Honda, O. Kitao, H. Nakai, T. Vreven, J. A. Montgomery, Jr., 
 J. E. Peralta, F. Ogliaro, M. Bearpark, J. J. Heyd, E. Brothers, 
 K. N. Kudin, V. N. Staroverov, R. Kobayashi, J. Normand, 
 K. Raghavachari, A. Rendell, J. C. Burant, S. S. Iyengar, J. Tomasi, 
 M. Cossi, N. Rega, J. M. Millam, M. Klene, J. E. Knox, J. B. Cross, 
 V. Bakken, C. Adamo, J. Jaramillo, R. Gomperts, R. E. Stratmann, 
 O. Yazyev, A. J. Austin, R. Cammi, C. Pomelli, J. W. Ochterski, 
 R. L. Martin, K. Morokuma, V. G. Zakrzewski, G. A. Voth, 
 P. Salvador, J. J. Dannenberg, S. Dapprich, A. D. Daniels, 
 O. Farkas, J. B. Foresman, J. V. Ortiz, J. Cioslowski, 
 and D. J. Fox, Gaussian, Inc., Wallingford CT, 2009.
 
 ******************************************
 Gaussian 09:  EM64L-G09RevA.02 11-Jun-2009
                29-Dec-2016 
 ******************************************
 %chk=structure_330.chk
 ----------------------------------------------------------------------
 # b3lyp/6-31G* Opt=(ModRedundant, maxcycles=1000, calcfc) geom=nocrowd
 ----------------------------------------------------------------------
 1/6=1000,10=4,14=-1,18=120,19=15,26=3,38=1/1,3;
 2/9=110,12=1,17=6,18=5,40=1/2;
 3/5=1,6=6,7=1,11=2,16=1,25=1,30=1,71=2,74=-5/1,2,3;
 4//1;
 5/5=2,38=5/2;
 8/6=4,10=90,11=11/1;
 11/6=1,8=1,9=11,15=111,16=1/1,2,10;
 10/6=1,7=6,13=1/2;
 6/7=2,8=2,9=2,10=2,28=1/1;
 7/10=1,18=20,25=1/1,2,3,16;
 1/6=1000,10=4,14=-1,18=20,19=15/3(2);
 2/9=110,12=1/2;
 99//99;
 2/9=110,12=1/2;
 3/5=1,6=6,7=1,11=2,16=1,25=1,30=1,71=1,74=-5/1,2,3;
 4/5=5,16=3/1;
 5/5=2,38=5/2;
 7//1,2,3,16;
 1/6=1000,14=-1,18=20,19=15/3(-5);
 2/9=110,12=1/2;
 6/7=2,8=2,9=2,10=2,19=2,28=1/1;
 99/9=1/99;
 ------------------
 Phi Psi fixed scan
 ------------------
 Symbolic Z-matrix:
 Charge =  0 Multiplicity = 1
 H                     5.846     1.       -3.8461 
 C                     5.846     2.09     -3.8461 
 H                     4.9562    2.4539   -4.3598 
 H                     6.7359    2.4539   -4.3598 
 C                     5.846     2.6408   -2.4186 
 O                     5.846     1.8774   -1.4555 
 N                     5.846     3.9697   -2.2907 
 H                     5.846     4.5562   -3.1129 
 C                     5.846     4.6139   -0.9928 
 H                     4.9562    4.3155   -0.4385 
 C                     7.0782    4.2208   -0.1847 
 H                     7.9772    4.5214   -0.7228 
 H                     7.0518    4.7189    0.7844 
 H                     7.0874    3.1409   -0.0375 
 C                     5.846     6.1294   -1.1334 
 O                     5.846     6.6527   -2.2454 
 N                     5.846     6.8349    0. 
 H                     5.846     6.3592    0.891 
 C                     5.8461    8.2839    0. 
 H                     5.3323    8.6477   -0.8898 
 C                     5.1347    8.8329    1.2322 
 H                     5.6431    8.4846    2.1312 
 H                     5.1499    9.9224    1.2058 
 H                     4.1019    8.4846    1.2414 
 C                     7.266     8.8318    0. 
 O                     7.5178    9.9119   -0.5295 
 N                     8.1959    8.0825    0.5968 
 H                     7.94      7.2011    1.0184 
 C                     9.5837    8.4938    0.6638 
 H                     9.9771    8.6124   -0.3458 
 C                     9.7281    9.8203    1.402 
 H                     9.3467    9.7149    2.4177 
 H                     10.7799   10.1045   1.4371 
 H                     9.1613    10.591    0.8797 
 C                     10.4269   7.4597    1.396 
 O                     9.9117    6.4361    1.8403 
 N                     11.7283   7.7297    1.5211 
 H                     12.1056   8.585     1.1388 
 C                     12.6364   6.8252    2.197 
 H                     12.0854   5.9542    2.5517 
 H                     13.4141   6.505     1.5036 
 H                     13.0938   7.3352    3.0448 
 
 The following ModRedundant input section has been read:
 D   15   17   19   25 F                                                       
 D   17   19   25   27 F                                                       

 GradGradGradGradGradGradGradGradGradGradGradGradGradGradGradGradGradGrad
 Berny optimization.
 Initialization pass.
                           ----------------------------
                           !    Initial Parameters    !
                           ! (Angstroms and Degrees)  !
 --------------------------                            --------------------------
 ! Name  Definition              Value          Derivative Info.                !
 --------------------------------------------------------------------------------
 ! R1    R(1,2)                  1.09           calculate D2E/DX2 analytically  !
 ! R2    R(2,3)                  1.09           calculate D2E/DX2 analytically  !
 ! R3    R(2,4)                  1.0901         calculate D2E/DX2 analytically  !
 ! R4    R(2,5)                  1.5301         calculate D2E/DX2 analytically  !
 ! R5    R(5,6)                  1.229          calculate D2E/DX2 analytically  !
 ! R6    R(5,7)                  1.335          calculate D2E/DX2 analytically  !
 ! R7    R(7,8)                  1.0099         calculate D2E/DX2 analytically  !
 ! R8    R(7,9)                  1.449          calculate D2E/DX2 analytically  !
 ! R9    R(9,10)                 1.09           calculate D2E/DX2 analytically  !
 ! R10   R(9,11)                 1.5251         calculate D2E/DX2 analytically  !
 ! R11   R(9,15)                 1.522          calculate D2E/DX2 analytically  !
 ! R12   R(11,12)                1.09           calculate D2E/DX2 analytically  !
 ! R13   R(11,13)                1.0899         calculate D2E/DX2 analytically  !
 ! R14   R(11,14)                1.0899         calculate D2E/DX2 analytically  !
 ! R15   R(15,16)                1.229          calculate D2E/DX2 analytically  !
 ! R16   R(15,17)                1.335          calculate D2E/DX2 analytically  !
 ! R17   R(17,18)                1.01           calculate D2E/DX2 analytically  !
 ! R18   R(17,19)                1.449          calculate D2E/DX2 analytically  !
 ! R19   R(19,20)                1.09           calculate D2E/DX2 analytically  !
 ! R20   R(19,21)                1.5251         calculate D2E/DX2 analytically  !
 ! R21   R(19,25)                1.5219         calculate D2E/DX2 analytically  !
 ! R22   R(21,22)                1.0899         calculate D2E/DX2 analytically  !
 ! R23   R(21,23)                1.0899         calculate D2E/DX2 analytically  !
 ! R24   R(21,24)                1.09           calculate D2E/DX2 analytically  !
 ! R25   R(25,26)                1.229          calculate D2E/DX2 analytically  !
 ! R26   R(25,27)                1.335          calculate D2E/DX2 analytically  !
 ! R27   R(27,28)                1.01           calculate D2E/DX2 analytically  !
 ! R28   R(27,29)                1.449          calculate D2E/DX2 analytically  !
 ! R29   R(29,30)                1.09           calculate D2E/DX2 analytically  !
 ! R30   R(29,31)                1.5249         calculate D2E/DX2 analytically  !
 ! R31   R(29,35)                1.522          calculate D2E/DX2 analytically  !
 ! R32   R(31,32)                1.0901         calculate D2E/DX2 analytically  !
 ! R33   R(31,33)                1.0901         calculate D2E/DX2 analytically  !
 ! R34   R(31,34)                1.09           calculate D2E/DX2 analytically  !
 ! R35   R(35,36)                1.2291         calculate D2E/DX2 analytically  !
 ! R36   R(35,37)                1.335          calculate D2E/DX2 analytically  !
 ! R37   R(37,38)                1.01           calculate D2E/DX2 analytically  !
 ! R38   R(37,39)                1.449          calculate D2E/DX2 analytically  !
 ! R39   R(39,40)                1.09           calculate D2E/DX2 analytically  !
 ! R40   R(39,41)                1.09           calculate D2E/DX2 analytically  !
 ! R41   R(39,42)                1.09           calculate D2E/DX2 analytically  !
 ! A1    A(1,2,3)              109.5032         calculate D2E/DX2 analytically  !
 ! A2    A(1,2,4)              109.5017         calculate D2E/DX2 analytically  !
 ! A3    A(1,2,5)              111.0991         calculate D2E/DX2 analytically  !
 ! A4    A(3,2,4)              109.4443         calculate D2E/DX2 analytically  !
 ! A5    A(3,2,5)              108.6335         calculate D2E/DX2 analytically  !
 ! A6    A(4,2,5)              108.6321         calculate D2E/DX2 analytically  !
 ! A7    A(2,5,6)              120.4989         calculate D2E/DX2 analytically  !
 ! A8    A(2,5,7)              116.5966         calculate D2E/DX2 analytically  !
 ! A9    A(6,5,7)              122.9046         calculate D2E/DX2 analytically  !
 ! A10   A(5,7,8)              120.0039         calculate D2E/DX2 analytically  !
 ! A11   A(5,7,9)              121.8946         calculate D2E/DX2 analytically  !
 ! A12   A(8,7,9)              118.1015         calculate D2E/DX2 analytically  !
 ! A13   A(7,9,10)             109.5            calculate D2E/DX2 analytically  !
 ! A14   A(7,9,11)             111.1021         calculate D2E/DX2 analytically  !
 ! A15   A(7,9,15)             111.0966         calculate D2E/DX2 analytically  !
 ! A16   A(10,9,11)            108.6355         calculate D2E/DX2 analytically  !
 ! A17   A(10,9,15)            108.6373         calculate D2E/DX2 analytically  !
 ! A18   A(11,9,15)            107.7945         calculate D2E/DX2 analytically  !
 ! A19   A(9,11,12)            109.4942         calculate D2E/DX2 analytically  !
 ! A20   A(9,11,13)            109.4975         calculate D2E/DX2 analytically  !
 ! A21   A(9,11,14)            109.4977         calculate D2E/DX2 analytically  !
 ! A22   A(12,11,13)           109.4439         calculate D2E/DX2 analytically  !
 ! A23   A(12,11,14)           109.4481         calculate D2E/DX2 analytically  !
 ! A24   A(13,11,14)           109.446          calculate D2E/DX2 analytically  !
 ! A25   A(9,15,16)            120.5018         calculate D2E/DX2 analytically  !
 ! A26   A(9,15,17)            116.6003         calculate D2E/DX2 analytically  !
 ! A27   A(16,15,17)           122.8979         calculate D2E/DX2 analytically  !
 ! A28   A(15,17,18)           120.0017         calculate D2E/DX2 analytically  !
 ! A29   A(15,17,19)           121.9008         calculate D2E/DX2 analytically  !
 ! A30   A(18,17,19)           118.0975         calculate D2E/DX2 analytically  !
 ! A31   A(17,19,20)           109.4954         calculate D2E/DX2 analytically  !
 ! A32   A(17,19,21)           111.0974         calculate D2E/DX2 analytically  !
 ! A33   A(17,19,25)           111.1042         calculate D2E/DX2 analytically  !
 ! A34   A(20,19,21)           108.6349         calculate D2E/DX2 analytically  !
 ! A35   A(20,19,25)           108.6399         calculate D2E/DX2 analytically  !
 ! A36   A(21,19,25)           107.7944         calculate D2E/DX2 analytically  !
 ! A37   A(19,21,22)           109.4996         calculate D2E/DX2 analytically  !
 ! A38   A(19,21,23)           109.4977         calculate D2E/DX2 analytically  !
 ! A39   A(19,21,24)           109.4988         calculate D2E/DX2 analytically  !
 ! A40   A(22,21,23)           109.4452         calculate D2E/DX2 analytically  !
 ! A41   A(22,21,24)           109.4447         calculate D2E/DX2 analytically  !
 ! A42   A(23,21,24)           109.4412         calculate D2E/DX2 analytically  !
 ! A43   A(19,25,26)           120.5            calculate D2E/DX2 analytically  !
 ! A44   A(19,25,27)           116.6013         calculate D2E/DX2 analytically  !
 ! A45   A(26,25,27)           122.8987         calculate D2E/DX2 analytically  !
 ! A46   A(25,27,28)           119.9945         calculate D2E/DX2 analytically  !
 ! A47   A(25,27,29)           121.9018         calculate D2E/DX2 analytically  !
 ! A48   A(28,27,29)           118.1037         calculate D2E/DX2 analytically  !
 ! A49   A(27,29,30)           109.495          calculate D2E/DX2 analytically  !
 ! A50   A(27,29,31)           111.0996         calculate D2E/DX2 analytically  !
 ! A51   A(27,29,35)           111.0997         calculate D2E/DX2 analytically  !
 ! A52   A(30,29,31)           108.636          calculate D2E/DX2 analytically  !
 ! A53   A(30,29,35)           108.6368         calculate D2E/DX2 analytically  !
 ! A54   A(31,29,35)           107.7992         calculate D2E/DX2 analytically  !
 ! A55   A(29,31,32)           109.5011         calculate D2E/DX2 analytically  !
 ! A56   A(29,31,33)           109.4962         calculate D2E/DX2 analytically  !
 ! A57   A(29,31,34)           109.5036         calculate D2E/DX2 analytically  !
 ! A58   A(32,31,33)           109.4393         calculate D2E/DX2 analytically  !
 ! A59   A(32,31,34)           109.4462         calculate D2E/DX2 analytically  !
 ! A60   A(33,31,34)           109.4409         calculate D2E/DX2 analytically  !
 ! A61   A(29,35,36)           120.4997         calculate D2E/DX2 analytically  !
 ! A62   A(29,35,37)           116.5986         calculate D2E/DX2 analytically  !
 ! A63   A(36,35,37)           122.9017         calculate D2E/DX2 analytically  !
 ! A64   A(35,37,38)           119.9986         calculate D2E/DX2 analytically  !
 ! A65   A(35,37,39)           121.8976         calculate D2E/DX2 analytically  !
 ! A66   A(38,37,39)           118.1038         calculate D2E/DX2 analytically  !
 ! A67   A(37,39,40)           109.4996         calculate D2E/DX2 analytically  !
 ! A68   A(37,39,41)           109.4981         calculate D2E/DX2 analytically  !
 ! A69   A(37,39,42)           109.4955         calculate D2E/DX2 analytically  !
 ! A70   A(40,39,41)           109.4474         calculate D2E/DX2 analytically  !
 ! A71   A(40,39,42)           109.4457         calculate D2E/DX2 analytically  !
 ! A72   A(41,39,42)           109.441          calculate D2E/DX2 analytically  !
 ! D1    D(1,2,5,6)              0.0            calculate D2E/DX2 analytically  !
 ! D2    D(1,2,5,7)            180.0            calculate D2E/DX2 analytically  !
 ! D3    D(3,2,5,6)            120.5141         calculate D2E/DX2 analytically  !
 ! D4    D(3,2,5,7)            -59.4859         calculate D2E/DX2 analytically  !
 ! D5    D(4,2,5,6)           -120.5112         calculate D2E/DX2 analytically  !
 ! D6    D(4,2,5,7)             59.4888         calculate D2E/DX2 analytically  !
 ! D7    D(2,5,7,8)              0.0            calculate D2E/DX2 analytically  !
 ! D8    D(2,5,7,9)            180.0            calculate D2E/DX2 analytically  !
 ! D9    D(6,5,7,8)            180.0            calculate D2E/DX2 analytically  !
 ! D10   D(6,5,7,9)              0.0            calculate D2E/DX2 analytically  !
 ! D11   D(5,7,9,10)           -60.0002         calculate D2E/DX2 analytically  !
 ! D12   D(5,7,9,11)            60.0009         calculate D2E/DX2 analytically  !
 ! D13   D(5,7,9,15)           180.0            calculate D2E/DX2 analytically  !
 ! D14   D(8,7,9,10)           119.9998         calculate D2E/DX2 analytically  !
 ! D15   D(8,7,9,11)          -119.9991         calculate D2E/DX2 analytically  !
 ! D16   D(8,7,9,15)             0.0            calculate D2E/DX2 analytically  !
 ! D17   D(7,9,11,12)           59.9998         calculate D2E/DX2 analytically  !
 ! D18   D(7,9,11,13)          179.9965         calculate D2E/DX2 analytically  !
 ! D19   D(7,9,11,14)          -60.0021         calculate D2E/DX2 analytically  !
 ! D20   D(10,9,11,12)        -179.4869         calculate D2E/DX2 analytically  !
 ! D21   D(10,9,11,13)         -59.4902         calculate D2E/DX2 analytically  !
 ! D22   D(10,9,11,14)          60.5112         calculate D2E/DX2 analytically  !
 ! D23   D(15,9,11,12)         -61.9422         calculate D2E/DX2 analytically  !
 ! D24   D(15,9,11,13)          58.0545         calculate D2E/DX2 analytically  !
 ! D25   D(15,9,11,14)         178.0559         calculate D2E/DX2 analytically  !
 ! D26   D(7,9,15,16)            0.0            calculate D2E/DX2 analytically  !
 ! D27   D(7,9,15,17)          180.0            calculate D2E/DX2 analytically  !
 ! D28   D(10,9,15,16)        -120.5111         calculate D2E/DX2 analytically  !
 ! D29   D(10,9,15,17)          59.4889         calculate D2E/DX2 analytically  !
 ! D30   D(11,9,15,16)         121.9454         calculate D2E/DX2 analytically  !
 ! D31   D(11,9,15,17)         -58.0546         calculate D2E/DX2 analytically  !
 ! D32   D(9,15,17,18)           0.0            calculate D2E/DX2 analytically  !
 ! D33   D(9,15,17,19)         179.9953         calculate D2E/DX2 analytically  !
 ! D34   D(16,15,17,18)        180.0            calculate D2E/DX2 analytically  !
 ! D35   D(16,15,17,19)         -0.0047         calculate D2E/DX2 analytically  !
 ! D36   D(15,17,19,20)         30.0072         calculate D2E/DX2 analytically  !
 ! D37   D(15,17,19,21)        150.0015         calculate D2E/DX2 analytically  !
 ! D38   D(15,17,19,25)        -89.9975         frozen, calculate D2E/DX2 analyt!
 ! D39   D(18,17,19,20)       -149.9973         calculate D2E/DX2 analytically  !
 ! D40   D(18,17,19,21)        -30.003          calculate D2E/DX2 analytically  !
 ! D41   D(18,17,19,25)         89.9979         calculate D2E/DX2 analytically  !
 ! D42   D(17,19,21,22)         60.0039         calculate D2E/DX2 analytically  !
 ! D43   D(17,19,21,23)       -179.9943         calculate D2E/DX2 analytically  !
 ! D44   D(17,19,21,24)        -59.998          calculate D2E/DX2 analytically  !
 ! D45   D(20,19,21,22)       -179.4919         calculate D2E/DX2 analytically  !
 ! D46   D(20,19,21,23)        -59.4901         calculate D2E/DX2 analytically  !
 ! D47   D(20,19,21,24)         60.5062         calculate D2E/DX2 analytically  !
 ! D48   D(25,19,21,22)        -61.9445         calculate D2E/DX2 analytically  !
 ! D49   D(25,19,21,23)         58.0573         calculate D2E/DX2 analytically  !
 ! D50   D(25,19,21,24)        178.0536         calculate D2E/DX2 analytically  !
 ! D51   D(17,19,25,26)        149.9976         calculate D2E/DX2 analytically  !
 ! D52   D(17,19,25,27)        -29.9967         frozen, calculate D2E/DX2 analyt!
 ! D53   D(20,19,25,26)         29.486          calculate D2E/DX2 analytically  !
 ! D54   D(20,19,25,27)       -150.5084         calculate D2E/DX2 analytically  !
 ! D55   D(21,19,25,26)        -88.0582         calculate D2E/DX2 analytically  !
 ! D56   D(21,19,25,27)         91.9475         calculate D2E/DX2 analytically  !
 ! D57   D(19,25,27,28)         -0.0049         calculate D2E/DX2 analytically  !
 ! D58   D(19,25,27,29)       -179.9959         calculate D2E/DX2 analytically  !
 ! D59   D(26,25,27,28)       -179.9991         calculate D2E/DX2 analytically  !
 ! D60   D(26,25,27,29)          0.0099         calculate D2E/DX2 analytically  !
 ! D61   D(25,27,29,30)        -60.0042         calculate D2E/DX2 analytically  !
 ! D62   D(25,27,29,31)         59.9925         calculate D2E/DX2 analytically  !
 ! D63   D(25,27,29,35)        179.998          calculate D2E/DX2 analytically  !
 ! D64   D(28,27,29,30)        120.0047         calculate D2E/DX2 analytically  !
 ! D65   D(28,27,29,31)       -119.9987         calculate D2E/DX2 analytically  !
 ! D66   D(28,27,29,35)          0.0069         calculate D2E/DX2 analytically  !
 ! D67   D(27,29,31,32)         60.0056         calculate D2E/DX2 analytically  !
 ! D68   D(27,29,31,33)       -179.9999         calculate D2E/DX2 analytically  !
 ! D69   D(27,29,31,34)        -60.002          calculate D2E/DX2 analytically  !
 ! D70   D(30,29,31,32)       -179.4887         calculate D2E/DX2 analytically  !
 ! D71   D(30,29,31,33)        -59.4941         calculate D2E/DX2 analytically  !
 ! D72   D(30,29,31,34)         60.5038         calculate D2E/DX2 analytically  !
 ! D73   D(35,29,31,32)        -61.9418         calculate D2E/DX2 analytically  !
 ! D74   D(35,29,31,33)         58.0527         calculate D2E/DX2 analytically  !
 ! D75   D(35,29,31,34)        178.0506         calculate D2E/DX2 analytically  !
 ! D76   D(27,29,35,36)         -0.0069         calculate D2E/DX2 analytically  !
 ! D77   D(27,29,35,37)        179.9985         calculate D2E/DX2 analytically  !
 ! D78   D(30,29,35,36)       -120.5132         calculate D2E/DX2 analytically  !
 ! D79   D(30,29,35,37)         59.4922         calculate D2E/DX2 analytically  !
 ! D80   D(31,29,35,36)        121.9404         calculate D2E/DX2 analytically  !
 ! D81   D(31,29,35,37)        -58.0542         calculate D2E/DX2 analytically  !
 ! D82   D(29,35,37,38)         -0.0052         calculate D2E/DX2 analytically  !
 ! D83   D(29,35,37,39)        179.9997         calculate D2E/DX2 analytically  !
 ! D84   D(36,35,37,38)       -179.9997         calculate D2E/DX2 analytically  !
 ! D85   D(36,35,37,39)          0.0053         calculate D2E/DX2 analytically  !
 ! D86   D(35,37,39,40)         -0.0066         calculate D2E/DX2 analytically  !
 ! D87   D(35,37,39,41)        119.9981         calculate D2E/DX2 analytically  !
 ! D88   D(35,37,39,42)       -120.0076         calculate D2E/DX2 analytically  !
 ! D89   D(38,37,39,40)        179.9982         calculate D2E/DX2 analytically  !
 ! D90   D(38,37,39,41)        -59.9971         calculate D2E/DX2 analytically  !
 ! D91   D(38,37,39,42)         59.9972         calculate D2E/DX2 analytically  !
 --------------------------------------------------------------------------------
 Trust Radius=3.00D-01 FncErr=1.00D-07 GrdErr=1.00D-06
 Number of steps in this run= 252 maximum allowed number of steps= 252.
 GradGradGradGradGradGradGradGradGradGradGradGradGradGradGradGradGradGrad

                          Input orientation:                          
 ---------------------------------------------------------------------
 Center     Atomic      Atomic             Coordinates (Angstroms)
 Number     Number       Type             X           Y           Z
 ---------------------------------------------------------------------
      1          1           0        5.846000    1.000000   -3.846100
      2          6           0        5.846000    2.090000   -3.846100
      3          1           0        4.956200    2.453900   -4.359800
      4          1           0        6.735900    2.453900   -4.359800
      5          6           0        5.846000    2.640800   -2.418600
      6          8           0        5.846000    1.877400   -1.455500
      7          7           0        5.846000    3.969700   -2.290700
      8          1           0        5.846000    4.556200   -3.112900
      9          6           0        5.846000    4.613900   -0.992800
     10          1           0        4.956200    4.315500   -0.438500
     11          6           0        7.078200    4.220800   -0.184700
     12          1           0        7.977200    4.521400   -0.722800
     13          1           0        7.051800    4.718900    0.784400
     14          1           0        7.087400    3.140900   -0.037500
     15          6           0        5.846000    6.129400   -1.133400
     16          8           0        5.846000    6.652700   -2.245400
     17          7           0        5.846000    6.834900    0.000000
     18          1           0        5.846000    6.359200    0.891000
     19          6           0        5.846100    8.283900    0.000000
     20          1           0        5.332300    8.647700   -0.889800
     21          6           0        5.134700    8.832900    1.232200
     22          1           0        5.643100    8.484600    2.131200
     23          1           0        5.149900    9.922400    1.205800
     24          1           0        4.101900    8.484600    1.241400
     25          6           0        7.266000    8.831800    0.000000
     26          8           0        7.517800    9.911900   -0.529500
     27          7           0        8.195900    8.082500    0.596800
     28          1           0        7.940000    7.201100    1.018400
     29          6           0        9.583700    8.493800    0.663800
     30          1           0        9.977100    8.612400   -0.345800
     31          6           0        9.728100    9.820300    1.402000
     32          1           0        9.346700    9.714900    2.417700
     33          1           0       10.779900   10.104500    1.437100
     34          1           0        9.161300   10.591000    0.879700
     35          6           0       10.426900    7.459700    1.396000
     36          8           0        9.911700    6.436100    1.840300
     37          7           0       11.728300    7.729700    1.521100
     38          1           0       12.105600    8.585000    1.138800
     39          6           0       12.636400    6.825200    2.197000
     40          1           0       12.085400    5.954200    2.551700
     41          1           0       13.414100    6.505000    1.503600
     42          1           0       13.093800    7.335200    3.044800
 ---------------------------------------------------------------------
                    Distance matrix (angstroms):
                    1          2          3          4          5
     1  H    0.000000
     2  C    1.090000   0.000000
     3  H    1.780297   1.089979   0.000000
     4  H    1.780347   1.090061   1.779700   0.000000
     5  C    2.174852   1.530077   2.143580   2.143621   0.000000
     6  O    2.546527   2.400035   3.091772   3.091801   1.228959
     7  N    3.352370   2.439783   2.714879   2.714912   1.335041
     8  H    3.630997   2.572883   2.601186   2.601220   2.037354
     9  C    4.604519   3.809382   4.098052   4.098074   2.434344
    10  H    4.836943   4.166093   4.340754   4.691426   2.741744
    11  C    5.029684   4.411856   5.005625   4.546489   3.000838
    12  H    5.166941   4.495411   5.160307   4.363846   3.309744
    13  H    6.060173   5.459542   5.998713   5.629637   4.003956
    14  H    4.542022   4.141364   4.867880   4.390649   2.731449
    15  C    5.802541   4.865747   4.970986   4.971004   3.717804
    16  O    5.874969   4.835336   4.784595   4.784614   4.015637
    17  N    6.988458   6.107910   6.244418   6.244433   4.841498
    18  H    7.152702   6.377004   6.604091   6.604104   4.977946
    19  C    8.236971   7.290877   7.334076   7.334064   6.139561
    20  H    8.215285   7.211590   7.109537   7.236999   6.219643
    21  C    9.362126   8.471232   8.484926   8.632841   7.223323
    22  H    9.580633   8.755581   8.886746   8.927297   7.408903
    23  H   10.276939   9.346269   9.316218   9.448269   8.163488
    24  H    9.216495   8.355564   8.274818   8.641802   7.112488
    25  C    8.840021   7.890548   8.063538   7.743802   6.796654
    26  O    9.654880   8.658919   8.766684   8.420471   7.696266
    27  N    8.684653   7.821218   8.169742   7.640721   6.650321
    28  H    8.154866   7.360132   7.769428   7.273981   6.082281
    29  C    9.511395   8.678609   9.117604   8.356250   7.597973
    30  H    9.341666   8.477015   8.902177   8.033971   7.551324
    31  C   10.973192  10.117845  10.499201   9.819137   9.011820
    32  H   11.288914  10.470396  10.859702  10.270000   9.256759
    33  H   11.625295  10.792951  11.227253  10.415837   9.742516
    34  H   11.194270  10.275768  10.552138   9.977340   9.223648
    35  C    9.496946   8.791924   9.387003   8.474122   7.665352
    36  O    8.855295   8.231260   8.880098   8.024018   7.005173
    37  N   10.425793   9.757792  10.405786   9.345753   8.718922
    38  H   11.025609  10.306156  10.905912   9.831514   9.336552
    39  C   10.796367  10.249425  11.003879   9.844582   9.215340
    40  H   10.217928   9.736221  10.528363   9.414780   8.637859
    41  H   10.779631  10.265849  11.060151   9.766741   9.359051
    42  H   11.838491  11.292796  12.036433  10.912290  10.218451
                    6          7          8          9         10
     6  O    0.000000
     7  N    2.252838   0.000000
     8  H    3.150071   1.009948   0.000000
     9  C    2.775342   1.448978   2.120885   0.000000
    10  H    2.787537   2.083739   2.828798   1.089970   0.000000
    11  C    2.936796   2.452877   3.194552   1.525080   2.139221
    12  H    3.474133   2.702720   3.202468   2.150225   3.041326
    13  H    3.813821   3.386959   4.082814   2.150214   2.459625
    14  H    2.268971   2.702757   3.605861   2.150210   2.466272
    15  C    4.264183   2.450234   2.528513   1.522008   2.136554
    16  O    4.840189   2.683382   2.268891   2.392846   3.085310
    17  N    5.166748   3.668334   3.857800   2.432795   2.707656
    18  H    5.058912   3.979061   4.391130   2.568029   2.595385
    19  C    6.569758   4.884632   4.856531   3.801914   4.090526
    20  H    6.813286   4.910203   4.684702   4.067682   4.371851
    21  C    7.490571   6.047106   6.138078   4.822503   4.819751
    22  H    7.520683   6.322870   6.555462   4.978239   4.945360
    23  H    8.502300   6.938639   6.923282   5.787795   5.846244
    24  H    7.346444   5.991823   6.118345   4.797484   4.575291
    25  C    7.245589   5.559112   5.476066   4.559905   5.091603
    26  O    8.258667   6.419227   6.176762   5.574797   6.155467
    27  N    6.945303   5.547505   5.631935   4.481076   5.075213
    28  H    6.232720   5.077098   5.333664   3.888877   4.399126
    29  C    7.889143   6.570156   6.613513   5.636342   6.331431
    30  H    7.978574   6.511781   6.416821   5.785551   6.609189
    31  C    9.291161   7.933237   7.947690   6.921876   7.514073
    32  H    9.417164   8.211654   8.333944   7.064461   7.522492
    33  H   10.019764   8.710662   8.708014   7.771388   8.422938
    34  H    9.610994   8.055077   7.959327   7.086832   7.668273
    35  C    7.763876   6.837873   7.053023   5.898270   6.571145
    36  O    6.940746   6.299064   6.678183   5.279847   5.852081
    37  N    8.815385   7.954173   8.133051   7.115431   7.833143
    38  H    9.534405   8.499709   8.572676   7.713362   8.475283
    39  C    9.161387   8.625709   8.913637   7.821394   8.498819
    40  H    8.462155   8.143537   8.542377   7.300000   7.902666
    41  H    9.351315   8.837454   9.076675   8.190507   8.949957
    42  H   10.127729   9.608577   9.908114   8.731454   9.352673
                   11         12         13         14         15
    11  C    0.000000
    12  H    1.090006   0.000000
    13  H    1.089934   1.779613   0.000000
    14  H    1.089925   1.779652   1.779570   0.000000
    15  C    2.461931   2.701161   2.668599   3.416607   0.000000
    16  O    3.417446   3.376798   3.791204   4.329969   1.228978
    17  N    2.895850   3.227497   2.558651   3.897193   1.335038
    18  H    2.692248   3.244052   2.038603   3.572204   2.037401
    19  C    4.249820   4.384111   3.844245   5.290811   2.434433
    20  H    4.810694   4.904053   4.603813   5.842229   2.581678
    21  C    5.201564   5.521853   4.560789   6.150125   3.662093
    22  H    5.059930   5.412975   4.240142   5.945115   4.030602
    23  H    6.177384   6.394054   5.556187   7.161595   4.510350
    24  H    5.391856   5.880730   4.805336   6.253313   3.772072
    25  C    4.618518   4.428069   4.192507   5.693825   3.256372
    26  O    5.718457   5.413493   5.376871   6.802481   4.179344
    27  N    4.095451   3.804025   3.557803   5.103971   3.511442
    28  H    3.327512   3.195928   2.646691   4.281013   3.188043
    29  C    5.025536   4.503717   4.546970   5.947846   4.773962
    30  H    5.264573   4.569246   4.999407   6.195380   4.883809
    31  C    6.394841   5.971496   5.793815   7.325288   5.926356
    32  H    6.488737   6.221793   5.735351   7.372240   6.141744
    33  H    7.137979   6.609940   6.582510   8.018773   6.837562
    34  H    6.786140   6.388282   6.240243   7.787574   5.911824
    35  C    4.919642   4.373094   4.390597   5.644397   5.399278
    36  O    4.127578   3.738696   3.498961   4.728757   5.046471
    37  N    6.070055   5.422087   5.610463   6.710013   6.648969
    38  H    6.787683   6.084578   6.372850   7.496949   7.097567
    39  C    6.583994   5.961616   6.133490   7.025557   7.595080
    40  H    5.963607   5.445418   5.475988   6.292743   7.248501
    41  H    6.943454   6.200920   6.647275   7.329345   8.023153
    42  H    7.504439   6.949236   6.961336   7.947928   8.452332
                   16         17         18         19         20
    16  O    0.000000
    17  N    2.252780   0.000000
    18  H    3.150103   1.010035   0.000000
    19  C    2.775362   1.449000   2.120932   0.000000
    20  H    2.466083   2.083717   2.944889   1.089993   0.000000
    21  C    4.165684   2.452808   2.596451   1.525060   2.139212
    22  H    4.748858   2.702719   2.469127   2.150233   3.041322
    23  H    4.804818   3.386911   3.644180   2.150193   2.459608
    24  H    4.307611   2.702678   2.771640   2.150253   2.466272
    25  C    3.436088   2.450308   2.987312   1.521943   2.136547
    26  O    4.044949   3.541640   4.175454   2.392767   2.550378
    27  N    3.955308   2.726666   2.928881   2.432754   3.275612
    28  H    3.916372   2.357133   2.260500   2.567881   3.540336
    29  C    5.081682   4.142823   4.310283   3.801887   4.528991
    30  H    4.951252   4.510551   4.865447   4.158443   4.676681
    31  C    6.197412   5.094008   5.225996   4.404095   5.094153
    32  H    6.586082   5.137565   5.083939   4.488567   5.309791
    33  H    7.058265   6.090887   6.218430   5.451809   6.100252
    34  H    6.022265   5.086588   5.375823   4.133659   4.644221
    35  C    5.907257   4.829476   4.738224   4.859203   5.708868
    36  O    5.767996   4.480587   4.175763   4.830132   5.771960
    37  N    7.067383   6.141324   6.072623   6.100915   6.896664
    38  H    7.373546   6.598660   6.648171   6.369369   7.070837
    39  C    8.116293   7.136977   6.930536   7.284421   8.136321
    40  H    7.901277   6.798303   6.469317   7.132148   8.043831
    41  H    8.447068   7.723068   7.594253   7.918328   8.696840
    42  H    8.999035   7.877291   7.623781   7.918333   8.800262
                   21         22         23         24         25
    21  C    0.000000
    22  H    1.089947   0.000000
    23  H    1.089926   1.779573   0.000000
    24  H    1.089988   1.779618   1.779562   0.000000
    25  C    2.461861   2.701179   2.668565   3.416599   0.000000
    26  O    3.153885   3.554013   2.935699   4.103857   1.228979
    27  N    3.215242   3.005471   3.610295   4.163896   1.335041
    28  H    3.252413   2.856824   3.901955   4.053161   2.037301
    29  C    4.497963   4.204958   4.689696   5.512154   2.434463
    30  H    5.097798   4.993538   5.236929   6.087160   2.741857
    31  C    4.701395   4.359249   4.583539   5.784809   3.000779
    32  H    4.463662   3.913103   4.373201   5.514095   3.309751
    33  H    5.790271   5.430706   5.637691   6.874450   4.004062
    34  H    4.407798   4.287296   4.079791   5.492292   2.731450
    35  C    5.469908   4.947290   5.826474   6.409364   3.717898
    36  O    5.379049   4.743619   5.935623   6.189411   4.015696
    37  N    6.691493   6.162123   6.941376   7.668773   4.841538
    38  H    6.975932   6.539025   7.083424   8.004987   4.977902
    39  C    7.825420   7.187780   8.162280   8.746683   6.139581
    40  H    7.638077   6.934189   8.103038   8.476797   6.165904
    41  H    8.604722   8.043702   8.947866   9.523898   6.743437
    42  H    8.299150   7.593992   8.554594   9.242707   6.743432
                   26         27         28         29         30
    26  O    0.000000
    27  N    2.252793   0.000000
    28  H    3.150029   1.009999   0.000000
    29  C    2.775413   1.449015   2.120982   0.000000
    30  H    2.787580   2.083738   2.828884   1.090010   0.000000
    31  C    2.936751   2.452740   3.194473   1.524924   2.139119
    32  H    3.474143   2.702730   3.202505   2.150214   3.041355
    33  H    3.813910   3.386982   4.082900   2.150173   2.459590
    34  H    2.268946   2.702703   3.605861   2.150182   2.466219
    35  C    4.264235   2.450298   2.528661   1.521994   2.136564
    36  O    4.840237   2.683448   2.268997   2.392878   3.085384
    37  N    5.166746   3.668330   3.857893   2.432719   2.707615
    38  H    5.058834   3.978948   4.391116   2.567863   2.595246
    39  C    6.569748   4.884617   4.856601   3.801829   4.090451
    40  H    6.783815   4.845566   4.592397   4.033886   4.461666
    41  H    7.106815   5.526337   5.539472   4.396880   4.435582
    42  H    7.106812   5.526354   5.539489   4.396853   4.779250
                   31         32         33         34         35
    31  C    0.000000
    32  H    1.090056   0.000000
    33  H    1.090085   1.779727   0.000000
    34  H    1.089972   1.779710   1.779675   0.000000
    35  C    2.461867   2.701227   2.668570   3.416628   0.000000
    36  O    3.417400   3.376854   3.791240   4.330017   1.229061
    37  N    2.895789   3.227527   2.558553   3.897168   1.334988
    38  H    2.692164   3.244039   2.038466   3.572124   2.037274
    39  C    4.249807   4.384199   3.844197   5.290827   2.434354
    40  H    4.671767   4.654170   4.491286   5.731131   2.520475
    41  H    4.958642   5.261443   4.460923   5.930511   3.137896
    42  H    4.494714   4.482966   3.950678   5.545489   3.137897
                   36         37         38         39         40
    36  O    0.000000
    37  N    2.252848   0.000000
    38  H    3.150091   1.009974   0.000000
    39  C    2.775360   1.449002   2.120951   0.000000
    40  H    2.337368   2.083760   2.986269   1.089979   0.000000
    41  H    3.519221   2.083775   2.484281   1.090022   1.779702
    42  H    3.519227   2.083718   2.484225   1.089991   1.779657
                   41         42
    41  H    0.000000
    42  H    1.779641   0.000000
 Stoichiometry    C12H22N4O4
 Framework group  C1[X(C12H22N4O4)]
 Deg. of freedom   120
 Full point group                 C1      NOp   1
 Largest Abelian subgroup         C1      NOp   1
 Largest concise Abelian subgroup C1      NOp   1
                         Standard orientation:                         
 ---------------------------------------------------------------------
 Center     Atomic      Atomic             Coordinates (Angstroms)
 Number     Number       Type             X           Y           Z
 ---------------------------------------------------------------------
      1          1           0       -6.408654   -2.194239   -0.884936
      2          6           0       -5.687042   -1.445809   -1.212392
      3          1           0       -6.205607   -0.513345   -1.435230
      4          1           0       -5.176391   -1.800009   -2.107942
      5          6           0       -4.641858   -1.176825   -0.127784
      6          8           0       -4.688109   -1.774685    0.944953
      7          7           0       -3.701113   -0.274142   -0.415006
      8          1           0       -3.704804    0.191473   -1.311211
      9          6           0       -2.655880    0.068889    0.528051
     10          1           0       -3.103756    0.464885    1.439440
     11          6           0       -1.818283   -1.153692    0.888047
     12          1           0       -1.355907   -1.556068   -0.013294
     13          1           0       -1.041790   -0.866736    1.597040
     14          1           0       -2.457713   -1.913101    1.337896
     15          6           0       -1.719604    1.120239   -0.050358
     16          8           0       -1.903292    1.564631   -1.181358
     17          7           0       -0.712211    1.517946    0.730229
     18          1           0       -0.602369    1.123147    1.653397
     19          6           0        0.247127    2.512806    0.294886
     20          1           0       -0.233360    3.202140   -0.399403
     21          6           0        0.786604    3.309815    1.477912
     22          1           0        1.278616    2.634324    2.177641
     23          1           0        1.504090    4.048933    1.121742
     24          1           0       -0.036873    3.816636    1.980994
     25          6           0        1.430994    1.862473   -0.406424
     26          8           0        2.039240    2.462573   -1.289773
     27          7           0        1.757220    0.630032   -0.010190
     28          1           0        1.226709    0.177585    0.720526
     29          6           0        2.864032   -0.096015   -0.599656
     30          1           0        2.688745   -0.221753   -1.668107
     31          6           0        4.177647    0.653931   -0.406293
     32          1           0        4.371521    0.779591    0.658998
     33          1           0        4.990795    0.085971   -0.858506
     34          1           0        4.111089    1.632857   -0.880963
     35          6           0        3.016122   -1.471687    0.033479
     36          8           0        2.252337   -1.836045    0.924808
     37          7           0        4.007121   -2.236735   -0.430000
     38          1           0        4.609296   -1.892984   -1.164349
     39          6           0        4.255703   -3.566033    0.090367
     40          1           0        3.529524   -3.792873    0.870920
     41          1           0        4.162905   -4.295094   -0.714622
     42          1           0        5.262032   -3.611397    0.506689
 ---------------------------------------------------------------------
 Rotational constants (GHZ):      0.4335969      0.1694198      0.1342249
 Standard basis: 6-31G(d) (6D, 7F)
 There are   344 symmetry adapted basis functions of A   symmetry.
 Integral buffers will be    131072 words long.
 Raffenetti 2 integral format.
 Two-electron integral symmetry is turned on.
   344 basis functions,   648 primitive gaussians,   344 cartesian basis functions
    77 alpha electrons       77 beta electrons
       nuclear repulsion energy      1645.4978769421 Hartrees.
 NAtoms=   42 NActive=   42 NUniq=   42 SFac= 7.50D-01 NAtFMM=   80 NAOKFM=F Big=F
 One-electron integrals computed using PRISM.
 NBasis=   344 RedAO= T  NBF=   344
 NBsUse=   344 1.00D-06 NBFU=   344
 Harris functional with IExCor=  402 diagonalized for initial guess.
 ExpMin= 1.61D-01 ExpMax= 5.48D+03 ExpMxC= 8.25D+02 IAcc=1 IRadAn=         1 AccDes= 0.00D+00
 HarFok:  IExCor=  402 AccDes= 0.00D+00 IRadAn=         1 IDoV= 1
 ScaDFX=  1.000000  1.000000  1.000000  1.000000
 FoFCou: FMM=F IPFlag=           0 FMFlag=      100000 FMFlg1=           0
         NFxFlg=           0 DoJE=T BraDBF=F KetDBF=T FulRan=T
         Omega=  0.000000  0.000000  1.000000  0.000000  0.000000 ICntrl=     500 IOpCl=  0
         NMat0=    1 NMatS0=    1 NMatT0=    0 NMatD0=    1 NMtDS0=    0 NMtDT0=    0
         I1Cent=           4 NGrid=           0.
 Petite list used in FoFCou.
 Initial guess orbital symmetries:
       Occupied  (A) (A) (A) (A) (A) (A) (A) (A) (A) (A) (A) (A)
                 (A) (A) (A) (A) (A) (A) (A) (A) (A) (A) (A) (A)
                 (A) (A) (A) (A) (A) (A) (A) (A) (A) (A) (A) (A)
                 (A) (A) (A) (A) (A) (A) (A) (A) (A) (A) (A) (A)
                 (A) (A) (A) (A) (A) (A) (A) (A) (A) (A) (A) (A)
                 (A) (A) (A) (A) (A) (A) (A) (A) (A) (A) (A) (A)
                 (A) (A) (A) (A) (A)
       Virtual   (A) (A) (A) (A) (A) (A) (A) (A) (A) (A) (A) (A)
                 (A) (A) (A) (A) (A) (A) (A) (A) (A) (A) (A) (A)
                 (A) (A) (A) (A) (A) (A) (A) (A) (A) (A) (A) (A)
                 (A) (A) (A) (A) (A) (A) (A) (A) (A) (A) (A) (A)
                 (A) (A) (A) (A) (A) (A) (A) (A) (A) (A) (A) (A)
                 (A) (A) (A) (A) (A) (A) (A) (A) (A) (A) (A) (A)
                 (A) (A) (A) (A) (A) (A) (A) (A) (A) (A) (A) (A)
                 (A) (A) (A) (A) (A) (A) (A) (A) (A) (A) (A) (A)
                 (A) (A) (A) (A) (A) (A) (A) (A) (A) (A) (A) (A)
                 (A) (A) (A) (A) (A) (A) (A) (A) (A) (A) (A) (A)
                 (A) (A) (A) (A) (A) (A) (A) (A) (A) (A) (A) (A)
                 (A) (A) (A) (A) (A) (A) (A) (A) (A) (A) (A) (A)
                 (A) (A) (A) (A) (A) (A) (A) (A) (A) (A) (A) (A)
                 (A) (A) (A) (A) (A) (A) (A) (A) (A) (A) (A) (A)
                 (A) (A) (A) (A) (A) (A) (A) (A) (A) (A) (A) (A)
                 (A) (A) (A) (A) (A) (A) (A) (A) (A) (A) (A) (A)
                 (A) (A) (A) (A) (A) (A) (A) (A) (A) (A) (A) (A)
                 (A) (A) (A) (A) (A) (A) (A) (A) (A) (A) (A) (A)
                 (A) (A) (A) (A) (A) (A) (A) (A) (A) (A) (A) (A)
                 (A) (A) (A) (A) (A) (A) (A) (A) (A) (A) (A) (A)
                 (A) (A) (A) (A) (A) (A) (A) (A) (A) (A) (A) (A)
                 (A) (A) (A) (A) (A) (A) (A) (A) (A) (A) (A) (A)
                 (A) (A) (A)
 The electronic state of the initial guess is 1-A.
 Requested convergence on RMS density matrix=1.00D-08 within 128 cycles.
 Requested convergence on MAX density matrix=1.00D-06.
 Requested convergence on             energy=1.00D-06.
 No special actions if energy rises.
 Integral accuracy reduced to 1.0D-05 until final iterations.
 Initial convergence to 1.0D-05 achieved.  Increase integral accuracy.
 SCF Done:  E(RB3LYP) =  -990.486830943     A.U. after   15 cycles
             Convg  =    0.5503D-08             -V/T =  2.0087
 Range of M.O.s used for correlation:     1   344
 NBasis=   344 NAE=    77 NBE=    77 NFC=     0 NFV=     0
 NROrb=    344 NOA=    77 NOB=    77 NVA=   267 NVB=   267
 Symmetrizing basis deriv contribution to polar:
 IMax=3 JMax=2 DiffMx= 0.00D+00
 G2DrvN: will do    43 centers at a time, making    1 passes doing MaxLOS=2.
 Calling FoFCou, ICntrl=  3107 FMM=F I1Cent=   0 AccDes= 0.00D+00.
 FoFDir/FoFCou used for L=0 through L=2.
 End of G2Drv Frequency-dependent properties file   721 does not exist.
 End of G2Drv Frequency-dependent properties file   722 does not exist.
          IDoAtm=111111111111111111111111111111111111111111
          Differentiating once with respect to nuclear coordinates.
          There are   129 degrees of freedom in the 1st order CPHF.  IDoFFX=5.
    123 vectors produced by pass  0 Test12= 2.06D-10 1.00D-07 XBig12= 1.80D-01 8.02D-02.
 AX will form   123 AO Fock derivatives at one time.
    123 vectors produced by pass  1 Test12= 2.06D-10 1.00D-07 XBig12= 2.29D-02 4.91D-02.
    123 vectors produced by pass  2 Test12= 2.06D-10 1.00D-07 XBig12= 3.81D-05 1.45D-03.
    123 vectors produced by pass  3 Test12= 2.06D-10 1.00D-07 XBig12= 7.08D-08 3.62D-05.
     65 vectors produced by pass  4 Test12= 2.06D-10 1.00D-07 XBig12= 6.09D-11 1.27D-06.
 Inverted reduced A of dimension   557 with in-core refinement.
 End of Minotr Frequency-dependent properties file   721 does not exist.
 End of Minotr Frequency-dependent properties file   722 does not exist.

 **********************************************************************

            Population analysis using the SCF density.

 **********************************************************************

 Orbital symmetries:
       Occupied  (A) (A) (A) (A) (A) (A) (A) (A) (A) (A) (A) (A)
                 (A) (A) (A) (A) (A) (A) (A) (A) (A) (A) (A) (A)
                 (A) (A) (A) (A) (A) (A) (A) (A) (A) (A) (A) (A)
                 (A) (A) (A) (A) (A) (A) (A) (A) (A) (A) (A) (A)
                 (A) (A) (A) (A) (A) (A) (A) (A) (A) (A) (A) (A)
                 (A) (A) (A) (A) (A) (A) (A) (A) (A) (A) (A) (A)
                 (A) (A) (A) (A) (A)
       Virtual   (A) (A) (A) (A) (A) (A) (A) (A) (A) (A) (A) (A)
                 (A) (A) (A) (A) (A) (A) (A) (A) (A) (A) (A) (A)
                 (A) (A) (A) (A) (A) (A) (A) (A) (A) (A) (A) (A)
                 (A) (A) (A) (A) (A) (A) (A) (A) (A) (A) (A) (A)
                 (A) (A) (A) (A) (A) (A) (A) (A) (A) (A) (A) (A)
                 (A) (A) (A) (A) (A) (A) (A) (A) (A) (A) (A) (A)
                 (A) (A) (A) (A) (A) (A) (A) (A) (A) (A) (A) (A)
                 (A) (A) (A) (A) (A) (A) (A) (A) (A) (A) (A) (A)
                 (A) (A) (A) (A) (A) (A) (A) (A) (A) (A) (A) (A)
                 (A) (A) (A) (A) (A) (A) (A) (A) (A) (A) (A) (A)
                 (A) (A) (A) (A) (A) (A) (A) (A) (A) (A) (A) (A)
                 (A) (A) (A) (A) (A) (A) (A) (A) (A) (A) (A) (A)
                 (A) (A) (A) (A) (A) (A) (A) (A) (A) (A) (A) (A)
                 (A) (A) (A) (A) (A) (A) (A) (A) (A) (A) (A) (A)
                 (A) (A) (A) (A) (A) (A) (A) (A) (A) (A) (A) (A)
                 (A) (A) (A) (A) (A) (A) (A) (A) (A) (A) (A) (A)
                 (A) (A) (A) (A) (A) (A) (A) (A) (A) (A) (A) (A)
                 (A) (A) (A) (A) (A) (A) (A) (A) (A) (A) (A) (A)
                 (A) (A) (A) (A) (A) (A) (A) (A) (A) (A) (A) (A)
                 (A) (A) (A) (A) (A) (A) (A) (A) (A) (A) (A) (A)
                 (A) (A) (A) (A) (A) (A) (A) (A) (A) (A) (A) (A)
                 (A) (A) (A) (A) (A) (A) (A) (A) (A) (A) (A) (A)
                 (A) (A) (A)
 The electronic state is 1-A.
 Alpha  occ. eigenvalues --  -19.12376 -19.12192 -19.10612 -19.09508 -14.37871
 Alpha  occ. eigenvalues --  -14.37725 -14.36217 -14.35202 -10.29721 -10.29475
 Alpha  occ. eigenvalues --  -10.28064 -10.27484 -10.24241 -10.23849 -10.23563
 Alpha  occ. eigenvalues --  -10.22885 -10.19790 -10.18467 -10.18193 -10.17616
 Alpha  occ. eigenvalues --   -1.05094  -1.04840  -1.03117  -1.02017  -0.94946
 Alpha  occ. eigenvalues --   -0.94143  -0.92613  -0.91952  -0.80759  -0.78612
 Alpha  occ. eigenvalues --   -0.76711  -0.72052  -0.72017  -0.67685  -0.66058
 Alpha  occ. eigenvalues --   -0.64367  -0.61348  -0.60812  -0.58179  -0.57408
 Alpha  occ. eigenvalues --   -0.56717  -0.53424  -0.50227  -0.50054  -0.49237
 Alpha  occ. eigenvalues --   -0.47955  -0.46787  -0.46098  -0.45344  -0.44678
 Alpha  occ. eigenvalues --   -0.44182  -0.43811  -0.43410  -0.41955  -0.41263
 Alpha  occ. eigenvalues --   -0.40955  -0.40693  -0.40455  -0.40090  -0.39774
 Alpha  occ. eigenvalues --   -0.38892  -0.38306  -0.38136  -0.37548  -0.37149
 Alpha  occ. eigenvalues --   -0.36763  -0.36482  -0.34773  -0.34109  -0.28522
 Alpha  occ. eigenvalues --   -0.27011  -0.26474  -0.26014  -0.25432  -0.24829
 Alpha  occ. eigenvalues --   -0.23594  -0.23238
 Alpha virt. eigenvalues --    0.01717   0.01854   0.02895   0.03898   0.05177
 Alpha virt. eigenvalues --    0.05751   0.10026   0.10860   0.11129   0.12784
 Alpha virt. eigenvalues --    0.12952   0.13777   0.14031   0.14210   0.14559
 Alpha virt. eigenvalues --    0.15206   0.15483   0.15816   0.16232   0.16384
 Alpha virt. eigenvalues --    0.16765   0.17660   0.18077   0.18264   0.18794
 Alpha virt. eigenvalues --    0.19555   0.19703   0.20688   0.21111   0.22542
 Alpha virt. eigenvalues --    0.22691   0.24387   0.24694   0.25203   0.26606
 Alpha virt. eigenvalues --    0.29147   0.29488   0.33866   0.34346   0.34563
 Alpha virt. eigenvalues --    0.35558   0.40020   0.40391   0.42588   0.45602
 Alpha virt. eigenvalues --    0.48819   0.49678   0.50266   0.51235   0.51612
 Alpha virt. eigenvalues --    0.52244   0.53004   0.53750   0.54045   0.54702
 Alpha virt. eigenvalues --    0.55702   0.56391   0.56550   0.56709   0.57016
 Alpha virt. eigenvalues --    0.58826   0.60079   0.61311   0.61673   0.63139
 Alpha virt. eigenvalues --    0.63926   0.65357   0.66603   0.67331   0.68520
 Alpha virt. eigenvalues --    0.69118   0.70044   0.71064   0.71975   0.72538
 Alpha virt. eigenvalues --    0.73404   0.74198   0.74701   0.75726   0.76746
 Alpha virt. eigenvalues --    0.77738   0.78325   0.79285   0.80646   0.81461
 Alpha virt. eigenvalues --    0.82609   0.83964   0.84526   0.84619   0.86154
 Alpha virt. eigenvalues --    0.86364   0.86859   0.87158   0.87477   0.87838
 Alpha virt. eigenvalues --    0.88632   0.89062   0.89222   0.90031   0.90944
 Alpha virt. eigenvalues --    0.91144   0.91780   0.91944   0.92964   0.93398
 Alpha virt. eigenvalues --    0.93921   0.95071   0.95368   0.96158   0.96681
 Alpha virt. eigenvalues --    0.97741   0.98751   0.99345   0.99908   1.02013
 Alpha virt. eigenvalues --    1.03503   1.05660   1.06859   1.08145   1.09880
 Alpha virt. eigenvalues --    1.10079   1.11335   1.12644   1.13693   1.15981
 Alpha virt. eigenvalues --    1.18317   1.19539   1.22618   1.24896   1.26709
 Alpha virt. eigenvalues --    1.27998   1.29552   1.30544   1.33087   1.33332
 Alpha virt. eigenvalues --    1.34993   1.37264   1.38096   1.38892   1.41353
 Alpha virt. eigenvalues --    1.43882   1.44841   1.46619   1.47109   1.48465
 Alpha virt. eigenvalues --    1.50496   1.51190   1.51406   1.54560   1.59465
 Alpha virt. eigenvalues --    1.63000   1.64240   1.66782   1.68308   1.70463
 Alpha virt. eigenvalues --    1.70935   1.72485   1.73869   1.75714   1.77184
 Alpha virt. eigenvalues --    1.77812   1.78593   1.79388   1.80522   1.82845
 Alpha virt. eigenvalues --    1.83316   1.83633   1.84051   1.84359   1.85025
 Alpha virt. eigenvalues --    1.85835   1.86809   1.87767   1.88514   1.90793
 Alpha virt. eigenvalues --    1.92284   1.92835   1.93705   1.94522   1.95343
 Alpha virt. eigenvalues --    1.96056   1.97630   1.99210   1.99376   2.01983
 Alpha virt. eigenvalues --    2.03406   2.03917   2.05128   2.05892   2.06524
 Alpha virt. eigenvalues --    2.08102   2.09113   2.10235   2.12379   2.14220
 Alpha virt. eigenvalues --    2.15964   2.17709   2.19471   2.20522   2.24045
 Alpha virt. eigenvalues --    2.24428   2.25246   2.27644   2.28312   2.29136
 Alpha virt. eigenvalues --    2.29329   2.30133   2.30485   2.32474   2.33721
 Alpha virt. eigenvalues --    2.34892   2.36016   2.39942   2.40302   2.43532
 Alpha virt. eigenvalues --    2.44282   2.45212   2.45844   2.48290   2.51283
 Alpha virt. eigenvalues --    2.54322   2.55421   2.57894   2.59718   2.61571
 Alpha virt. eigenvalues --    2.64943   2.65934   2.66456   2.69330   2.71154
 Alpha virt. eigenvalues --    2.73255   2.74015   2.76942   2.82846   2.84057
 Alpha virt. eigenvalues --    2.86745   2.90350   2.93971   2.95268   2.97635
 Alpha virt. eigenvalues --    2.99006   3.02030   3.03168   3.14044   3.17242
 Alpha virt. eigenvalues --    3.23180   3.24595   3.96412   4.00200   4.02238
 Alpha virt. eigenvalues --    4.05395   4.07916   4.10313   4.10482   4.19289
 Alpha virt. eigenvalues --    4.20928   4.21855   4.23031   4.28470   4.29563
 Alpha virt. eigenvalues --    4.40750   4.42559   4.45642   4.46858   4.60277
 Alpha virt. eigenvalues --    4.63440   4.71801
          Condensed to atoms (all electrons):
              1          2          3          4          5          6
     1  H    0.506024   0.360363  -0.021665  -0.021605  -0.018254   0.005055
     2  C    0.360363   5.325776   0.351158   0.351746   0.357703  -0.079376
     3  H   -0.021665   0.351158   0.549942  -0.026581  -0.025053   0.001468
     4  H   -0.021605   0.351746  -0.026581   0.551237  -0.026593   0.001292
     5  C   -0.018254   0.357703  -0.025053  -0.026593   4.337350   0.593359
     6  O    0.005055  -0.079376   0.001468   0.001292   0.593359   8.084311
     7  N    0.004599  -0.135113   0.004196   0.004599   0.227098  -0.107970
     8  H   -0.000144  -0.001212   0.001157   0.000857  -0.015862   0.003085
     9  C   -0.000146   0.007401  -0.000277   0.000008  -0.021419   0.013296
    10  H    0.000002   0.000145  -0.000020  -0.000002  -0.001475   0.005024
    11  C    0.000014  -0.000749   0.000017   0.000031  -0.006019  -0.018470
    12  H    0.000000  -0.000006  -0.000001   0.000002   0.000841  -0.000164
    13  H    0.000000   0.000007   0.000000  -0.000001   0.000321   0.000328
    14  H    0.000000   0.000614  -0.000008  -0.000054   0.003105   0.023539
    15  C    0.000000  -0.000049  -0.000017  -0.000014   0.006593   0.000786
    16  O    0.000000  -0.000049   0.000000  -0.000001   0.000519  -0.000005
    17  N    0.000000   0.000001   0.000000   0.000000  -0.000073  -0.000002
    18  H    0.000000   0.000000   0.000000   0.000000   0.000002   0.000003
    19  C    0.000000   0.000000   0.000000   0.000000   0.000001   0.000000
    20  H    0.000000   0.000000   0.000000   0.000000   0.000000   0.000000
    21  C    0.000000   0.000000   0.000000   0.000000   0.000000   0.000000
    22  H    0.000000   0.000000   0.000000   0.000000   0.000000   0.000000
    23  H    0.000000   0.000000   0.000000   0.000000   0.000000   0.000000
    24  H    0.000000   0.000000   0.000000   0.000000   0.000000   0.000000
    25  C    0.000000   0.000000   0.000000   0.000000   0.000000   0.000000
    26  O    0.000000   0.000000   0.000000   0.000000   0.000000   0.000000
    27  N    0.000000   0.000000   0.000000   0.000000   0.000000   0.000000
    28  H    0.000000   0.000000   0.000000   0.000000   0.000000   0.000000
    29  C    0.000000   0.000000   0.000000   0.000000   0.000000   0.000000
    30  H    0.000000   0.000000   0.000000   0.000000   0.000000   0.000000
    31  C    0.000000   0.000000   0.000000   0.000000   0.000000   0.000000
    32  H    0.000000   0.000000   0.000000   0.000000   0.000000   0.000000
    33  H    0.000000   0.000000   0.000000   0.000000   0.000000   0.000000
    34  H    0.000000   0.000000   0.000000   0.000000   0.000000   0.000000
    35  C    0.000000   0.000000   0.000000   0.000000   0.000000   0.000000
    36  O    0.000000   0.000000   0.000000   0.000000   0.000000   0.000000
    37  N    0.000000   0.000000   0.000000   0.000000   0.000000   0.000000
    38  H    0.000000   0.000000   0.000000   0.000000   0.000000   0.000000
    39  C    0.000000   0.000000   0.000000   0.000000   0.000000   0.000000
    40  H    0.000000   0.000000   0.000000   0.000000   0.000000   0.000000
    41  H    0.000000   0.000000   0.000000   0.000000   0.000000   0.000000
    42  H    0.000000   0.000000   0.000000   0.000000   0.000000   0.000000
              7          8          9         10         11         12
     1  H    0.004599  -0.000144  -0.000146   0.000002   0.000014   0.000000
     2  C   -0.135113  -0.001212   0.007401   0.000145  -0.000749  -0.000006
     3  H    0.004196   0.001157  -0.000277  -0.000020   0.000017  -0.000001
     4  H    0.004599   0.000857   0.000008  -0.000002   0.000031   0.000002
     5  C    0.227098  -0.015862  -0.021419  -0.001475  -0.006019   0.000841
     6  O   -0.107970   0.003085   0.013296   0.005024  -0.018470  -0.000164
     7  N    7.197666   0.291531   0.247145  -0.048989  -0.054996   0.000144
     8  H    0.291531   0.386653  -0.050950   0.004135   0.004369   0.000622
     9  C    0.247145  -0.050950   5.099902   0.368273   0.343841  -0.037946
    10  H   -0.048989   0.004135   0.368273   0.584401  -0.050149   0.006189
    11  C   -0.054996   0.004369   0.343841  -0.050149   5.206987   0.369048
    12  H    0.000144   0.000622  -0.037946   0.006189   0.369048   0.555102
    13  H    0.005219  -0.000124  -0.036445  -0.000202   0.351337  -0.026882
    14  H   -0.010573  -0.000285  -0.020763  -0.006079   0.359936  -0.025047
    15  C   -0.025879   0.000132   0.308945  -0.033568  -0.047021  -0.002519
    16  O   -0.009026   0.030432  -0.087444   0.001360  -0.000747   0.000985
    17  N    0.003353   0.001281  -0.121760   0.000450   0.003292  -0.000666
    18  H    0.000046  -0.000044   0.000960   0.001266   0.001205  -0.000161
    19  C   -0.000057  -0.000030   0.007008  -0.000397   0.000092  -0.000166
    20  H   -0.000006  -0.000018   0.000772  -0.000040  -0.000024  -0.000006
    21  C    0.000000   0.000000  -0.000202   0.000009  -0.000009   0.000002
    22  H    0.000000   0.000000  -0.000004   0.000002  -0.000004   0.000000
    23  H    0.000000   0.000000   0.000004   0.000000   0.000000   0.000000
    24  H    0.000000   0.000000  -0.000009   0.000003   0.000000   0.000000
    25  C    0.000003   0.000001  -0.000296   0.000008  -0.000087   0.000090
    26  O    0.000000   0.000000  -0.000002   0.000000   0.000000   0.000000
    27  N    0.000001   0.000000  -0.000104  -0.000004  -0.000069   0.000138
    28  H    0.000002   0.000000  -0.000348   0.000006   0.000571   0.000347
    29  C    0.000000   0.000000   0.000001   0.000000   0.000013  -0.000012
    30  H    0.000000   0.000000   0.000001   0.000000   0.000001  -0.000007
    31  C    0.000000   0.000000   0.000000   0.000000   0.000000   0.000001
    32  H    0.000000   0.000000   0.000000   0.000000   0.000000   0.000000
    33  H    0.000000   0.000000   0.000000   0.000000   0.000000   0.000000
    34  H    0.000000   0.000000   0.000000   0.000000   0.000000   0.000000
    35  C    0.000000   0.000000   0.000000   0.000000   0.000005   0.000072
    36  O    0.000000   0.000000   0.000006   0.000000  -0.000201   0.000242
    37  N    0.000000   0.000000   0.000000   0.000000   0.000000  -0.000001
    38  H    0.000000   0.000000   0.000000   0.000000   0.000000   0.000000
    39  C    0.000000   0.000000   0.000000   0.000000   0.000000   0.000000
    40  H    0.000000   0.000000   0.000000   0.000000   0.000000   0.000000
    41  H    0.000000   0.000000   0.000000   0.000000   0.000000   0.000000
    42  H    0.000000   0.000000   0.000000   0.000000   0.000000   0.000000
             13         14         15         16         17         18
     1  H    0.000000   0.000000   0.000000   0.000000   0.000000   0.000000
     2  C    0.000007   0.000614  -0.000049  -0.000049   0.000001   0.000000
     3  H    0.000000  -0.000008  -0.000017   0.000000   0.000000   0.000000
     4  H   -0.000001  -0.000054  -0.000014  -0.000001   0.000000   0.000000
     5  C    0.000321   0.003105   0.006593   0.000519  -0.000073   0.000002
     6  O    0.000328   0.023539   0.000786  -0.000005  -0.000002   0.000003
     7  N    0.005219  -0.010573  -0.025879  -0.009026   0.003353   0.000046
     8  H   -0.000124  -0.000285   0.000132   0.030432   0.001281  -0.000044
     9  C   -0.036445  -0.020763   0.308945  -0.087444  -0.121760   0.000960
    10  H   -0.000202  -0.006079  -0.033568   0.001360   0.000450   0.001266
    11  C    0.351337   0.359936  -0.047021  -0.000747   0.003292   0.001205
    12  H   -0.026882  -0.025047  -0.002519   0.000985  -0.000666  -0.000161
    13  H    0.597587  -0.020576  -0.008671  -0.000015   0.002252   0.007243
    14  H   -0.020576   0.480292   0.004019  -0.000084   0.000145  -0.000226
    15  C   -0.008671   0.004019   4.381799   0.595383   0.247663  -0.023215
    16  O   -0.000015  -0.000084   0.595383   8.083401  -0.104949   0.003428
    17  N    0.002252   0.000145   0.247663  -0.104949   7.242121   0.289929
    18  H    0.007243  -0.000226  -0.023215   0.003428   0.289929   0.404280
    19  C    0.000290   0.000003  -0.024943   0.001735   0.192857  -0.022793
    20  H   -0.000007   0.000001  -0.001300   0.013868  -0.044793   0.003772
    21  C   -0.000031   0.000000   0.005373   0.000605  -0.044612  -0.004390
    22  H   -0.000023   0.000000  -0.000183  -0.000011  -0.005532   0.004979
    23  H    0.000000   0.000000  -0.000039   0.000000   0.004343  -0.000132
    24  H   -0.000001   0.000000   0.000015  -0.000001  -0.000192   0.001042
    25  C   -0.000018  -0.000002  -0.001534   0.001669  -0.061568   0.000264
    26  O    0.000000   0.000000  -0.000082  -0.000113   0.002666  -0.000086
    27  N   -0.000261   0.000004   0.003028  -0.000256  -0.000629  -0.000022
    28  H    0.002337   0.000012   0.000010  -0.000144   0.014571   0.000568
    29  C   -0.000048   0.000000  -0.000034   0.000000   0.000048   0.000030
    30  H   -0.000001   0.000000  -0.000021   0.000002  -0.000046   0.000004
    31  C    0.000001   0.000000   0.000003   0.000000   0.000014  -0.000003
    32  H    0.000000   0.000000   0.000000   0.000000  -0.000004   0.000001
    33  H    0.000000   0.000000   0.000000   0.000000   0.000000   0.000000
    34  H    0.000000   0.000000   0.000000   0.000000  -0.000013   0.000001
    35  C    0.000052   0.000000  -0.000011   0.000000  -0.000089   0.000001
    36  O    0.000828   0.000004   0.000000   0.000000  -0.000039  -0.000059
    37  N    0.000001   0.000000   0.000000   0.000000   0.000000   0.000000
    38  H    0.000000   0.000000   0.000000   0.000000   0.000000   0.000000
    39  C    0.000000   0.000000   0.000000   0.000000   0.000000   0.000000
    40  H    0.000000   0.000000   0.000000   0.000000   0.000000   0.000000
    41  H    0.000000   0.000000   0.000000   0.000000   0.000000   0.000000
    42  H    0.000000   0.000000   0.000000   0.000000   0.000000   0.000000
             19         20         21         22         23         24
     1  H    0.000000   0.000000   0.000000   0.000000   0.000000   0.000000
     2  C    0.000000   0.000000   0.000000   0.000000   0.000000   0.000000
     3  H    0.000000   0.000000   0.000000   0.000000   0.000000   0.000000
     4  H    0.000000   0.000000   0.000000   0.000000   0.000000   0.000000
     5  C    0.000001   0.000000   0.000000   0.000000   0.000000   0.000000
     6  O    0.000000   0.000000   0.000000   0.000000   0.000000   0.000000
     7  N   -0.000057  -0.000006   0.000000   0.000000   0.000000   0.000000
     8  H   -0.000030  -0.000018   0.000000   0.000000   0.000000   0.000000
     9  C    0.007008   0.000772  -0.000202  -0.000004   0.000004  -0.000009
    10  H   -0.000397  -0.000040   0.000009   0.000002   0.000000   0.000003
    11  C    0.000092  -0.000024  -0.000009  -0.000004   0.000000   0.000000
    12  H   -0.000166  -0.000006   0.000002   0.000000   0.000000   0.000000
    13  H    0.000290  -0.000007  -0.000031  -0.000023   0.000000  -0.000001
    14  H    0.000003   0.000001   0.000000   0.000000   0.000000   0.000000
    15  C   -0.024943  -0.001300   0.005373  -0.000183  -0.000039   0.000015
    16  O    0.001735   0.013868   0.000605  -0.000011   0.000000  -0.000001
    17  N    0.192857  -0.044793  -0.044612  -0.005532   0.004343  -0.000192
    18  H   -0.022793   0.003772  -0.004390   0.004979  -0.000132   0.001042
    19  C    5.117393   0.366949   0.342606  -0.031267  -0.032924  -0.031459
    20  H    0.366949   0.513872  -0.029802   0.005246  -0.002293  -0.005357
    21  C    0.342606  -0.029802   5.141742   0.365172   0.374357   0.368788
    22  H   -0.031267   0.005246   0.365172   0.577198  -0.025077  -0.031011
    23  H   -0.032924  -0.002293   0.374357  -0.025077   0.511604  -0.023101
    24  H   -0.031459  -0.005357   0.368788  -0.031011  -0.023101   0.551274
    25  C    0.352956  -0.033594  -0.044318  -0.010025   0.001123   0.005132
    26  O   -0.069767   0.004206  -0.001762  -0.000159   0.004000  -0.000062
    27  N   -0.119244   0.004667  -0.003138   0.005449   0.000296  -0.000113
    28  H   -0.005627   0.000268   0.000568   0.000970  -0.000107  -0.000075
    29  C    0.006987  -0.000160  -0.000052  -0.000194  -0.000040   0.000004
    30  H    0.000240   0.000020  -0.000014   0.000007  -0.000002   0.000000
    31  C   -0.000921   0.000001   0.000051   0.000006   0.000046  -0.000001
    32  H    0.000022   0.000002   0.000005   0.000113  -0.000010   0.000001
    33  H    0.000011   0.000000  -0.000001   0.000001   0.000000   0.000000
    34  H    0.000429  -0.000009  -0.000030  -0.000015  -0.000005   0.000001
    35  C    0.000027  -0.000001  -0.000004  -0.000013  -0.000001   0.000000
    36  O   -0.000036   0.000000   0.000001  -0.000003   0.000000   0.000000
    37  N    0.000001   0.000000   0.000000   0.000000   0.000000   0.000000
    38  H    0.000000   0.000000   0.000000   0.000000   0.000000   0.000000
    39  C    0.000000   0.000000   0.000000   0.000000   0.000000   0.000000
    40  H    0.000000   0.000000   0.000000   0.000000   0.000000   0.000000
    41  H    0.000000   0.000000   0.000000   0.000000   0.000000   0.000000
    42  H    0.000000   0.000000   0.000000   0.000000   0.000000   0.000000
             25         26         27         28         29         30
     1  H    0.000000   0.000000   0.000000   0.000000   0.000000   0.000000
     2  C    0.000000   0.000000   0.000000   0.000000   0.000000   0.000000
     3  H    0.000000   0.000000   0.000000   0.000000   0.000000   0.000000
     4  H    0.000000   0.000000   0.000000   0.000000   0.000000   0.000000
     5  C    0.000000   0.000000   0.000000   0.000000   0.000000   0.000000
     6  O    0.000000   0.000000   0.000000   0.000000   0.000000   0.000000
     7  N    0.000003   0.000000   0.000001   0.000002   0.000000   0.000000
     8  H    0.000001   0.000000   0.000000   0.000000   0.000000   0.000000
     9  C   -0.000296  -0.000002  -0.000104  -0.000348   0.000001   0.000001
    10  H    0.000008   0.000000  -0.000004   0.000006   0.000000   0.000000
    11  C   -0.000087   0.000000  -0.000069   0.000571   0.000013   0.000001
    12  H    0.000090   0.000000   0.000138   0.000347  -0.000012  -0.000007
    13  H   -0.000018   0.000000  -0.000261   0.002337  -0.000048  -0.000001
    14  H   -0.000002   0.000000   0.000004   0.000012   0.000000   0.000000
    15  C   -0.001534  -0.000082   0.003028   0.000010  -0.000034  -0.000021
    16  O    0.001669  -0.000113  -0.000256  -0.000144   0.000000   0.000002
    17  N   -0.061568   0.002666  -0.000629   0.014571   0.000048  -0.000046
    18  H    0.000264  -0.000086  -0.000022   0.000568   0.000030   0.000004
    19  C    0.352956  -0.069767  -0.119244  -0.005627   0.006987   0.000240
    20  H   -0.033594   0.004206   0.004667   0.000268  -0.000160   0.000020
    21  C   -0.044318  -0.001762  -0.003138   0.000568  -0.000052  -0.000014
    22  H   -0.010025  -0.000159   0.005449   0.000970  -0.000194   0.000007
    23  H    0.001123   0.004000   0.000296  -0.000107  -0.000040  -0.000002
    24  H    0.005132  -0.000062  -0.000113  -0.000075   0.000004   0.000000
    25  C    4.385709   0.559014   0.247164  -0.020647  -0.026158  -0.002334
    26  O    0.559014   8.123145  -0.105429   0.003178   0.012312   0.004703
    27  N    0.247164  -0.105429   7.190901   0.279700   0.254023  -0.047616
    28  H   -0.020647   0.003178   0.279700   0.393179  -0.051903   0.004406
    29  C   -0.026158   0.012312   0.254023  -0.051903   5.090431   0.371476
    30  H   -0.002334   0.004703  -0.047616   0.004406   0.371476   0.572918
    31  C   -0.004486  -0.017990  -0.055945   0.004008   0.347866  -0.049267
    32  H    0.000505  -0.000173   0.000322   0.000710  -0.037797   0.006176
    33  H    0.000311   0.000306   0.005227  -0.000106  -0.036032  -0.000120
    34  H    0.003223   0.023014  -0.010369  -0.000358  -0.021382  -0.006064
    35  C    0.006322   0.000721  -0.025079   0.000188   0.307461  -0.033673
    36  O    0.000714  -0.000004  -0.009144   0.032475  -0.089166   0.001254
    37  N   -0.000061  -0.000002   0.003315   0.001250  -0.121259   0.000840
    38  H   -0.000001   0.000003   0.000060  -0.000051   0.000765   0.001044
    39  C    0.000001   0.000000  -0.000068  -0.000011   0.005780  -0.000269
    40  H    0.000000   0.000000   0.000000  -0.000033   0.001181  -0.000035
    41  H    0.000000   0.000000   0.000000   0.000000  -0.000194   0.000021
    42  H    0.000000   0.000000   0.000002   0.000000  -0.000033  -0.000006
             31         32         33         34         35         36
     1  H    0.000000   0.000000   0.000000   0.000000   0.000000   0.000000
     2  C    0.000000   0.000000   0.000000   0.000000   0.000000   0.000000
     3  H    0.000000   0.000000   0.000000   0.000000   0.000000   0.000000
     4  H    0.000000   0.000000   0.000000   0.000000   0.000000   0.000000
     5  C    0.000000   0.000000   0.000000   0.000000   0.000000   0.000000
     6  O    0.000000   0.000000   0.000000   0.000000   0.000000   0.000000
     7  N    0.000000   0.000000   0.000000   0.000000   0.000000   0.000000
     8  H    0.000000   0.000000   0.000000   0.000000   0.000000   0.000000
     9  C    0.000000   0.000000   0.000000   0.000000   0.000000   0.000006
    10  H    0.000000   0.000000   0.000000   0.000000   0.000000   0.000000
    11  C    0.000000   0.000000   0.000000   0.000000   0.000005  -0.000201
    12  H    0.000001   0.000000   0.000000   0.000000   0.000072   0.000242
    13  H    0.000001   0.000000   0.000000   0.000000   0.000052   0.000828
    14  H    0.000000   0.000000   0.000000   0.000000   0.000000   0.000004
    15  C    0.000003   0.000000   0.000000   0.000000  -0.000011   0.000000
    16  O    0.000000   0.000000   0.000000   0.000000   0.000000   0.000000
    17  N    0.000014  -0.000004   0.000000  -0.000013  -0.000089  -0.000039
    18  H   -0.000003   0.000001   0.000000   0.000001   0.000001  -0.000059
    19  C   -0.000921   0.000022   0.000011   0.000429   0.000027  -0.000036
    20  H    0.000001   0.000002   0.000000  -0.000009  -0.000001   0.000000
    21  C    0.000051   0.000005  -0.000001  -0.000030  -0.000004   0.000001
    22  H    0.000006   0.000113   0.000001  -0.000015  -0.000013  -0.000003
    23  H    0.000046  -0.000010   0.000000  -0.000005  -0.000001   0.000000
    24  H   -0.000001   0.000001   0.000000   0.000001   0.000000   0.000000
    25  C   -0.004486   0.000505   0.000311   0.003223   0.006322   0.000714
    26  O   -0.017990  -0.000173   0.000306   0.023014   0.000721  -0.000004
    27  N   -0.055945   0.000322   0.005227  -0.010369  -0.025079  -0.009144
    28  H    0.004008   0.000710  -0.000106  -0.000358   0.000188   0.032475
    29  C    0.347866  -0.037797  -0.036032  -0.021382   0.307461  -0.089166
    30  H   -0.049267   0.006176  -0.000120  -0.006064  -0.033673   0.001254
    31  C    5.198681   0.367928   0.352755   0.360966  -0.044350  -0.000638
    32  H    0.367928   0.564571  -0.026632  -0.026209  -0.002892   0.000986
    33  H    0.352755  -0.026632   0.599455  -0.021474  -0.008052  -0.000025
    34  H    0.360966  -0.026209  -0.021474   0.483564   0.003840  -0.000090
    35  C   -0.044350  -0.002892  -0.008052   0.003840   4.364596   0.595591
    36  O   -0.000638   0.000986  -0.000025  -0.000090   0.595591   8.093018
    37  N    0.002437  -0.000438   0.003417   0.000222   0.274105  -0.101251
    38  H    0.000708  -0.000106   0.006992  -0.000192  -0.021524   0.003594
    39  C    0.000019  -0.000073   0.000075   0.000005  -0.024416  -0.008996
    40  H   -0.000070  -0.000007  -0.000006   0.000001  -0.001363   0.020787
    41  H   -0.000005   0.000001   0.000004   0.000000   0.001310   0.000565
    42  H    0.000013   0.000002   0.000000  -0.000002   0.001354   0.000570
             37         38         39         40         41         42
     1  H    0.000000   0.000000   0.000000   0.000000   0.000000   0.000000
     2  C    0.000000   0.000000   0.000000   0.000000   0.000000   0.000000
     3  H    0.000000   0.000000   0.000000   0.000000   0.000000   0.000000
     4  H    0.000000   0.000000   0.000000   0.000000   0.000000   0.000000
     5  C    0.000000   0.000000   0.000000   0.000000   0.000000   0.000000
     6  O    0.000000   0.000000   0.000000   0.000000   0.000000   0.000000
     7  N    0.000000   0.000000   0.000000   0.000000   0.000000   0.000000
     8  H    0.000000   0.000000   0.000000   0.000000   0.000000   0.000000
     9  C    0.000000   0.000000   0.000000   0.000000   0.000000   0.000000
    10  H    0.000000   0.000000   0.000000   0.000000   0.000000   0.000000
    11  C    0.000000   0.000000   0.000000   0.000000   0.000000   0.000000
    12  H   -0.000001   0.000000   0.000000   0.000000   0.000000   0.000000
    13  H    0.000001   0.000000   0.000000   0.000000   0.000000   0.000000
    14  H    0.000000   0.000000   0.000000   0.000000   0.000000   0.000000
    15  C    0.000000   0.000000   0.000000   0.000000   0.000000   0.000000
    16  O    0.000000   0.000000   0.000000   0.000000   0.000000   0.000000
    17  N    0.000000   0.000000   0.000000   0.000000   0.000000   0.000000
    18  H    0.000000   0.000000   0.000000   0.000000   0.000000   0.000000
    19  C    0.000001   0.000000   0.000000   0.000000   0.000000   0.000000
    20  H    0.000000   0.000000   0.000000   0.000000   0.000000   0.000000
    21  C    0.000000   0.000000   0.000000   0.000000   0.000000   0.000000
    22  H    0.000000   0.000000   0.000000   0.000000   0.000000   0.000000
    23  H    0.000000   0.000000   0.000000   0.000000   0.000000   0.000000
    24  H    0.000000   0.000000   0.000000   0.000000   0.000000   0.000000
    25  C   -0.000061  -0.000001   0.000001   0.000000   0.000000   0.000000
    26  O   -0.000002   0.000003   0.000000   0.000000   0.000000   0.000000
    27  N    0.003315   0.000060  -0.000068   0.000000   0.000000   0.000002
    28  H    0.001250  -0.000051  -0.000011  -0.000033   0.000000   0.000000
    29  C   -0.121259   0.000765   0.005780   0.001181  -0.000194  -0.000033
    30  H    0.000840   0.001044  -0.000269  -0.000035   0.000021  -0.000006
    31  C    0.002437   0.000708   0.000019  -0.000070  -0.000005   0.000013
    32  H   -0.000438  -0.000106  -0.000073  -0.000007   0.000001   0.000002
    33  H    0.003417   0.006992   0.000075  -0.000006   0.000004   0.000000
    34  H    0.000222  -0.000192   0.000005   0.000001   0.000000  -0.000002
    35  C    0.274105  -0.021524  -0.024416  -0.001363   0.001310   0.001354
    36  O   -0.101251   0.003594  -0.008996   0.020787   0.000565   0.000570
    37  N    7.080950   0.303451   0.265238  -0.036552  -0.043082  -0.044215
[...]
    33  H    0.000000   0.000000   0.000000   0.000000   0.000000   0.000000
    34  H    0.000000   0.000000   0.000000   0.000000  -0.000005   0.000000
    35  C    0.000058  -0.000001   0.000005   0.000001  -0.000110   0.000005
    36  O    0.005811   0.000016   0.000004   0.000000  -0.000123  -0.000005
    37  N    0.000008   0.000000   0.000000   0.000000   0.000000   0.000000
    38  H   -0.000001   0.000000   0.000000   0.000000   0.000000   0.000000
    39  C    0.000001   0.000000   0.000000   0.000000   0.000000   0.000000
    40  H   -0.000003   0.000000   0.000000   0.000000   0.000000   0.000000
    41  H    0.000000   0.000000   0.000000   0.000000   0.000000   0.000000
    42  H    0.000000   0.000000   0.000000   0.000000   0.000000   0.000000
             19         20         21         22         23         24
     1  H    0.000000   0.000000   0.000000   0.000000   0.000000   0.000000
     2  C    0.000000   0.000000   0.000000   0.000000   0.000000   0.000000
     3  H    0.000000   0.000000   0.000000   0.000000   0.000000   0.000000
     4  H    0.000000   0.000000   0.000000   0.000000   0.000000   0.000000
     5  C    0.000001   0.000000   0.000000   0.000000   0.000000   0.000000
     6  O    0.000000   0.000000   0.000000   0.000000   0.000000   0.000000
     7  N   -0.000108   0.000009   0.000002   0.000000   0.000000   0.000000
     8  H   -0.000027  -0.000021   0.000000   0.000000   0.000000   0.000000
     9  C    0.006197   0.000735  -0.000172   0.000000   0.000003  -0.000020
    10  H   -0.000086  -0.000044  -0.000020   0.000001   0.000000   0.000002
    11  C   -0.000229  -0.000027  -0.000001  -0.000001   0.000000   0.000001
    12  H   -0.000015  -0.000004   0.000000   0.000000   0.000000   0.000000
    13  H   -0.000066   0.000002   0.000000  -0.000001   0.000000   0.000000
    14  H    0.000004   0.000000   0.000000   0.000000   0.000000   0.000000
    15  C   -0.021736  -0.001844   0.004421  -0.000156  -0.000047   0.000112
    16  O    0.000732   0.014154   0.000500  -0.000008   0.000001   0.000002
    17  N    0.182179  -0.048979  -0.041218  -0.005126   0.004182  -0.000125
    18  H   -0.025242   0.003934  -0.003197   0.004207  -0.000111   0.000904
    19  C    5.109846   0.365181   0.347880  -0.029859  -0.033014  -0.030661
    20  H    0.365181   0.526724  -0.028137   0.004786  -0.001908  -0.005468
    21  C    0.347880  -0.028137   5.127528   0.365546   0.372682   0.370561
    22  H   -0.029859   0.004786   0.365546   0.573239  -0.025980  -0.032384
    23  H   -0.033014  -0.001908   0.372682  -0.025980   0.514566  -0.023768
    24  H   -0.030661  -0.005468   0.370561  -0.032384  -0.023768   0.552807
    25  C    0.342252  -0.037646  -0.037186  -0.007691   0.000587   0.004395
    26  O   -0.069927   0.004677  -0.002680  -0.000106   0.005170  -0.000042
    27  N   -0.111073   0.004692  -0.002474   0.004216   0.000229  -0.000112
    28  H   -0.007189   0.000355   0.000399   0.000312  -0.000061  -0.000034
    29  C    0.006782  -0.000169  -0.000110  -0.000134  -0.000032   0.000004
    30  H    0.000659   0.000015  -0.000018   0.000003  -0.000005   0.000000
    31  C   -0.000526  -0.000001   0.000047   0.000016   0.000015  -0.000001
    32  H    0.000021   0.000000  -0.000006   0.000024  -0.000002   0.000000
    33  H    0.000007   0.000000  -0.000001   0.000000   0.000000   0.000000
    34  H    0.000070  -0.000002  -0.000001   0.000000  -0.000003   0.000001
    35  C    0.000022  -0.000001  -0.000003  -0.000003   0.000000   0.000000
    36  O   -0.000021   0.000000   0.000000  -0.000001   0.000000   0.000000
    37  N    0.000001   0.000000   0.000000   0.000000   0.000000   0.000000
    38  H    0.000000   0.000000   0.000000   0.000000   0.000000   0.000000
    39  C    0.000000   0.000000   0.000000   0.000000   0.000000   0.000000
    40  H    0.000000   0.000000   0.000000   0.000000   0.000000   0.000000
    41  H    0.000000   0.000000   0.000000   0.000000   0.000000   0.000000
    42  H    0.000000   0.000000   0.000000   0.000000   0.000000   0.000000
             25         26         27         28         29         30
     1  H    0.000000   0.000000   0.000000   0.000000   0.000000   0.000000
     2  C    0.000000   0.000000   0.000000   0.000000   0.000000   0.000000
     3  H    0.000000   0.000000   0.000000   0.000000   0.000000   0.000000
     4  H    0.000000   0.000000   0.000000   0.000000   0.000000   0.000000
     5  C    0.000000   0.000000   0.000000   0.000000   0.000000   0.000000
     6  O    0.000000   0.000000   0.000000   0.000000   0.000000   0.000000
     7  N    0.000000   0.000000   0.000000   0.000006   0.000000   0.000000
     8  H    0.000000   0.000000   0.000000   0.000000   0.000000   0.000000
     9  C   -0.000266   0.000000  -0.000083  -0.000049   0.000003   0.000000
    10  H    0.000001   0.000000   0.000001  -0.000015   0.000000   0.000000
    11  C    0.000054   0.000000  -0.000015   0.000089   0.000008   0.000001
    12  H    0.000007   0.000000   0.000007  -0.000017  -0.000001   0.000000
    13  H    0.000003   0.000000  -0.000264   0.002514  -0.000068  -0.000004
    14  H   -0.000001   0.000000   0.000001  -0.000001   0.000000   0.000000
    15  C   -0.000384  -0.000031   0.001739   0.000275  -0.000041  -0.000016
    16  O    0.001372  -0.000051  -0.000186  -0.000219  -0.000003   0.000002
    17  N   -0.048985   0.002456  -0.000392   0.017328   0.000053  -0.000073
    18  H    0.000417  -0.000059  -0.000023   0.000389   0.000004   0.000002
    19  C    0.342252  -0.069927  -0.111073  -0.007189   0.006782   0.000659
    20  H   -0.037646   0.004677   0.004692   0.000355  -0.000169   0.000015
    21  C   -0.037186  -0.002680  -0.002474   0.000399  -0.000110  -0.000018
    22  H   -0.007691  -0.000106   0.004216   0.000312  -0.000134   0.000003
    23  H    0.000587   0.005170   0.000229  -0.000061  -0.000032  -0.000005
    24  H    0.004395  -0.000042  -0.000112  -0.000034   0.000004   0.000000
    25  C    4.388271   0.558224   0.255148  -0.017287  -0.021472  -0.000225
    26  O    0.558224   8.105577  -0.098251   0.002565   0.008379   0.010230
    27  N    0.255148  -0.098251   7.182632   0.274279   0.260438  -0.052426
    28  H   -0.017287   0.002565   0.274279   0.377895  -0.053792   0.004341
    29  C   -0.021472   0.008379   0.260438  -0.053792   5.079193   0.372139
    30  H   -0.000225   0.010230  -0.052426   0.004341   0.372139   0.568377
    31  C   -0.003975  -0.005090  -0.053894   0.003605   0.347143  -0.048196
    32  H    0.000309  -0.000028   0.000024   0.000718  -0.033859   0.005406
    33  H    0.000041   0.000003   0.004720  -0.000109  -0.029756   0.000165
    34  H    0.003536   0.008237  -0.008759  -0.000222  -0.022579  -0.004870
    35  C    0.005322   0.000537  -0.029980  -0.002565   0.307562  -0.034626
    36  O    0.000738  -0.000005  -0.015576   0.039676  -0.081463   0.001705
    37  N   -0.000039  -0.000001   0.002826   0.001664  -0.111505   0.001076
    38  H   -0.000006   0.000002   0.000075  -0.000069   0.001571   0.001698
    39  C    0.000001   0.000000  -0.000092  -0.000016   0.005613  -0.000125
    40  H    0.000000   0.000000   0.000007  -0.000047   0.001054  -0.000033
    41  H    0.000000   0.000000   0.000002   0.000000  -0.000155   0.000008
    42  H    0.000000   0.000000   0.000001   0.000000  -0.000086  -0.000006
             31         32         33         34         35         36
     1  H    0.000000   0.000000   0.000000   0.000000   0.000000   0.000000
     2  C    0.000000   0.000000   0.000000   0.000000   0.000000   0.000000
     3  H    0.000000   0.000000   0.000000   0.000000   0.000000   0.000000
     4  H    0.000000   0.000000   0.000000   0.000000   0.000000   0.000000
     5  C    0.000000   0.000000   0.000000   0.000000   0.000000   0.000000
     6  O    0.000000   0.000000   0.000000   0.000000   0.000000   0.000000
     7  N    0.000000   0.000000   0.000000   0.000000   0.000000   0.000000
     8  H    0.000000   0.000000   0.000000   0.000000   0.000000   0.000000
     9  C    0.000000   0.000000   0.000000   0.000000  -0.000005   0.000002
    10  H    0.000000   0.000000   0.000000   0.000000   0.000000  -0.000001
    11  C    0.000000   0.000000   0.000000   0.000000   0.000068  -0.001230
    12  H    0.000000   0.000000   0.000000   0.000000   0.000027   0.000021
    13  H    0.000001   0.000000   0.000000   0.000000   0.000058   0.005811
    14  H    0.000000   0.000000   0.000000   0.000000  -0.000001   0.000016
    15  C    0.000002   0.000000   0.000000   0.000000   0.000005   0.000004
    16  O    0.000000   0.000000   0.000000   0.000000   0.000001   0.000000
    17  N    0.000005  -0.000002   0.000000  -0.000005  -0.000110  -0.000123
    18  H   -0.000001   0.000001   0.000000   0.000000   0.000005  -0.000005
    19  C   -0.000526   0.000021   0.000007   0.000070   0.000022  -0.000021
    20  H   -0.000001   0.000000   0.000000  -0.000002  -0.000001   0.000000
    21  C    0.000047  -0.000006  -0.000001  -0.000001  -0.000003   0.000000
    22  H    0.000016   0.000024   0.000000   0.000000  -0.000003  -0.000001
    23  H    0.000015  -0.000002   0.000000  -0.000003   0.000000   0.000000
    24  H   -0.000001   0.000000   0.000000   0.000001   0.000000   0.000000
    25  C   -0.003975   0.000309   0.000041   0.003536   0.005322   0.000738
    26  O   -0.005090  -0.000028   0.000003   0.008237   0.000537  -0.000005
    27  N   -0.053894   0.000024   0.004720  -0.008759  -0.029980  -0.015576
    28  H    0.003605   0.000718  -0.000109  -0.000222  -0.002565   0.039676
    29  C    0.347143  -0.033859  -0.029756  -0.022579   0.307562  -0.081463
    30  H   -0.048196   0.005406   0.000165  -0.004870  -0.034626   0.001705
    31  C    5.142258   0.370241   0.355532   0.369425  -0.034473  -0.001223
    32  H    0.370241   0.556419  -0.027646  -0.027329  -0.003924   0.001226
    33  H    0.355532  -0.027646   0.586172  -0.025974  -0.003915  -0.000011
    34  H    0.369425  -0.027329  -0.025974   0.515217   0.003675  -0.000082
    35  C   -0.034473  -0.003924  -0.003915   0.003675   4.374856   0.566858
    36  O   -0.001223   0.001226  -0.000011  -0.000082   0.566858   8.092460
    37  N    0.001195  -0.000009   0.003114   0.000048   0.288207  -0.091620
    38  H    0.000521  -0.000037   0.002764  -0.000097  -0.022702   0.003265
    39  C   -0.000211  -0.000013  -0.000038   0.000005  -0.022778  -0.007517
    40  H   -0.000040  -0.000007  -0.000001   0.000001  -0.001517   0.019475
    41  H   -0.000004   0.000000   0.000004   0.000000   0.000835   0.000433
    42  H    0.000028  -0.000002  -0.000011  -0.000001   0.001381   0.000435
             37         38         39         40         41         42
     1  H    0.000000   0.000000   0.000000   0.000000   0.000000   0.000000
     2  C    0.000000   0.000000   0.000000   0.000000   0.000000   0.000000
     3  H    0.000000   0.000000   0.000000   0.000000   0.000000   0.000000
     4  H    0.000000   0.000000   0.000000   0.000000   0.000000   0.000000
     5  C    0.000000   0.000000   0.000000   0.000000   0.000000   0.000000
     6  O    0.000000   0.000000   0.000000   0.000000   0.000000   0.000000
     7  N    0.000000   0.000000   0.000000   0.000000   0.000000   0.000000
     8  H    0.000000   0.000000   0.000000   0.000000   0.000000   0.000000
     9  C    0.000000   0.000000   0.000000   0.000000   0.000000   0.000000
    10  H    0.000000   0.000000   0.000000   0.000000   0.000000   0.000000
    11  C   -0.000002   0.000000   0.000000   0.000002   0.000000   0.000000
    12  H    0.000000   0.000000   0.000000   0.000000   0.000000   0.000000
    13  H    0.000008  -0.000001   0.000001  -0.000003   0.000000   0.000000
    14  H    0.000000   0.000000   0.000000   0.000000   0.000000   0.000000
    15  C    0.000000   0.000000   0.000000   0.000000   0.000000   0.000000
    16  O    0.000000   0.000000   0.000000   0.000000   0.000000   0.000000
    17  N    0.000000   0.000000   0.000000   0.000000   0.000000   0.000000
    18  H    0.000000   0.000000   0.000000   0.000000   0.000000   0.000000
    19  C    0.000001   0.000000   0.000000   0.000000   0.000000   0.000000
    20  H    0.000000   0.000000   0.000000   0.000000   0.000000   0.000000
    21  C    0.000000   0.000000   0.000000   0.000000   0.000000   0.000000
    22  H    0.000000   0.000000   0.000000   0.000000   0.000000   0.000000
    23  H    0.000000   0.000000   0.000000   0.000000   0.000000   0.000000
    24  H    0.000000   0.000000   0.000000   0.000000   0.000000   0.000000
    25  C   -0.000039  -0.000006   0.000001   0.000000   0.000000   0.000000
    26  O   -0.000001   0.000002   0.000000   0.000000   0.000000   0.000000
    27  N    0.002826   0.000075  -0.000092   0.000007   0.000002   0.000001
    28  H    0.001664  -0.000069  -0.000016  -0.000047   0.000000   0.000000
    29  C   -0.111505   0.001571   0.005613   0.001054  -0.000155  -0.000086
    30  H    0.001076   0.001698  -0.000125  -0.000033   0.000008  -0.000006
    31  C    0.001195   0.000521  -0.000211  -0.000040  -0.000004   0.000028
    32  H   -0.000009  -0.000037  -0.000013  -0.000007   0.000000  -0.000002
    33  H    0.003114   0.002764  -0.000038  -0.000001   0.000004  -0.000011
    34  H    0.000048  -0.000097   0.000005   0.000001   0.000000  -0.000001
    35  C    0.288207  -0.022702  -0.022778  -0.001517   0.000835   0.001381
    36  O   -0.091620   0.003265  -0.007517   0.019475   0.000433   0.000435
    37  N    7.044411   0.306821   0.264900  -0.038746  -0.040302  -0.041071
    38  H    0.306821   0.402028  -0.031407   0.003961  -0.001169  -0.000611
    39  C    0.264900  -0.031407   4.963753   0.378356   0.382420   0.381379
    40  H   -0.038746   0.003961   0.378356   0.477663  -0.023927  -0.024510
    41  H   -0.040302  -0.001169   0.382420  -0.023927   0.555520  -0.039188
    42  H   -0.041071  -0.000611   0.381379  -0.024510  -0.039188   0.558337
 Mulliken atomic charges:
              1
     1  H    0.182181
     2  C   -0.533086
     3  H    0.182205
     4  H    0.147680
     5  C    0.597729
     6  O   -0.524599
     7  N   -0.602286
     8  H    0.343873
     9  C   -0.033245
    10  H    0.164423
    11  C   -0.452657
    12  H    0.157562
    13  H    0.163659
    14  H    0.182807
    15  C    0.607637
    16  O   -0.520590
    17  N   -0.633257
    18  H    0.333721
    19  C   -0.032053
    20  H    0.198986
    21  C   -0.474341
    22  H    0.149100
    23  H    0.187496
    24  H    0.163829
    25  C    0.614488
    26  O   -0.529783
    27  N   -0.617437
    28  H    0.355281
    29  C   -0.034723
    30  H    0.174795
    31  C   -0.442397
    32  H    0.158474
    33  H    0.134937
    34  H    0.189708
    35  C    0.607185
    36  O   -0.533248
    37  N   -0.590976
    38  H    0.333394
    39  C   -0.314230
    40  H    0.208311
    41  H    0.165522
    42  H    0.163926
 Sum of Mulliken atomic charges =   0.00000
 Mulliken charges with hydrogens summed into heavy atoms:
              1
     2  C   -0.021020
     5  C    0.597729
     6  O   -0.524599
     7  N   -0.258413
     9  C    0.131178
    11  C    0.051370
    15  C    0.607637
    16  O   -0.520590
    17  N   -0.299536
    19  C    0.166933
    21  C    0.026084
    25  C    0.614488
    26  O   -0.529783
    27  N   -0.262156
    29  C    0.140073
    31  C    0.040722
    35  C    0.607185
    36  O   -0.533248
    37  N   -0.257582
    39  C    0.223529
 Sum of Mulliken charges with hydrogens summed into heavy atoms =   0.00000
 Electronic spatial extent (au):  <R**2>=           8258.9505
 Charge=              0.0000 electrons
 Dipole moment (field-independent basis, Debye):
    X=             -4.2689    Y=             -1.3674    Z=             -0.1764  Tot=              4.4860
 Quadrupole moment (field-independent basis, Debye-Ang):
   XX=           -107.3424   YY=           -117.5197   ZZ=           -124.1479
   XY=             19.6527   XZ=              8.5437   YZ=            -16.9951
 Traceless Quadrupole moment (field-independent basis, Debye-Ang):
   XX=              8.9943   YY=             -1.1831   ZZ=             -7.8112
   XY=             19.6527   XZ=              8.5437   YZ=            -16.9951
 Octapole moment (field-independent basis, Debye-Ang**2):
  XXX=           -126.2818  YYY=            -30.1918  ZZZ=             -2.5618  XYY=            -18.4796
  XXY=            -38.5591  XXZ=             91.1376  XZZ=            -12.8275  YZZ=             -4.6985
  YYZ=             -7.7248  XYZ=              2.9707
 Hexadecapole moment (field-independent basis, Debye-Ang**3):
 XXXX=          -7060.3113 YYYY=          -2432.0709 ZZZZ=           -540.8954 XXXY=            389.3044
 XXXZ=            268.6314 YYYX=            174.1350 YYYZ=            -54.1511 ZZZX=              3.4834
 ZZZY=            -15.0855 XXYY=          -1625.8618 XXZZ=          -1418.2734 YYZZ=           -544.9214
 XXYZ=           -175.7415 YYXZ=             25.0213 ZZXY=             45.5720
 N-N= 1.629942861790D+03 E-N=-5.569191013227D+03  KE= 9.813352883756D+02
 1\1\GINC-NODE006\FOpt\RB3LYP\6-31G(d)\C12H22N4O4\MANAGER\29-Dec-2016\0
 \\# b3lyp/6-31G* Opt=(ModRedundant, maxcycles=1000, calcfc) geom=nocro
 wd\\Phi Psi fixed scan\\0,1\H,5.6973183595,1.1021595939,-3.728028844\C
 ,5.1428752495,2.0366606056,-3.5965445844\H,4.0773568243,1.7932855798,-
 3.6522375281\H,5.3966474862,2.7191007145,-4.4135136757\C,5.4460685839,
 2.5969617593,-2.214594863\O,5.205614628,1.967432923,-1.1881016667\N,5.
 9999737329,3.8416876909,-2.1947194066\H,6.1806577629,4.3675004367,-3.0
 410799471\C,6.3299939482,4.5204664188,-0.955669077\H,5.5576865686,4.26
 60334534,-0.2203545502\C,7.7034844631,4.0845829365,-0.4053696292\H,8.4
 856679706,4.2918163639,-1.142919955\H,7.9597348234,4.610062006,0.52108
 4914\H,7.6770720899,3.0100183587,-0.205826287\C,6.3228114466,6.0248882
 945,-1.2555440975\O,6.5920949717,6.4582296015,-2.371246302\N,6.0482435
 45,6.8347655347,-0.1901071219\H,5.7023405456,6.4063705955,0.6588628569
 \C,5.9981349651,8.2909763172,-0.3054985567\H,5.7494719634,8.5236894451
 ,-1.3438937746\C,4.93541466,8.8768104079,0.6307810565\H,5.1543878402,8
 .6360777152,1.6786032046\H,4.9226860749,9.9651993395,0.5299431159\H,3.
 9426777528,8.4887273608,0.3803922161\C,7.3567224368,8.9776531034,-0.05
 29898196\O,7.5979658711,10.0810438927,-0.5314425192\N,8.186830428,8.33
 19900754,0.8072838127\H,8.0290121559,7.3556722765,1.0337240646\C,9.532
 0148701,8.8017357608,1.0758693979\H,9.9408529699,9.2323655569,0.152062
 6539\C,9.5492525254,9.887493987,2.1683766515\H,9.1595419458,9.48996267
 95,3.1111587437\H,10.5620509295,10.2678696455,2.3435321764\H,8.9199272
 815,10.7205158042,1.8449479529\C,10.3575196388,7.5657336667,1.47902713
 48\O,9.8176879851,6.4937179753,1.7495822224\N,11.7003569869,7.76048455
 99,1.5278317116\H,12.064154562,8.6643768542,1.2609594982\C,12.64037633
 58,6.7194472552,1.9109758349\H,12.0625418726,5.8224638179,2.1354235723
 \H,13.338715403,6.501886843,1.0949908958\H,13.2116595454,7.0119827928,
 2.7993685178\\Version=EM64L-G09RevA.02\State=1-A\HF=-990.5059776\RMSD=
 7.830e-09\RMSF=5.355e-04\Dipole=1.320407,0.7451773,0.9034779\Quadrupol
 e=17.0891702,-18.0842558,0.9950857,-0.2290674,4.3653397,11.1336247\PG=
 C01 [X(C12H22N4O4)]\\@


 SATCHEL PAIGE'S GUIDE TO LONGEVITY

    1.  AVOID FRIED MEATS, WHICH ANGRY UP THE BLOOD.

    2.  IF YOUR STOMACH DISPUTES YOU, LIE DOWN AND PACIFY IT WITH COOL
        THOUGHTS.

    3.  KEEP THE JUICES FLOWING BY JANGLING AROUND GENTLY AS YOU MOVE.

    4.  GO VERY LIGHT ON THE VICES, SUCH AS CARRYING ON IN SOCIETY.
        THE SOCIAL RUMBLE AIN'T RESTFUL.

    5.  AVOID RUNNING AT ALL TIMES.

    6.  DON'T LOOK BACK.  SOMETHING MAY BE GAINING ON YOU.
 Job cpu time:  0 days  3 hours 55 minutes  9.3 seconds.
 File lengths (MBytes):  RWF=    608 Int=      0 D2E=      0 Chk=     11 Scr=      1
 Normal termination of Gaussian 09 at Thu Dec 29 19:13:02 2016.
