 Entering Gaussian System, Link 0=g09
 Initial command:
 /home/steboss/Software/g09/l1.exe /tmp/Gau-21941.inp -scrdir=/tmp/
 Entering Link 1 = /home/steboss/Software/g09/l1.exe PID=     21943.
  
 Copyright (c) 1988,1990,1992,1993,1995,1998,2003,2009, Gaussian, Inc.
                  All Rights Reserved.
  
 This is part of the Gaussian(R) 09 program.  It is based on
 the Gaussian(R) 03 system (copyright 2003, Gaussian, Inc.),
 the Gaussian(R) 98 system (copyright 1998, Gaussian, Inc.),
 the Gaussian(R) 94 system (copyright 1995, Gaussian, Inc.),
 the Gaussian 92(TM) system (copyright 1992, Gaussian, Inc.),
 the Gaussian 90(TM) system (copyright 1990, Gaussian, Inc.),
 the Gaussian 88(TM) system (copyright 1988, Gaussian, Inc.),
 the Gaussian 86(TM) system (copyright 1986, Carnegie Mellon
 University), and the Gaussian 82(TM) system (copyright 1983,
 Carnegie Mellon University). Gaussian is a federally registered
 trademark of Gaussian, Inc.
  
 This software contains proprietary and confidential information,
 including trade secrets, belonging to Gaussian, Inc.
  
 This software is provided under written license and may be
 used, copied, transmitted, or stored only in accord with that
 written license.
  
 The following legend is applicable only to US Government
 contracts under FAR:
  
                    RESTRICTED RIGHTS LEGEND
  
 Use, reproduction and disclosure by the US Government is
 subject to restrictions as set forth in subparagraphs (a)
 and (c) of the Commercial Computer Software - Restricted
 Rights clause in FAR 52.227-19.
  
 Gaussian, Inc.
 340 Quinnipiac St., Bldg. 40, Wallingford CT 06492
  
  
 ---------------------------------------------------------------
 Warning -- This program may not be used in any manner that
 competes with the business of Gaussian, Inc. or will provide
 assistance to any competitor of Gaussian, Inc.  The licensee
 of this program is prohibited from giving any competitor of
 Gaussian, Inc. access to this program.  By using this program,
 the user acknowledges that Gaussian, Inc. is engaged in the
 business of creating and licensing software in the field of
 computational chemistry and represents and warrants to the
 licensee that it is not a competitor of Gaussian, Inc. and that
 it will not use this program in any manner prohibited above.
 ---------------------------------------------------------------
  

 Cite this work as:
 Gaussian 09, Revision A.02,
 M. J. Frisch, G. W. Trucks, H. B. Schlegel, G. E. Scuseria, 
 M. A. Robb, J. R. Cheeseman, G. Scalmani, V. Barone, B. Mennucci, 
 G. A. Petersson, H. Nakatsuji, M. Caricato, X. Li, H. P. Hratchian, 
 A. F. Izmaylov, J. Bloino, G. Zheng, J. L. Sonnenberg, M. Hada, 
 M. Ehara, K. Toyota, R. Fukuda, J. Hasegawa, M. Ishida, T. Nakajima, 
 Y. Honda, O. Kitao, H. Nakai, T. Vreven, J. A. Montgomery, Jr., 
 J. E. Peralta, F. Ogliaro, M. Bearpark, J. J. Heyd, E. Brothers, 
 K. N. Kudin, V. N. Staroverov, R. Kobayashi, J. Normand, 
 K. Raghavachari, A. Rendell, J. C. Burant, S. S. Iyengar, J. Tomasi, 
 M. Cossi, N. Rega, J. M. Millam, M. Klene, J. E. Knox, J. B. Cross, 
 V. Bakken, C. Adamo, J. Jaramillo, R. Gomperts, R. E. Stratmann, 
 O. Yazyev, A. J. Austin, R. Cammi, C. Pomelli, J. W. Ochterski, 
 R. L. Martin, K. Morokuma, V. G. Zakrzewski, G. A. Voth, 
 P. Salvador, J. J. Dannenberg, S. Dapprich, A. D. Daniels, 
 O. Farkas, J. B. Foresman, J. V. Ortiz, J. Cioslowski, 
 and D. J. Fox, Gaussian, Inc., Wallingford CT, 2009.
 
 ******************************************
 Gaussian 09:  EM64L-G09RevA.02 11-Jun-2009
                26-Dec-2016 
 ******************************************
 %chk=structure_120.chk
 -------------------------------------------------------------------
 # HF/6-31G* Opt=(ModRedundant, maxcycles=1000, calcfc) geom=nocrowd
 -------------------------------------------------------------------
 1/6=1000,10=4,18=120,19=15,38=1/1,3;
 2/9=110,12=1,17=6,18=5,40=1/2;
 3/5=1,6=6,7=1,11=9,16=1,25=1,30=1,71=2/1,2,3;
 4//1;
 5/5=2,38=5/2;
 8/6=4,10=90,11=11/1;
 11/6=1,8=1,9=11,15=111,16=1/1,2,10;
 10/6=1,7=6,13=1/2;
 6/7=2,8=2,9=2,10=2,28=1/1;
 7/10=1,18=20,25=1/1,2,3,16;
 1/6=1000,10=4,18=20,19=15/3(2);
 2/9=110,12=1/2;
 99//99;
 2/9=110,12=1/2;
 3/5=1,6=6,7=1,11=9,16=1,25=1,30=1,71=1/1,2,3;
 4/5=5,16=3/1;
 5/5=2,38=5/2;
 7//1,2,3,16;
 1/6=1000,18=20,19=15/3(-5);
 2/9=110,12=1/2;
 6/7=2,8=2,9=2,10=2,19=2,28=1/1;
 99/9=1/99;
 ------------------
 Phi Psi fixed scan
 ------------------
 Symbolic Z-matrix:
 Charge =  0 Multiplicity = 1
 H                     3.923     1.       -3.3308 
 C                     3.923     2.09     -3.3308 
 H                     2.8955    2.4539   -3.3308 
 H                     4.4367    2.4539   -4.2206 
 C                     4.6367    2.6408   -2.0946 
 O                     5.1183    1.8774   -1.2605 
 N                     4.7007    3.9697   -1.9838 
 H                     4.2896    4.5562   -2.6959 
 C                     5.3497    4.6139   -0.8598 
 H                     4.8562    4.3155    0.0652 
 C                     6.8208    4.2208   -0.7761 
 H                     7.3303    4.5214   -1.6916 
 H                     7.2825    4.7189    0.0764 
 H                     6.9024    3.1409   -0.6532 
 C                     5.2794    6.1294   -0.9815 
 O                     4.7233    6.6527   -1.9446 
 N                     5.846     6.8349    0. 
 H                     6.2915    6.3592    0.7716 
 C                     5.8461    8.2839    0. 
 H                     5.3323    8.6477   -0.8898 
 C                     5.1347    8.8329    1.2322 
 H                     5.6431    8.4846    2.1312 
 H                     5.1499    9.9224    1.2058 
 H                     4.1019    8.4846    1.2414 
 C                     7.266     8.8318    0. 
 O                     8.0386    8.5624    0.9171 
 N                     7.6088    9.6038   -1.0338 
 H                     6.9383    9.797    -1.764 
 C                     8.9308    10.1857  -1.1497 
 H                     9.1217    10.8292  -0.2909 
 C                     10.0046   9.1038   -1.1963 
 H                     9.8322    8.4568   -2.0563 
 H                     10.9864   9.5692   -1.2833 
 H                     9.9638    8.5111   -0.2824 
 C                     9.0538    11.018   -2.418 
 O                     8.1017    11.1268  -3.1875 
 N                     10.2322   11.6068  -2.6346 
 H                     10.9855   11.4877  -1.9725 
 C                     10.4755   12.4252  -3.8053 
 H                     9.5757    12.4581  -4.4197 
 H                     10.7397   13.4359  -3.4943 
 H                     11.2945   11.998   -4.3841 
 
 The following ModRedundant input section has been read:
 D   15   17   19   25 F                                                       
 D   17   19   25   27 F                                                       

 GradGradGradGradGradGradGradGradGradGradGradGradGradGradGradGradGradGrad
 Berny optimization.
 Initialization pass.
                           ----------------------------
                           !    Initial Parameters    !
                           ! (Angstroms and Degrees)  !
 --------------------------                            --------------------------
 ! Name  Definition              Value          Derivative Info.                !
 --------------------------------------------------------------------------------
 ! R1    R(1,2)                  1.09           calculate D2E/DX2 analytically  !
 ! R2    R(2,3)                  1.09           calculate D2E/DX2 analytically  !
 ! R3    R(2,4)                  1.09           calculate D2E/DX2 analytically  !
 ! R4    R(2,5)                  1.53           calculate D2E/DX2 analytically  !
 ! R5    R(5,6)                  1.229          calculate D2E/DX2 analytically  !
 ! R6    R(5,7)                  1.335          calculate D2E/DX2 analytically  !
 ! R7    R(7,8)                  1.01           calculate D2E/DX2 analytically  !
 ! R8    R(7,9)                  1.449          calculate D2E/DX2 analytically  !
 ! R9    R(9,10)                 1.0901         calculate D2E/DX2 analytically  !
 ! R10   R(9,11)                 1.525          calculate D2E/DX2 analytically  !
 ! R11   R(9,15)                 1.522          calculate D2E/DX2 analytically  !
 ! R12   R(11,12)                1.09           calculate D2E/DX2 analytically  !
 ! R13   R(11,13)                1.09           calculate D2E/DX2 analytically  !
 ! R14   R(11,14)                1.0899         calculate D2E/DX2 analytically  !
 ! R15   R(15,16)                1.2291         calculate D2E/DX2 analytically  !
 ! R16   R(15,17)                1.335          calculate D2E/DX2 analytically  !
 ! R17   R(17,18)                1.01           calculate D2E/DX2 analytically  !
 ! R18   R(17,19)                1.449          calculate D2E/DX2 analytically  !
 ! R19   R(19,20)                1.09           calculate D2E/DX2 analytically  !
 ! R20   R(19,21)                1.5251         calculate D2E/DX2 analytically  !
 ! R21   R(19,25)                1.5219         calculate D2E/DX2 analytically  !
 ! R22   R(21,22)                1.0899         calculate D2E/DX2 analytically  !
 ! R23   R(21,23)                1.0899         calculate D2E/DX2 analytically  !
 ! R24   R(21,24)                1.09           calculate D2E/DX2 analytically  !
 ! R25   R(25,26)                1.229          calculate D2E/DX2 analytically  !
 ! R26   R(25,27)                1.335          calculate D2E/DX2 analytically  !
 ! R27   R(27,28)                1.01           calculate D2E/DX2 analytically  !
 ! R28   R(27,29)                1.449          calculate D2E/DX2 analytically  !
 ! R29   R(29,30)                1.09           calculate D2E/DX2 analytically  !
 ! R30   R(29,31)                1.525          calculate D2E/DX2 analytically  !
 ! R31   R(29,35)                1.522          calculate D2E/DX2 analytically  !
 ! R32   R(31,32)                1.0899         calculate D2E/DX2 analytically  !
 ! R33   R(31,33)                1.09           calculate D2E/DX2 analytically  !
 ! R34   R(31,34)                1.09           calculate D2E/DX2 analytically  !
 ! R35   R(35,36)                1.229          calculate D2E/DX2 analytically  !
 ! R36   R(35,37)                1.335          calculate D2E/DX2 analytically  !
 ! R37   R(37,38)                1.01           calculate D2E/DX2 analytically  !
 ! R38   R(37,39)                1.449          calculate D2E/DX2 analytically  !
 ! R39   R(39,40)                1.0901         calculate D2E/DX2 analytically  !
 ! R40   R(39,41)                1.09           calculate D2E/DX2 analytically  !
 ! R41   R(39,42)                1.0901         calculate D2E/DX2 analytically  !
 ! A1    A(1,2,3)              109.5021         calculate D2E/DX2 analytically  !
 ! A2    A(1,2,4)              109.5032         calculate D2E/DX2 analytically  !
 ! A3    A(1,2,5)              111.1            calculate D2E/DX2 analytically  !
 ! A4    A(3,2,4)              109.4387         calculate D2E/DX2 analytically  !
 ! A5    A(3,2,5)              108.6341         calculate D2E/DX2 analytically  !
 ! A6    A(4,2,5)              108.6357         calculate D2E/DX2 analytically  !
 ! A7    A(2,5,6)              120.4994         calculate D2E/DX2 analytically  !
 ! A8    A(2,5,7)              116.5999         calculate D2E/DX2 analytically  !
 ! A9    A(6,5,7)              122.9007         calculate D2E/DX2 analytically  !
 ! A10   A(5,7,8)              120.0            calculate D2E/DX2 analytically  !
 ! A11   A(5,7,9)              121.8967         calculate D2E/DX2 analytically  !
 ! A12   A(8,7,9)              118.1033         calculate D2E/DX2 analytically  !
 ! A13   A(7,9,10)             109.4981         calculate D2E/DX2 analytically  !
 ! A14   A(7,9,11)             111.1026         calculate D2E/DX2 analytically  !
 ! A15   A(7,9,15)             111.0985         calculate D2E/DX2 analytically  !
 ! A16   A(10,9,11)            108.638          calculate D2E/DX2 analytically  !
 ! A17   A(10,9,15)            108.634          calculate D2E/DX2 analytically  !
 ! A18   A(11,9,15)            107.795          calculate D2E/DX2 analytically  !
 ! A19   A(9,11,12)            109.4948         calculate D2E/DX2 analytically  !
 ! A20   A(9,11,13)            109.4963         calculate D2E/DX2 analytically  !
 ! A21   A(9,11,14)            109.4999         calculate D2E/DX2 analytically  !
 ! A22   A(12,11,13)           109.4446         calculate D2E/DX2 analytically  !
 ! A23   A(12,11,14)           109.4483         calculate D2E/DX2 analytically  !
 ! A24   A(13,11,14)           109.4434         calculate D2E/DX2 analytically  !
 ! A25   A(9,15,16)            120.4974         calculate D2E/DX2 analytically  !
 ! A26   A(9,15,17)            116.6046         calculate D2E/DX2 analytically  !
 ! A27   A(16,15,17)           122.8981         calculate D2E/DX2 analytically  !
 ! A28   A(15,17,18)           119.9989         calculate D2E/DX2 analytically  !
 ! A29   A(15,17,19)           121.9049         calculate D2E/DX2 analytically  !
 ! A30   A(18,17,19)           118.0962         calculate D2E/DX2 analytically  !
 ! A31   A(17,19,20)           109.4954         calculate D2E/DX2 analytically  !
 ! A32   A(17,19,21)           111.0974         calculate D2E/DX2 analytically  !
 ! A33   A(17,19,25)           111.1042         calculate D2E/DX2 analytically  !
 ! A34   A(20,19,21)           108.6349         calculate D2E/DX2 analytically  !
 ! A35   A(20,19,25)           108.6399         calculate D2E/DX2 analytically  !
 ! A36   A(21,19,25)           107.7944         calculate D2E/DX2 analytically  !
 ! A37   A(19,21,22)           109.4996         calculate D2E/DX2 analytically  !
 ! A38   A(19,21,23)           109.4977         calculate D2E/DX2 analytically  !
 ! A39   A(19,21,24)           109.4988         calculate D2E/DX2 analytically  !
 ! A40   A(22,21,23)           109.4452         calculate D2E/DX2 analytically  !
 ! A41   A(22,21,24)           109.4447         calculate D2E/DX2 analytically  !
 ! A42   A(23,21,24)           109.4412         calculate D2E/DX2 analytically  !
 ! A43   A(19,25,26)           120.5014         calculate D2E/DX2 analytically  !
 ! A44   A(19,25,27)           116.5988         calculate D2E/DX2 analytically  !
 ! A45   A(26,25,27)           122.8998         calculate D2E/DX2 analytically  !
 ! A46   A(25,27,28)           120.0005         calculate D2E/DX2 analytically  !
 ! A47   A(25,27,29)           121.8991         calculate D2E/DX2 analytically  !
 ! A48   A(28,27,29)           118.1005         calculate D2E/DX2 analytically  !
 ! A49   A(27,29,30)           109.5023         calculate D2E/DX2 analytically  !
 ! A50   A(27,29,31)           111.0965         calculate D2E/DX2 analytically  !
 ! A51   A(27,29,35)           111.0992         calculate D2E/DX2 analytically  !
 ! A52   A(30,29,31)           108.6378         calculate D2E/DX2 analytically  !
 ! A53   A(30,29,35)           108.637          calculate D2E/DX2 analytically  !
 ! A54   A(31,29,35)           107.7933         calculate D2E/DX2 analytically  !
 ! A55   A(29,31,32)           109.5036         calculate D2E/DX2 analytically  !
 ! A56   A(29,31,33)           109.4968         calculate D2E/DX2 analytically  !
 ! A57   A(29,31,34)           109.498          calculate D2E/DX2 analytically  !
 ! A58   A(32,31,33)           109.4483         calculate D2E/DX2 analytically  !
 ! A59   A(32,31,34)           109.4419         calculate D2E/DX2 analytically  !
 ! A60   A(33,31,34)           109.4387         calculate D2E/DX2 analytically  !
 ! A61   A(29,35,36)           120.5013         calculate D2E/DX2 analytically  !
 ! A62   A(29,35,37)           116.598          calculate D2E/DX2 analytically  !
 ! A63   A(36,35,37)           122.9008         calculate D2E/DX2 analytically  !
 ! A64   A(35,37,38)           120.0001         calculate D2E/DX2 analytically  !
 ! A65   A(35,37,39)           121.8984         calculate D2E/DX2 analytically  !
 ! A66   A(38,37,39)           118.1015         calculate D2E/DX2 analytically  !
 ! A67   A(37,39,40)           109.502          calculate D2E/DX2 analytically  !
 ! A68   A(37,39,41)           109.506          calculate D2E/DX2 analytically  !
 ! A69   A(37,39,42)           109.5            calculate D2E/DX2 analytically  !
 ! A70   A(40,39,41)           109.4463         calculate D2E/DX2 analytically  !
 ! A71   A(40,39,42)           109.4352         calculate D2E/DX2 analytically  !
 ! A72   A(41,39,42)           109.4378         calculate D2E/DX2 analytically  !
 ! D1    D(1,2,5,6)              0.0022         calculate D2E/DX2 analytically  !
 ! D2    D(1,2,5,7)            179.9987         calculate D2E/DX2 analytically  !
 ! D3    D(3,2,5,6)            120.5158         calculate D2E/DX2 analytically  !
 ! D4    D(3,2,5,7)            -59.4876         calculate D2E/DX2 analytically  !
 ! D5    D(4,2,5,6)           -120.5139         calculate D2E/DX2 analytically  !
 ! D6    D(4,2,5,7)             59.4827         calculate D2E/DX2 analytically  !
 ! D7    D(2,5,7,8)              0.0002         calculate D2E/DX2 analytically  !
 ! D8    D(2,5,7,9)           -179.997          calculate D2E/DX2 analytically  !
 ! D9    D(6,5,7,8)            179.9966         calculate D2E/DX2 analytically  !
 ! D10   D(6,5,7,9)             -0.0006         calculate D2E/DX2 analytically  !
 ! D11   D(5,7,9,10)           -60.0024         calculate D2E/DX2 analytically  !
 ! D12   D(5,7,9,11)            60.0008         calculate D2E/DX2 analytically  !
 ! D13   D(5,7,9,15)          -179.9979         calculate D2E/DX2 analytically  !
 ! D14   D(8,7,9,10)           120.0004         calculate D2E/DX2 analytically  !
 ! D15   D(8,7,9,11)          -119.9965         calculate D2E/DX2 analytically  !
 ! D16   D(8,7,9,15)             0.0048         calculate D2E/DX2 analytically  !
 ! D17   D(7,9,11,12)           60.0011         calculate D2E/DX2 analytically  !
 ! D18   D(7,9,11,13)          179.9983         calculate D2E/DX2 analytically  !
 ! D19   D(7,9,11,14)          -60.0028         calculate D2E/DX2 analytically  !
 ! D20   D(10,9,11,12)        -179.4861         calculate D2E/DX2 analytically  !
 ! D21   D(10,9,11,13)         -59.4889         calculate D2E/DX2 analytically  !
 ! D22   D(10,9,11,14)          60.5099         calculate D2E/DX2 analytically  !
 ! D23   D(15,9,11,12)         -61.9438         calculate D2E/DX2 analytically  !
 ! D24   D(15,9,11,13)          58.0534         calculate D2E/DX2 analytically  !
 ! D25   D(15,9,11,14)         178.0523         calculate D2E/DX2 analytically  !
 ! D26   D(7,9,15,16)           -0.0008         calculate D2E/DX2 analytically  !
 ! D27   D(7,9,15,17)          179.9951         calculate D2E/DX2 analytically  !
 ! D28   D(10,9,15,16)        -120.5084         calculate D2E/DX2 analytically  !
 ! D29   D(10,9,15,17)          59.4875         calculate D2E/DX2 analytically  !
 ! D30   D(11,9,15,16)         121.9467         calculate D2E/DX2 analytically  !
 ! D31   D(11,9,15,17)         -58.0575         calculate D2E/DX2 analytically  !
 ! D32   D(9,15,17,18)           0.0024         calculate D2E/DX2 analytically  !
 ! D33   D(9,15,17,19)         179.9943         calculate D2E/DX2 analytically  !
 ! D34   D(16,15,17,18)        179.9982         calculate D2E/DX2 analytically  !
 ! D35   D(16,15,17,19)         -0.0099         calculate D2E/DX2 analytically  !
 ! D36   D(15,17,19,20)          0.0099         calculate D2E/DX2 analytically  !
 ! D37   D(15,17,19,21)        120.0042         calculate D2E/DX2 analytically  !
 ! D38   D(15,17,19,25)       -119.9948         frozen, calculate D2E/DX2 analyt!
 ! D39   D(18,17,19,20)       -179.998          calculate D2E/DX2 analytically  !
 ! D40   D(18,17,19,21)        -60.0037         calculate D2E/DX2 analytically  !
 ! D41   D(18,17,19,25)         59.9973         calculate D2E/DX2 analytically  !
 ! D42   D(17,19,21,22)         60.0039         calculate D2E/DX2 analytically  !
 ! D43   D(17,19,21,23)       -179.9943         calculate D2E/DX2 analytically  !
 ! D44   D(17,19,21,24)        -59.998          calculate D2E/DX2 analytically  !
 ! D45   D(20,19,21,22)       -179.4919         calculate D2E/DX2 analytically  !
 ! D46   D(20,19,21,23)        -59.4901         calculate D2E/DX2 analytically  !
 ! D47   D(20,19,21,24)         60.5062         calculate D2E/DX2 analytically  !
 ! D48   D(25,19,21,22)        -61.9445         calculate D2E/DX2 analytically  !
 ! D49   D(25,19,21,23)         58.0573         calculate D2E/DX2 analytically  !
 ! D50   D(25,19,21,24)        178.0536         calculate D2E/DX2 analytically  !
 ! D51   D(17,19,25,26)        -60.0007         calculate D2E/DX2 analytically  !
 ! D52   D(17,19,25,27)        119.9986         frozen, calculate D2E/DX2 analyt!
 ! D53   D(20,19,25,26)        179.4877         calculate D2E/DX2 analytically  !
 ! D54   D(20,19,25,27)         -0.5131         calculate D2E/DX2 analytically  !
 ! D55   D(21,19,25,26)         61.9435         calculate D2E/DX2 analytically  !
 ! D56   D(21,19,25,27)       -118.0573         calculate D2E/DX2 analytically  !
 ! D57   D(19,25,27,28)          0.0039         calculate D2E/DX2 analytically  !
 ! D58   D(19,25,27,29)        179.9979         calculate D2E/DX2 analytically  !
 ! D59   D(26,25,27,28)       -179.9968         calculate D2E/DX2 analytically  !
 ! D60   D(26,25,27,29)         -0.0029         calculate D2E/DX2 analytically  !
 ! D61   D(25,27,29,30)        -59.9969         calculate D2E/DX2 analytically  !
 ! D62   D(25,27,29,31)         60.0049         calculate D2E/DX2 analytically  !
 ! D63   D(25,27,29,35)       -179.9994         calculate D2E/DX2 analytically  !
 ! D64   D(28,27,29,30)        119.9971         calculate D2E/DX2 analytically  !
 ! D65   D(28,27,29,31)       -120.0011         calculate D2E/DX2 analytically  !
 ! D66   D(28,27,29,35)         -0.0054         calculate D2E/DX2 analytically  !
 ! D67   D(27,29,31,32)         59.9976         calculate D2E/DX2 analytically  !
 ! D68   D(27,29,31,33)       -179.9949         calculate D2E/DX2 analytically  !
 ! D69   D(27,29,31,34)        -60.0027         calculate D2E/DX2 analytically  !
 ! D70   D(30,29,31,32)       -179.4883         calculate D2E/DX2 analytically  !
 ! D71   D(30,29,31,33)        -59.4808         calculate D2E/DX2 analytically  !
 ! D72   D(30,29,31,34)         60.5114         calculate D2E/DX2 analytically  !
 ! D73   D(35,29,31,32)        -61.9434         calculate D2E/DX2 analytically  !
 ! D74   D(35,29,31,33)         58.0641         calculate D2E/DX2 analytically  !
 ! D75   D(35,29,31,34)        178.0563         calculate D2E/DX2 analytically  !
 ! D76   D(27,29,35,36)          0.0026         calculate D2E/DX2 analytically  !
 ! D77   D(27,29,35,37)        179.9999         calculate D2E/DX2 analytically  !
 ! D78   D(30,29,35,36)       -120.5127         calculate D2E/DX2 analytically  !
 ! D79   D(30,29,35,37)         59.4846         calculate D2E/DX2 analytically  !
 ! D80   D(31,29,35,36)        121.9418         calculate D2E/DX2 analytically  !
 ! D81   D(31,29,35,37)        -58.0608         calculate D2E/DX2 analytically  !
 ! D82   D(29,35,37,38)          0.0053         calculate D2E/DX2 analytically  !
 ! D83   D(29,35,37,39)       -179.9974         calculate D2E/DX2 analytically  !
 ! D84   D(36,35,37,38)       -179.9974         calculate D2E/DX2 analytically  !
 ! D85   D(36,35,37,39)         -0.0002         calculate D2E/DX2 analytically  !
 ! D86   D(35,37,39,40)         -0.0042         calculate D2E/DX2 analytically  !
 ! D87   D(35,37,39,41)        120.0054         calculate D2E/DX2 analytically  !
 ! D88   D(35,37,39,42)       -119.9966         calculate D2E/DX2 analytically  !
 ! D89   D(38,37,39,40)        179.9931         calculate D2E/DX2 analytically  !
 ! D90   D(38,37,39,41)        -59.9973         calculate D2E/DX2 analytically  !
 ! D91   D(38,37,39,42)         60.0008         calculate D2E/DX2 analytically  !
 --------------------------------------------------------------------------------
 Trust Radius=3.00D-01 FncErr=1.00D-07 GrdErr=1.00D-07
 Number of steps in this run= 252 maximum allowed number of steps= 252.
 GradGradGradGradGradGradGradGradGradGradGradGradGradGradGradGradGradGrad

                          Input orientation:                          
 ---------------------------------------------------------------------
 Center     Atomic      Atomic             Coordinates (Angstroms)
 Number     Number       Type             X           Y           Z
 ---------------------------------------------------------------------
      1          1           0        3.923000    1.000000   -3.330800
      2          6           0        3.923000    2.090000   -3.330800
      3          1           0        2.895500    2.453900   -3.330800
      4          1           0        4.436700    2.453900   -4.220600
      5          6           0        4.636700    2.640800   -2.094600
      6          8           0        5.118300    1.877400   -1.260500
      7          7           0        4.700700    3.969700   -1.983800
      8          1           0        4.289600    4.556200   -2.695900
      9          6           0        5.349700    4.613900   -0.859800
     10          1           0        4.856200    4.315500    0.065200
     11          6           0        6.820800    4.220800   -0.776100
     12          1           0        7.330300    4.521400   -1.691600
     13          1           0        7.282500    4.718900    0.076400
     14          1           0        6.902400    3.140900   -0.653200
     15          6           0        5.279400    6.129400   -0.981500
     16          8           0        4.723300    6.652700   -1.944600
     17          7           0        5.846000    6.834900    0.000000
     18          1           0        6.291500    6.359200    0.771600
     19          6           0        5.846100    8.283900    0.000000
     20          1           0        5.332300    8.647700   -0.889800
     21          6           0        5.134700    8.832900    1.232200
     22          1           0        5.643100    8.484600    2.131200
     23          1           0        5.149900    9.922400    1.205800
     24          1           0        4.101900    8.484600    1.241400
     25          6           0        7.266000    8.831800    0.000000
     26          8           0        8.038600    8.562400    0.917100
     27          7           0        7.608800    9.603800   -1.033800
     28          1           0        6.938300    9.797000   -1.764000
     29          6           0        8.930800   10.185700   -1.149700
     30          1           0        9.121700   10.829200   -0.290900
     31          6           0       10.004600    9.103800   -1.196300
     32          1           0        9.832200    8.456800   -2.056300
     33          1           0       10.986400    9.569200   -1.283300
     34          1           0        9.963800    8.511100   -0.282400
     35          6           0        9.053800   11.018000   -2.418000
     36          8           0        8.101700   11.126800   -3.187500
     37          7           0       10.232200   11.606800   -2.634600
     38          1           0       10.985500   11.487700   -1.972500
     39          6           0       10.475500   12.425200   -3.805300
     40          1           0        9.575700   12.458100   -4.419700
     41          1           0       10.739700   13.435900   -3.494300
     42          1           0       11.294500   11.998000   -4.384100
 ---------------------------------------------------------------------
                    Distance matrix (angstroms):
                    1          2          3          4          5
     1  H    0.000000
     2  C    1.090000   0.000000
     3  H    1.780332   1.090036   0.000000
     4  H    1.780297   1.089979   1.779618   0.000000
     5  C    2.174806   1.530013   2.143572   2.143550   0.000000
     6  O    2.546510   2.400017   3.091817   3.091783   1.229000
     7  N    3.352364   2.439774   2.714923   2.714889   1.335046
     8  H    3.630985   2.572865   2.601207   2.601156   2.037351
     9  C    4.604518   3.809381   4.098114   4.098066   2.434384
    10  H    4.836964   4.166117   4.340820   4.691441   2.741813
    11  C    5.029641   4.411808   5.005638   4.546477   3.000856
    12  H    5.166907   4.495373   5.160328   4.363865   3.309765
    13  H    6.060154   5.459521   5.998750   5.629655   4.003998
    14  H    4.542006   4.141347   4.867932   4.390671   2.731507
    15  C    5.802566   4.865777   4.971065   4.971037   3.717847
    16  O    5.874951   4.835314   4.784592   4.784583   4.015637
    17  N    6.988434   6.107883   6.244425   6.244418   4.841511
    18  H    7.152657   6.376954   6.604080   6.604068   4.977948
    19  C    8.236974   7.290881   7.334110   7.334083   6.139591
    20  H    8.150578   7.137789   7.089403   7.089393   6.165894
    21  C    9.145682   8.231396   8.156386   8.420919   7.046822
    22  H    9.423981   8.583886   8.587904   8.841386   7.281499
    23  H   10.084406   9.134140   9.024497   9.259210   8.011099
    24  H    8.772471   7.863074   7.663534   8.143395   6.750178
    25  C    9.143685   8.229322   8.418617   8.154509   7.044789
    26  O    9.600662   8.767826   9.044883   8.756907   7.463820
    27  N    9.637775   8.678624   8.866368   8.446241   7.644740
    28  H    9.430488   8.422870   8.527615   8.137199   7.524484
    29  C   10.687017   9.766044  10.048023   9.455585   8.732562
    30  H   11.527387  10.613251  10.869784  10.370025   9.508862
    31  C   10.354396   9.525510   9.965770   9.185264   8.449359
    32  H    9.599316   8.779472   9.261585   8.356460   7.798753
    33  H   11.292257  10.489152  10.967334  10.107116   9.432901
    34  H   10.109433   9.328158   9.795064   9.096589   8.131573
    35  C   11.292415  10.337674  10.587808   9.894988   9.475908
    36  O   10.956010   9.957200  10.116533   9.471996   9.231081
    37  N   12.361024  11.439414  11.751061  10.948918  10.582551
    38  H   12.716750  11.833877  12.202566  11.382016  10.889895
    39  C   13.179363  12.246500  12.534288  11.664750  11.521830
    40  H   12.822900  11.859014  12.078692  11.248688  11.232951
    41  H   14.182586  13.237204  13.496760  12.683046  12.479581
    42  H   13.281734  12.394229  12.757056  11.753553  11.710051
                    6          7          8          9         10
     6  O    0.000000
     7  N    2.252836   0.000000
     8  H    3.150093   1.009986   0.000000
     9  C    2.775345   1.448990   2.120944   0.000000
    10  H    2.787563   2.083785   2.828895   1.090050   0.000000
    11  C    2.936779   2.452838   3.194542   1.525014   2.139254
    12  H    3.474123   2.702693   3.202450   2.150168   3.041367
    13  H    3.813815   3.386948   4.082838   2.150165   2.459632
    14  H    2.268977   2.702756   3.605887   2.150184   2.466317
    15  C    4.264188   2.450266   2.528602   1.522003   2.136566
    16  O    4.840197   2.683382   2.268890   2.392880   3.085363
    17  N    5.166741   3.668316   3.857814   2.432778   2.707643
    18  H    5.058889   3.979018   4.391124   2.567981   2.595341
    19  C    6.569764   4.884642   4.856575   3.801916   4.090520
    20  H    6.783817   4.845559   4.592341   4.033949   4.461687
    21  C    7.388694   5.846514   5.868077   4.714091   4.674008
    22  H    7.445410   6.181073   6.369080   4.900457   4.719000
    23  H    8.414610   6.768306   6.690253   5.699719   5.729272
    24  H    7.137763   5.580753   5.565060   4.577594   4.397023
    25  C    7.386823   5.844334   5.865798   4.711915   5.119409
    26  O    7.613102   6.375711   6.569506   5.096882   5.374901
    27  N    8.121037   6.411133   6.265615   5.480229   6.062238
    28  H    8.141620   6.246006   5.945589   5.495976   6.142309
    29  C    9.141952   7.564927   7.458066   6.629727   7.248282
    30  H    9.854038   8.334500   8.275491   7.292571   7.794202
    31  C    8.723583   7.423644   7.455917   6.476151   7.143194
    32  H    8.132813   6.817009   6.807656   6.024309   6.812614
    33  H    9.674653   8.447196   8.483675   7.517096   8.185302
    34  H    8.272939   7.156766   7.325487   6.067246   6.619023
    35  C   10.018909   8.295574   8.033037   7.560479   8.289127
    36  O    9.907846   8.014972   7.612264   7.443760   8.216273
    37  N   11.077064   9.452319   9.221129   8.711451   9.452690
    38  H   11.282236   9.798937   9.664578   8.958207   9.651994
    39  C   12.100896  10.400080  10.070615   9.796234  10.598327
    40  H   11.907988  10.087228   9.662006   9.594969  10.425447
    41  H   13.045648  11.329610  11.004104  10.668663  11.422229
    42  H   12.260867  10.662703  10.358525  10.113668  10.966713
                   11         12         13         14         15
    11  C    0.000000
    12  H    1.089996   0.000000
    13  H    1.089966   1.779639   0.000000
    14  H    1.089930   1.779650   1.779572   0.000000
    15  C    2.461881   2.701129   2.668534   3.416583   0.000000
    16  O    3.417460   3.376818   3.791244   4.330003   1.229086
    17  N    2.895874   3.227528   2.558676   3.897215   1.334956
    18  H    2.692265   3.244067   2.038619   3.572213   2.037281
    19  C    4.249842   4.384149   3.844256   5.290831   2.434412
    20  H    4.671831   4.654164   4.491357   5.731146   2.520524
    21  C    5.305438   5.653167   4.782668   6.251269   3.497187
    22  H    5.293332   5.759114   4.592421   6.155798   3.920223
    23  H    6.263232   6.505373   5.735847   7.246784   4.380400
    24  H    5.444512   5.893387   5.064972   6.323562   3.445977
    25  C    4.697005   4.630896   4.113643   5.739793   3.494694
    26  O    4.816581   4.861757   4.006364   5.757556   4.139729
    27  N    5.446471   5.132354   5.020086   6.512521   4.183335
    28  H    5.664253   5.290639   5.412268   6.748247   4.100676
    29  C    6.338116   5.910969   5.840044   7.347797   5.460273
    30  H    7.014308   6.705178   6.391661   8.010400   6.109690
    31  C    5.844385   5.328751   5.315726   6.743499   5.587550
    32  H    5.352676   4.677594   5.002127   6.229864   5.224938
    33  H    6.798151   6.246124   6.252445   7.641932   6.670319
    34  H    5.341242   4.983861   4.658207   6.192634   5.301400
    35  C    7.340576   6.760467   7.002728   8.354145   6.340981
    36  O    7.426196   6.816457   7.237770   8.463781   6.148644
    37  N    8.345338   7.714478   7.968276   9.310477   7.567356
    38  H    8.460729   7.872022   7.982910   9.385165   7.890059
    39  C    9.478664   8.765276   9.200538  10.435564   8.637731
    40  H    9.419045   8.687667   9.239529  10.399196   8.386409
    41  H   10.376148   9.712983  10.034352  11.348293   9.461183
    42  H    9.670393   8.880540   9.432789  10.566853   9.066398
                   16         17         18         19         20
    16  O    0.000000
    17  N    2.252803   0.000000
    18  H    3.150101   1.010014   0.000000
    19  C    2.775421   1.449000   2.120900   0.000000
    20  H    2.337415   2.083717   2.986226   1.089993   0.000000
    21  C    3.874865   2.452808   2.769392   1.525060   2.139212
    22  H    4.562240   2.702719   2.605045   2.150233   3.041322
    23  H    4.560476   3.386911   3.766719   2.150193   2.459608
    24  H    3.727277   2.702678   3.087456   2.150253   2.466272
    25  C    3.872373   2.450308   2.767448   1.521943   2.136547
    26  O    4.777813   2.938167   2.815603   2.392842   3.255184
    27  N    4.226660   3.441368   3.939819   2.432692   2.473321
    28  H    3.850385   3.616470   4.320427   2.567892   2.159711
    29  C    5.551307   4.697410   5.029851   3.801845   3.922014
    30  H    6.286796   5.173902   5.396280   4.158453   4.413295
    31  C    5.870262   4.886000   5.019220   4.404145   4.704504
    32  H    5.419235   4.769562   4.993346   4.488570   4.652555
    33  H    6.940440   5.962128   6.047214   5.451746   5.742199
    34  H    5.803396   4.454848   4.384903   4.133621   4.673156
    35  C    6.167105   5.799572   6.285560   4.859153   4.669398
    36  O    5.742470   5.802477   6.456106   4.830111   4.369776
    37  N    7.440913   6.996492   7.393823   6.100873   5.984114
    38  H    7.911583   7.207896   7.474305   6.369342   6.418451
    39  C    8.358933   8.195367   8.674689   7.284368   7.015850
    40  H    7.960815   8.066275   8.656336   7.132153   6.707144
    41  H    9.198393   8.929257   9.384246   7.918368   7.677907
    42  H    8.814991   8.692761   9.132761   7.918329   7.680005
                   21         22         23         24         25
    21  C    0.000000
    22  H    1.089947   0.000000
    23  H    1.089926   1.779573   0.000000
    24  H    1.089988   1.779618   1.779562   0.000000
    25  C    2.461861   2.701179   2.668565   3.416599   0.000000
    26  O    2.933444   2.686729   3.205860   3.950801   1.229048
    27  N    3.442414   3.890220   3.341183   4.327527   1.335005
    28  H    3.627627   4.309585   3.468978   4.335895   2.037325
    29  C    4.681227   4.946415   4.462389   5.650608   2.434423
    30  H    4.711817   4.844004   4.340230   5.748346   2.741870
    31  C    5.448571   5.520720   5.477983   6.416203   3.000841
    32  H    5.746494   5.923216   5.891792   6.611500   3.309740
    33  H    6.411885   6.433197   6.354927   7.412611   4.003997
    34  H    5.071270   4.949204   5.232604   6.056776   2.731432
    35  C    5.784286   6.224645   5.438079   6.658126   3.717852
    36  O    5.796448   6.427636   5.428148   6.526467   4.015666
    37  N    6.973605   7.315793   6.589055   7.896334   4.841496
    38  H    7.179828   7.375649   6.826857   8.168948   4.977875
    39  C    8.173443   8.609440   7.728981   9.034395   6.139521
    40  H    8.050375   8.612104   7.593664   8.820388   6.165915
    41  H    8.656988   9.062944   8.104412   9.539529   6.743475
    42  H    8.916491   9.312971   8.562196   9.783850   6.743439
                   26         27         28         29         30
    26  O    0.000000
    27  N    2.252832   0.000000
    28  H    3.150110   1.009994   0.000000
    29  C    2.775389   1.449043   2.120969   0.000000
    30  H    2.787607   2.083836   2.828904   1.089987   0.000000
    31  C    2.936789   2.452807   3.194527   1.525033   2.139221
    32  H    3.474084   2.702707   3.202535   2.150242   3.041337
    33  H    3.813782   3.386979   4.082901   2.150212   2.459586
    34  H    2.268882   2.702706   3.605874   2.150252   2.466332
    35  C    4.264211   2.450305   2.528616   1.521985   2.136542
    36  O    4.840235   2.683450   2.268969   2.392845   3.085329
    37  N    5.166704   3.668351   3.857862   2.432714   2.707545
    38  H    5.058793   3.978987   4.391101   2.567878   2.595217
    39  C    6.569685   4.884617   4.856555   3.801798   4.090354
    40  H    6.783848   4.845621   4.592393   4.033931   4.461661
    41  H    7.106855   5.526444   5.539510   4.396939   4.435604
    42  H    7.106824   5.526399   5.539477   4.396914   4.779272
                   31         32         33         34         35
    31  C    0.000000
    32  H    1.089922   0.000000
    33  H    1.089999   1.779646   0.000000
    34  H    1.090033   1.779603   1.779631   0.000000
    35  C    2.461856   2.701200   2.668615   3.416641   0.000000
    36  O    3.417373   3.376854   3.791252   4.330001   1.229009
    37  N    2.895776   3.227527   2.558641   3.897210   1.335001
    38  H    2.692142   3.243991   2.038539   3.572178   2.037291
    39  C    4.249744   4.384180   3.844247   5.290826   2.434347
    40  H    4.671787   4.654230   4.491417   5.731202   2.520530
    41  H    4.958656   5.261448   4.461026   5.930597   3.137980
    42  H    4.494697   4.482976   3.950817   5.545555   3.137943
                   36         37         38         39         40
    36  O    0.000000
    37  N    2.252805   0.000000
    38  H    3.150044   1.009961   0.000000
    39  C    2.775328   1.448969   2.120887   0.000000
    40  H    2.337382   2.083815   2.986302   1.090050   0.000000
    41  H    3.519249   2.083806   2.484306   1.089971   1.779706
    42  H    3.519206   2.083811   2.484291   1.090078   1.779672
                   41         42
    41  H    0.000000
    42  H    1.779636   0.000000
 Stoichiometry    C12H22N4O4
 Framework group  C1[X(C12H22N4O4)]
 Deg. of freedom   120
 Full point group                 C1      NOp   1
 Largest Abelian subgroup         C1      NOp   1
 Largest concise Abelian subgroup C1      NOp   1
                         Standard orientation:                         
 ---------------------------------------------------------------------
 Center     Atomic      Atomic             Coordinates (Angstroms)
 Number     Number       Type             X           Y           Z
 ---------------------------------------------------------------------
      1          1           0       -6.945988   -2.433363   -0.207379
      2          6           0       -6.009266   -2.180280   -0.703969
      3          1           0       -6.219523   -1.784421   -1.697582
      4          1           0       -5.391466   -3.073865   -0.792763
      5          6           0       -5.233239   -1.126095    0.088125
      6          8           0       -5.685036   -0.678360    1.139721
      7          7           0       -4.064066   -0.734530   -0.423792
      8          1           0       -3.734388   -1.131943   -1.291806
      9          6           0       -3.235205    0.257246    0.231144
     10          1           0       -3.788160    1.192451    0.319699
     11          6           0       -2.828358   -0.202459    1.627144
     12          1           0       -2.265834   -1.133221    1.554074
     13          1           0       -2.207080    0.561216    2.094950
     14          1           0       -3.720889   -0.364331    2.231405
     15          6           0       -1.962636    0.517943   -0.562012
     16          8           0       -1.748773   -0.082194   -1.613083
     17          7           0       -1.116052    1.417215   -0.055341
     18          1           0       -1.335918    1.884923    0.812435
     19          6           0        0.129237    1.753621   -0.715406
     20          1           0        0.223967    1.171381   -1.631979
     21          6           0        0.178557    3.235545   -1.072165
     22          1           0        0.093948    3.831524   -0.163520
     23          1           0        1.123879    3.459504   -1.566276
     24          1           0       -0.646898    3.476151   -1.742096
     25          6           0        1.322801    1.450558    0.178948
     26          8           0        1.439585    2.001524    1.271357
     27          7           0        2.211385    0.570423   -0.287979
     28          1           0        2.071925    0.143569   -1.192653
     29          6           0        3.390018    0.197799    0.468130
     30          1           0        3.998106    1.083117    0.653904
     31          6           0        3.009091   -0.421871    1.808514
     32          1           0        2.407469   -1.314717    1.638786
     33          1           0        3.913032   -0.691741    2.354552
     34          1           0        2.434184    0.297560    2.391672
     35          6           0        4.230038   -0.818468   -0.292136
     36          8           0        3.876642   -1.215907   -1.400114
     37          7           0        5.346445   -1.239047    0.307010
     38          1           0        5.595066   -0.883022    1.218852
     39          6           0        6.230968   -2.204788   -0.313050
     40          1           0        5.831365   -2.492346   -1.285592
     41          1           0        7.218775   -1.762735   -0.442909
     42          1           0        6.309068   -3.087126    0.322286
 ---------------------------------------------------------------------
 Rotational constants (GHZ):      0.5893234      0.1205832      0.1124162
 Standard basis: 6-31G(d) (6D, 7F)
 There are   344 symmetry adapted basis functions of A   symmetry.
 Integral buffers will be    131072 words long.
 Raffenetti 1 integral format.
 Two-electron integral symmetry is turned on.
   344 basis functions,   648 primitive gaussians,   344 cartesian basis functions
    77 alpha electrons       77 beta electrons
       nuclear repulsion energy      1599.6209168316 Hartrees.
 NAtoms=   42 NActive=   42 NUniq=   42 SFac= 7.50D-01 NAtFMM=   80 NAOKFM=F Big=F
 One-electron integrals computed using PRISM.
 NBasis=   344 RedAO= T  NBF=   344
 NBsUse=   344 1.00D-06 NBFU=   344
 Harris functional with IExCor=  205 diagonalized for initial guess.
 ExpMin= 1.61D-01 ExpMax= 5.48D+03 ExpMxC= 8.25D+02 IAcc=1 IRadAn=         1 AccDes= 0.00D+00
 HarFok:  IExCor=  205 AccDes= 0.00D+00 IRadAn=         1 IDoV= 1
 ScaDFX=  1.000000  1.000000  1.000000  1.000000
 FoFCou: FMM=F IPFlag=           0 FMFlag=      100000 FMFlg1=           0
         NFxFlg=           0 DoJE=T BraDBF=F KetDBF=T FulRan=T
         Omega=  0.000000  0.000000  1.000000  0.000000  0.000000 ICntrl=     500 IOpCl=  0
         NMat0=    1 NMatS0=    1 NMatT0=    0 NMatD0=    1 NMtDS0=    0 NMtDT0=    0
         I1Cent=           4 NGrid=           0.
 Petite list used in FoFCou.
 Initial guess orbital symmetries:
       Occupied  (A) (A) (A) (A) (A) (A) (A) (A) (A) (A) (A) (A)
                 (A) (A) (A) (A) (A) (A) (A) (A) (A) (A) (A) (A)
                 (A) (A) (A) (A) (A) (A) (A) (A) (A) (A) (A) (A)
                 (A) (A) (A) (A) (A) (A) (A) (A) (A) (A) (A) (A)
                 (A) (A) (A) (A) (A) (A) (A) (A) (A) (A) (A) (A)
                 (A) (A) (A) (A) (A) (A) (A) (A) (A) (A) (A) (A)
                 (A) (A) (A) (A) (A)
       Virtual   (A) (A) (A) (A) (A) (A) (A) (A) (A) (A) (A) (A)
                 (A) (A) (A) (A) (A) (A) (A) (A) (A) (A) (A) (A)
                 (A) (A) (A) (A) (A) (A) (A) (A) (A) (A) (A) (A)
                 (A) (A) (A) (A) (A) (A) (A) (A) (A) (A) (A) (A)
                 (A) (A) (A) (A) (A) (A) (A) (A) (A) (A) (A) (A)
                 (A) (A) (A) (A) (A) (A) (A) (A) (A) (A) (A) (A)
                 (A) (A) (A) (A) (A) (A) (A) (A) (A) (A) (A) (A)
                 (A) (A) (A) (A) (A) (A) (A) (A) (A) (A) (A) (A)
                 (A) (A) (A) (A) (A) (A) (A) (A) (A) (A) (A) (A)
                 (A) (A) (A) (A) (A) (A) (A) (A) (A) (A) (A) (A)
                 (A) (A) (A) (A) (A) (A) (A) (A) (A) (A) (A) (A)
                 (A) (A) (A) (A) (A) (A) (A) (A) (A) (A) (A) (A)
                 (A) (A) (A) (A) (A) (A) (A) (A) (A) (A) (A) (A)
                 (A) (A) (A) (A) (A) (A) (A) (A) (A) (A) (A) (A)
                 (A) (A) (A) (A) (A) (A) (A) (A) (A) (A) (A) (A)
                 (A) (A) (A) (A) (A) (A) (A) (A) (A) (A) (A) (A)
                 (A) (A) (A) (A) (A) (A) (A) (A) (A) (A) (A) (A)
                 (A) (A) (A) (A) (A) (A) (A) (A) (A) (A) (A) (A)
                 (A) (A) (A) (A) (A) (A) (A) (A) (A) (A) (A) (A)
                 (A) (A) (A) (A) (A) (A) (A) (A) (A) (A) (A) (A)
                 (A) (A) (A) (A) (A) (A) (A) (A) (A) (A) (A) (A)
                 (A) (A) (A) (A) (A) (A) (A) (A) (A) (A) (A) (A)
                 (A) (A) (A)
 The electronic state of the initial guess is 1-A.
 Requested convergence on RMS density matrix=1.00D-08 within 128 cycles.
 Requested convergence on MAX density matrix=1.00D-06.
 Requested convergence on             energy=1.00D-06.
 No special actions if energy rises.
 Integral accuracy reduced to 1.0D-05 until final iterations.
 Initial convergence to 1.0D-05 achieved.  Increase integral accuracy.
 SCF Done:  E(RHF) =  -984.545884963     A.U. after   15 cycles
             Convg  =    0.3583D-08             -V/T =  2.0020
 Range of M.O.s used for correlation:     1   344
 NBasis=   344 NAE=    77 NBE=    77 NFC=     0 NFV=     0
 NROrb=    344 NOA=    77 NOB=    77 NVA=   267 NVB=   267
 Symmetrizing basis deriv contribution to polar:
 IMax=3 JMax=2 DiffMx= 0.00D+00
 G2DrvN: will do    43 centers at a time, making    1 passes doing MaxLOS=2.
 Calling FoFCou, ICntrl=  3107 FMM=F I1Cent=   0 AccDes= 0.00D+00.
 FoFDir/FoFCou used for L=0 through L=2.
 End of G2Drv Frequency-dependent properties file   721 does not exist.
 End of G2Drv Frequency-dependent properties file   722 does not exist.
          IDoAtm=111111111111111111111111111111111111111111
          Differentiating once with respect to nuclear coordinates.
          There are   129 degrees of freedom in the 1st order CPHF.  IDoFFX=5.
    123 vectors produced by pass  0 Test12= 2.06D-10 1.00D-07 XBig12= 8.50D-02 4.69D-02.
 AX will form   123 AO Fock derivatives at one time.
    123 vectors produced by pass  1 Test12= 2.06D-10 1.00D-07 XBig12= 6.33D-03 2.14D-02.
    123 vectors produced by pass  2 Test12= 2.06D-10 1.00D-07 XBig12= 8.80D-05 1.55D-03.
    123 vectors produced by pass  3 Test12= 2.06D-10 1.00D-07 XBig12= 8.17D-07 1.15D-04.
    123 vectors produced by pass  4 Test12= 2.06D-10 1.00D-07 XBig12= 5.44D-09 6.70D-06.
     32 vectors produced by pass  5 Test12= 2.06D-10 1.00D-07 XBig12= 2.90D-11 5.08D-07.
 Inverted reduced A of dimension   647 with in-core refinement.
 End of Minotr Frequency-dependent properties file   721 does not exist.
 End of Minotr Frequency-dependent properties file   722 does not exist.

 **********************************************************************

            Population analysis using the SCF density.

 **********************************************************************

 Orbital symmetries:
       Occupied  (A) (A) (A) (A) (A) (A) (A) (A) (A) (A) (A) (A)
                 (A) (A) (A) (A) (A) (A) (A) (A) (A) (A) (A) (A)
                 (A) (A) (A) (A) (A) (A) (A) (A) (A) (A) (A) (A)
                 (A) (A) (A) (A) (A) (A) (A) (A) (A) (A) (A) (A)
                 (A) (A) (A) (A) (A) (A) (A) (A) (A) (A) (A) (A)
                 (A) (A) (A) (A) (A) (A) (A) (A) (A) (A) (A) (A)
                 (A) (A) (A) (A) (A)
       Virtual   (A) (A) (A) (A) (A) (A) (A) (A) (A) (A) (A) (A)
                 (A) (A) (A) (A) (A) (A) (A) (A) (A) (A) (A) (A)
                 (A) (A) (A) (A) (A) (A) (A) (A) (A) (A) (A) (A)
                 (A) (A) (A) (A) (A) (A) (A) (A) (A) (A) (A) (A)
                 (A) (A) (A) (A) (A) (A) (A) (A) (A) (A) (A) (A)
                 (A) (A) (A) (A) (A) (A) (A) (A) (A) (A) (A) (A)
                 (A) (A) (A) (A) (A) (A) (A) (A) (A) (A) (A) (A)
                 (A) (A) (A) (A) (A) (A) (A) (A) (A) (A) (A) (A)
                 (A) (A) (A) (A) (A) (A) (A) (A) (A) (A) (A) (A)
                 (A) (A) (A) (A) (A) (A) (A) (A) (A) (A) (A) (A)
                 (A) (A) (A) (A) (A) (A) (A) (A) (A) (A) (A) (A)
                 (A) (A) (A) (A) (A) (A) (A) (A) (A) (A) (A) (A)
                 (A) (A) (A) (A) (A) (A) (A) (A) (A) (A) (A) (A)
                 (A) (A) (A) (A) (A) (A) (A) (A) (A) (A) (A) (A)
                 (A) (A) (A) (A) (A) (A) (A) (A) (A) (A) (A) (A)
                 (A) (A) (A) (A) (A) (A) (A) (A) (A) (A) (A) (A)
                 (A) (A) (A) (A) (A) (A) (A) (A) (A) (A) (A) (A)
                 (A) (A) (A) (A) (A) (A) (A) (A) (A) (A) (A) (A)
                 (A) (A) (A) (A) (A) (A) (A) (A) (A) (A) (A) (A)
                 (A) (A) (A) (A) (A) (A) (A) (A) (A) (A) (A) (A)
                 (A) (A) (A) (A) (A) (A) (A) (A) (A) (A) (A) (A)
                 (A) (A) (A) (A) (A) (A) (A) (A) (A) (A) (A) (A)
                 (A) (A) (A)
 The electronic state is 1-A.
 Alpha  occ. eigenvalues --  -20.53502 -20.53469 -20.52793 -20.51207 -15.60669
 Alpha  occ. eigenvalues --  -15.60625 -15.59962 -15.58575 -11.36412 -11.36332
 Alpha  occ. eigenvalues --  -11.35512 -11.34538 -11.29257 -11.28858 -11.28584
 Alpha  occ. eigenvalues --  -11.27069 -11.23183 -11.23092 -11.22815 -11.21935
 Alpha  occ. eigenvalues --   -1.39709  -1.39355  -1.38387  -1.36859  -1.25494
 Alpha  occ. eigenvalues --   -1.24987  -1.24655  -1.23472  -1.08360  -1.05952
 Alpha  occ. eigenvalues --   -1.03182  -0.98259  -0.96598  -0.91789  -0.89965
 Alpha  occ. eigenvalues --   -0.86952  -0.81915  -0.80764  -0.78930  -0.77927
 Alpha  occ. eigenvalues --   -0.76483  -0.71846  -0.69059  -0.68382  -0.67591
 Alpha  occ. eigenvalues --   -0.65657  -0.64809  -0.64583  -0.63307  -0.62674
 Alpha  occ. eigenvalues --   -0.62141  -0.60895  -0.60492  -0.59334  -0.58550
 Alpha  occ. eigenvalues --   -0.57638  -0.56860  -0.56219  -0.55965  -0.55495
 Alpha  occ. eigenvalues --   -0.54839  -0.54824  -0.53523  -0.53207  -0.52550
 Alpha  occ. eigenvalues --   -0.52198  -0.52018  -0.50142  -0.49065  -0.43486
 Alpha  occ. eigenvalues --   -0.43012  -0.42677  -0.40720  -0.40675  -0.39839
 Alpha  occ. eigenvalues --   -0.39271  -0.38293
 Alpha virt. eigenvalues --    0.17310   0.18607   0.19563   0.20317   0.21144
 Alpha virt. eigenvalues --    0.22117   0.23321   0.24129   0.25780   0.27052
 Alpha virt. eigenvalues --    0.28366   0.28474   0.29088   0.29633   0.29918
 Alpha virt. eigenvalues --    0.30658   0.31213   0.31397   0.31729   0.31970
 Alpha virt. eigenvalues --    0.32625   0.33227   0.34584   0.35042   0.35292
 Alpha virt. eigenvalues --    0.35523   0.36064   0.36848   0.39465   0.39608
 Alpha virt. eigenvalues --    0.41123   0.41796   0.42152   0.43328   0.43877
 Alpha virt. eigenvalues --    0.46099   0.48895   0.51882   0.52885   0.52954
 Alpha virt. eigenvalues --    0.54947   0.58902   0.59618   0.61474   0.64960
 Alpha virt. eigenvalues --    0.70544   0.71308   0.71968   0.73079   0.73280
 Alpha virt. eigenvalues --    0.73867   0.74840   0.75480   0.75976   0.76424
 Alpha virt. eigenvalues --    0.77399   0.77823   0.78323   0.78878   0.81617
 Alpha virt. eigenvalues --    0.83044   0.83408   0.83619   0.86632   0.87138
 Alpha virt. eigenvalues --    0.88336   0.89254   0.91235   0.92034   0.92636
 Alpha virt. eigenvalues --    0.93206   0.93607   0.94282   0.95722   0.97639
 Alpha virt. eigenvalues --    0.98580   0.99279   0.99473   1.00049   1.01700
 Alpha virt. eigenvalues --    1.02600   1.04139   1.05078   1.06157   1.06336
 Alpha virt. eigenvalues --    1.07806   1.09254   1.09854   1.11025   1.11699
 Alpha virt. eigenvalues --    1.12374   1.12779   1.14267   1.14608   1.14758
 Alpha virt. eigenvalues --    1.15172   1.15788   1.16048   1.16270   1.16584
 Alpha virt. eigenvalues --    1.17257   1.18780   1.19337   1.19730   1.19934
 Alpha virt. eigenvalues --    1.20078   1.20756   1.21371   1.22107   1.22582
 Alpha virt. eigenvalues --    1.22951   1.24516   1.25088   1.26586   1.27292
 Alpha virt. eigenvalues --    1.27944   1.31127   1.32854   1.34355   1.35610
 Alpha virt. eigenvalues --    1.36514   1.38564   1.39374   1.39622   1.44231
 Alpha virt. eigenvalues --    1.45368   1.47702   1.48447   1.49612   1.50856
 Alpha virt. eigenvalues --    1.53709   1.55465   1.55854   1.59561   1.60659
 Alpha virt. eigenvalues --    1.61174   1.61771   1.64393   1.65572   1.67548
 Alpha virt. eigenvalues --    1.70474   1.71078   1.73261   1.73970   1.75561
 Alpha virt. eigenvalues --    1.76940   1.78758   1.79651   1.81874   1.84668
 Alpha virt. eigenvalues --    1.86904   1.90497   1.92719   1.94163   1.96240
 Alpha virt. eigenvalues --    1.99393   2.00770   2.01954   2.02294   2.04645
 Alpha virt. eigenvalues --    2.06971   2.07976   2.08567   2.10174   2.12220
 Alpha virt. eigenvalues --    2.12662   2.13859   2.14184   2.14311   2.14553
 Alpha virt. eigenvalues --    2.16095   2.16923   2.17402   2.18431   2.20075
 Alpha virt. eigenvalues --    2.20408   2.22111   2.22456   2.24104   2.24487
 Alpha virt. eigenvalues --    2.27175   2.28228   2.29768   2.30970   2.34290
 Alpha virt. eigenvalues --    2.34688   2.35446   2.36465   2.37277   2.38560
 Alpha virt. eigenvalues --    2.41030   2.42846   2.43571   2.45789   2.47267
 Alpha virt. eigenvalues --    2.49120   2.50045   2.52215   2.53681   2.57363
 Alpha virt. eigenvalues --    2.58390   2.58686   2.60556   2.61211   2.62132
 Alpha virt. eigenvalues --    2.62845   2.63118   2.64619   2.65978   2.66287
 Alpha virt. eigenvalues --    2.69215   2.69463   2.71915   2.74573   2.75803
 Alpha virt. eigenvalues --    2.77207   2.78202   2.79097   2.81989   2.84640
 Alpha virt. eigenvalues --    2.85752   2.91027   2.91742   2.94290   2.95236
 Alpha virt. eigenvalues --    2.97776   2.99758   3.01960   3.03224   3.06713
 Alpha virt. eigenvalues --    3.08192   3.09742   3.10344   3.15473   3.18097
 Alpha virt. eigenvalues --    3.23663   3.26205   3.30368   3.31229   3.34516
 Alpha virt. eigenvalues --    3.35541   3.39492   3.40591   3.52039   3.53561
 Alpha virt. eigenvalues --    3.60347   3.61698   4.39446   4.43732   4.44534
 Alpha virt. eigenvalues --    4.45295   4.49296   4.49952   4.52231   4.63046
 Alpha virt. eigenvalues --    4.64580   4.65448   4.69124   4.71277   4.72314
 Alpha virt. eigenvalues --    4.79174   4.85280   4.87240   4.88694   5.03028
 Alpha virt. eigenvalues --    5.05687   5.11897
          Condensed to atoms (all electrons):
              1          2          3          4          5          6
     1  H    0.458906   0.385636  -0.018804  -0.018794  -0.030795   0.003537
     2  C    0.385636   5.245222   0.374637   0.374833   0.377881  -0.067329
     3  H   -0.018804   0.374637   0.510896  -0.023637  -0.034490   0.001267
     4  H   -0.018794   0.374833  -0.023637   0.512079  -0.035381   0.001182
     5  C   -0.030795   0.377881  -0.034490  -0.035381   4.186833   0.587349
     6  O    0.003537  -0.067329   0.001267   0.001182   0.587349   8.210817
     7  N    0.003863  -0.119961   0.003488   0.003710   0.246965  -0.107630
     8  H   -0.000018  -0.001230   0.000639   0.000479  -0.017257   0.002014
     9  C   -0.000076   0.004555  -0.000241  -0.000091  -0.030117   0.014417
    10  H    0.000002  -0.000013  -0.000004  -0.000002  -0.001746   0.002940
    11  C    0.000006  -0.000508   0.000008   0.000030  -0.003912  -0.015821
    12  H    0.000000  -0.000042   0.000000   0.000002   0.000026  -0.000020
    13  H    0.000000   0.000007   0.000000  -0.000001   0.000277   0.000266
    14  H    0.000001   0.000302  -0.000005  -0.000025   0.000470   0.011001
    15  C    0.000000   0.000006  -0.000010  -0.000006   0.004042   0.000524
    16  O    0.000000  -0.000041  -0.000001  -0.000001   0.000315  -0.000003
    17  N    0.000000   0.000000   0.000000   0.000000  -0.000079  -0.000002
    18  H    0.000000   0.000000   0.000000   0.000000   0.000002   0.000001
    19  C    0.000000   0.000000   0.000000   0.000000   0.000001   0.000000
    20  H    0.000000   0.000000   0.000000   0.000000   0.000000   0.000000
    21  C    0.000000   0.000000   0.000000   0.000000   0.000000   0.000000
    22  H    0.000000   0.000000   0.000000   0.000000   0.000000   0.000000
    23  H    0.000000   0.000000   0.000000   0.000000   0.000000   0.000000
    24  H    0.000000   0.000000   0.000000   0.000000   0.000000   0.000000
    25  C    0.000000   0.000000   0.000000   0.000000   0.000000   0.000000
    26  O    0.000000   0.000000   0.000000   0.000000   0.000000   0.000000
    27  N    0.000000   0.000000   0.000000   0.000000   0.000000   0.000000
    28  H    0.000000   0.000000   0.000000   0.000000   0.000000   0.000000
    29  C    0.000000   0.000000   0.000000   0.000000   0.000000   0.000000
    30  H    0.000000   0.000000   0.000000   0.000000   0.000000   0.000000
    31  C    0.000000   0.000000   0.000000   0.000000   0.000000   0.000000
    32  H    0.000000   0.000000   0.000000   0.000000   0.000000   0.000000
    33  H    0.000000   0.000000   0.000000   0.000000   0.000000   0.000000
    34  H    0.000000   0.000000   0.000000   0.000000   0.000000   0.000000
    35  C    0.000000   0.000000   0.000000   0.000000   0.000000   0.000000
    36  O    0.000000   0.000000   0.000000   0.000000   0.000000   0.000000
    37  N    0.000000   0.000000   0.000000   0.000000   0.000000   0.000000
    38  H    0.000000   0.000000   0.000000   0.000000   0.000000   0.000000
    39  C    0.000000   0.000000   0.000000   0.000000   0.000000   0.000000
    40  H    0.000000   0.000000   0.000000   0.000000   0.000000   0.000000
    41  H    0.000000   0.000000   0.000000   0.000000   0.000000   0.000000
    42  H    0.000000   0.000000   0.000000   0.000000   0.000000   0.000000
              7          8          9         10         11         12
     1  H    0.003863  -0.000018  -0.000076   0.000002   0.000006   0.000000
     2  C   -0.119961  -0.001230   0.004555  -0.000013  -0.000508  -0.000042
     3  H    0.003488   0.000639  -0.000241  -0.000004   0.000008   0.000000
     4  H    0.003710   0.000479  -0.000091  -0.000002   0.000030   0.000002
     5  C    0.246965  -0.017257  -0.030117  -0.001746  -0.003912   0.000026
     6  O   -0.107630   0.002014   0.014417   0.002940  -0.015821  -0.000020
     7  N    7.419586   0.311328   0.196510  -0.041331  -0.063490   0.001650
     8  H    0.311328   0.287948  -0.026893   0.002357   0.003012   0.000239
     9  C    0.196510  -0.026893   5.027760   0.404721   0.334989  -0.042816
    10  H   -0.041331   0.002357   0.404721   0.498709  -0.045357   0.004498
    11  C   -0.063490   0.003012   0.334989  -0.045357   5.211474   0.385380
    12  H    0.001650   0.000239  -0.042816   0.004498   0.385380   0.525302
    13  H    0.004823  -0.000076  -0.041502   0.000303   0.379610  -0.023515
    14  H   -0.005583  -0.000196  -0.026575  -0.003998   0.387346  -0.020377
    15  C   -0.037526  -0.005695   0.380595  -0.037894  -0.064447  -0.002769
    16  O   -0.006052   0.020488  -0.076493   0.001004   0.000018   0.000603
    17  N    0.002746   0.000706  -0.112548   0.002087   0.002602   0.000139
    18  H    0.000020  -0.000016   0.000007   0.000532   0.000335  -0.000004
    19  C   -0.000053  -0.000018   0.004277  -0.000331  -0.000101  -0.000071
    20  H   -0.000006  -0.000010   0.000578  -0.000022  -0.000046  -0.000003
    21  C    0.000000   0.000000  -0.000164   0.000031  -0.000005   0.000001
    22  H    0.000000   0.000000  -0.000010   0.000001  -0.000001   0.000000
    23  H    0.000000   0.000000   0.000003   0.000000   0.000000   0.000000
    24  H    0.000000   0.000000  -0.000014   0.000001   0.000000   0.000000
    25  C    0.000001   0.000000  -0.000043   0.000001   0.000016   0.000013
    26  O    0.000000   0.000000  -0.000006   0.000000  -0.000012   0.000000
    27  N    0.000000   0.000000  -0.000007   0.000000   0.000001   0.000001
    28  H    0.000000   0.000000   0.000001   0.000000   0.000000   0.000000
    29  C    0.000000   0.000000   0.000000   0.000000   0.000000   0.000000
    30  H    0.000000   0.000000   0.000000   0.000000   0.000000   0.000000
    31  C    0.000000   0.000000   0.000000   0.000000  -0.000001   0.000000
    32  H    0.000000   0.000000   0.000000   0.000000   0.000000   0.000003
    33  H    0.000000   0.000000   0.000000   0.000000   0.000000   0.000000
    34  H    0.000000   0.000000   0.000000   0.000000   0.000000   0.000000
    35  C    0.000000   0.000000   0.000000   0.000000   0.000000   0.000000
    36  O    0.000000   0.000000   0.000000   0.000000   0.000000   0.000000
    37  N    0.000000   0.000000   0.000000   0.000000   0.000000   0.000000
    38  H    0.000000   0.000000   0.000000   0.000000   0.000000   0.000000
    39  C    0.000000   0.000000   0.000000   0.000000   0.000000   0.000000
    40  H    0.000000   0.000000   0.000000   0.000000   0.000000   0.000000
    41  H    0.000000   0.000000   0.000000   0.000000   0.000000   0.000000
    42  H    0.000000   0.000000   0.000000   0.000000   0.000000   0.000000
             13         14         15         16         17         18
     1  H    0.000000   0.000001   0.000000   0.000000   0.000000   0.000000
     2  C    0.000007   0.000302   0.000006  -0.000041   0.000000   0.000000
     3  H    0.000000  -0.000005  -0.000010  -0.000001   0.000000   0.000000
     4  H   -0.000001  -0.000025  -0.000006  -0.000001   0.000000   0.000000
     5  C    0.000277   0.000470   0.004042   0.000315  -0.000079   0.000002
     6  O    0.000266   0.011001   0.000524  -0.000003  -0.000002   0.000001
     7  N    0.004823  -0.005583  -0.037526  -0.006052   0.002746   0.000020
     8  H   -0.000076  -0.000196  -0.005695   0.020488   0.000706  -0.000016
     9  C   -0.041502  -0.026575   0.380595  -0.076493  -0.112548   0.000007
    10  H    0.000303  -0.003998  -0.037894   0.001004   0.002087   0.000532
    11  C    0.379610   0.387346  -0.064447   0.000018   0.002602   0.000335
    12  H   -0.023515  -0.020377  -0.002769   0.000603   0.000139  -0.000004
    13  H    0.553648  -0.019747  -0.007151   0.000032   0.000525   0.002686
    14  H   -0.019747   0.425740   0.004045  -0.000061   0.000079  -0.000087
    15  C   -0.007151   0.004045   4.157415   0.590214   0.269572  -0.016842
    16  O    0.000032  -0.000061   0.590214   8.217883  -0.103388   0.002106
    17  N    0.000525   0.000079   0.269572  -0.103388   7.389121   0.314455
    18  H    0.002686  -0.000087  -0.016842   0.002106   0.314455   0.296767
    19  C    0.000215   0.000006  -0.026417  -0.000866   0.190381  -0.021926
    20  H   -0.000009   0.000000  -0.000914   0.010982  -0.032555   0.002383
    21  C   -0.000004   0.000000   0.000589   0.000123  -0.069079  -0.000777
    22  H   -0.000007   0.000000   0.000033  -0.000014  -0.002036   0.002365
    23  H    0.000000   0.000000  -0.000021  -0.000009   0.004698  -0.000008
    24  H    0.000000   0.000000   0.000266   0.000149  -0.000517  -0.000131
    25  C    0.000029  -0.000001   0.000784   0.000667  -0.053502  -0.001600
    26  O    0.000015   0.000000   0.000356  -0.000001   0.001981   0.005244
    27  N   -0.000003   0.000000   0.000193  -0.000134   0.001590   0.000219
    28  H    0.000000   0.000000   0.000029   0.000031  -0.000032  -0.000004
    29  C    0.000000   0.000000  -0.000011  -0.000001  -0.000105  -0.000005
    30  H    0.000000   0.000000   0.000000   0.000000  -0.000007  -0.000001
    31  C    0.000000   0.000000   0.000002   0.000000   0.000030   0.000006
    32  H    0.000000   0.000000   0.000002   0.000000  -0.000002  -0.000001
    33  H    0.000000   0.000000   0.000000   0.000000   0.000000   0.000000
    34  H    0.000002   0.000000   0.000000   0.000000  -0.000010  -0.000001
    35  C    0.000000   0.000000   0.000000   0.000000  -0.000001   0.000000
    36  O    0.000000   0.000000   0.000000   0.000000   0.000000   0.000000
    37  N    0.000000   0.000000   0.000000   0.000000   0.000000   0.000000
    38  H    0.000000   0.000000   0.000000   0.000000   0.000000   0.000000
    39  C    0.000000   0.000000   0.000000   0.000000   0.000000   0.000000
    40  H    0.000000   0.000000   0.000000   0.000000   0.000000   0.000000
    41  H    0.000000   0.000000   0.000000   0.000000   0.000000   0.000000
    42  H    0.000000   0.000000   0.000000   0.000000   0.000000   0.000000
             19         20         21         22         23         24
     1  H    0.000000   0.000000   0.000000   0.000000   0.000000   0.000000
     2  C    0.000000   0.000000   0.000000   0.000000   0.000000   0.000000
     3  H    0.000000   0.000000   0.000000   0.000000   0.000000   0.000000
     4  H    0.000000   0.000000   0.000000   0.000000   0.000000   0.000000
     5  C    0.000001   0.000000   0.000000   0.000000   0.000000   0.000000
     6  O    0.000000   0.000000   0.000000   0.000000   0.000000   0.000000
     7  N   -0.000053  -0.000006   0.000000   0.000000   0.000000   0.000000
     8  H   -0.000018  -0.000010   0.000000   0.000000   0.000000   0.000000
     9  C    0.004277   0.000578  -0.000164  -0.000010   0.000003  -0.000014
    10  H   -0.000331  -0.000022   0.000031   0.000001   0.000000   0.000001
    11  C   -0.000101  -0.000046  -0.000005  -0.000001   0.000000   0.000000
    12  H   -0.000071  -0.000003   0.000001   0.000000   0.000000   0.000000
    13  H    0.000215  -0.000009  -0.000004  -0.000007   0.000000   0.000000
    14  H    0.000006   0.000000   0.000000   0.000000   0.000000   0.000000
    15  C   -0.026417  -0.000914   0.000589   0.000033  -0.000021   0.000266
    16  O   -0.000866   0.010982   0.000123  -0.000014  -0.000009   0.000149
    17  N    0.190381  -0.032555  -0.069079  -0.002036   0.004698  -0.000517
    18  H   -0.021926   0.002383  -0.000777   0.002365  -0.000008  -0.000131
    19  C    5.095748   0.405842   0.349193  -0.035046  -0.039084  -0.039253
    20  H    0.405842   0.441040  -0.031518   0.003479  -0.000848  -0.003652
    21  C    0.349193  -0.031518   5.135150   0.388228   0.386346   0.391576
    22  H   -0.035046   0.003479   0.388228   0.499528  -0.021131  -0.024739
    23  H   -0.039084  -0.000848   0.386346  -0.021131   0.518070  -0.021642
    24  H   -0.039253  -0.003652   0.391576  -0.024739  -0.021642   0.508946
    25  C    0.341956  -0.053951  -0.063556  -0.006978  -0.001139   0.005794
    26  O   -0.078518   0.002270   0.001010   0.005607  -0.000278   0.000048
    27  N   -0.086907   0.007917  -0.000705   0.000498   0.000894  -0.000095
    28  H   -0.000574   0.002438   0.000035  -0.000008   0.000015  -0.000009
    29  C    0.005315   0.000136  -0.000276  -0.000005  -0.000030   0.000004
    30  H   -0.000128  -0.000008   0.000058   0.000000  -0.000013   0.000000
    31  C   -0.000613   0.000010  -0.000006   0.000001   0.000002   0.000000
    32  H   -0.000016  -0.000002   0.000001   0.000000   0.000000   0.000000
    33  H    0.000009   0.000000   0.000000   0.000000   0.000000   0.000000
    34  H    0.000247  -0.000011  -0.000003  -0.000002   0.000000   0.000000
    35  C   -0.000011  -0.000046  -0.000001   0.000000  -0.000001   0.000000
    36  O   -0.000038  -0.000037   0.000000   0.000000   0.000000   0.000000
    37  N    0.000000   0.000000   0.000000   0.000000   0.000000   0.000000
    38  H    0.000000   0.000000   0.000000   0.000000   0.000000   0.000000
    39  C    0.000000   0.000000   0.000000   0.000000   0.000000   0.000000
    40  H    0.000000   0.000000   0.000000   0.000000   0.000000   0.000000
    41  H    0.000000   0.000000   0.000000   0.000000   0.000000   0.000000
    42  H    0.000000   0.000000   0.000000   0.000000   0.000000   0.000000
             25         26         27         28         29         30
     1  H    0.000000   0.000000   0.000000   0.000000   0.000000   0.000000
     2  C    0.000000   0.000000   0.000000   0.000000   0.000000   0.000000
     3  H    0.000000   0.000000   0.000000   0.000000   0.000000   0.000000
     4  H    0.000000   0.000000   0.000000   0.000000   0.000000   0.000000
     5  C    0.000000   0.000000   0.000000   0.000000   0.000000   0.000000
     6  O    0.000000   0.000000   0.000000   0.000000   0.000000   0.000000
     7  N    0.000001   0.000000   0.000000   0.000000   0.000000   0.000000
     8  H    0.000000   0.000000   0.000000   0.000000   0.000000   0.000000
     9  C   -0.000043  -0.000006  -0.000007   0.000001   0.000000   0.000000
    10  H    0.000001   0.000000   0.000000   0.000000   0.000000   0.000000
    11  C    0.000016  -0.000012   0.000001   0.000000   0.000000   0.000000
    12  H    0.000013   0.000000   0.000001   0.000000   0.000000   0.000000
    13  H    0.000029   0.000015  -0.000003   0.000000   0.000000   0.000000
    14  H   -0.000001   0.000000   0.000000   0.000000   0.000000   0.000000
    15  C    0.000784   0.000356   0.000193   0.000029  -0.000011   0.000000
    16  O    0.000667  -0.000001  -0.000134   0.000031  -0.000001   0.000000
    17  N   -0.053502   0.001981   0.001590  -0.000032  -0.000105  -0.000007
    18  H   -0.001600   0.005244   0.000219  -0.000004  -0.000005  -0.000001
    19  C    0.341956  -0.078518  -0.086907  -0.000574   0.005315  -0.000128
    20  H   -0.053951   0.002270   0.007917   0.002438   0.000136  -0.000008
    21  C   -0.063556   0.001010  -0.000705   0.000035  -0.000276   0.000058
    22  H   -0.006978   0.005607   0.000498  -0.000008  -0.000005   0.000000
    23  H   -0.001139  -0.000278   0.000894   0.000015  -0.000030  -0.000013
    24  H    0.005794   0.000048  -0.000095  -0.000009   0.000004   0.000000
    25  C    4.231532   0.556480   0.281186  -0.013632  -0.037503  -0.001284
    26  O    0.556480   8.266061  -0.104625   0.001902   0.012902   0.002884
    27  N    0.281186  -0.104625   7.379722   0.304426   0.192460  -0.041084
    28  H   -0.013632   0.001902   0.304426   0.275943  -0.026813   0.002276
    29  C   -0.037503   0.012902   0.192460  -0.026813   5.058060   0.403915
    30  H   -0.001284   0.002884  -0.041084   0.002276   0.403915   0.498221
    31  C   -0.003557  -0.014935  -0.062282   0.002946   0.334128  -0.045076
    32  H   -0.000006  -0.000009   0.001431   0.000233  -0.042243   0.004423
    33  H    0.000251   0.000253   0.004862  -0.000071  -0.042052   0.000169
    34  H    0.000513   0.009733  -0.005286  -0.000195  -0.027371  -0.003963
    35  C    0.003831   0.000439  -0.035688  -0.005266   0.374966  -0.036736
    36  O    0.000296  -0.000003  -0.005912   0.021872  -0.079389   0.001002
    37  N   -0.000100  -0.000001   0.002780   0.000745  -0.117305   0.002143
    38  H    0.000002   0.000001   0.000016  -0.000023   0.001206   0.000465
    39  C    0.000001   0.000000  -0.000049  -0.000010   0.003656  -0.000214
    40  H    0.000000   0.000000  -0.000004  -0.000010   0.000587  -0.000017
    41  H    0.000000   0.000000   0.000000   0.000000  -0.000110   0.000010
    42  H    0.000000   0.000000   0.000001   0.000000  -0.000005  -0.000001
             31         32         33         34         35         36
     1  H    0.000000   0.000000   0.000000   0.000000   0.000000   0.000000
     2  C    0.000000   0.000000   0.000000   0.000000   0.000000   0.000000
     3  H    0.000000   0.000000   0.000000   0.000000   0.000000   0.000000
     4  H    0.000000   0.000000   0.000000   0.000000   0.000000   0.000000
     5  C    0.000000   0.000000   0.000000   0.000000   0.000000   0.000000
     6  O    0.000000   0.000000   0.000000   0.000000   0.000000   0.000000
     7  N    0.000000   0.000000   0.000000   0.000000   0.000000   0.000000
     8  H    0.000000   0.000000   0.000000   0.000000   0.000000   0.000000
     9  C    0.000000   0.000000   0.000000   0.000000   0.000000   0.000000
    10  H    0.000000   0.000000   0.000000   0.000000   0.000000   0.000000
    11  C   -0.000001   0.000000   0.000000   0.000000   0.000000   0.000000
    12  H    0.000000   0.000003   0.000000   0.000000   0.000000   0.000000
    13  H    0.000000   0.000000   0.000000   0.000002   0.000000   0.000000
    14  H    0.000000   0.000000   0.000000   0.000000   0.000000   0.000000
    15  C    0.000002   0.000002   0.000000   0.000000   0.000000   0.000000
    16  O    0.000000   0.000000   0.000000   0.000000   0.000000   0.000000
    17  N    0.000030  -0.000002   0.000000  -0.000010  -0.000001   0.000000
    18  H    0.000006  -0.000001   0.000000  -0.000001   0.000000   0.000000
    19  C   -0.000613  -0.000016   0.000009   0.000247  -0.000011  -0.000038
    20  H    0.000010  -0.000002   0.000000  -0.000011  -0.000046  -0.000037
    21  C   -0.000006   0.000001   0.000000  -0.000003  -0.000001   0.000000
    22  H    0.000001   0.000000   0.000000  -0.000002   0.000000   0.000000
    23  H    0.000002   0.000000   0.000000   0.000000  -0.000001   0.000000
    24  H    0.000000   0.000000   0.000000   0.000000   0.000000   0.000000
    25  C   -0.003557  -0.000006   0.000251   0.000513   0.003831   0.000296
    26  O   -0.014935  -0.000009   0.000253   0.009733   0.000439  -0.000003
    27  N   -0.062282   0.001431   0.004862  -0.005286  -0.035688  -0.005912
    28  H    0.002946   0.000233  -0.000071  -0.000195  -0.005266   0.021872
    29  C    0.334128  -0.042243  -0.042052  -0.027371   0.374966  -0.079389
    30  H   -0.045076   0.004423   0.000169  -0.003963  -0.036736   0.001002
    31  C    5.203820   0.386402   0.379574   0.388312  -0.062497  -0.000012
    32  H    0.386402   0.517307  -0.023600  -0.020403  -0.002702   0.000629
    33  H    0.379574  -0.023600   0.563560  -0.020421  -0.006953   0.000024
    34  H    0.388312  -0.020403  -0.020421   0.430591   0.003936  -0.000065
    35  C   -0.062497  -0.002702  -0.006953   0.003936   4.143252   0.595851
    36  O   -0.000012   0.000629   0.000024  -0.000065   0.595851   8.210495
    37  N    0.002504   0.000155   0.000434   0.000089   0.287955  -0.099065
    38  H   -0.000030  -0.000004   0.002600  -0.000080  -0.020698   0.002369
    39  C   -0.000078  -0.000041   0.000160   0.000003  -0.025578  -0.004850
    40  H   -0.000049  -0.000001  -0.000008   0.000000  -0.001954   0.009817
    41  H   -0.000004   0.000001   0.000002   0.000000   0.000792   0.000366
    42  H    0.000011   0.000002  -0.000002  -0.000001   0.000937   0.000375
             37         38         39         40         41         42
     1  H    0.000000   0.000000   0.000000   0.000000   0.000000   0.000000
     2  C    0.000000   0.000000   0.000000   0.000000   0.000000   0.000000
     3  H    0.000000   0.000000   0.000000   0.000000   0.000000   0.000000
     4  H    0.000000   0.000000   0.000000   0.000000   0.000000   0.000000
     5  C    0.000000   0.000000   0.000000   0.000000   0.000000   0.000000
     6  O    0.000000   0.000000   0.000000   0.000000   0.000000   0.000000
     7  N    0.000000   0.000000   0.000000   0.000000   0.000000   0.000000
     8  H    0.000000   0.000000   0.000000   0.000000   0.000000   0.000000
     9  C    0.000000   0.000000   0.000000   0.000000   0.000000   0.000000
    10  H    0.000000   0.000000   0.000000   0.000000   0.000000   0.000000
    11  C    0.000000   0.000000   0.000000   0.000000   0.000000   0.000000
    12  H    0.000000   0.000000   0.000000   0.000000   0.000000   0.000000
    13  H    0.000000   0.000000   0.000000   0.000000   0.000000   0.000000
    14  H    0.000000   0.000000   0.000000   0.000000   0.000000   0.000000
    15  C    0.000000   0.000000   0.000000   0.000000   0.000000   0.000000
    16  O    0.000000   0.000000   0.000000   0.000000   0.000000   0.000000
    17  N    0.000000   0.000000   0.000000   0.000000   0.000000   0.000000
    18  H    0.000000   0.000000   0.000000   0.000000   0.000000   0.000000
    19  C    0.000000   0.000000   0.000000   0.000000   0.000000   0.000000
    20  H    0.000000   0.000000   0.000000   0.000000   0.000000   0.000000
    21  C    0.000000   0.000000   0.000000   0.000000   0.000000   0.000000
    22  H    0.000000   0.000000   0.000000   0.000000   0.000000   0.000000
    23  H    0.000000   0.000000   0.000000   0.000000   0.000000   0.000000
    24  H    0.000000   0.000000   0.000000   0.000000   0.000000   0.000000
    25  C   -0.000100   0.000002   0.000001   0.000000   0.000000   0.000000
    26  O   -0.000001   0.000001   0.000000   0.000000   0.000000   0.000000
    27  N    0.002780   0.000016  -0.000049  -0.000004   0.000000   0.000001
    28  H    0.000745  -0.000023  -0.000010  -0.000010   0.000000   0.000000
    29  C   -0.117305   0.001206   0.003656   0.000587  -0.000110  -0.000005
    30  H    0.002143   0.000465  -0.000214  -0.000017   0.000010  -0.000001
    31  C    0.002504  -0.000030  -0.000078  -0.000049  -0.000004   0.000011
    32  H    0.000155  -0.000004  -0.000041  -0.000001   0.000001   0.000002
    33  H    0.000434   0.002600   0.000160  -0.000008   0.000002  -0.000002
    34  H    0.000089  -0.000080   0.000003   0.000000   0.000000  -0.000001
    35  C    0.287955  -0.020698  -0.025578  -0.001954   0.000792   0.000937
    36  O   -0.099065   0.002369  -0.004850   0.009817   0.000366   0.000375
    37  N    7.334630   0.322447   0.185013  -0.031654  -0.047016  -0.047953
[...]
    29  C   -0.000001   0.000000  -0.000010   0.000000  -0.000182  -0.000010
    30  H    0.000000   0.000000   0.000000   0.000000  -0.000012  -0.000004
    31  C    0.000003   0.000000   0.000002   0.000000   0.000040   0.000005
    32  H    0.000000   0.000000   0.000001   0.000000  -0.000002   0.000000
    33  H    0.000000   0.000000   0.000000   0.000000   0.000000   0.000000
    34  H    0.000034   0.000000   0.000000   0.000000  -0.000003  -0.000003
    35  C    0.000000   0.000000   0.000000   0.000000  -0.000001   0.000000
    36  O    0.000000   0.000000   0.000000   0.000000   0.000000   0.000000
    37  N    0.000000   0.000000   0.000000   0.000000   0.000000   0.000000
    38  H    0.000000   0.000000   0.000000   0.000000   0.000000   0.000000
    39  C    0.000000   0.000000   0.000000   0.000000   0.000000   0.000000
    40  H    0.000000   0.000000   0.000000   0.000000   0.000000   0.000000
    41  H    0.000000   0.000000   0.000000   0.000000   0.000000   0.000000
    42  H    0.000000   0.000000   0.000000   0.000000   0.000000   0.000000
             19         20         21         22         23         24
     1  H    0.000000   0.000000   0.000000   0.000000   0.000000   0.000000
     2  C    0.000000   0.000000   0.000000   0.000000   0.000000   0.000000
     3  H    0.000000   0.000000   0.000000   0.000000   0.000000   0.000000
     4  H    0.000000   0.000000   0.000000   0.000000   0.000000   0.000000
     5  C    0.000001   0.000000   0.000000   0.000000   0.000000   0.000000
     6  O    0.000000   0.000000   0.000000   0.000000   0.000000   0.000000
     7  N   -0.000081  -0.000004   0.000003   0.000000   0.000000   0.000000
     8  H   -0.000019  -0.000012   0.000001   0.000000   0.000000   0.000000
     9  C    0.004587   0.000604  -0.000176  -0.000009   0.000002  -0.000006
    10  H   -0.000076  -0.000021   0.000005   0.000002   0.000000  -0.000001
    11  C   -0.000385  -0.000040   0.000000   0.000000   0.000000   0.000000
    12  H    0.000010  -0.000003   0.000000   0.000000   0.000000   0.000000
    13  H   -0.000074  -0.000003   0.000003  -0.000001   0.000000   0.000000
    14  H    0.000005   0.000000   0.000000   0.000000   0.000000   0.000000
    15  C   -0.025327  -0.000792  -0.000023   0.000031  -0.000008   0.000343
    16  O    0.000207   0.011211  -0.000106  -0.000012  -0.000005   0.000176
    17  N    0.185037  -0.038435  -0.066642  -0.001789   0.004503  -0.000787
    18  H   -0.024472   0.002882   0.000105   0.001831  -0.000036  -0.000175
    19  C    5.081949   0.406726   0.351793  -0.034619  -0.037937  -0.036887
    20  H    0.406726   0.445086  -0.030398   0.003301  -0.000684  -0.003332
    21  C    0.351793  -0.030398   5.119837   0.390194   0.385804   0.392622
    22  H   -0.034619   0.003301   0.390194   0.499500  -0.023442  -0.024681
    23  H   -0.037937  -0.000684   0.385804  -0.023442   0.522797  -0.022801
    24  H   -0.036887  -0.003332   0.392622  -0.024681  -0.022801   0.504195
    25  C    0.356454  -0.047212  -0.059681  -0.005585  -0.000963   0.005030
    26  O   -0.081337   0.002347   0.001217   0.004951  -0.000033  -0.000008
    27  N   -0.090549   0.006679   0.000207   0.000411   0.000626  -0.000088
    28  H   -0.000311   0.002004   0.000014  -0.000005   0.000000  -0.000007
    29  C    0.005456   0.000013  -0.000224  -0.000004  -0.000022   0.000003
    30  H    0.000209  -0.000014   0.000025  -0.000002  -0.000007   0.000000
    31  C   -0.000441   0.000010  -0.000002   0.000000   0.000001   0.000000
    32  H    0.000002  -0.000001   0.000000   0.000000   0.000000   0.000000
    33  H    0.000005   0.000000   0.000000   0.000000   0.000000   0.000000
    34  H    0.000080  -0.000008   0.000000   0.000000   0.000000   0.000000
    35  C   -0.000017  -0.000030   0.000001   0.000000  -0.000001   0.000000
    36  O   -0.000043  -0.000031   0.000000   0.000000   0.000000   0.000000
    37  N    0.000000   0.000000   0.000000   0.000000   0.000000   0.000000
    38  H    0.000000   0.000000   0.000000   0.000000   0.000000   0.000000
    39  C    0.000000   0.000000   0.000000   0.000000   0.000000   0.000000
    40  H    0.000000   0.000000   0.000000   0.000000   0.000000   0.000000
    41  H    0.000000   0.000000   0.000000   0.000000   0.000000   0.000000
    42  H    0.000000   0.000000   0.000000   0.000000   0.000000   0.000000
             25         26         27         28         29         30
     1  H    0.000000   0.000000   0.000000   0.000000   0.000000   0.000000
     2  C    0.000000   0.000000   0.000000   0.000000   0.000000   0.000000
     3  H    0.000000   0.000000   0.000000   0.000000   0.000000   0.000000
     4  H    0.000000   0.000000   0.000000   0.000000   0.000000   0.000000
     5  C    0.000000   0.000000   0.000000   0.000000   0.000000   0.000000
     6  O    0.000000   0.000000   0.000000   0.000000   0.000000   0.000000
     7  N    0.000000   0.000000   0.000000   0.000000   0.000000   0.000000
     8  H    0.000000   0.000000   0.000000   0.000000   0.000000   0.000000
     9  C   -0.000090  -0.000022  -0.000009   0.000000   0.000000   0.000000
    10  H   -0.000003  -0.000002   0.000000   0.000000   0.000000   0.000000
    11  C    0.000042  -0.000010   0.000001   0.000000   0.000000   0.000000
    12  H   -0.000001   0.000000   0.000000   0.000000   0.000000   0.000000
    13  H    0.000087   0.000046  -0.000006   0.000000  -0.000001   0.000000
    14  H   -0.000001   0.000000   0.000000   0.000000   0.000000   0.000000
    15  C    0.001312   0.000415   0.000196   0.000016  -0.000010   0.000000
    16  O    0.000522  -0.000002  -0.000088   0.000000   0.000000   0.000000
    17  N   -0.057100  -0.001126   0.001851  -0.000029  -0.000182  -0.000012
    18  H   -0.002734   0.009152   0.000428  -0.000008  -0.000010  -0.000004
    19  C    0.356454  -0.081337  -0.090549  -0.000311   0.005456   0.000209
    20  H   -0.047212   0.002347   0.006679   0.002004   0.000013  -0.000014
    21  C   -0.059681   0.001217   0.000207   0.000014  -0.000224   0.000025
    22  H   -0.005585   0.004951   0.000411  -0.000005  -0.000004  -0.000002
    23  H   -0.000963  -0.000033   0.000626   0.000000  -0.000022  -0.000007
    24  H    0.005030  -0.000008  -0.000088  -0.000007   0.000003   0.000000
    25  C    4.196024   0.572294   0.284101  -0.012719  -0.033518  -0.000810
    26  O    0.572294   8.226734  -0.105103   0.001847   0.009537   0.006043
    27  N    0.284101  -0.105103   7.386962   0.305971   0.194660  -0.042687
    28  H   -0.012719   0.001847   0.305971   0.278357  -0.026740   0.002732
    29  C   -0.033518   0.009537   0.194660  -0.026740   5.062141   0.410697
    30  H   -0.000810   0.006043  -0.042687   0.002732   0.410697   0.483816
    31  C   -0.002113  -0.003714  -0.064232   0.002483   0.337224  -0.039992
    32  H    0.000150  -0.000008  -0.000026   0.000582  -0.038080   0.003920
    33  H    0.000035   0.000000   0.004631  -0.000061  -0.037635  -0.000042
    34  H    0.002053   0.004405  -0.005375  -0.000194  -0.029929  -0.003613
    35  C    0.003687   0.000429  -0.041740  -0.007310   0.374687  -0.042421
    36  O    0.000373  -0.000004  -0.008719   0.023097  -0.077234   0.001775
    37  N   -0.000119  -0.000002   0.002509   0.001007  -0.116623   0.003955
    38  H   -0.000005  -0.000001  -0.000004  -0.000030   0.000594   0.001326
    39  C    0.000002   0.000000  -0.000081  -0.000029   0.004405  -0.000097
    40  H    0.000000   0.000000   0.000007   0.000001  -0.000171  -0.000003
    41  H    0.000000   0.000000   0.000000   0.000000   0.000003  -0.000011
    42  H    0.000000   0.000000  -0.000004  -0.000003   0.000151  -0.000001
             31         32         33         34         35         36
     1  H    0.000000   0.000000   0.000000   0.000000   0.000000   0.000000
     2  C    0.000000   0.000000   0.000000   0.000000   0.000000   0.000000
     3  H    0.000000   0.000000   0.000000   0.000000   0.000000   0.000000
     4  H    0.000000   0.000000   0.000000   0.000000   0.000000   0.000000
     5  C    0.000000   0.000000   0.000000   0.000000   0.000000   0.000000
     6  O    0.000000   0.000000   0.000000   0.000000   0.000000   0.000000
     7  N    0.000000   0.000000   0.000000   0.000000   0.000000   0.000000
     8  H    0.000000   0.000000   0.000000   0.000000   0.000000   0.000000
     9  C    0.000000   0.000000   0.000000   0.000000   0.000000   0.000000
    10  H    0.000000   0.000000   0.000000   0.000000   0.000000   0.000000
    11  C   -0.000002   0.000000   0.000000   0.000002   0.000000   0.000000
    12  H    0.000000   0.000001   0.000000   0.000000   0.000000   0.000000
    13  H    0.000003   0.000000   0.000000   0.000034   0.000000   0.000000
    14  H    0.000000   0.000000   0.000000   0.000000   0.000000   0.000000
    15  C    0.000002   0.000001   0.000000   0.000000   0.000000   0.000000
    16  O    0.000000   0.000000   0.000000   0.000000   0.000000   0.000000
    17  N    0.000040  -0.000002   0.000000  -0.000003  -0.000001   0.000000
    18  H    0.000005   0.000000   0.000000  -0.000003   0.000000   0.000000
    19  C   -0.000441   0.000002   0.000005   0.000080  -0.000017  -0.000043
    20  H    0.000010  -0.000001   0.000000  -0.000008  -0.000030  -0.000031
    21  C   -0.000002   0.000000   0.000000   0.000000   0.000001   0.000000
    22  H    0.000000   0.000000   0.000000   0.000000   0.000000   0.000000
    23  H    0.000001   0.000000   0.000000   0.000000  -0.000001   0.000000
    24  H    0.000000   0.000000   0.000000   0.000000   0.000000   0.000000
    25  C   -0.002113   0.000150   0.000035   0.002053   0.003687   0.000373
    26  O   -0.003714  -0.000008   0.000000   0.004405   0.000429  -0.000004
    27  N   -0.064232  -0.000026   0.004631  -0.005375  -0.041740  -0.008719
    28  H    0.002483   0.000582  -0.000061  -0.000194  -0.007310   0.023097
    29  C    0.337224  -0.038080  -0.037635  -0.029929   0.374687  -0.077234
    30  H   -0.039992   0.003920  -0.000042  -0.003613  -0.042421   0.001775
    31  C    5.144630   0.389387   0.382361   0.391566  -0.053133  -0.000878
    32  H    0.389387   0.509999  -0.024230  -0.023084  -0.003947   0.001566
    33  H    0.382361  -0.024230   0.535892  -0.022989  -0.002946   0.000020
    34  H    0.391566  -0.023084  -0.022989   0.474984   0.004175  -0.000071
    35  C   -0.053133  -0.003947  -0.002946   0.004175   4.162010   0.599520
    36  O   -0.000878   0.001566   0.000020  -0.000071   0.599520   8.176301
    37  N    0.001560   0.000394   0.002340  -0.000054   0.282721  -0.103976
    38  H    0.000357   0.000005   0.000477  -0.000035  -0.022176   0.002508
    39  C   -0.000261  -0.000008  -0.000013   0.000003  -0.028852   0.008280
    40  H   -0.000005   0.000000   0.000003   0.000000  -0.003769   0.001175
    41  H    0.000004   0.000000  -0.000007   0.000000   0.004551   0.000350
    42  H    0.000003   0.000003  -0.000012   0.000000  -0.002972   0.003165
             37         38         39         40         41         42
     1  H    0.000000   0.000000   0.000000   0.000000   0.000000   0.000000
     2  C    0.000000   0.000000   0.000000   0.000000   0.000000   0.000000
     3  H    0.000000   0.000000   0.000000   0.000000   0.000000   0.000000
     4  H    0.000000   0.000000   0.000000   0.000000   0.000000   0.000000
     5  C    0.000000   0.000000   0.000000   0.000000   0.000000   0.000000
     6  O    0.000000   0.000000   0.000000   0.000000   0.000000   0.000000
     7  N    0.000000   0.000000   0.000000   0.000000   0.000000   0.000000
     8  H    0.000000   0.000000   0.000000   0.000000   0.000000   0.000000
     9  C    0.000000   0.000000   0.000000   0.000000   0.000000   0.000000
    10  H    0.000000   0.000000   0.000000   0.000000   0.000000   0.000000
    11  C    0.000000   0.000000   0.000000   0.000000   0.000000   0.000000
    12  H    0.000000   0.000000   0.000000   0.000000   0.000000   0.000000
    13  H    0.000000   0.000000   0.000000   0.000000   0.000000   0.000000
    14  H    0.000000   0.000000   0.000000   0.000000   0.000000   0.000000
    15  C    0.000000   0.000000   0.000000   0.000000   0.000000   0.000000
    16  O    0.000000   0.000000   0.000000   0.000000   0.000000   0.000000
    17  N    0.000000   0.000000   0.000000   0.000000   0.000000   0.000000
    18  H    0.000000   0.000000   0.000000   0.000000   0.000000   0.000000
    19  C    0.000000   0.000000   0.000000   0.000000   0.000000   0.000000
    20  H    0.000000   0.000000   0.000000   0.000000   0.000000   0.000000
    21  C    0.000000   0.000000   0.000000   0.000000   0.000000   0.000000
    22  H    0.000000   0.000000   0.000000   0.000000   0.000000   0.000000
    23  H    0.000000   0.000000   0.000000   0.000000   0.000000   0.000000
    24  H    0.000000   0.000000   0.000000   0.000000   0.000000   0.000000
    25  C   -0.000119  -0.000005   0.000002   0.000000   0.000000   0.000000
    26  O   -0.000002  -0.000001   0.000000   0.000000   0.000000   0.000000
    27  N    0.002509  -0.000004  -0.000081   0.000007   0.000000  -0.000004
    28  H    0.001007  -0.000030  -0.000029   0.000001   0.000000  -0.000003
    29  C   -0.116623   0.000594   0.004405  -0.000171   0.000003   0.000151
    30  H    0.003955   0.001326  -0.000097  -0.000003  -0.000011  -0.000001
    31  C    0.001560   0.000357  -0.000261  -0.000005   0.000004   0.000003
    32  H    0.000394   0.000005  -0.000008   0.000000   0.000000   0.000003
    33  H    0.002340   0.000477  -0.000013   0.000003  -0.000007  -0.000012
    34  H   -0.000054  -0.000035   0.000003   0.000000   0.000000   0.000000
    35  C    0.282721  -0.022176  -0.028852  -0.003769   0.004551  -0.002972
    36  O   -0.103976   0.002508   0.008280   0.001175   0.000350   0.003165
    37  N    7.326784   0.328502   0.193729  -0.045426  -0.037129  -0.040435
    38  H    0.328502   0.320915  -0.022081   0.001346  -0.004565   0.002496
    39  C    0.193729  -0.022081   4.910353   0.406363   0.397422   0.404321
    40  H   -0.045426   0.001346   0.406363   0.518421  -0.030869  -0.032540
    41  H   -0.037129  -0.004565   0.397422  -0.030869   0.521801  -0.024691
    42  H   -0.040435   0.002496   0.404321  -0.032540  -0.024691   0.485850
 Mulliken atomic charges:
              1
     1  H    0.202573
     2  C   -0.575225
     3  H    0.207215
     4  H    0.172837
     5  C    0.756613
     6  O   -0.622783
     7  N   -0.824516
     8  H    0.418914
     9  C   -0.032141
    10  H    0.219959
    11  C   -0.490565
    12  H    0.175863
    13  H    0.164140
    14  H    0.213076
    15  C    0.786646
    16  O   -0.636151
    17  N   -0.815025
    18  H    0.407548
    19  C   -0.059944
    20  H    0.240156
    21  C   -0.484578
    22  H    0.189928
    23  H    0.172206
    24  H    0.186402
    25  C    0.800490
    26  O   -0.648046
    27  N   -0.830529
    28  H    0.429336
    29  C   -0.039188
    30  H    0.215217
    31  C   -0.484863
    32  H    0.183378
    33  H    0.162172
    34  H    0.208058
    35  C    0.777537
    36  O   -0.627173
    37  N   -0.799736
    38  H    0.390371
    39  C   -0.273454
    40  H    0.185467
    41  H    0.173141
    42  H    0.204671
 Sum of Mulliken atomic charges =   0.00000
 Mulliken charges with hydrogens summed into heavy atoms:
              1
     2  C    0.007400
     5  C    0.756613
     6  O   -0.622783
     7  N   -0.405602
     9  C    0.187819
    11  C    0.062515
    15  C    0.786646
    16  O   -0.636151
    17  N   -0.407477
    19  C    0.180212
    21  C    0.063959
    25  C    0.800490
    26  O   -0.648046
    27  N   -0.401194
    29  C    0.176029
    31  C    0.068746
    35  C    0.777537
    36  O   -0.627173
    37  N   -0.409365
    39  C    0.289825
 Sum of Mulliken charges with hydrogens summed into heavy atoms =   0.00000
 Electronic spatial extent (au):  <R**2>=           9959.5925
 Charge=              0.0000 electrons
 Dipole moment (field-independent basis, Debye):
    X=              5.3350    Y=             -0.3551    Z=              0.0599  Tot=              5.3471
 Quadrupole moment (field-independent basis, Debye-Ang):
   XX=           -103.8891   YY=           -116.5230   ZZ=           -131.3466
   XY=             -0.8616   XZ=             21.8970   YZ=             -4.3658
 Traceless Quadrupole moment (field-independent basis, Debye-Ang):
   XX=             13.3638   YY=              0.7299   ZZ=            -14.0937
   XY=             -0.8616   XZ=             21.8970   YZ=             -4.3658
 Octapole moment (field-independent basis, Debye-Ang**2):
  XXX=            325.9231  YYY=              3.2541  ZZZ=              0.6728  XYY=            -10.8255
  XXY=            -34.0567  XXZ=            -56.9445  XZZ=             -2.0699  YZZ=             -4.8901
  YYZ=             -7.7273  XYZ=            -24.5535
 Hexadecapole moment (field-independent basis, Debye-Ang**3):
 XXXX=          -9830.6306 YYYY=          -1189.5136 ZZZZ=           -851.7126 XXXY=            -73.0847
 XXXZ=            868.6221 YYYX=             10.2551 YYYZ=              6.7752 ZZZX=             23.0246
 ZZZY=             -8.0860 XXYY=          -1964.0754 XXZZ=          -2030.4427 YYZZ=           -343.4930
 XXYZ=             39.9000 YYXZ=            -16.9333 ZZXY=             -5.7739
 N-N= 1.596666583777D+03 E-N=-5.501170284721D+03  KE= 9.831069060953D+02
 1\1\GINC-NODE007\FOpt\RHF\6-31G(d)\C12H22N4O4\MANAGER\27-Dec-2016\0\\#
  HF/6-31G* Opt=(ModRedundant, maxcycles=1000, calcfc) geom=nocrowd\\Ph
 i Psi fixed scan\\0,1\H,3.9645436694,1.100869034,-3.0257590231\C,3.412
 4182882,1.8664408631,-2.4916828088\H,2.6165502569,1.3787642906,-1.9443
 684657\H,2.988062431,2.5569218886,-3.2102975892\C,4.3447816529,2.52979
 00597,-1.5011863462\O,4.7227650829,1.9586695598,-0.5112599907\N,4.7349
 097343,3.7828128783,-1.809594845\H,4.3909361014,4.2474200506,-2.619568
 3252\C,5.6186961189,4.5439447024,-0.9614998091\H,5.3488359675,4.354496
 3914,0.0696861667\C,7.0914600136,4.163803676,-1.1694739225\H,7.3893195
 821,4.3578843458,-2.1942996723\H,7.7434355907,4.7248954943,-0.50773777
 84\H,7.2172009112,3.109858391,-0.9605076151\C,5.4042298593,6.019744418
 ,-1.2845220275\O,4.9441903784,6.3709533375,-2.3410769668\N,5.788029950
 3,6.876986879,-0.3193224132\H,6.1993209204,6.5228769591,0.5161418557\C
 ,5.7938535461,8.3183139476,-0.4811595339\H,5.4622229914,8.515480868,-1
 .4885843501\C,4.8617038197,9.0011207169,0.5178024881\H,5.1712301073,8.
 7877750453,1.5336931671\H,4.8733078187,10.0775673354,0.3777420563\H,3.
 8479633207,8.6463312428,0.3749768357\C,7.2298877773,8.7942916342,-0.27
 63709826\O,7.7985563179,8.5739016312,0.7651340646\N,7.800875133,9.4316
 537164,-1.3074825163\H,7.3035337184,9.5925848209,-2.1558247342\C,9.148
 0647221,9.9494578787,-1.2470237092\H,9.3101438246,10.3514735547,-0.254
 8389678\C,10.1949977531,8.8625682725,-1.524358244\H,10.0562165629,8.45
 12536866,-2.5180528243\H,11.2020736101,9.2598512031,-1.4534166071\H,10
 .0873801613,8.0689566011,-0.7967772848\C,9.2521224282,11.0659948387,-2
 .2826253935\O,8.5044440262,11.1177322316,-3.2242673182\N,10.2517120078
 ,11.9446457478,-2.0932061936\H,10.7721494509,11.9092165183,-1.24771650
 84\C,10.4803444969,13.0462733852,-3.0063356902\H,9.7056923158,13.79971
 83734,-2.9235009393\H,11.4362703253,13.4953123744,-2.7735860728\H,10.4
 989672549,12.6842911556,-4.0240911652\\Version=EM64L-G09RevA.02\State=
 1-A\HF=-984.566575\RMSD=6.689e-09\RMSF=3.144e-04\Dipole=1.1871587,1.72
 43956,-0.2066514\Quadrupole=12.002042,-1.9409179,-10.061124,10.678483,
 0.3383674,11.9045187\PG=C01 [X(C12H22N4O4)]\\@


 WHEN HAVING A MEETING OF THE MINDS,
 MAKE SURE YOU HAVE THE EQUIPMENT FOR IT.
 Job cpu time:  0 days  3 hours 20 minutes 35.8 seconds.
 File lengths (MBytes):  RWF=    553 Int=      0 D2E=      0 Chk=     11 Scr=      1
 Normal termination of Gaussian 09 at Tue Dec 27 00:57:27 2016.
