 Entering Gaussian System, Link 0=g09
 Initial command:
 /home/steboss/Software/g09/l1.exe /tmp/Gau-26691.inp -scrdir=/tmp/
 Entering Link 1 = /home/steboss/Software/g09/l1.exe PID=     26693.
  
 Copyright (c) 1988,1990,1992,1993,1995,1998,2003,2009, Gaussian, Inc.
                  All Rights Reserved.
  
 This is part of the Gaussian(R) 09 program.  It is based on
 the Gaussian(R) 03 system (copyright 2003, Gaussian, Inc.),
 the Gaussian(R) 98 system (copyright 1998, Gaussian, Inc.),
 the Gaussian(R) 94 system (copyright 1995, Gaussian, Inc.),
 the Gaussian 92(TM) system (copyright 1992, Gaussian, Inc.),
 the Gaussian 90(TM) system (copyright 1990, Gaussian, Inc.),
 the Gaussian 88(TM) system (copyright 1988, Gaussian, Inc.),
 the Gaussian 86(TM) system (copyright 1986, Carnegie Mellon
 University), and the Gaussian 82(TM) system (copyright 1983,
 Carnegie Mellon University). Gaussian is a federally registered
 trademark of Gaussian, Inc.
  
 This software contains proprietary and confidential information,
 including trade secrets, belonging to Gaussian, Inc.
  
 This software is provided under written license and may be
 used, copied, transmitted, or stored only in accord with that
 written license.
  
 The following legend is applicable only to US Government
 contracts under FAR:
  
                    RESTRICTED RIGHTS LEGEND
  
 Use, reproduction and disclosure by the US Government is
 subject to restrictions as set forth in subparagraphs (a)
 and (c) of the Commercial Computer Software - Restricted
 Rights clause in FAR 52.227-19.
  
 Gaussian, Inc.
 340 Quinnipiac St., Bldg. 40, Wallingford CT 06492
  
  
 ---------------------------------------------------------------
 Warning -- This program may not be used in any manner that
 competes with the business of Gaussian, Inc. or will provide
 assistance to any competitor of Gaussian, Inc.  The licensee
 of this program is prohibited from giving any competitor of
 Gaussian, Inc. access to this program.  By using this program,
 the user acknowledges that Gaussian, Inc. is engaged in the
 business of creating and licensing software in the field of
 computational chemistry and represents and warrants to the
 licensee that it is not a competitor of Gaussian, Inc. and that
 it will not use this program in any manner prohibited above.
 ---------------------------------------------------------------
  

 Cite this work as:
 Gaussian 09, Revision A.02,
 M. J. Frisch, G. W. Trucks, H. B. Schlegel, G. E. Scuseria, 
 M. A. Robb, J. R. Cheeseman, G. Scalmani, V. Barone, B. Mennucci, 
 G. A. Petersson, H. Nakatsuji, M. Caricato, X. Li, H. P. Hratchian, 
 A. F. Izmaylov, J. Bloino, G. Zheng, J. L. Sonnenberg, M. Hada, 
 M. Ehara, K. Toyota, R. Fukuda, J. Hasegawa, M. Ishida, T. Nakajima, 
 Y. Honda, O. Kitao, H. Nakai, T. Vreven, J. A. Montgomery, Jr., 
 J. E. Peralta, F. Ogliaro, M. Bearpark, J. J. Heyd, E. Brothers, 
 K. N. Kudin, V. N. Staroverov, R. Kobayashi, J. Normand, 
 K. Raghavachari, A. Rendell, J. C. Burant, S. S. Iyengar, J. Tomasi, 
 M. Cossi, N. Rega, J. M. Millam, M. Klene, J. E. Knox, J. B. Cross, 
 V. Bakken, C. Adamo, J. Jaramillo, R. Gomperts, R. E. Stratmann, 
 O. Yazyev, A. J. Austin, R. Cammi, C. Pomelli, J. W. Ochterski, 
 R. L. Martin, K. Morokuma, V. G. Zakrzewski, G. A. Voth, 
 P. Salvador, J. J. Dannenberg, S. Dapprich, A. D. Daniels, 
 O. Farkas, J. B. Foresman, J. V. Ortiz, J. Cioslowski, 
 and D. J. Fox, Gaussian, Inc., Wallingford CT, 2009.
 
 ******************************************
 Gaussian 09:  EM64L-G09RevA.02 11-Jun-2009
                27-Dec-2016 
 ******************************************
 %chk=structure_90.chk
 -------------------------------------------------------------------
 # HF/6-31G* Opt=(ModRedundant, maxcycles=1000, calcfc) geom=nocrowd
 -------------------------------------------------------------------
 1/6=1000,10=4,18=120,19=15,38=1/1,3;
 2/9=110,12=1,17=6,18=5,40=1/2;
 3/5=1,6=6,7=1,11=9,16=1,25=1,30=1,71=2/1,2,3;
 4//1;
 5/5=2,38=5/2;
 8/6=4,10=90,11=11/1;
 11/6=1,8=1,9=11,15=111,16=1/1,2,10;
 10/6=1,7=6,13=1/2;
 6/7=2,8=2,9=2,10=2,28=1/1;
 7/10=1,18=20,25=1/1,2,3,16;
 1/6=1000,10=4,18=20,19=15/3(2);
 2/9=110,12=1/2;
 99//99;
 2/9=110,12=1/2;
 3/5=1,6=6,7=1,11=9,16=1,25=1,30=1,71=1/1,2,3;
 4/5=5,16=3/1;
 5/5=2,38=5/2;
 7//1,2,3,16;
 1/6=1000,18=20,19=15/3(-5);
 2/9=110,12=1/2;
 6/7=2,8=2,9=2,10=2,19=2,28=1/1;
 99/9=1/99;
 ------------------
 Phi Psi fixed scan
 ------------------
 Symbolic Z-matrix:
 Charge =  0 Multiplicity = 1
 H                     7.7691    1.        3.3308 
 C                     7.7691    2.09      3.3308 
 H                     8.7966    2.4538    3.3308 
 H                     7.2553    2.4538    4.2206 
 C                     7.0554    2.6408    2.0946 
 O                     6.5738    1.8774    1.2605 
 N                     6.9914    3.9696    1.9838 
 H                     7.4025    4.5561    2.6959 
 C                     6.3424    4.6139    0.8598 
 H                     6.8359    4.3155   -0.0652 
 C                     4.8714    4.2208    0.7761 
 H                     4.3618    4.5213    1.6916 
 H                     4.4096    4.7189   -0.0764 
 H                     4.7897    3.1409    0.6532 
 C                     6.4127    6.1294    0.9815 
 O                     6.9688    6.6527    1.9446 
 N                     5.846     6.8349    0. 
 H                     5.4006    6.3592   -0.7716 
 C                     5.8461    8.2839    0. 
 H                     5.3323    8.6477   -0.8898 
 C                     5.1347    8.8329    1.2322 
 H                     5.6431    8.4846    2.1312 
 H                     5.1499    9.9224    1.2058 
 H                     4.1019    8.4846    1.2414 
 C                     7.266     8.8318    0. 
 O                     7.848     9.0564    1.0589 
 N                     7.8237    9.047    -1.1937 
 H                     7.305     8.8468   -2.0369 
 C                     9.1698    9.5664   -1.3276 
 H                     9.2317    10.5441  -0.8496 
 C                     10.1846   8.6373   -0.6699 
 H                     10.1409   7.6568   -1.144 
 H                     11.186    9.052    -0.7857 
 H                     9.9534    8.5382    0.3906 
 C                     9.5564    9.7156   -2.792 
 O                     8.7642    9.4099   -3.6806 
 N                     10.7798   10.1877  -3.0422 
 H                     11.3955   10.4253  -2.2776 
 C                     11.2665   10.3755  -4.3941 
 H                     10.4943   10.0775  -5.1034 
 H                     11.5155   11.4253  -4.5486 
 H                     12.1562   9.765    -4.5486 
 
 The following ModRedundant input section has been read:
 D   15   17   19   25 F                                                       
 D   17   19   25   27 F                                                       

 GradGradGradGradGradGradGradGradGradGradGradGradGradGradGradGradGradGrad
 Berny optimization.
 Initialization pass.
                           ----------------------------
                           !    Initial Parameters    !
                           ! (Angstroms and Degrees)  !
 --------------------------                            --------------------------
 ! Name  Definition              Value          Derivative Info.                !
 --------------------------------------------------------------------------------
 ! R1    R(1,2)                  1.09           calculate D2E/DX2 analytically  !
 ! R2    R(2,3)                  1.09           calculate D2E/DX2 analytically  !
 ! R3    R(2,4)                  1.09           calculate D2E/DX2 analytically  !
 ! R4    R(2,5)                  1.53           calculate D2E/DX2 analytically  !
 ! R5    R(5,6)                  1.229          calculate D2E/DX2 analytically  !
 ! R6    R(5,7)                  1.3349         calculate D2E/DX2 analytically  !
 ! R7    R(7,8)                  1.01           calculate D2E/DX2 analytically  !
 ! R8    R(7,9)                  1.449          calculate D2E/DX2 analytically  !
 ! R9    R(9,10)                 1.0901         calculate D2E/DX2 analytically  !
 ! R10   R(9,11)                 1.5249         calculate D2E/DX2 analytically  !
 ! R11   R(9,15)                 1.522          calculate D2E/DX2 analytically  !
 ! R12   R(11,12)                1.09           calculate D2E/DX2 analytically  !
 ! R13   R(11,13)                1.09           calculate D2E/DX2 analytically  !
 ! R14   R(11,14)                1.0899         calculate D2E/DX2 analytically  !
 ! R15   R(15,16)                1.2291         calculate D2E/DX2 analytically  !
 ! R16   R(15,17)                1.335          calculate D2E/DX2 analytically  !
 ! R17   R(17,18)                1.01           calculate D2E/DX2 analytically  !
 ! R18   R(17,19)                1.449          calculate D2E/DX2 analytically  !
 ! R19   R(19,20)                1.09           calculate D2E/DX2 analytically  !
 ! R20   R(19,21)                1.5251         calculate D2E/DX2 analytically  !
 ! R21   R(19,25)                1.5219         calculate D2E/DX2 analytically  !
 ! R22   R(21,22)                1.0899         calculate D2E/DX2 analytically  !
 ! R23   R(21,23)                1.0899         calculate D2E/DX2 analytically  !
 ! R24   R(21,24)                1.09           calculate D2E/DX2 analytically  !
 ! R25   R(25,26)                1.229          calculate D2E/DX2 analytically  !
 ! R26   R(25,27)                1.335          calculate D2E/DX2 analytically  !
 ! R27   R(27,28)                1.01           calculate D2E/DX2 analytically  !
 ! R28   R(27,29)                1.449          calculate D2E/DX2 analytically  !
 ! R29   R(29,30)                1.0901         calculate D2E/DX2 analytically  !
 ! R30   R(29,31)                1.525          calculate D2E/DX2 analytically  !
 ! R31   R(29,35)                1.5219         calculate D2E/DX2 analytically  !
 ! R32   R(31,32)                1.09           calculate D2E/DX2 analytically  !
 ! R33   R(31,33)                1.09           calculate D2E/DX2 analytically  !
 ! R34   R(31,34)                1.0899         calculate D2E/DX2 analytically  !
 ! R35   R(35,36)                1.2291         calculate D2E/DX2 analytically  !
 ! R36   R(35,37)                1.335          calculate D2E/DX2 analytically  !
 ! R37   R(37,38)                1.01           calculate D2E/DX2 analytically  !
 ! R38   R(37,39)                1.4491         calculate D2E/DX2 analytically  !
 ! R39   R(39,40)                1.09           calculate D2E/DX2 analytically  !
 ! R40   R(39,41)                1.0899         calculate D2E/DX2 analytically  !
 ! R41   R(39,42)                1.09           calculate D2E/DX2 analytically  !
 ! A1    A(1,2,3)              109.4972         calculate D2E/DX2 analytically  !
 ! A2    A(1,2,4)              109.4974         calculate D2E/DX2 analytically  !
 ! A3    A(1,2,5)              111.1            calculate D2E/DX2 analytically  !
 ! A4    A(3,2,4)              109.4481         calculate D2E/DX2 analytically  !
 ! A5    A(3,2,5)              108.6367         calculate D2E/DX2 analytically  !
 ! A6    A(4,2,5)              108.6348         calculate D2E/DX2 analytically  !
 ! A7    A(2,5,6)              120.4994         calculate D2E/DX2 analytically  !
 ! A8    A(2,5,7)              116.6003         calculate D2E/DX2 analytically  !
 ! A9    A(6,5,7)              122.9003         calculate D2E/DX2 analytically  !
 ! A10   A(5,7,8)              119.9996         calculate D2E/DX2 analytically  !
 ! A11   A(5,7,9)              121.9007         calculate D2E/DX2 analytically  !
 ! A12   A(8,7,9)              118.0998         calculate D2E/DX2 analytically  !
 ! A13   A(7,9,10)             109.4963         calculate D2E/DX2 analytically  !
 ! A14   A(7,9,11)             111.1004         calculate D2E/DX2 analytically  !
 ! A15   A(7,9,15)             111.102          calculate D2E/DX2 analytically  !
 ! A16   A(10,9,11)            108.6374         calculate D2E/DX2 analytically  !
 ! A17   A(10,9,15)            108.634          calculate D2E/DX2 analytically  !
 ! A18   A(11,9,15)            107.7959         calculate D2E/DX2 analytically  !
 ! A19   A(9,11,12)            109.5007         calculate D2E/DX2 analytically  !
 ! A20   A(9,11,13)            109.5005         calculate D2E/DX2 analytically  !
 ! A21   A(9,11,14)            109.5061         calculate D2E/DX2 analytically  !
 ! A22   A(12,11,13)           109.441          calculate D2E/DX2 analytically  !
 ! A23   A(12,11,14)           109.4392         calculate D2E/DX2 analytically  !
 ! A24   A(13,11,14)           109.4397         calculate D2E/DX2 analytically  !
 ! A25   A(9,15,16)            120.4974         calculate D2E/DX2 analytically  !
 ! A26   A(9,15,17)            116.6034         calculate D2E/DX2 analytically  !
 ! A27   A(16,15,17)           122.8992         calculate D2E/DX2 analytically  !
 ! A28   A(15,17,18)           119.9987         calculate D2E/DX2 analytically  !
 ! A29   A(15,17,19)           121.8998         calculate D2E/DX2 analytically  !
 ! A30   A(18,17,19)           118.1015         calculate D2E/DX2 analytically  !
 ! A31   A(17,19,20)           109.4954         calculate D2E/DX2 analytically  !
 ! A32   A(17,19,21)           111.0974         calculate D2E/DX2 analytically  !
 ! A33   A(17,19,25)           111.1042         calculate D2E/DX2 analytically  !
 ! A34   A(20,19,21)           108.6349         calculate D2E/DX2 analytically  !
 ! A35   A(20,19,25)           108.6399         calculate D2E/DX2 analytically  !
 ! A36   A(21,19,25)           107.7944         calculate D2E/DX2 analytically  !
 ! A37   A(19,21,22)           109.4996         calculate D2E/DX2 analytically  !
 ! A38   A(19,21,23)           109.4977         calculate D2E/DX2 analytically  !
 ! A39   A(19,21,24)           109.4988         calculate D2E/DX2 analytically  !
 ! A40   A(22,21,23)           109.4452         calculate D2E/DX2 analytically  !
 ! A41   A(22,21,24)           109.4447         calculate D2E/DX2 analytically  !
 ! A42   A(23,21,24)           109.4412         calculate D2E/DX2 analytically  !
 ! A43   A(19,25,26)           120.5038         calculate D2E/DX2 analytically  !
 ! A44   A(19,25,27)           116.6007         calculate D2E/DX2 analytically  !
 ! A45   A(26,25,27)           122.8955         calculate D2E/DX2 analytically  !
 ! A46   A(25,27,28)           119.999          calculate D2E/DX2 analytically  !
 ! A47   A(25,27,29)           121.9028         calculate D2E/DX2 analytically  !
 ! A48   A(28,27,29)           118.0982         calculate D2E/DX2 analytically  !
 ! A49   A(27,29,30)           109.4955         calculate D2E/DX2 analytically  !
 ! A50   A(27,29,31)           111.0965         calculate D2E/DX2 analytically  !
 ! A51   A(27,29,35)           111.1024         calculate D2E/DX2 analytically  !
 ! A52   A(30,29,31)           108.6353         calculate D2E/DX2 analytically  !
 ! A53   A(30,29,35)           108.638          calculate D2E/DX2 analytically  !
 ! A54   A(31,29,35)           107.7987         calculate D2E/DX2 analytically  !
 ! A55   A(29,31,32)           109.4985         calculate D2E/DX2 analytically  !
 ! A56   A(29,31,33)           109.4953         calculate D2E/DX2 analytically  !
 ! A57   A(29,31,34)           109.5041         calculate D2E/DX2 analytically  !
 ! A58   A(32,31,33)           109.4422         calculate D2E/DX2 analytically  !
 ! A59   A(32,31,34)           109.4463         calculate D2E/DX2 analytically  !
 ! A60   A(33,31,34)           109.4408         calculate D2E/DX2 analytically  !
 ! A61   A(29,35,36)           120.5006         calculate D2E/DX2 analytically  !
 ! A62   A(29,35,37)           116.6024         calculate D2E/DX2 analytically  !
 ! A63   A(36,35,37)           122.8969         calculate D2E/DX2 analytically  !
 ! A64   A(35,37,38)           119.9966         calculate D2E/DX2 analytically  !
 ! A65   A(35,37,39)           121.9029         calculate D2E/DX2 analytically  !
 ! A66   A(38,37,39)           118.1005         calculate D2E/DX2 analytically  !
 ! A67   A(37,39,40)           109.494          calculate D2E/DX2 analytically  !
 ! A68   A(37,39,41)           109.5001         calculate D2E/DX2 analytically  !
 ! A69   A(37,39,42)           109.4993         calculate D2E/DX2 analytically  !
 ! A70   A(40,39,41)           109.4459         calculate D2E/DX2 analytically  !
 ! A71   A(40,39,42)           109.4432         calculate D2E/DX2 analytically  !
 ! A72   A(41,39,42)           109.4447         calculate D2E/DX2 analytically  !
 ! D1    D(1,2,5,6)              0.0022         calculate D2E/DX2 analytically  !
 ! D2    D(1,2,5,7)            179.9987         calculate D2E/DX2 analytically  !
 ! D3    D(3,2,5,6)            120.5114         calculate D2E/DX2 analytically  !
 ! D4    D(3,2,5,7)            -59.4921         calculate D2E/DX2 analytically  !
 ! D5    D(4,2,5,6)           -120.5061         calculate D2E/DX2 analytically  !
 ! D6    D(4,2,5,7)             59.4904         calculate D2E/DX2 analytically  !
 ! D7    D(2,5,7,8)              0.0002         calculate D2E/DX2 analytically  !
 ! D8    D(2,5,7,9)           -179.997          calculate D2E/DX2 analytically  !
 ! D9    D(6,5,7,8)            179.9966         calculate D2E/DX2 analytically  !
 ! D10   D(6,5,7,9)             -0.0006         calculate D2E/DX2 analytically  !
 ! D11   D(5,7,9,10)           -60.0013         calculate D2E/DX2 analytically  !
 ! D12   D(5,7,9,11)            59.9987         calculate D2E/DX2 analytically  !
 ! D13   D(5,7,9,15)          -179.9979         calculate D2E/DX2 analytically  !
 ! D14   D(8,7,9,10)           120.0015         calculate D2E/DX2 analytically  !
 ! D15   D(8,7,9,11)          -119.9986         calculate D2E/DX2 analytically  !
 ! D16   D(8,7,9,15)             0.0048         calculate D2E/DX2 analytically  !
 ! D17   D(7,9,11,12)           60.0013         calculate D2E/DX2 analytically  !
 ! D18   D(7,9,11,13)         -179.9997         calculate D2E/DX2 analytically  !
 ! D19   D(7,9,11,14)          -59.999          calculate D2E/DX2 analytically  !
 ! D20   D(10,9,11,12)        -179.4899         calculate D2E/DX2 analytically  !
 ! D21   D(10,9,11,13)         -59.4908         calculate D2E/DX2 analytically  !
 ! D22   D(10,9,11,14)          60.5099         calculate D2E/DX2 analytically  !
 ! D23   D(15,9,11,12)         -61.9473         calculate D2E/DX2 analytically  !
 ! D24   D(15,9,11,13)          58.0517         calculate D2E/DX2 analytically  !
 ! D25   D(15,9,11,14)         178.0524         calculate D2E/DX2 analytically  !
 ! D26   D(7,9,15,16)           -0.0008         calculate D2E/DX2 analytically  !
 ! D27   D(7,9,15,17)          179.9993         calculate D2E/DX2 analytically  !
 ! D28   D(10,9,15,16)        -120.5084         calculate D2E/DX2 analytically  !
 ! D29   D(10,9,15,17)          59.4916         calculate D2E/DX2 analytically  !
 ! D30   D(11,9,15,16)         121.9468         calculate D2E/DX2 analytically  !
 ! D31   D(11,9,15,17)         -58.0532         calculate D2E/DX2 analytically  !
 ! D32   D(9,15,17,18)          -0.0073         calculate D2E/DX2 analytically  !
 ! D33   D(9,15,17,19)        -179.9972         calculate D2E/DX2 analytically  !
 ! D34   D(16,15,17,18)        179.9928         calculate D2E/DX2 analytically  !
 ! D35   D(16,15,17,19)          0.0029         calculate D2E/DX2 analytically  !
 ! D36   D(15,17,19,20)       -179.9987         calculate D2E/DX2 analytically  !
 ! D37   D(15,17,19,21)        -60.0044         calculate D2E/DX2 analytically  !
 ! D38   D(15,17,19,25)         59.9965         frozen, calculate D2E/DX2 analyt!
 ! D39   D(18,17,19,20)          0.0113         calculate D2E/DX2 analytically  !
 ! D40   D(18,17,19,21)        120.0055         calculate D2E/DX2 analytically  !
 ! D41   D(18,17,19,25)       -119.9935         calculate D2E/DX2 analytically  !
 ! D42   D(17,19,21,22)         60.0039         calculate D2E/DX2 analytically  !
 ! D43   D(17,19,21,23)       -179.9943         calculate D2E/DX2 analytically  !
 ! D44   D(17,19,21,24)        -59.998          calculate D2E/DX2 analytically  !
 ! D45   D(20,19,21,22)       -179.4919         calculate D2E/DX2 analytically  !
 ! D46   D(20,19,21,23)        -59.4901         calculate D2E/DX2 analytically  !
 ! D47   D(20,19,21,24)         60.5062         calculate D2E/DX2 analytically  !
 ! D48   D(25,19,21,22)        -61.9445         calculate D2E/DX2 analytically  !
 ! D49   D(25,19,21,23)         58.0573         calculate D2E/DX2 analytically  !
 ! D50   D(25,19,21,24)        178.0536         calculate D2E/DX2 analytically  !
 ! D51   D(17,19,25,26)        -90.0011         calculate D2E/DX2 analytically  !
 ! D52   D(17,19,25,27)         90.0            frozen, calculate D2E/DX2 analyt!
 ! D53   D(20,19,25,26)        149.4872         calculate D2E/DX2 analytically  !
 ! D54   D(20,19,25,27)        -30.5117         calculate D2E/DX2 analytically  !
 ! D55   D(21,19,25,26)         31.943          calculate D2E/DX2 analytically  !
 ! D56   D(21,19,25,27)       -148.0559         calculate D2E/DX2 analytically  !
 ! D57   D(19,25,27,28)         -0.0029         calculate D2E/DX2 analytically  !
 ! D58   D(19,25,27,29)       -179.999          calculate D2E/DX2 analytically  !
 ! D59   D(26,25,27,28)        179.9982         calculate D2E/DX2 analytically  !
 ! D60   D(26,25,27,29)          0.0021         calculate D2E/DX2 analytically  !
 ! D61   D(25,27,29,30)        -59.9981         calculate D2E/DX2 analytically  !
 ! D62   D(25,27,29,31)         59.9962         calculate D2E/DX2 analytically  !
 ! D63   D(25,27,29,35)       -179.9993         calculate D2E/DX2 analytically  !
 ! D64   D(28,27,29,30)        120.0057         calculate D2E/DX2 analytically  !
 ! D65   D(28,27,29,31)       -120.0            calculate D2E/DX2 analytically  !
 ! D66   D(28,27,29,35)          0.0045         calculate D2E/DX2 analytically  !
 ! D67   D(27,29,31,32)         60.0075         calculate D2E/DX2 analytically  !
 ! D68   D(27,29,31,33)       -179.9966         calculate D2E/DX2 analytically  !
 ! D69   D(27,29,31,34)        -59.9989         calculate D2E/DX2 analytically  !
 ! D70   D(30,29,31,32)       -179.4885         calculate D2E/DX2 analytically  !
 ! D71   D(30,29,31,33)        -59.4926         calculate D2E/DX2 analytically  !
 ! D72   D(30,29,31,34)         60.5051         calculate D2E/DX2 analytically  !
 ! D73   D(35,29,31,32)        -61.9409         calculate D2E/DX2 analytically  !
 ! D74   D(35,29,31,33)         58.055          calculate D2E/DX2 analytically  !
 ! D75   D(35,29,31,34)        178.0527         calculate D2E/DX2 analytically  !
 ! D76   D(27,29,35,36)         -0.0022         calculate D2E/DX2 analytically  !
 ! D77   D(27,29,35,37)        179.9981         calculate D2E/DX2 analytically  !
 ! D78   D(30,29,35,36)       -120.5116         calculate D2E/DX2 analytically  !
 ! D79   D(30,29,35,37)         59.4887         calculate D2E/DX2 analytically  !
 ! D80   D(31,29,35,36)        121.9425         calculate D2E/DX2 analytically  !
 ! D81   D(31,29,35,37)        -58.0572         calculate D2E/DX2 analytically  !
 ! D82   D(29,35,37,38)         -0.001          calculate D2E/DX2 analytically  !
 ! D83   D(29,35,37,39)        179.9989         calculate D2E/DX2 analytically  !
 ! D84   D(36,35,37,38)        179.9994         calculate D2E/DX2 analytically  !
 ! D85   D(36,35,37,39)         -0.0008         calculate D2E/DX2 analytically  !
 ! D86   D(35,37,39,40)         -0.0003         calculate D2E/DX2 analytically  !
 ! D87   D(35,37,39,41)        120.0004         calculate D2E/DX2 analytically  !
 ! D88   D(35,37,39,42)       -119.9972         calculate D2E/DX2 analytically  !
 ! D89   D(38,37,39,40)        179.9995         calculate D2E/DX2 analytically  !
 ! D90   D(38,37,39,41)        -59.9998         calculate D2E/DX2 analytically  !
 ! D91   D(38,37,39,42)         60.0026         calculate D2E/DX2 analytically  !
 --------------------------------------------------------------------------------
 Trust Radius=3.00D-01 FncErr=1.00D-07 GrdErr=1.00D-07
 Number of steps in this run= 252 maximum allowed number of steps= 252.
 GradGradGradGradGradGradGradGradGradGradGradGradGradGradGradGradGradGrad

                          Input orientation:                          
 ---------------------------------------------------------------------
 Center     Atomic      Atomic             Coordinates (Angstroms)
 Number     Number       Type             X           Y           Z
 ---------------------------------------------------------------------
      1          1           0        7.769100    1.000000    3.330800
      2          6           0        7.769100    2.090000    3.330800
      3          1           0        8.796600    2.453800    3.330800
      4          1           0        7.255300    2.453800    4.220600
      5          6           0        7.055400    2.640800    2.094600
      6          8           0        6.573800    1.877400    1.260500
      7          7           0        6.991400    3.969600    1.983800
      8          1           0        7.402500    4.556100    2.695900
      9          6           0        6.342400    4.613900    0.859800
     10          1           0        6.835900    4.315500   -0.065200
     11          6           0        4.871400    4.220800    0.776100
     12          1           0        4.361800    4.521300    1.691600
     13          1           0        4.409600    4.718900   -0.076400
     14          1           0        4.789700    3.140900    0.653200
     15          6           0        6.412700    6.129400    0.981500
     16          8           0        6.968800    6.652700    1.944600
     17          7           0        5.846000    6.834900    0.000000
     18          1           0        5.400600    6.359200   -0.771600
     19          6           0        5.846100    8.283900    0.000000
     20          1           0        5.332300    8.647700   -0.889800
     21          6           0        5.134700    8.832900    1.232200
     22          1           0        5.643100    8.484600    2.131200
     23          1           0        5.149900    9.922400    1.205800
     24          1           0        4.101900    8.484600    1.241400
     25          6           0        7.266000    8.831800    0.000000
     26          8           0        7.848000    9.056400    1.058900
     27          7           0        7.823700    9.047000   -1.193700
     28          1           0        7.305000    8.846800   -2.036900
     29          6           0        9.169800    9.566400   -1.327600
     30          1           0        9.231700   10.544100   -0.849600
     31          6           0       10.184600    8.637300   -0.669900
     32          1           0       10.140900    7.656800   -1.144000
     33          1           0       11.186000    9.052000   -0.785700
     34          1           0        9.953400    8.538200    0.390600
     35          6           0        9.556400    9.715600   -2.792000
     36          8           0        8.764200    9.409900   -3.680600
     37          7           0       10.779800   10.187700   -3.042200
     38          1           0       11.395500   10.425300   -2.277600
     39          6           0       11.266500   10.375500   -4.394100
     40          1           0       10.494300   10.077500   -5.103400
     41          1           0       11.515500   11.425300   -4.548600
     42          1           0       12.156200    9.765000   -4.548600
 ---------------------------------------------------------------------
                    Distance matrix (angstroms):
                    1          2          3          4          5
     1  H    0.000000
     2  C    1.090000   0.000000
     3  H    1.780250   1.090003   0.000000
     4  H    1.780244   1.089993   1.779705   0.000000
     5  C    2.174806   1.530013   2.143580   2.143550   0.000000
     6  O    2.546510   2.400017   3.091799   3.091742   1.229000
     7  N    3.352275   2.439697   2.714923   2.714879   1.334946
     8  H    3.630887   2.572769   2.601207   2.601162   2.037257
     9  C    4.604518   3.809381   4.098167   4.098097   2.434384
    10  H    4.836964   4.166117   4.340863   4.691472   2.741813
    11  C    5.029583   4.411742   5.005594   4.546411   3.000783
    12  H    5.166839   4.495319   5.160328   4.363799   3.309708
    13  H    6.060154   5.459521   5.998788   5.629644   4.003998
    14  H    4.542006   4.141347   4.867946   4.390630   2.731507
    15  C    5.802566   4.865777   4.971139   4.971094   3.717847
    16  O    5.874951   4.835314   4.784680   4.784665   4.015637
    17  N    6.988462   6.107914   6.244542   6.244488   4.841536
    18  H    7.152657   6.376954   6.604139   6.604099   4.977948
    19  C    8.236951   7.290854   7.334149   7.334124   6.139571
    20  H    9.068560   8.170366   8.257072   8.257028   6.925212
    21  C    8.526342   7.537300   7.648957   7.356657   6.540254
    22  H    7.872620   6.844693   6.910438   6.582958   6.012148
    23  H    9.538609   8.527738   8.578696   8.324765   7.579089
    24  H    8.592624   7.661910   7.923153   7.429005   6.603114
    25  C    8.525516   7.536525   7.356348   7.648037   6.539127
    26  O    8.370982   7.327925   7.046680   7.344520   6.546817
    27  N    9.231917   8.299032   8.055304   8.550322   7.241726
    28  H    9.518396   8.641871   8.479830   8.945906   7.459627
    29  C    9.851186   8.919597   8.510526   9.221546   8.009125
    30  H   10.521634   9.543938   9.116908   9.750181   8.710152
    31  C    8.953692   8.044090   7.494519   8.410319   7.307008
    32  H    8.364344   7.525858   6.993010   8.011044   6.720796
    33  H    9.667238   8.780104   8.135788   9.167862   8.152390
    34  H    8.380955   7.415877   6.855865   7.679099   6.788324
    35  C   10.800222   9.941474   9.528888  10.354002   8.954700
    36  O   10.994379  10.184836   9.876645  10.634522   9.060554
    37  N   11.579865  10.735557  10.215744  11.179605   9.859694
    38  H   11.551676  10.680925  10.087281  11.086599   9.927288
    39  C   12.641435  11.855606  11.337011  12.371585  10.939021
    40  H   12.687137  11.931580  11.495161  12.471924  10.906042
    41  H   13.594386  12.777648  12.246027  13.248999  11.882426
    42  H   12.576041  11.842180  11.261683  12.424626  10.995658
                    6          7          8          9         10
     6  O    0.000000
     7  N    2.252744   0.000000
     8  H    3.150008   1.009986   0.000000
     9  C    2.775345   1.449034   2.120947   0.000000
    10  H    2.787563   2.083801   2.828886   1.090050   0.000000
    11  C    2.936721   2.452762   3.194452   1.524918   2.139162
    12  H    3.474046   2.702693   3.202450   2.150173   3.041360
    13  H    3.813815   3.386970   4.082842   2.150165   2.459632
    14  H    2.268977   2.702725   3.605848   2.150184   2.466317
    15  C    4.264188   2.450354   2.528665   1.522003   2.136566
    16  O    4.840197   2.683482   2.268982   2.392880   3.085363
    17  N    5.166755   3.668426   3.857914   2.432799   2.707680
    18  H    5.058889   3.979078   4.391165   2.567981   2.595341
    19  C    6.569753   4.884707   4.856619   3.801903   4.090496
    20  H    7.211246   5.735400   5.821010   4.511424   4.659263
    21  C    7.102872   5.259651   5.057307   4.404223   4.998423
    22  H    6.728998   4.714325   4.341369   4.133739   4.860899
    23  H    8.170221   6.279509   6.007644   5.451784   5.991274
    24  H    7.054484   5.411616   5.333164   4.488628   5.153965
    25  C    7.101527   5.258503   5.056493   4.402610   4.537202
    26  O    7.293989   5.240681   4.809464   4.694920   4.976352
    27  N    7.680398   6.047249   5.956054   5.105241   4.963502
    28  H    7.744678   6.328622   6.388976   5.218708   4.963903
    29  C    8.518110   6.858204   6.664459   6.107877   5.883255
    30  H    9.307451   7.501410   7.195324   6.814497   6.719420
    31  C    7.903200   6.247085   5.977030   5.769769   5.500674
    32  H    7.204671   5.770436   5.644290   5.263369   4.821942
    33  H    8.771215   7.148118   6.830046   6.772360   6.471238
    34  H    7.519620   5.673080   5.261047   5.353466   5.268563
    35  C    9.314292   7.899621   7.834333   7.049311   6.633072
    36  O    9.270970   8.051404   8.128552   7.034342   6.537765
    37  N   10.259861   8.847453   8.720485   8.123015   7.674608
    38  H   10.432331   8.901218   8.667598   8.315616   7.938156
    39  C   11.234484   9.999482   9.953091   9.222053   8.665633
    40  H   11.095548   9.990253  10.043613   9.091147   8.483395
    41  H   12.220001  10.896201  10.797475  10.119631   9.620228
    42  H   11.274887  10.145643  10.110049   9.464930   8.837619
                   11         12         13         14         15
    11  C    0.000000
    12  H    1.090015   0.000000
    13  H    1.090009   1.779650   0.000000
    14  H    1.089937   1.779572   1.779572   0.000000
    15  C    2.461818   2.701188   2.668534   3.416583   0.000000
    16  O    3.417399   3.376881   3.791244   4.330003   1.229086
    17  N    2.895806   3.227554   2.558620   3.897188   1.334999
    18  H    2.692245   3.244123   2.038619   3.572213   2.037281
    19  C    4.249842   4.384269   3.844294   5.290851   2.434389
    20  H    4.752378   4.963131   4.116851   5.744572   3.318262
    21  C    4.642071   4.404352   4.377579   5.731765   3.000841
    22  H    4.540023   4.188404   4.536024   5.609626   2.731494
    23  H    5.724548   5.479871   5.410036   6.813505   4.003976
    24  H    4.357594   3.997246   4.001471   5.419795   3.309730
    25  C    5.253357   5.465922   5.008074   6.240599   2.999071
    26  O    5.685345   5.755087   5.650257   6.671651   3.260890
    27  N    5.990692   6.386836   5.624668   6.891895   3.903179
    28  H    5.935929   6.424491   5.409848   6.791220   4.158269
    29  C    7.174764   7.595095   6.908202   8.024705   4.974587
    30  H    7.851066   8.151549   7.601542   8.763398   5.548807
    31  C    7.058788   7.511534   7.004051   7.814471   4.821194
    32  H    6.577272   7.160306   6.528310   7.229013   4.555236
    33  H    8.102709   8.557684   8.074556   8.827468   5.869325
    34  H    6.679467   7.006717   6.748249   7.474196   4.322966
    35  C    8.054402   8.606236   7.670140   8.821423   6.081364
    36  O    7.870376   8.493531   7.345630   8.595280   6.166556
    37  N    9.224560   9.783030   8.904111   9.959652   7.192463
    38  H    9.507091  10.004234   9.284992  10.261027   7.341988
    39  C   10.271738  10.907900   9.882142  10.943656   8.395583
    40  H   10.024293  10.707518   9.539858  10.667583   8.323038
    41  H   11.153534  11.738004  10.745706  11.871242   9.201474
    42  H   10.590510  11.277817  10.270030  11.189403   8.762841
                   16         17         18         19         20
    16  O    0.000000
    17  N    2.252853   0.000000
    18  H    3.150101   1.009969   0.000000
    19  C    2.775381   1.449000   2.120921   0.000000
    20  H    3.833012   2.083717   2.292568   1.089993   0.000000
    21  C    2.936785   2.452808   3.194544   1.525060   2.139212
    22  H    2.268955   2.702719   3.605881   2.150233   3.041322
    23  H    3.813812   3.386911   4.082812   2.150193   2.459608
    24  H    3.474113   2.702678   3.202517   2.150253   2.466272
    25  C    2.935690   2.450308   3.191995   1.521943   2.136547
    26  O    2.708363   3.172434   4.076197   2.392829   3.208304
    27  N    4.038868   3.198375   3.643330   2.432723   2.541431
    28  H    4.558448   3.213314   3.378739   2.567919   2.290638
    29  C    4.903197   4.502362   4.980174   3.801882   3.970149
    30  H    5.298232   5.093422   5.674222   4.158439   4.336274
    31  C    4.595173   4.745615   5.299692   4.404116   4.857291
    32  H    4.539811   4.520002   4.928782   4.488574   4.916211
    33  H    5.567401   5.835106   6.381397   5.451773   5.868569
    34  H    3.857183   4.463691   5.179453   4.133661   4.796455
    35  C    6.205837   5.464500   5.711227   4.859152   4.754135
    36  O    6.516785   5.356616   5.392852   4.830114   4.488591
    37  N    7.203341   6.696165   6.982036   6.100888   6.056375
    38  H    7.187152   6.991093   7.398651   6.369372   6.469022
    39  C    8.515197   7.824691   7.978844   7.284479   7.104938
    40  H    8.592596   7.626653   7.650884   7.132142   6.815057
    41  H    9.252667   8.596788   8.793355   7.918349   7.702846
    42  H    8.874524   8.312272   8.455964   7.918382   7.823093
                   21         22         23         24         25
    21  C    0.000000
    22  H    1.089947   0.000000
    23  H    1.089926   1.779573   0.000000
    24  H    1.089988   1.779618   1.779562   0.000000
    25  C    2.461861   2.701179   2.668565   3.416599   0.000000
    26  O    2.728000   2.517611   2.837478   3.793880   1.228999
    27  N    3.627885   4.015753   3.697720   4.483057   1.335013
    28  H    3.923953   4.501795   4.039366   4.597640   2.037329
    29  C    4.834525   5.056798   4.764918   5.783914   2.434464
    30  H    4.903826   5.099486   4.612187   5.910048   2.741855
    31  C    5.399790   5.338043   5.524304   6.377744   3.000804
    32  H    5.664943   5.625157   5.963605   6.545602   3.309745
    33  H    6.382645   6.289196   6.415463   7.390233   4.004025
    34  H    4.900511   4.648790   5.064995   5.913272   2.731463
    35  C    6.043573   6.408368   5.953353   6.894581   3.717835
    36  O    6.135292   6.661416   6.099404   6.842463   4.015672
    37  N    7.209239   7.486675   7.057738   8.114439   4.841512
    38  H    7.352010   7.502929   7.168996   8.327441   4.977899
    39  C    8.463678   8.819165   8.305238   9.309450   6.139636
    40  H    8.391315   8.854993   8.269986   9.146398   6.165905
    41  H    8.991818   9.367632   8.711641   9.855622   6.743460
    42  H    9.142643   9.416986   9.067863  10.001763   6.743492
                   26         27         28         29         30
    26  O    0.000000
    27  N    2.252751   0.000000
    28  H    3.150041   1.010008   0.000000
    29  C    2.775363   1.449031   2.120945   0.000000
    30  H    2.787517   2.083789   2.828901   1.090052   0.000000
    31  C    2.936681   2.452768   3.194476   1.524997   2.139205
    32  H    3.474052   2.702692   3.202452   2.150190   3.041351
    33  H    3.813766   3.386968   4.082863   2.150192   2.459621
    34  H    2.268891   2.702685   3.605830   2.150218   2.466289
    35  C    4.264107   2.450273   2.528595   1.521903   2.136530
    36  O    4.840170   2.683451   2.268942   2.392825   3.085373
    37  N    5.166654   3.668334   3.857833   2.432687   2.707606
    38  H    5.058743   3.978983   4.391103   2.567869   2.595251
    39  C    6.569732   4.884705   4.856624   3.801870   4.090516
    40  H    6.783767   4.845595   4.592350   4.033880   4.461691
    41  H    7.106778   5.526396   5.539459   4.396892   4.435635
    42  H    7.106811   5.526431   5.539483   4.396916   4.779362
                   31         32         33         34         35
    31  C    0.000000
    32  H    1.089982   0.000000
    33  H    1.090040   1.779662   0.000000
    34  H    1.089924   1.779612   1.779600   0.000000
    35  C    2.461844   2.701148   2.668558   3.416551   0.000000
    36  O    3.417420   3.376833   3.791260   4.329980   1.229082
    37  N    2.895826   3.227509   2.558633   3.897166   1.334985
    38  H    2.692197   3.244019   2.038531   3.572127   2.037295
    39  C    4.249884   4.384228   3.844305   5.290865   2.434468
    40  H    4.671832   4.654195   4.491395   5.731148   2.520555
    41  H    4.958685   5.261408   4.461002   5.930531   3.137960
    42  H    4.494800   4.482995   3.950832   5.545544   3.138000
                   36         37         38         39         40
    36  O    0.000000
    37  N    2.252814   0.000000
    38  H    3.150109   1.010026   0.000000
    39  C    2.775423   1.449062   2.121012   0.000000
    40  H    2.337369   2.083795   2.986348   1.090047   0.000000
    41  H    3.519220   2.083782   2.484319   1.089932   1.779668
    42  H    3.519259   2.083841   2.484371   1.090021   1.779711
                   41         42
    41  H    0.000000
    42  H    1.779633   0.000000
 Stoichiometry    C12H22N4O4
 Framework group  C1[X(C12H22N4O4)]
 Deg. of freedom   120
 Full point group                 C1      NOp   1
 Largest Abelian subgroup         C1      NOp   1
 Largest concise Abelian subgroup C1      NOp   1
                         Standard orientation:                         
 ---------------------------------------------------------------------
 Center     Atomic      Atomic             Coordinates (Angstroms)
 Number     Number       Type             X           Y           Z
 ---------------------------------------------------------------------
      1          1           0        6.316987   -2.764324   -0.831234
      2          6           0        5.502274   -2.134299   -1.188180
      3          1           0        4.833586   -2.724571   -1.814713
      4          1           0        5.909757   -1.307800   -1.770366
      5          6           0        4.697922   -1.559835   -0.020298
      6          8           0        5.003600   -1.828250    1.139424
      7          7           0        3.669537   -0.768804   -0.334586
      8          1           0        3.457357   -0.577313   -1.303287
      9          6           0        2.830968   -0.163481    0.680345
     10          1           0        2.363413   -0.944904    1.279494
     11          6           0        3.647567    0.735086    1.602905
     12          1           0        4.114635    1.527962    1.018671
     13          1           0        2.992752    1.175932    2.354564
     14          1           0        4.419844    0.144732    2.095890
     15          6           0        1.736859    0.687243    0.051308
     16          8           0        1.651608    0.790136   -1.170492
     17          7           0        0.897797    1.298395    0.890766
     18          1           0        1.008242    1.183233    1.888051
     19          6           0       -0.185287    2.135846    0.416208
     20          1           0       -0.739804    2.530530    1.267572
     21          6           0        0.345164    3.306429   -0.404868
     22          1           0        0.895154    2.927144   -1.266052
     23          1           0       -0.489316    3.917916   -0.747890
     24          1           0        1.009286    3.912021    0.211796
     25          6           0       -1.143104    1.346257   -0.464387
     26          8           0       -0.963308    1.279567   -1.678333
     27          7           0       -2.164589    0.746479    0.151319
     28          1           0       -2.270465    0.830293    1.152259
     29          6           0       -3.144989   -0.034574   -0.575636
     30          1           0       -3.641274    0.598299   -1.311425
     31          6           0       -2.486869   -1.202663   -1.302315
     32          1           0       -1.993411   -1.850388   -0.577738
     33          1           0       -3.246121   -1.771277   -1.839345
     34          1           0       -1.750244   -0.822482   -2.009973
     35          6           0       -4.197405   -0.604878    0.364237
     36          8           0       -4.143356   -0.379969    1.571357
     37          7           0       -5.157938   -1.345892   -0.192952
     38          1           0       -5.159962   -1.502736   -1.190724
     39          6           0       -6.217045   -1.944577    0.594225
     40          1           0       -6.079550   -1.687293    1.644513
     41          1           0       -7.181381   -1.569279    0.251940
     42          1           0       -6.187805   -3.028124    0.479255
 ---------------------------------------------------------------------
 Rotational constants (GHZ):      0.5629756      0.1326782      0.1215503
 Standard basis: 6-31G(d) (6D, 7F)
 There are   344 symmetry adapted basis functions of A   symmetry.
 Integral buffers will be    131072 words long.
 Raffenetti 1 integral format.
 Two-electron integral symmetry is turned on.
   344 basis functions,   648 primitive gaussians,   344 cartesian basis functions
    77 alpha electrons       77 beta electrons
       nuclear repulsion energy      1628.8408496825 Hartrees.
 NAtoms=   42 NActive=   42 NUniq=   42 SFac= 7.50D-01 NAtFMM=   80 NAOKFM=F Big=F
 One-electron integrals computed using PRISM.
 NBasis=   344 RedAO= T  NBF=   344
 NBsUse=   344 1.00D-06 NBFU=   344
 Harris functional with IExCor=  205 diagonalized for initial guess.
 ExpMin= 1.61D-01 ExpMax= 5.48D+03 ExpMxC= 8.25D+02 IAcc=1 IRadAn=         1 AccDes= 0.00D+00
 HarFok:  IExCor=  205 AccDes= 0.00D+00 IRadAn=         1 IDoV= 1
 ScaDFX=  1.000000  1.000000  1.000000  1.000000
 FoFCou: FMM=F IPFlag=           0 FMFlag=      100000 FMFlg1=           0
         NFxFlg=           0 DoJE=T BraDBF=F KetDBF=T FulRan=T
         Omega=  0.000000  0.000000  1.000000  0.000000  0.000000 ICntrl=     500 IOpCl=  0
         NMat0=    1 NMatS0=    1 NMatT0=    0 NMatD0=    1 NMtDS0=    0 NMtDT0=    0
         I1Cent=           4 NGrid=           0.
 Petite list used in FoFCou.
 Initial guess orbital symmetries:
       Occupied  (A) (A) (A) (A) (A) (A) (A) (A) (A) (A) (A) (A)
                 (A) (A) (A) (A) (A) (A) (A) (A) (A) (A) (A) (A)
                 (A) (A) (A) (A) (A) (A) (A) (A) (A) (A) (A) (A)
                 (A) (A) (A) (A) (A) (A) (A) (A) (A) (A) (A) (A)
                 (A) (A) (A) (A) (A) (A) (A) (A) (A) (A) (A) (A)
                 (A) (A) (A) (A) (A) (A) (A) (A) (A) (A) (A) (A)
                 (A) (A) (A) (A) (A)
       Virtual   (A) (A) (A) (A) (A) (A) (A) (A) (A) (A) (A) (A)
                 (A) (A) (A) (A) (A) (A) (A) (A) (A) (A) (A) (A)
                 (A) (A) (A) (A) (A) (A) (A) (A) (A) (A) (A) (A)
                 (A) (A) (A) (A) (A) (A) (A) (A) (A) (A) (A) (A)
                 (A) (A) (A) (A) (A) (A) (A) (A) (A) (A) (A) (A)
                 (A) (A) (A) (A) (A) (A) (A) (A) (A) (A) (A) (A)
                 (A) (A) (A) (A) (A) (A) (A) (A) (A) (A) (A) (A)
                 (A) (A) (A) (A) (A) (A) (A) (A) (A) (A) (A) (A)
                 (A) (A) (A) (A) (A) (A) (A) (A) (A) (A) (A) (A)
                 (A) (A) (A) (A) (A) (A) (A) (A) (A) (A) (A) (A)
                 (A) (A) (A) (A) (A) (A) (A) (A) (A) (A) (A) (A)
                 (A) (A) (A) (A) (A) (A) (A) (A) (A) (A) (A) (A)
                 (A) (A) (A) (A) (A) (A) (A) (A) (A) (A) (A) (A)
                 (A) (A) (A) (A) (A) (A) (A) (A) (A) (A) (A) (A)
                 (A) (A) (A) (A) (A) (A) (A) (A) (A) (A) (A) (A)
                 (A) (A) (A) (A) (A) (A) (A) (A) (A) (A) (A) (A)
                 (A) (A) (A) (A) (A) (A) (A) (A) (A) (A) (A) (A)
                 (A) (A) (A) (A) (A) (A) (A) (A) (A) (A) (A) (A)
                 (A) (A) (A) (A) (A) (A) (A) (A) (A) (A) (A) (A)
                 (A) (A) (A) (A) (A) (A) (A) (A) (A) (A) (A) (A)
                 (A) (A) (A) (A) (A) (A) (A) (A) (A) (A) (A) (A)
                 (A) (A) (A) (A) (A) (A) (A) (A) (A) (A) (A) (A)
                 (A) (A) (A)
 The electronic state of the initial guess is 1-A.
 Requested convergence on RMS density matrix=1.00D-08 within 128 cycles.
 Requested convergence on MAX density matrix=1.00D-06.
 Requested convergence on             energy=1.00D-06.
 No special actions if energy rises.
 Integral accuracy reduced to 1.0D-05 until final iterations.
 Initial convergence to 1.0D-05 achieved.  Increase integral accuracy.
 SCF Done:  E(RHF) =  -984.526112548     A.U. after   15 cycles
             Convg  =    0.4096D-08             -V/T =  2.0019
 Range of M.O.s used for correlation:     1   344
 NBasis=   344 NAE=    77 NBE=    77 NFC=     0 NFV=     0
 NROrb=    344 NOA=    77 NOB=    77 NVA=   267 NVB=   267
 Symmetrizing basis deriv contribution to polar:
 IMax=3 JMax=2 DiffMx= 0.00D+00
 G2DrvN: will do    43 centers at a time, making    1 passes doing MaxLOS=2.
 Calling FoFCou, ICntrl=  3107 FMM=F I1Cent=   0 AccDes= 0.00D+00.
 FoFDir/FoFCou used for L=0 through L=2.
 End of G2Drv Frequency-dependent properties file   721 does not exist.
 End of G2Drv Frequency-dependent properties file   722 does not exist.
          IDoAtm=111111111111111111111111111111111111111111
          Differentiating once with respect to nuclear coordinates.
          There are   129 degrees of freedom in the 1st order CPHF.  IDoFFX=5.
    123 vectors produced by pass  0 Test12= 2.06D-10 1.00D-07 XBig12= 9.93D-02 4.91D-02.
 AX will form   123 AO Fock derivatives at one time.
    123 vectors produced by pass  1 Test12= 2.06D-10 1.00D-07 XBig12= 5.87D-03 1.98D-02.
    123 vectors produced by pass  2 Test12= 2.06D-10 1.00D-07 XBig12= 9.41D-05 1.31D-03.
    123 vectors produced by pass  3 Test12= 2.06D-10 1.00D-07 XBig12= 1.04D-06 1.13D-04.
    123 vectors produced by pass  4 Test12= 2.06D-10 1.00D-07 XBig12= 6.32D-09 7.44D-06.
     35 vectors produced by pass  5 Test12= 2.06D-10 1.00D-07 XBig12= 3.61D-11 5.56D-07.
 Inverted reduced A of dimension   650 with in-core refinement.
 End of Minotr Frequency-dependent properties file   721 does not exist.
 End of Minotr Frequency-dependent properties file   722 does not exist.

 **********************************************************************

            Population analysis using the SCF density.

 **********************************************************************

 Orbital symmetries:
       Occupied  (A) (A) (A) (A) (A) (A) (A) (A) (A) (A) (A) (A)
                 (A) (A) (A) (A) (A) (A) (A) (A) (A) (A) (A) (A)
                 (A) (A) (A) (A) (A) (A) (A) (A) (A) (A) (A) (A)
                 (A) (A) (A) (A) (A) (A) (A) (A) (A) (A) (A) (A)
                 (A) (A) (A) (A) (A) (A) (A) (A) (A) (A) (A) (A)
                 (A) (A) (A) (A) (A) (A) (A) (A) (A) (A) (A) (A)
                 (A) (A) (A) (A) (A)
       Virtual   (A) (A) (A) (A) (A) (A) (A) (A) (A) (A) (A) (A)
                 (A) (A) (A) (A) (A) (A) (A) (A) (A) (A) (A) (A)
                 (A) (A) (A) (A) (A) (A) (A) (A) (A) (A) (A) (A)
                 (A) (A) (A) (A) (A) (A) (A) (A) (A) (A) (A) (A)
                 (A) (A) (A) (A) (A) (A) (A) (A) (A) (A) (A) (A)
                 (A) (A) (A) (A) (A) (A) (A) (A) (A) (A) (A) (A)
                 (A) (A) (A) (A) (A) (A) (A) (A) (A) (A) (A) (A)
                 (A) (A) (A) (A) (A) (A) (A) (A) (A) (A) (A) (A)
                 (A) (A) (A) (A) (A) (A) (A) (A) (A) (A) (A) (A)
                 (A) (A) (A) (A) (A) (A) (A) (A) (A) (A) (A) (A)
                 (A) (A) (A) (A) (A) (A) (A) (A) (A) (A) (A) (A)
                 (A) (A) (A) (A) (A) (A) (A) (A) (A) (A) (A) (A)
                 (A) (A) (A) (A) (A) (A) (A) (A) (A) (A) (A) (A)
                 (A) (A) (A) (A) (A) (A) (A) (A) (A) (A) (A) (A)
                 (A) (A) (A) (A) (A) (A) (A) (A) (A) (A) (A) (A)
                 (A) (A) (A) (A) (A) (A) (A) (A) (A) (A) (A) (A)
                 (A) (A) (A) (A) (A) (A) (A) (A) (A) (A) (A) (A)
                 (A) (A) (A) (A) (A) (A) (A) (A) (A) (A) (A) (A)
                 (A) (A) (A) (A) (A) (A) (A) (A) (A) (A) (A) (A)
                 (A) (A) (A) (A) (A) (A) (A) (A) (A) (A) (A) (A)
                 (A) (A) (A) (A) (A) (A) (A) (A) (A) (A) (A) (A)
                 (A) (A) (A) (A) (A) (A) (A) (A) (A) (A) (A) (A)
                 (A) (A) (A)
 The electronic state is 1-A.
 Alpha  occ. eigenvalues --  -20.53391 -20.52881 -20.51383 -20.51162 -15.60824
 Alpha  occ. eigenvalues --  -15.60521 -15.59197 -15.58480 -11.36238 -11.35892
 Alpha  occ. eigenvalues --  -11.34481 -11.34415 -11.29038 -11.28824 -11.28487
 Alpha  occ. eigenvalues --  -11.26999 -11.23115 -11.22285 -11.22129 -11.20928
 Alpha  occ. eigenvalues --   -1.39466  -1.39153  -1.37116  -1.36710  -1.25678
 Alpha  occ. eigenvalues --   -1.24847  -1.23789  -1.23377  -1.07852  -1.05657
 Alpha  occ. eigenvalues --   -1.02575  -0.98199  -0.96406  -0.91194  -0.89799
 Alpha  occ. eigenvalues --   -0.86725  -0.82281  -0.80153  -0.78171  -0.77785
 Alpha  occ. eigenvalues --   -0.75235  -0.72747  -0.68731  -0.68214  -0.66820
 Alpha  occ. eigenvalues --   -0.66244  -0.64707  -0.63508  -0.63190  -0.62557
 Alpha  occ. eigenvalues --   -0.61912  -0.60790  -0.60111  -0.58169  -0.58060
 Alpha  occ. eigenvalues --   -0.57207  -0.56581  -0.55918  -0.55638  -0.55170
 Alpha  occ. eigenvalues --   -0.54712  -0.53581  -0.53070  -0.52655  -0.52481
 Alpha  occ. eigenvalues --   -0.51578  -0.50785  -0.49687  -0.48820  -0.43653
 Alpha  occ. eigenvalues --   -0.42832  -0.41449  -0.40621  -0.40443  -0.39157
 Alpha  occ. eigenvalues --   -0.38473  -0.37587
 Alpha virt. eigenvalues --    0.17340   0.18673   0.19108   0.20103   0.20837
 Alpha virt. eigenvalues --    0.21815   0.24049   0.24663   0.25873   0.27848
 Alpha virt. eigenvalues --    0.28316   0.28633   0.29164   0.29816   0.30181
 Alpha virt. eigenvalues --    0.30930   0.31414   0.31580   0.31989   0.32975
 Alpha virt. eigenvalues --    0.33205   0.33454   0.34447   0.35511   0.35555
 Alpha virt. eigenvalues --    0.36116   0.36341   0.37271   0.38905   0.39625
 Alpha virt. eigenvalues --    0.41317   0.41589   0.42843   0.43715   0.45026
 Alpha virt. eigenvalues --    0.47349   0.49314   0.52637   0.53096   0.54340
 Alpha virt. eigenvalues --    0.55684   0.59417   0.61466   0.61877   0.64366
 Alpha virt. eigenvalues --    0.70367   0.71115   0.71900   0.72729   0.73147
 Alpha virt. eigenvalues --    0.74802   0.75247   0.76045   0.76738   0.77143
 Alpha virt. eigenvalues --    0.77687   0.78237   0.79024   0.80202   0.81612
 Alpha virt. eigenvalues --    0.82275   0.83264   0.83509   0.87527   0.87819
 Alpha virt. eigenvalues --    0.89006   0.89793   0.91585   0.91878   0.92778
 Alpha virt. eigenvalues --    0.93209   0.93698   0.95168   0.96973   0.97730
 Alpha virt. eigenvalues --    0.98141   0.99394   0.99843   1.00568   1.00714
 Alpha virt. eigenvalues --    1.03753   1.04542   1.05571   1.06787   1.07941
 Alpha virt. eigenvalues --    1.09105   1.09638   1.09954   1.11095   1.11735
 Alpha virt. eigenvalues --    1.13046   1.14108   1.14301   1.14762   1.15448
 Alpha virt. eigenvalues --    1.16002   1.16526   1.16748   1.17036   1.17244
 Alpha virt. eigenvalues --    1.17973   1.18836   1.19101   1.19998   1.20069
 Alpha virt. eigenvalues --    1.20379   1.20953   1.21374   1.22034   1.22756
 Alpha virt. eigenvalues --    1.23796   1.25398   1.25946   1.26680   1.28157
 Alpha virt. eigenvalues --    1.28442   1.31798   1.33631   1.34294   1.36438
 Alpha virt. eigenvalues --    1.37248   1.38606   1.40636   1.43852   1.44192
 Alpha virt. eigenvalues --    1.46538   1.49619   1.51443   1.53015   1.54350
 Alpha virt. eigenvalues --    1.55220   1.55802   1.57110   1.58219   1.61151
 Alpha virt. eigenvalues --    1.61815   1.63512   1.64927   1.65595   1.66589
 Alpha virt. eigenvalues --    1.68523   1.71323   1.72126   1.73997   1.74574
 Alpha virt. eigenvalues --    1.75680   1.77989   1.79699   1.83583   1.84475
 Alpha virt. eigenvalues --    1.91122   1.93143   1.96211   1.96860   1.99827
 Alpha virt. eigenvalues --    2.00633   2.02017   2.03165   2.04925   2.05909
 Alpha virt. eigenvalues --    2.08006   2.08732   2.09820   2.11485   2.12421
 Alpha virt. eigenvalues --    2.13506   2.14020   2.14466   2.14618   2.14965
 Alpha virt. eigenvalues --    2.15740   2.16855   2.18233   2.18789   2.20529
 Alpha virt. eigenvalues --    2.21066   2.22805   2.23771   2.24756   2.25314
 Alpha virt. eigenvalues --    2.28253   2.28773   2.30634   2.32387   2.33137
 Alpha virt. eigenvalues --    2.35728   2.36445   2.36996   2.38509   2.38924
 Alpha virt. eigenvalues --    2.40100   2.43284   2.45627   2.47211   2.49049
 Alpha virt. eigenvalues --    2.49577   2.52405   2.53460   2.54109   2.57464
 Alpha virt. eigenvalues --    2.58233   2.59559   2.61413   2.61534   2.63068
 Alpha virt. eigenvalues --    2.63495   2.64728   2.65816   2.66328   2.67297
 Alpha virt. eigenvalues --    2.69685   2.70946   2.72693   2.75390   2.77251
 Alpha virt. eigenvalues --    2.78128   2.79090   2.80428   2.81926   2.84614
 Alpha virt. eigenvalues --    2.86460   2.91684   2.91900   2.95476   2.96873
 Alpha virt. eigenvalues --    2.98265   2.98845   3.00797   3.04249   3.06328
 Alpha virt. eigenvalues --    3.07917   3.10890   3.13753   3.17398   3.17880
 Alpha virt. eigenvalues --    3.25004   3.26554   3.30928   3.32912   3.35224
 Alpha virt. eigenvalues --    3.36351   3.39920   3.43046   3.53073   3.54778
 Alpha virt. eigenvalues --    3.61329   3.62077   4.39424   4.42330   4.43879
 Alpha virt. eigenvalues --    4.45369   4.48017   4.49936   4.57531   4.62967
 Alpha virt. eigenvalues --    4.63883   4.65687   4.70780   4.72000   4.75760
 Alpha virt. eigenvalues --    4.85013   4.86686   4.88782   4.94485   5.00269
 Alpha virt. eigenvalues --    5.06119   5.10591
          Condensed to atoms (all electrons):
              1          2          3          4          5          6
     1  H    0.459865   0.385590  -0.018873  -0.018851  -0.030873   0.003527
     2  C    0.385590   5.244530   0.374725   0.374923   0.378084  -0.067344
     3  H   -0.018873   0.374725   0.510194  -0.023500  -0.034413   0.001272
     4  H   -0.018851   0.374923  -0.023500   0.511384  -0.035295   0.001187
     5  C   -0.030873   0.378084  -0.034413  -0.035295   4.186514   0.586652
     6  O    0.003527  -0.067344   0.001272   0.001187   0.586652   8.212917
     7  N    0.003871  -0.119801   0.003455   0.003682   0.248125  -0.107741
     8  H   -0.000017  -0.001225   0.000632   0.000473  -0.017204   0.001995
     9  C   -0.000077   0.004602  -0.000242  -0.000092  -0.030287   0.014524
    10  H    0.000002  -0.000011  -0.000004  -0.000002  -0.001746   0.002933
    11  C    0.000006  -0.000504   0.000008   0.000030  -0.003929  -0.015859
    12  H    0.000000  -0.000042   0.000000   0.000002   0.000032  -0.000022
    13  H    0.000000   0.000007   0.000000  -0.000001   0.000281   0.000274
    14  H    0.000001   0.000303  -0.000005  -0.000025   0.000461   0.011229
    15  C    0.000000   0.000001  -0.000010  -0.000006   0.004047   0.000547
    16  O    0.000000  -0.000040  -0.000001  -0.000002   0.000297  -0.000003
    17  N    0.000000   0.000000   0.000000   0.000000  -0.000082  -0.000002
    18  H    0.000000   0.000000   0.000000   0.000000   0.000000   0.000001
    19  C    0.000000   0.000000   0.000000   0.000000   0.000001   0.000000
    20  H    0.000000   0.000000   0.000000   0.000000   0.000000   0.000000
    21  C    0.000000   0.000000   0.000000   0.000000   0.000000   0.000000
    22  H    0.000000   0.000000   0.000000   0.000000   0.000000   0.000000
    23  H    0.000000   0.000000   0.000000   0.000000   0.000000   0.000000
    24  H    0.000000   0.000000   0.000000   0.000000   0.000000   0.000000
    25  C    0.000000   0.000000   0.000000   0.000000   0.000000   0.000000
    26  O    0.000000   0.000000   0.000000   0.000000   0.000000   0.000000
    27  N    0.000000   0.000000   0.000000   0.000000   0.000000   0.000000
    28  H    0.000000   0.000000   0.000000   0.000000   0.000000   0.000000
    29  C    0.000000   0.000000   0.000000   0.000000   0.000000   0.000000
    30  H    0.000000   0.000000   0.000000   0.000000   0.000000   0.000000
    31  C    0.000000   0.000000   0.000000   0.000000   0.000000   0.000000
    32  H    0.000000   0.000000   0.000000   0.000000   0.000000   0.000000
    33  H    0.000000   0.000000   0.000000   0.000000   0.000000   0.000000
    34  H    0.000000   0.000000   0.000000   0.000000   0.000000   0.000000
    35  C    0.000000   0.000000   0.000000   0.000000   0.000000   0.000000
    36  O    0.000000   0.000000   0.000000   0.000000   0.000000   0.000000
    37  N    0.000000   0.000000   0.000000   0.000000   0.000000   0.000000
    38  H    0.000000   0.000000   0.000000   0.000000   0.000000   0.000000
    39  C    0.000000   0.000000   0.000000   0.000000   0.000000   0.000000
    40  H    0.000000   0.000000   0.000000   0.000000   0.000000   0.000000
    41  H    0.000000   0.000000   0.000000   0.000000   0.000000   0.000000
    42  H    0.000000   0.000000   0.000000   0.000000   0.000000   0.000000
              7          8          9         10         11         12
     1  H    0.003871  -0.000017  -0.000077   0.000002   0.000006   0.000000
     2  C   -0.119801  -0.001225   0.004602  -0.000011  -0.000504  -0.000042
     3  H    0.003455   0.000632  -0.000242  -0.000004   0.000008   0.000000
     4  H    0.003682   0.000473  -0.000092  -0.000002   0.000030   0.000002
     5  C    0.248125  -0.017204  -0.030287  -0.001746  -0.003929   0.000032
     6  O   -0.107741   0.001995   0.014524   0.002933  -0.015859  -0.000022
     7  N    7.414895   0.310860   0.199605  -0.041073  -0.063197   0.001705
     8  H    0.310860   0.286215  -0.027365   0.002363   0.003030   0.000239
     9  C    0.199605  -0.027365   5.023557   0.405922   0.334554  -0.042267
    10  H   -0.041073   0.002363   0.405922   0.502515  -0.046674   0.004505
    11  C   -0.063197   0.003030   0.334554  -0.046674   5.213378   0.385403
    12  H    0.001705   0.000239  -0.042267   0.004505   0.385403   0.522688
    13  H    0.004936  -0.000077  -0.042327   0.000316   0.377280  -0.024260
    14  H   -0.005694  -0.000198  -0.026383  -0.003938   0.387131  -0.020090
    15  C   -0.037518  -0.005018   0.379267  -0.039327  -0.066254  -0.002666
    16  O   -0.006111   0.020598  -0.072969   0.000751  -0.000129   0.000581
    17  N    0.002781   0.000772  -0.118852   0.002566   0.003313   0.000208
    18  H    0.000027  -0.000022   0.000485   0.000454   0.000259  -0.000013
    19  C   -0.000045  -0.000024   0.003666  -0.000261   0.000038  -0.000070
    20  H    0.000000   0.000000  -0.000006   0.000001   0.000000   0.000001
    21  C    0.000002   0.000008  -0.000344   0.000001   0.000015   0.000033
    22  H   -0.000003   0.000001   0.000291  -0.000003  -0.000039  -0.000004
    23  H    0.000000   0.000000   0.000006   0.000000   0.000000   0.000000
    24  H    0.000000   0.000000  -0.000095   0.000000   0.000046   0.000023
    25  C   -0.000001   0.000002  -0.000379   0.000035   0.000005   0.000002
    26  O    0.000000   0.000004   0.000009   0.000003   0.000000   0.000000
    27  N    0.000000   0.000000  -0.000026   0.000002   0.000000   0.000000
    28  H    0.000000   0.000000   0.000000   0.000001   0.000000   0.000000
    29  C    0.000000   0.000000   0.000001   0.000000   0.000000   0.000000
    30  H    0.000000   0.000000   0.000000   0.000000   0.000000   0.000000
    31  C    0.000000   0.000000  -0.000001   0.000001   0.000000   0.000000
    32  H    0.000000   0.000000   0.000000   0.000001   0.000000   0.000000
    33  H    0.000000   0.000000   0.000000   0.000000   0.000000   0.000000
    34  H    0.000000   0.000000   0.000000   0.000000   0.000000   0.000000
    35  C    0.000000   0.000000   0.000000   0.000000   0.000000   0.000000
    36  O    0.000000   0.000000   0.000000   0.000000   0.000000   0.000000
    37  N    0.000000   0.000000   0.000000   0.000000   0.000000   0.000000
    38  H    0.000000   0.000000   0.000000   0.000000   0.000000   0.000000
    39  C    0.000000   0.000000   0.000000   0.000000   0.000000   0.000000
    40  H    0.000000   0.000000   0.000000   0.000000   0.000000   0.000000
    41  H    0.000000   0.000000   0.000000   0.000000   0.000000   0.000000
    42  H    0.000000   0.000000   0.000000   0.000000   0.000000   0.000000
             13         14         15         16         17         18
     1  H    0.000000   0.000001   0.000000   0.000000   0.000000   0.000000
     2  C    0.000007   0.000303   0.000001  -0.000040   0.000000   0.000000
     3  H    0.000000  -0.000005  -0.000010  -0.000001   0.000000   0.000000
     4  H   -0.000001  -0.000025  -0.000006  -0.000002   0.000000   0.000000
     5  C    0.000281   0.000461   0.004047   0.000297  -0.000082   0.000000
     6  O    0.000274   0.011229   0.000547  -0.000003  -0.000002   0.000001
     7  N    0.004936  -0.005694  -0.037518  -0.006111   0.002781   0.000027
     8  H   -0.000077  -0.000198  -0.005018   0.020598   0.000772  -0.000022
     9  C   -0.042327  -0.026383   0.379267  -0.072969  -0.118852   0.000485
    10  H    0.000316  -0.003938  -0.039327   0.000751   0.002566   0.000454
    11  C    0.377280   0.387131  -0.066254  -0.000129   0.003313   0.000259
    12  H   -0.024260  -0.020090  -0.002666   0.000581   0.000208  -0.000013
    13  H    0.571633  -0.020190  -0.007326   0.000023   0.000496   0.003023
    14  H   -0.020190   0.425111   0.004127  -0.000056   0.000048  -0.000090
    15  C   -0.007326   0.004127   4.203049   0.580412   0.247777  -0.018109
    16  O    0.000023  -0.000056   0.580412   8.209706  -0.104834   0.002452
    17  N    0.000496   0.000048   0.247777  -0.104834   7.441051   0.323130
    18  H    0.003023  -0.000090  -0.018109   0.002452   0.323130   0.308620
    19  C    0.000193   0.000002  -0.029793   0.013790   0.173539  -0.022194
    20  H   -0.000014   0.000000   0.004020   0.000069  -0.038729  -0.004251
    21  C   -0.000017  -0.000001  -0.003327  -0.013562  -0.062257   0.002791
    22  H   -0.000002   0.000000   0.002206   0.005361  -0.004581  -0.000135
    23  H    0.000000   0.000000   0.000264   0.000278   0.004327  -0.000093
    24  H    0.000019   0.000000  -0.000853   0.000136   0.000927   0.000047
    25  C    0.000003   0.000000  -0.003369  -0.001578  -0.053280   0.001944
    26  O    0.000000   0.000000   0.004504  -0.010579  -0.000153  -0.000068
    27  N    0.000000   0.000000  -0.000048  -0.000261   0.005324  -0.000065
    28  H    0.000000   0.000000   0.000051  -0.000009   0.000935   0.000005
    29  C    0.000000   0.000000  -0.000036   0.000019  -0.000142   0.000003
    30  H    0.000000   0.000000   0.000000   0.000001  -0.000008   0.000000
    31  C    0.000000   0.000000   0.000035  -0.000051   0.000063  -0.000002
    32  H    0.000000   0.000000   0.000017   0.000001   0.000004   0.000001
    33  H    0.000000   0.000000   0.000000   0.000000  -0.000001   0.000000
    34  H    0.000000   0.000000   0.000035   0.000132  -0.000047   0.000000
    35  C    0.000000   0.000000  -0.000001   0.000000  -0.000002   0.000000
    36  O    0.000000   0.000000   0.000000   0.000000   0.000000   0.000000
    37  N    0.000000   0.000000   0.000000   0.000000   0.000000   0.000000
    38  H    0.000000   0.000000   0.000000   0.000000   0.000000   0.000000
    39  C    0.000000   0.000000   0.000000   0.000000   0.000000   0.000000
    40  H    0.000000   0.000000   0.000000   0.000000   0.000000   0.000000
    41  H    0.000000   0.000000   0.000000   0.000000   0.000000   0.000000
    42  H    0.000000   0.000000   0.000000   0.000000   0.000000   0.000000
             19         20         21         22         23         24
     1  H    0.000000   0.000000   0.000000   0.000000   0.000000   0.000000
     2  C    0.000000   0.000000   0.000000   0.000000   0.000000   0.000000
     3  H    0.000000   0.000000   0.000000   0.000000   0.000000   0.000000
     4  H    0.000000   0.000000   0.000000   0.000000   0.000000   0.000000
     5  C    0.000001   0.000000   0.000000   0.000000   0.000000   0.000000
     6  O    0.000000   0.000000   0.000000   0.000000   0.000000   0.000000
     7  N   -0.000045   0.000000   0.000002  -0.000003   0.000000   0.000000
     8  H   -0.000024   0.000000   0.000008   0.000001   0.000000   0.000000
     9  C    0.003666  -0.000006  -0.000344   0.000291   0.000006  -0.000095
    10  H   -0.000261   0.000001   0.000001  -0.000003   0.000000   0.000000
    11  C    0.000038   0.000000   0.000015  -0.000039   0.000000   0.000046
    12  H   -0.000070   0.000001   0.000033  -0.000004   0.000000   0.000023
    13  H    0.000193  -0.000014  -0.000017  -0.000002   0.000000   0.000019
    14  H    0.000002   0.000000  -0.000001   0.000000   0.000000   0.000000
    15  C   -0.029793   0.004020  -0.003327   0.002206   0.000264  -0.000853
    16  O    0.013790   0.000069  -0.013562   0.005361   0.000278   0.000136
    17  N    0.173539  -0.038729  -0.062257  -0.004581   0.004327   0.000927
    18  H   -0.022194  -0.004251   0.002791  -0.000135  -0.000093   0.000047
    19  C    5.083994   0.411959   0.353080  -0.024803  -0.037940  -0.044459
    20  H    0.411959   0.511542  -0.037239   0.003090  -0.001360  -0.003519
    21  C    0.353080  -0.037239   5.145611   0.390293   0.387177   0.384787
    22  H   -0.024803   0.003090   0.390293   0.417642  -0.017940  -0.022841
    23  H   -0.037940  -0.001360   0.387177  -0.017940   0.527836  -0.024866
    24  H   -0.044459  -0.003519   0.384787  -0.022841  -0.024866   0.550725
    25  C    0.350991  -0.049875  -0.064009  -0.006743  -0.001749   0.006464
    26  O   -0.082199   0.002400   0.003420   0.002869  -0.000513   0.000376
    27  N   -0.105925   0.004784   0.003180   0.000169  -0.000056  -0.000064
    28  H   -0.001193   0.001678   0.000072   0.000000  -0.000018  -0.000009
    29  C    0.005375  -0.000125  -0.000163  -0.000006  -0.000006   0.000002
    30  H   -0.000119  -0.000021   0.000023   0.000000  -0.000001   0.000000
    31  C   -0.000659   0.000018   0.000001   0.000001   0.000000   0.000000
    32  H   -0.000037  -0.000002   0.000001   0.000000   0.000000   0.000000
    33  H    0.000008   0.000000   0.000000   0.000000   0.000000   0.000000
    34  H    0.000322  -0.000008  -0.000006  -0.000002   0.000000   0.000000
    35  C    0.000016  -0.000031  -0.000001   0.000000   0.000000   0.000000
    36  O   -0.000056  -0.000014   0.000000   0.000000   0.000000   0.000000
    37  N    0.000000   0.000000   0.000000   0.000000   0.000000   0.000000
    38  H    0.000000   0.000000   0.000000   0.000000   0.000000   0.000000
    39  C    0.000000   0.000000   0.000000   0.000000   0.000000   0.000000
    40  H    0.000000   0.000000   0.000000   0.000000   0.000000   0.000000
    41  H    0.000000   0.000000   0.000000   0.000000   0.000000   0.000000
    42  H    0.000000   0.000000   0.000000   0.000000   0.000000   0.000000
             25         26         27         28         29         30
     1  H    0.000000   0.000000   0.000000   0.000000   0.000000   0.000000
     2  C    0.000000   0.000000   0.000000   0.000000   0.000000   0.000000
     3  H    0.000000   0.000000   0.000000   0.000000   0.000000   0.000000
     4  H    0.000000   0.000000   0.000000   0.000000   0.000000   0.000000
     5  C    0.000000   0.000000   0.000000   0.000000   0.000000   0.000000
     6  O    0.000000   0.000000   0.000000   0.000000   0.000000   0.000000
     7  N   -0.000001   0.000000   0.000000   0.000000   0.000000   0.000000
     8  H    0.000002   0.000004   0.000000   0.000000   0.000000   0.000000
     9  C   -0.000379   0.000009  -0.000026   0.000000   0.000001   0.000000
    10  H    0.000035   0.000003   0.000002   0.000001   0.000000   0.000000
    11  C    0.000005   0.000000   0.000000   0.000000   0.000000   0.000000
    12  H    0.000002   0.000000   0.000000   0.000000   0.000000   0.000000
    13  H    0.000003   0.000000   0.000000   0.000000   0.000000   0.000000
    14  H    0.000000   0.000000   0.000000   0.000000   0.000000   0.000000
    15  C   -0.003369   0.004504  -0.000048   0.000051  -0.000036   0.000000
    16  O   -0.001578  -0.010579  -0.000261  -0.000009   0.000019   0.000001
    17  N   -0.053280  -0.000153   0.005324   0.000935  -0.000142  -0.000008
    18  H    0.001944  -0.000068  -0.000065   0.000005   0.000003   0.000000
    19  C    0.350991  -0.082199  -0.105925  -0.001193   0.005375  -0.000119
    20  H   -0.049875   0.002400   0.004784   0.001678  -0.000125  -0.000021
    21  C   -0.064009   0.003420   0.003180   0.000072  -0.000163   0.000023
    22  H   -0.006743   0.002869   0.000169   0.000000  -0.000006   0.000000
    23  H   -0.001749  -0.000513  -0.000056  -0.000018  -0.000006  -0.000001
    24  H    0.006464   0.000376  -0.000064  -0.000009   0.000002   0.000000
    25  C    4.225004   0.552962   0.275884  -0.019099  -0.031842  -0.001704
    26  O    0.552962   8.233989  -0.099123   0.001976   0.013747   0.003049
    27  N    0.275884  -0.099123   7.400071   0.310993   0.194987  -0.041307
    28  H   -0.019099   0.001976   0.310993   0.291503  -0.027236   0.002434
    29  C   -0.031842   0.013747   0.194987  -0.027236   5.042194   0.404198
    30  H   -0.001704   0.003049  -0.041307   0.002434   0.404198   0.498983
    31  C   -0.003557  -0.015098  -0.063327   0.003046   0.334775  -0.045386
    32  H   -0.000129  -0.000005   0.001567   0.000268  -0.042792   0.004493
    33  H    0.000247   0.000244   0.004942  -0.000078  -0.042185   0.000228
    34  H    0.000438   0.010518  -0.005478  -0.000206  -0.026332  -0.003901
    35  C    0.003697   0.000439  -0.036985  -0.005773   0.377254  -0.036884
    36  O    0.000414  -0.000003  -0.006149   0.021784  -0.079110   0.001018
    37  N   -0.000088  -0.000001   0.002847   0.000734  -0.116277   0.002078
    38  H    0.000002   0.000001   0.000016  -0.000022   0.001108   0.000483
    39  C    0.000001   0.000000  -0.000050  -0.000010   0.003624  -0.000217
    40  H    0.000000   0.000000  -0.000004  -0.000010   0.000582  -0.000017
    41  H    0.000000   0.000000   0.000000   0.000000  -0.000109   0.000010
    42  H    0.000000   0.000000   0.000001   0.000000  -0.000004  -0.000002
             31         32         33         34         35         36
     1  H    0.000000   0.000000   0.000000   0.000000   0.000000   0.000000
     2  C    0.000000   0.000000   0.000000   0.000000   0.000000   0.000000
     3  H    0.000000   0.000000   0.000000   0.000000   0.000000   0.000000
     4  H    0.000000   0.000000   0.000000   0.000000   0.000000   0.000000
     5  C    0.000000   0.000000   0.000000   0.000000   0.000000   0.000000
     6  O    0.000000   0.000000   0.000000   0.000000   0.000000   0.000000
     7  N    0.000000   0.000000   0.000000   0.000000   0.000000   0.000000
     8  H    0.000000   0.000000   0.000000   0.000000   0.000000   0.000000
     9  C   -0.000001   0.000000   0.000000   0.000000   0.000000   0.000000
    10  H    0.000001   0.000001   0.000000   0.000000   0.000000   0.000000
    11  C    0.000000   0.000000   0.000000   0.000000   0.000000   0.000000
    12  H    0.000000   0.000000   0.000000   0.000000   0.000000   0.000000
    13  H    0.000000   0.000000   0.000000   0.000000   0.000000   0.000000
    14  H    0.000000   0.000000   0.000000   0.000000   0.000000   0.000000
    15  C    0.000035   0.000017   0.000000   0.000035  -0.000001   0.000000
    16  O   -0.000051   0.000001   0.000000   0.000132   0.000000   0.000000
    17  N    0.000063   0.000004  -0.000001  -0.000047  -0.000002   0.000000
    18  H   -0.000002   0.000001   0.000000   0.000000   0.000000   0.000000
    19  C   -0.000659  -0.000037   0.000008   0.000322   0.000016  -0.000056
    20  H    0.000018  -0.000002   0.000000  -0.000008  -0.000031  -0.000014
    21  C    0.000001   0.000001   0.000000  -0.000006  -0.000001   0.000000
    22  H    0.000001   0.000000   0.000000  -0.000002   0.000000   0.000000
    23  H    0.000000   0.000000   0.000000   0.000000   0.000000   0.000000
    24  H    0.000000   0.000000   0.000000   0.000000   0.000000   0.000000
    25  C   -0.003557  -0.000129   0.000247   0.000438   0.003697   0.000414
    26  O   -0.015098  -0.000005   0.000244   0.010518   0.000439  -0.000003
    27  N   -0.063327   0.001567   0.004942  -0.005478  -0.036985  -0.006149
    28  H    0.003046   0.000268  -0.000078  -0.000206  -0.005773   0.021784
    29  C    0.334775  -0.042792  -0.042185  -0.026332   0.377254  -0.079110
    30  H   -0.045386   0.004493   0.000228  -0.003901  -0.036884   0.001018
    31  C    5.208826   0.385757   0.378161   0.387151  -0.063507   0.000021
    32  H    0.385757   0.524958  -0.024274  -0.019945  -0.002673   0.000623
    33  H    0.378161  -0.024274   0.568643  -0.020006  -0.007065   0.000024
    34  H    0.387151  -0.019945  -0.020006   0.419139   0.003877  -0.000063
    35  C   -0.063507  -0.002673  -0.007065   0.003877   4.144124   0.594043
    36  O    0.000021   0.000623   0.000024  -0.000063   0.594043   8.218498
    37  N    0.002342   0.000154   0.000389   0.000088   0.289535  -0.099057
    38  H    0.000031  -0.000006   0.002671  -0.000081  -0.020530   0.002373
    39  C   -0.000074  -0.000042   0.000166   0.000003  -0.025612  -0.004863
    40  H   -0.000050  -0.000001  -0.000008   0.000000  -0.001960   0.009938
    41  H   -0.000004   0.000001   0.000002   0.000000   0.000787   0.000366
    42  H    0.000013   0.000002  -0.000001  -0.000001   0.000922   0.000373
             37         38         39         40         41         42
     1  H    0.000000   0.000000   0.000000   0.000000   0.000000   0.000000
     2  C    0.000000   0.000000   0.000000   0.000000   0.000000   0.000000
     3  H    0.000000   0.000000   0.000000   0.000000   0.000000   0.000000
     4  H    0.000000   0.000000   0.000000   0.000000   0.000000   0.000000
     5  C    0.000000   0.000000   0.000000   0.000000   0.000000   0.000000
     6  O    0.000000   0.000000   0.000000   0.000000   0.000000   0.000000
     7  N    0.000000   0.000000   0.000000   0.000000   0.000000   0.000000
     8  H    0.000000   0.000000   0.000000   0.000000   0.000000   0.000000
     9  C    0.000000   0.000000   0.000000   0.000000   0.000000   0.000000
    10  H    0.000000   0.000000   0.000000   0.000000   0.000000   0.000000
    11  C    0.000000   0.000000   0.000000   0.000000   0.000000   0.000000
    12  H    0.000000   0.000000   0.000000   0.000000   0.000000   0.000000
    13  H    0.000000   0.000000   0.000000   0.000000   0.000000   0.000000
    14  H    0.000000   0.000000   0.000000   0.000000   0.000000   0.000000
    15  C    0.000000   0.000000   0.000000   0.000000   0.000000   0.000000
    16  O    0.000000   0.000000   0.000000   0.000000   0.000000   0.000000
    17  N    0.000000   0.000000   0.000000   0.000000   0.000000   0.000000
    18  H    0.000000   0.000000   0.000000   0.000000   0.000000   0.000000
    19  C    0.000000   0.000000   0.000000   0.000000   0.000000   0.000000
    20  H    0.000000   0.000000   0.000000   0.000000   0.000000   0.000000
    21  C    0.000000   0.000000   0.000000   0.000000   0.000000   0.000000
    22  H    0.000000   0.000000   0.000000   0.000000   0.000000   0.000000
    23  H    0.000000   0.000000   0.000000   0.000000   0.000000   0.000000
    24  H    0.000000   0.000000   0.000000   0.000000   0.000000   0.000000
    25  C   -0.000088   0.000002   0.000001   0.000000   0.000000   0.000000
    26  O   -0.000001   0.000001   0.000000   0.000000   0.000000   0.000000
    27  N    0.002847   0.000016  -0.000050  -0.000004   0.000000   0.000001
    28  H    0.000734  -0.000022  -0.000010  -0.000010   0.000000   0.000000
    29  C   -0.116277   0.001108   0.003624   0.000582  -0.000109  -0.000004
    30  H    0.002078   0.000483  -0.000217  -0.000017   0.000010  -0.000002
    31  C    0.002342   0.000031  -0.000074  -0.000050  -0.000004   0.000013
    32  H    0.000154  -0.000006  -0.000042  -0.000001   0.000001   0.000002
    33  H    0.000389   0.002671   0.000166  -0.000008   0.000002  -0.000001
    34  H    0.000088  -0.000081   0.000003   0.000000   0.000000  -0.000001
    35  C    0.289535  -0.020530  -0.025612  -0.001960   0.000787   0.000922
    36  O   -0.099057   0.002373  -0.004863   0.009938   0.000366   0.000373
    37  N    7.331289   0.322399   0.185952  -0.031823  -0.047044  -0.048006
[...]
    29  C    0.000000   0.000000  -0.000018   0.000004  -0.000271   0.000004
    30  H    0.000000   0.000000  -0.000001   0.000001  -0.000011   0.000000
    31  C    0.000000   0.000000   0.000014  -0.000007   0.000079  -0.000003
    32  H    0.000000   0.000000   0.000002   0.000000  -0.000002   0.000001
    33  H    0.000000   0.000000   0.000000   0.000000   0.000000   0.000000
    34  H    0.000000   0.000000   0.000028   0.000019  -0.000033   0.000001
    35  C    0.000000   0.000000   0.000000   0.000000  -0.000001   0.000000
    36  O    0.000000   0.000000   0.000000   0.000000   0.000000   0.000000
    37  N    0.000000   0.000000   0.000000   0.000000   0.000000   0.000000
    38  H    0.000000   0.000000   0.000000   0.000000   0.000000   0.000000
    39  C    0.000000   0.000000   0.000000   0.000000   0.000000   0.000000
    40  H    0.000000   0.000000   0.000000   0.000000   0.000000   0.000000
    41  H    0.000000   0.000000   0.000000   0.000000   0.000000   0.000000
    42  H    0.000000   0.000000   0.000000   0.000000   0.000000   0.000000
             19         20         21         22         23         24
     1  H    0.000000   0.000000   0.000000   0.000000   0.000000   0.000000
     2  C    0.000000   0.000000   0.000000   0.000000   0.000000   0.000000
     3  H    0.000000   0.000000   0.000000   0.000000   0.000000   0.000000
     4  H    0.000000   0.000000   0.000000   0.000000   0.000000   0.000000
     5  C    0.000001   0.000000   0.000000   0.000000   0.000000   0.000000
     6  O    0.000000   0.000000   0.000000   0.000000   0.000000   0.000000
     7  N   -0.000065   0.000001   0.000000  -0.000001   0.000000   0.000000
     8  H   -0.000022   0.000000   0.000001  -0.000002   0.000000   0.000000
     9  C    0.003434  -0.000050  -0.000229   0.000132   0.000006  -0.000072
    10  H   -0.000098  -0.000008   0.000001  -0.000003   0.000000   0.000000
    11  C   -0.000228   0.000007   0.000032  -0.000013  -0.000001   0.000024
    12  H   -0.000004   0.000000   0.000007  -0.000003   0.000000   0.000003
    13  H   -0.000004  -0.000008  -0.000012  -0.000001   0.000000   0.000031
    14  H    0.000002   0.000000   0.000000   0.000000   0.000000   0.000000
    15  C   -0.022672   0.003583  -0.001857   0.001951   0.000152  -0.000603
    16  O    0.010509   0.000002  -0.004192   0.004384   0.000109  -0.000065
    17  N    0.172941  -0.044286  -0.058993  -0.003553   0.004054   0.000563
    18  H   -0.025018  -0.005539   0.002983  -0.000107  -0.000090   0.000018
    19  C    5.062489   0.417840   0.347132  -0.027073  -0.036212  -0.041203
    20  H    0.417840   0.518657  -0.036928   0.003369  -0.001714  -0.003405
    21  C    0.347132  -0.036928   5.117777   0.391132   0.386418   0.389097
    22  H   -0.027073   0.003369   0.391132   0.438217  -0.020314  -0.022731
    23  H   -0.036212  -0.001714   0.386418  -0.020314   0.528842  -0.026046
    24  H   -0.041203  -0.003405   0.389097  -0.022731  -0.026046   0.535033
    25  C    0.357211  -0.053659  -0.055480  -0.005796  -0.001977   0.005425
    26  O   -0.076766   0.002280   0.005627   0.003773  -0.000207   0.000168
    27  N   -0.109394   0.005881   0.002810   0.000199  -0.000003  -0.000070
    28  H   -0.001462   0.001266   0.000094  -0.000002  -0.000023  -0.000007
    29  C    0.005854  -0.000065  -0.000153  -0.000004  -0.000007   0.000002
    30  H    0.000123  -0.000035   0.000013  -0.000001  -0.000002   0.000000
    31  C   -0.000465   0.000015   0.000000   0.000000   0.000000   0.000000
    32  H   -0.000009  -0.000001   0.000000   0.000000   0.000000   0.000000
    33  H    0.000004   0.000000   0.000000   0.000000   0.000000   0.000000
    34  H    0.000141  -0.000005  -0.000001  -0.000001   0.000000   0.000000
    35  C   -0.000030  -0.000035   0.000000   0.000000   0.000000   0.000000
    36  O   -0.000063  -0.000019   0.000000   0.000000   0.000000   0.000000
    37  N    0.000000   0.000000   0.000000   0.000000   0.000000   0.000000
    38  H    0.000000   0.000000   0.000000   0.000000   0.000000   0.000000
    39  C    0.000000   0.000000   0.000000   0.000000   0.000000   0.000000
    40  H    0.000000   0.000000   0.000000   0.000000   0.000000   0.000000
    41  H    0.000000   0.000000   0.000000   0.000000   0.000000   0.000000
    42  H    0.000000   0.000000   0.000000   0.000000   0.000000   0.000000
             25         26         27         28         29         30
     1  H    0.000000   0.000000   0.000000   0.000000   0.000000   0.000000
     2  C    0.000000   0.000000   0.000000   0.000000   0.000000   0.000000
     3  H    0.000000   0.000000   0.000000   0.000000   0.000000   0.000000
     4  H    0.000000   0.000000   0.000000   0.000000   0.000000   0.000000
     5  C    0.000000   0.000000   0.000000   0.000000   0.000000   0.000000
     6  O    0.000000   0.000000   0.000000   0.000000   0.000000   0.000000
     7  N    0.000000   0.000000   0.000000   0.000000   0.000000   0.000000
     8  H    0.000003   0.000001   0.000000   0.000000   0.000000   0.000000
     9  C   -0.000235   0.000013  -0.000022  -0.000002   0.000000   0.000000
    10  H    0.000021   0.000001   0.000001   0.000001   0.000000   0.000000
    11  C   -0.000002   0.000000   0.000000   0.000000   0.000000   0.000000
    12  H    0.000000   0.000000   0.000000   0.000000   0.000000   0.000000
    13  H    0.000003   0.000000   0.000000   0.000000   0.000000   0.000000
    14  H    0.000000   0.000000   0.000000   0.000000   0.000000   0.000000
    15  C   -0.003580   0.002481   0.000084   0.000036  -0.000018  -0.000001
    16  O   -0.000075  -0.001785  -0.000058  -0.000005   0.000004   0.000001
    17  N   -0.050454   0.000096   0.004822   0.000929  -0.000271  -0.000011
    18  H    0.001832  -0.000064   0.000076   0.000035   0.000004   0.000000
    19  C    0.357211  -0.076766  -0.109394  -0.001462   0.005854   0.000123
    20  H   -0.053659   0.002280   0.005881   0.001266  -0.000065  -0.000035
    21  C   -0.055480   0.005627   0.002810   0.000094  -0.000153   0.000013
    22  H   -0.005796   0.003773   0.000199  -0.000002  -0.000004  -0.000001
    23  H   -0.001977  -0.000207  -0.000003  -0.000023  -0.000007  -0.000002
    24  H    0.005425   0.000168  -0.000070  -0.000007   0.000002   0.000000
    25  C    4.181145   0.587067   0.273618  -0.016225  -0.030052  -0.001596
    26  O    0.587067   8.164691  -0.104567   0.001987   0.010746   0.006149
    27  N    0.273618  -0.104567   7.422743   0.309684   0.196071  -0.043050
    28  H   -0.016225   0.001987   0.309684   0.293348  -0.027802   0.003038
    29  C   -0.030052   0.010746   0.196071  -0.027802   5.042071   0.411112
    30  H   -0.001596   0.006149  -0.043050   0.003038   0.411112   0.487759
    31  C   -0.002041  -0.004402  -0.064116   0.002491   0.338444  -0.040802
    32  H    0.000060   0.000006   0.000183   0.000675  -0.038944   0.004013
    33  H    0.000035  -0.000006   0.004731  -0.000064  -0.037514   0.000057
    34  H    0.002223   0.004791  -0.005597  -0.000208  -0.028995  -0.003571
    35  C    0.003662   0.000424  -0.041532  -0.008059   0.375367  -0.043336
    36  O    0.000436  -0.000004  -0.009479   0.023991  -0.076633   0.001808
    37  N   -0.000111  -0.000001   0.002405   0.001064  -0.114736   0.003979
    38  H   -0.000004  -0.000001  -0.000005  -0.000031   0.000601   0.001408
    39  C    0.000001   0.000000  -0.000082  -0.000031   0.004412  -0.000090
    40  H    0.000000   0.000000  -0.000005  -0.000004   0.000141  -0.000001
    41  H    0.000000   0.000000   0.000008   0.000001  -0.000174  -0.000003
    42  H    0.000000   0.000000   0.000000   0.000000   0.000004  -0.000012
             31         32         33         34         35         36
     1  H    0.000000   0.000000   0.000000   0.000000   0.000000   0.000000
     2  C    0.000000   0.000000   0.000000   0.000000   0.000000   0.000000
     3  H    0.000000   0.000000   0.000000   0.000000   0.000000   0.000000
     4  H    0.000000   0.000000   0.000000   0.000000   0.000000   0.000000
     5  C    0.000000   0.000000   0.000000   0.000000   0.000000   0.000000
     6  O    0.000000   0.000000   0.000000   0.000000   0.000000   0.000000
     7  N    0.000000   0.000000   0.000000   0.000000   0.000000   0.000000
     8  H    0.000000   0.000000   0.000000   0.000000   0.000000   0.000000
     9  C    0.000000   0.000000   0.000000  -0.000001   0.000000   0.000000
    10  H    0.000000   0.000000   0.000000   0.000000   0.000000   0.000000
    11  C    0.000000   0.000000   0.000000   0.000000   0.000000   0.000000
    12  H    0.000000   0.000000   0.000000   0.000000   0.000000   0.000000
    13  H    0.000000   0.000000   0.000000   0.000000   0.000000   0.000000
    14  H    0.000000   0.000000   0.000000   0.000000   0.000000   0.000000
    15  C    0.000014   0.000002   0.000000   0.000028   0.000000   0.000000
    16  O   -0.000007   0.000000   0.000000   0.000019   0.000000   0.000000
    17  N    0.000079  -0.000002   0.000000  -0.000033  -0.000001   0.000000
    18  H   -0.000003   0.000001   0.000000   0.000001   0.000000   0.000000
    19  C   -0.000465  -0.000009   0.000004   0.000141  -0.000030  -0.000063
    20  H    0.000015  -0.000001   0.000000  -0.000005  -0.000035  -0.000019
    21  C    0.000000   0.000000   0.000000  -0.000001   0.000000   0.000000
    22  H    0.000000   0.000000   0.000000  -0.000001   0.000000   0.000000
    23  H    0.000000   0.000000   0.000000   0.000000   0.000000   0.000000
    24  H    0.000000   0.000000   0.000000   0.000000   0.000000   0.000000
    25  C   -0.002041   0.000060   0.000035   0.002223   0.003662   0.000436
    26  O   -0.004402   0.000006  -0.000006   0.004791   0.000424  -0.000004
    27  N   -0.064116   0.000183   0.004731  -0.005597  -0.041532  -0.009479
    28  H    0.002491   0.000675  -0.000064  -0.000208  -0.008059   0.023991
    29  C    0.338444  -0.038944  -0.037514  -0.028995   0.375367  -0.076633
    30  H   -0.040802   0.004013   0.000057  -0.003571  -0.043336   0.001808
    31  C    5.151635   0.388468   0.381434   0.391808  -0.053131  -0.000939
    32  H    0.388468   0.517385  -0.024668  -0.022841  -0.004040   0.001633
    33  H    0.381434  -0.024668   0.538729  -0.022609  -0.002958   0.000027
    34  H    0.391808  -0.022841  -0.022609   0.463598   0.004096  -0.000069
    35  C   -0.053131  -0.004040  -0.002958   0.004096   4.164221   0.595904
    36  O   -0.000939   0.001633   0.000027  -0.000069   0.595904   8.185897
    37  N    0.001403   0.000415   0.002292  -0.000052   0.284522  -0.104071
    38  H    0.000341   0.000005   0.000486  -0.000034  -0.022079   0.002521
    39  C   -0.000268  -0.000008  -0.000015   0.000003  -0.028968   0.008517
    40  H    0.000007   0.000003  -0.000012   0.000000  -0.002949   0.003064
    41  H   -0.000006   0.000000   0.000003   0.000000  -0.003773   0.001239
    42  H    0.000004   0.000000  -0.000006   0.000000   0.004549   0.000355
             37         38         39         40         41         42
     1  H    0.000000   0.000000   0.000000   0.000000   0.000000   0.000000
     2  C    0.000000   0.000000   0.000000   0.000000   0.000000   0.000000
     3  H    0.000000   0.000000   0.000000   0.000000   0.000000   0.000000
     4  H    0.000000   0.000000   0.000000   0.000000   0.000000   0.000000
     5  C    0.000000   0.000000   0.000000   0.000000   0.000000   0.000000
     6  O    0.000000   0.000000   0.000000   0.000000   0.000000   0.000000
     7  N    0.000000   0.000000   0.000000   0.000000   0.000000   0.000000
     8  H    0.000000   0.000000   0.000000   0.000000   0.000000   0.000000
     9  C    0.000000   0.000000   0.000000   0.000000   0.000000   0.000000
    10  H    0.000000   0.000000   0.000000   0.000000   0.000000   0.000000
    11  C    0.000000   0.000000   0.000000   0.000000   0.000000   0.000000
    12  H    0.000000   0.000000   0.000000   0.000000   0.000000   0.000000
    13  H    0.000000   0.000000   0.000000   0.000000   0.000000   0.000000
    14  H    0.000000   0.000000   0.000000   0.000000   0.000000   0.000000
    15  C    0.000000   0.000000   0.000000   0.000000   0.000000   0.000000
    16  O    0.000000   0.000000   0.000000   0.000000   0.000000   0.000000
    17  N    0.000000   0.000000   0.000000   0.000000   0.000000   0.000000
    18  H    0.000000   0.000000   0.000000   0.000000   0.000000   0.000000
    19  C    0.000000   0.000000   0.000000   0.000000   0.000000   0.000000
    20  H    0.000000   0.000000   0.000000   0.000000   0.000000   0.000000
    21  C    0.000000   0.000000   0.000000   0.000000   0.000000   0.000000
    22  H    0.000000   0.000000   0.000000   0.000000   0.000000   0.000000
    23  H    0.000000   0.000000   0.000000   0.000000   0.000000   0.000000
    24  H    0.000000   0.000000   0.000000   0.000000   0.000000   0.000000
    25  C   -0.000111  -0.000004   0.000001   0.000000   0.000000   0.000000
    26  O   -0.000001  -0.000001   0.000000   0.000000   0.000000   0.000000
    27  N    0.002405  -0.000005  -0.000082  -0.000005   0.000008   0.000000
    28  H    0.001064  -0.000031  -0.000031  -0.000004   0.000001   0.000000
    29  C   -0.114736   0.000601   0.004412   0.000141  -0.000174   0.000004
    30  H    0.003979   0.001408  -0.000090  -0.000001  -0.000003  -0.000012
    31  C    0.001403   0.000341  -0.000268   0.000007  -0.000006   0.000004
    32  H    0.000415   0.000005  -0.000008   0.000003   0.000000   0.000000
    33  H    0.002292   0.000486  -0.000015  -0.000012   0.000003  -0.000006
    34  H   -0.000052  -0.000034   0.000003   0.000000   0.000000   0.000000
    35  C    0.284522  -0.022079  -0.028968  -0.002949  -0.003773   0.004549
    36  O   -0.104071   0.002521   0.008517   0.003064   0.001239   0.000355
    37  N    7.322492   0.328606   0.194464  -0.040859  -0.045342  -0.037006
    38  H    0.328606   0.319861  -0.022132   0.002461   0.001414  -0.004604
    39  C    0.194464  -0.022132   4.908694   0.404423   0.406218   0.397449
    40  H   -0.040859   0.002461   0.404423   0.488909  -0.032910  -0.024949
    41  H   -0.045342   0.001414   0.406218  -0.032910   0.518844  -0.030674
    42  H   -0.037006  -0.004604   0.397449  -0.024949  -0.030674   0.521977
 Mulliken atomic charges:
              1
     1  H    0.202477
     2  C   -0.575618
     3  H    0.206843
     4  H    0.174695
     5  C    0.755522
     6  O   -0.624123
     7  N   -0.823375
     8  H    0.420942
     9  C   -0.033957
    10  H    0.212254
    11  C   -0.484459
    12  H    0.178811
    13  H    0.157082
    14  H    0.211599
    15  C    0.787053
    16  O   -0.604140
    17  N   -0.837959
    18  H    0.389818
    19  C   -0.036895
    20  H    0.192855
    21  C   -0.485279
    22  H    0.236446
    23  H    0.167013
    24  H    0.163836
    25  C    0.808545
    26  O   -0.602498
    27  N   -0.845338
    28  H    0.415286
    29  C   -0.029465
    30  H    0.213048
    31  C   -0.489965
    32  H    0.177664
    33  H    0.160056
    34  H    0.217307
    35  C    0.778146
    36  O   -0.634115
    37  N   -0.799463
    38  H    0.391186
    39  C   -0.272588
    40  H    0.202681
    41  H    0.185155
    42  H    0.172913
 Sum of Mulliken atomic charges =   0.00000
 Mulliken charges with hydrogens summed into heavy atoms:
              1
     2  C    0.008397
     5  C    0.755522
     6  O   -0.624123
     7  N   -0.402433
     9  C    0.178297
    11  C    0.063034
    15  C    0.787053
    16  O   -0.604140
    17  N   -0.448141
    19  C    0.155961
    21  C    0.082017
    25  C    0.808545
    26  O   -0.602498
    27  N   -0.430052
    29  C    0.183583
    31  C    0.065062
    35  C    0.778146
    36  O   -0.634115
    37  N   -0.408277
    39  C    0.288162
 Sum of Mulliken charges with hydrogens summed into heavy atoms =   0.00000
 Electronic spatial extent (au):  <R**2>=           8986.4980
 Charge=              0.0000 electrons
 Dipole moment (field-independent basis, Debye):
    X=              4.1394    Y=              0.1308    Z=              0.1730  Tot=              4.1451
 Quadrupole moment (field-independent basis, Debye-Ang):
   XX=           -100.9496   YY=           -119.9317   ZZ=           -129.1318
   XY=            -11.5039   XZ=              0.9442   YZ=            -17.8435
 Traceless Quadrupole moment (field-independent basis, Debye-Ang):
   XX=             15.7214   YY=             -3.2606   ZZ=            -12.4608
   XY=            -11.5039   XZ=              0.9442   YZ=            -17.8435
 Octapole moment (field-independent basis, Debye-Ang**2):
  XXX=            190.7399  YYY=              8.1244  ZZZ=             -5.1200  XYY=             27.0657
  XXY=            -17.8067  XXZ=            117.2951  XZZ=              0.3454  YZZ=             -1.7231
  YYZ=              9.8915  XYZ=             27.7906
 Hexadecapole moment (field-independent basis, Debye-Ang**3):
 XXXX=          -7755.0784 YYYY=          -1994.7972 ZZZZ=           -780.8241 XXXY=           -384.4756
 XXXZ=            -99.0892 YYYX=            -11.2310 YYYZ=            -20.1880 ZZZX=             16.6121
 ZZZY=            -33.9571 XXYY=          -1826.4282 XXZZ=          -1684.9702 YYZZ=           -486.7520
 XXYZ=           -207.1932 YYXZ=            -84.8843 ZZXY=            -37.1308
 N-N= 1.618761923131D+03 E-N=-5.545674716457D+03  KE= 9.830785571943D+02
 1\1\GINC-NODE007\FOpt\RHF\6-31G(d)\C12H22N4O4\MANAGER\27-Dec-2016\0\\#
  HF/6-31G* Opt=(ModRedundant, maxcycles=1000, calcfc) geom=nocrowd\\Ph
 i Psi fixed scan\\0,1\H,7.5317657231,1.5500869007,3.6568689865\C,8.122
 8015195,2.2287284302,3.0513382731\H,8.9508941651,1.6683253005,2.638268
 0038\H,8.5005343409,3.0219142262,3.684898857\C,7.262273714,2.731786123
 2,1.9127362695\O,6.9779839598,2.0286796881,0.9776064547\N,6.8212720659
 ,4.0005187189,2.0264481391\H,7.093601925,4.5775819578,2.7904029563\C,5
 .9941238064,4.619453619,1.0207923898\H,6.3482631725,4.2997435278,0.048
 4962459\C,4.5170447869,4.2281527699,1.166193961\H,4.1356800598,4.55117
 9865,2.1287274198\H,3.9090881258,4.6765879627,0.3871253957\H,4.4268749
 184,3.1524055986,1.0948576728\C,6.1606378134,6.1328726415,1.1632923003
 \O,6.5328472391,6.6227121103,2.192037731\N,5.8017535595,6.8414277821,0
 .0657207729\H,5.6034568934,6.3157161198,-0.7545136624\C,5.9034799641,8
 .2895789229,-0.1126706148\H,5.5749945118,8.4677056428,-1.1292915049\C,
 4.9929734854,9.0548751283,0.8426154694\H,5.3157211687,8.9146180669,1.8
 627234701\H,5.0213613903,10.1151373259,0.6151887508\H,3.9725337474,8.7
 046357641,0.7334169539\C,7.3538593997,8.7879583936,0.012386786\O,7.822
 0066043,9.1825789115,1.0423653508\N,8.0372485721,8.8077919507,-1.15224
 5573\H,7.6360844622,8.4747665241,-2.0001503771\C,9.4149209141,9.229247
 633,-1.2302290038\H,9.5308453986,10.1182750582,-0.6226778281\C,10.3857
 993477,8.1514478278,-0.7284925563\H,10.3008349898,7.256429803,-1.33531
 11078\H,11.4132222005,8.4980994303,-0.7696799452\H,10.1473056462,7.905
 8277006,0.2977484121\C,9.7006564989,9.5596819007,-2.6923629148\O,9.048
 9689082,9.0772069734,-3.5831890071\N,10.7435464058,10.3779754313,-2.91
 29763263\H,11.1844707662,10.8172201636,-2.1386769858\C,11.1436638728,1
 0.7589150182,-4.252221975\H,11.2441321473,9.8803059657,-4.8731614612\H
 ,10.419305725,11.422329711,-4.7101484122\H,12.0987660843,11.2632174105
 ,-4.1970577666\\Version=EM64L-G09RevA.02\State=1-A\HF=-984.5531939\RMS
 D=6.864e-09\RMSF=1.217e-03\Dipole=0.6508586,1.2615744,-0.8027268\Quadr
 upole=13.7444933,-7.7189216,-6.0255717,7.0734737,-2.0237934,-12.933227
 3\PG=C01 [X(C12H22N4O4)]\\@


 JUST WHEN YOU THINK YOU'VE GOT THE WORLD ON A STRING,
 YOU FIND OUT IT'S YOUR LEASH.
 Job cpu time:  0 days  2 hours 26 minutes 15.7 seconds.
 File lengths (MBytes):  RWF=    553 Int=      0 D2E=      0 Chk=     11 Scr=      1
 Normal termination of Gaussian 09 at Tue Dec 27 15:51:18 2016.
