 Entering Gaussian System, Link 0=g09
 Initial command:
 /home/steboss/Software/g09/l1.exe /tmp/Gau-12278.inp -scrdir=/tmp/
 Entering Link 1 = /home/steboss/Software/g09/l1.exe PID=     12280.
  
 Copyright (c) 1988,1990,1992,1993,1995,1998,2003,2009, Gaussian, Inc.
                  All Rights Reserved.
  
 This is part of the Gaussian(R) 09 program.  It is based on
 the Gaussian(R) 03 system (copyright 2003, Gaussian, Inc.),
 the Gaussian(R) 98 system (copyright 1998, Gaussian, Inc.),
 the Gaussian(R) 94 system (copyright 1995, Gaussian, Inc.),
 the Gaussian 92(TM) system (copyright 1992, Gaussian, Inc.),
 the Gaussian 90(TM) system (copyright 1990, Gaussian, Inc.),
 the Gaussian 88(TM) system (copyright 1988, Gaussian, Inc.),
 the Gaussian 86(TM) system (copyright 1986, Carnegie Mellon
 University), and the Gaussian 82(TM) system (copyright 1983,
 Carnegie Mellon University). Gaussian is a federally registered
 trademark of Gaussian, Inc.
  
 This software contains proprietary and confidential information,
 including trade secrets, belonging to Gaussian, Inc.
  
 This software is provided under written license and may be
 used, copied, transmitted, or stored only in accord with that
 written license.
  
 The following legend is applicable only to US Government
 contracts under FAR:
  
                    RESTRICTED RIGHTS LEGEND
  
 Use, reproduction and disclosure by the US Government is
 subject to restrictions as set forth in subparagraphs (a)
 and (c) of the Commercial Computer Software - Restricted
 Rights clause in FAR 52.227-19.
  
 Gaussian, Inc.
 340 Quinnipiac St., Bldg. 40, Wallingford CT 06492
  
  
 ---------------------------------------------------------------
 Warning -- This program may not be used in any manner that
 competes with the business of Gaussian, Inc. or will provide
 assistance to any competitor of Gaussian, Inc.  The licensee
 of this program is prohibited from giving any competitor of
 Gaussian, Inc. access to this program.  By using this program,
 the user acknowledges that Gaussian, Inc. is engaged in the
 business of creating and licensing software in the field of
 computational chemistry and represents and warrants to the
 licensee that it is not a competitor of Gaussian, Inc. and that
 it will not use this program in any manner prohibited above.
 ---------------------------------------------------------------
  

 Cite this work as:
 Gaussian 09, Revision A.02,
 M. J. Frisch, G. W. Trucks, H. B. Schlegel, G. E. Scuseria, 
 M. A. Robb, J. R. Cheeseman, G. Scalmani, V. Barone, B. Mennucci, 
 G. A. Petersson, H. Nakatsuji, M. Caricato, X. Li, H. P. Hratchian, 
 A. F. Izmaylov, J. Bloino, G. Zheng, J. L. Sonnenberg, M. Hada, 
 M. Ehara, K. Toyota, R. Fukuda, J. Hasegawa, M. Ishida, T. Nakajima, 
 Y. Honda, O. Kitao, H. Nakai, T. Vreven, J. A. Montgomery, Jr., 
 J. E. Peralta, F. Ogliaro, M. Bearpark, J. J. Heyd, E. Brothers, 
 K. N. Kudin, V. N. Staroverov, R. Kobayashi, J. Normand, 
 K. Raghavachari, A. Rendell, J. C. Burant, S. S. Iyengar, J. Tomasi, 
 M. Cossi, N. Rega, J. M. Millam, M. Klene, J. E. Knox, J. B. Cross, 
 V. Bakken, C. Adamo, J. Jaramillo, R. Gomperts, R. E. Stratmann, 
 O. Yazyev, A. J. Austin, R. Cammi, C. Pomelli, J. W. Ochterski, 
 R. L. Martin, K. Morokuma, V. G. Zakrzewski, G. A. Voth, 
 P. Salvador, J. J. Dannenberg, S. Dapprich, A. D. Daniels, 
 O. Farkas, J. B. Foresman, J. V. Ortiz, J. Cioslowski, 
 and D. J. Fox, Gaussian, Inc., Wallingford CT, 2009.
 
 ******************************************
 Gaussian 09:  EM64L-G09RevA.02 11-Jun-2009
                27-Dec-2016 
 ******************************************
 %chk=structure_120.chk
 -------------------------------------------------------------------
 # HF/6-31G* Opt=(ModRedundant, maxcycles=1000, calcfc) geom=nocrowd
 -------------------------------------------------------------------
 1/6=1000,10=4,18=120,19=15,38=1/1,3;
 2/9=110,12=1,17=6,18=5,40=1/2;
 3/5=1,6=6,7=1,11=9,16=1,25=1,30=1,71=2/1,2,3;
 4//1;
 5/5=2,38=5/2;
 8/6=4,10=90,11=11/1;
 11/6=1,8=1,9=11,15=111,16=1/1,2,10;
 10/6=1,7=6,13=1/2;
 6/7=2,8=2,9=2,10=2,28=1/1;
 7/10=1,18=20,25=1/1,2,3,16;
 1/6=1000,10=4,18=20,19=15/3(2);
 2/9=110,12=1/2;
 99//99;
 2/9=110,12=1/2;
 3/5=1,6=6,7=1,11=9,16=1,25=1,30=1,71=1/1,2,3;
 4/5=5,16=3/1;
 5/5=2,38=5/2;
 7//1,2,3,16;
 1/6=1000,18=20,19=15/3(-5);
 2/9=110,12=1/2;
 6/7=2,8=2,9=2,10=2,19=2,28=1/1;
 99/9=1/99;
 ------------------
 Phi Psi fixed scan
 ------------------
 Symbolic Z-matrix:
 Charge =  0 Multiplicity = 1
 H                     7.7691    1.        3.3308 
 C                     7.7691    2.09      3.3308 
 H                     8.7966    2.4538    3.3308 
 H                     7.2553    2.4538    4.2206 
 C                     7.0554    2.6408    2.0946 
 O                     6.5738    1.8774    1.2605 
 N                     6.9914    3.9696    1.9838 
 H                     7.4025    4.5561    2.6959 
 C                     6.3424    4.6139    0.8598 
 H                     6.8359    4.3155   -0.0652 
 C                     4.8714    4.2208    0.7761 
 H                     4.3618    4.5213    1.6916 
 H                     4.4096    4.7189   -0.0764 
 H                     4.7897    3.1409    0.6532 
 C                     6.4127    6.1294    0.9815 
 O                     6.9688    6.6527    1.9446 
 N                     5.846     6.8349    0. 
 H                     5.4006    6.3592   -0.7716 
 C                     5.8461    8.2839    0. 
 H                     5.3323    8.6477   -0.8898 
 C                     5.1347    8.8329    1.2322 
 H                     5.6431    8.4846    2.1312 
 H                     5.1499    9.9224    1.2058 
 H                     4.1019    8.4846    1.2414 
 C                     7.266     8.8318    0. 
 O                     8.0386    8.5624    0.9171 
 N                     7.6088    9.6038   -1.0338 
 H                     6.9383    9.797    -1.764 
 C                     8.9308    10.1857  -1.1497 
 H                     9.1217    10.8292  -0.2909 
 C                     10.0046   9.1038   -1.1963 
 H                     9.8322    8.4568   -2.0563 
 H                     10.9864   9.5692   -1.2833 
 H                     9.9638    8.5111   -0.2824 
 C                     9.0538    11.018   -2.418 
 O                     8.1017    11.1268  -3.1875 
 N                     10.2322   11.6068  -2.6346 
 H                     10.9855   11.4877  -1.9725 
 C                     10.4755   12.4252  -3.8053 
 H                     9.5757    12.4581  -4.4197 
 H                     10.7397   13.4359  -3.4943 
 H                     11.2945   11.998   -4.3841 
 
 The following ModRedundant input section has been read:
 D   15   17   19   25 F                                                       
 D   17   19   25   27 F                                                       

 GradGradGradGradGradGradGradGradGradGradGradGradGradGradGradGradGradGrad
 Berny optimization.
 Initialization pass.
                           ----------------------------
                           !    Initial Parameters    !
                           ! (Angstroms and Degrees)  !
 --------------------------                            --------------------------
 ! Name  Definition              Value          Derivative Info.                !
 --------------------------------------------------------------------------------
 ! R1    R(1,2)                  1.09           calculate D2E/DX2 analytically  !
 ! R2    R(2,3)                  1.09           calculate D2E/DX2 analytically  !
 ! R3    R(2,4)                  1.09           calculate D2E/DX2 analytically  !
 ! R4    R(2,5)                  1.53           calculate D2E/DX2 analytically  !
 ! R5    R(5,6)                  1.229          calculate D2E/DX2 analytically  !
 ! R6    R(5,7)                  1.3349         calculate D2E/DX2 analytically  !
 ! R7    R(7,8)                  1.01           calculate D2E/DX2 analytically  !
 ! R8    R(7,9)                  1.449          calculate D2E/DX2 analytically  !
 ! R9    R(9,10)                 1.0901         calculate D2E/DX2 analytically  !
 ! R10   R(9,11)                 1.5249         calculate D2E/DX2 analytically  !
 ! R11   R(9,15)                 1.522          calculate D2E/DX2 analytically  !
 ! R12   R(11,12)                1.09           calculate D2E/DX2 analytically  !
 ! R13   R(11,13)                1.09           calculate D2E/DX2 analytically  !
 ! R14   R(11,14)                1.0899         calculate D2E/DX2 analytically  !
 ! R15   R(15,16)                1.2291         calculate D2E/DX2 analytically  !
 ! R16   R(15,17)                1.335          calculate D2E/DX2 analytically  !
 ! R17   R(17,18)                1.01           calculate D2E/DX2 analytically  !
 ! R18   R(17,19)                1.449          calculate D2E/DX2 analytically  !
 ! R19   R(19,20)                1.09           calculate D2E/DX2 analytically  !
 ! R20   R(19,21)                1.5251         calculate D2E/DX2 analytically  !
 ! R21   R(19,25)                1.5219         calculate D2E/DX2 analytically  !
 ! R22   R(21,22)                1.0899         calculate D2E/DX2 analytically  !
 ! R23   R(21,23)                1.0899         calculate D2E/DX2 analytically  !
 ! R24   R(21,24)                1.09           calculate D2E/DX2 analytically  !
 ! R25   R(25,26)                1.229          calculate D2E/DX2 analytically  !
 ! R26   R(25,27)                1.335          calculate D2E/DX2 analytically  !
 ! R27   R(27,28)                1.01           calculate D2E/DX2 analytically  !
 ! R28   R(27,29)                1.449          calculate D2E/DX2 analytically  !
 ! R29   R(29,30)                1.09           calculate D2E/DX2 analytically  !
 ! R30   R(29,31)                1.525          calculate D2E/DX2 analytically  !
 ! R31   R(29,35)                1.522          calculate D2E/DX2 analytically  !
 ! R32   R(31,32)                1.0899         calculate D2E/DX2 analytically  !
 ! R33   R(31,33)                1.09           calculate D2E/DX2 analytically  !
 ! R34   R(31,34)                1.09           calculate D2E/DX2 analytically  !
 ! R35   R(35,36)                1.229          calculate D2E/DX2 analytically  !
 ! R36   R(35,37)                1.335          calculate D2E/DX2 analytically  !
 ! R37   R(37,38)                1.01           calculate D2E/DX2 analytically  !
 ! R38   R(37,39)                1.449          calculate D2E/DX2 analytically  !
 ! R39   R(39,40)                1.0901         calculate D2E/DX2 analytically  !
 ! R40   R(39,41)                1.09           calculate D2E/DX2 analytically  !
 ! R41   R(39,42)                1.0901         calculate D2E/DX2 analytically  !
 ! A1    A(1,2,3)              109.4972         calculate D2E/DX2 analytically  !
 ! A2    A(1,2,4)              109.4974         calculate D2E/DX2 analytically  !
 ! A3    A(1,2,5)              111.1            calculate D2E/DX2 analytically  !
 ! A4    A(3,2,4)              109.4481         calculate D2E/DX2 analytically  !
 ! A5    A(3,2,5)              108.6367         calculate D2E/DX2 analytically  !
 ! A6    A(4,2,5)              108.6348         calculate D2E/DX2 analytically  !
 ! A7    A(2,5,6)              120.4994         calculate D2E/DX2 analytically  !
 ! A8    A(2,5,7)              116.6003         calculate D2E/DX2 analytically  !
 ! A9    A(6,5,7)              122.9003         calculate D2E/DX2 analytically  !
 ! A10   A(5,7,8)              119.9996         calculate D2E/DX2 analytically  !
 ! A11   A(5,7,9)              121.9007         calculate D2E/DX2 analytically  !
 ! A12   A(8,7,9)              118.0998         calculate D2E/DX2 analytically  !
 ! A13   A(7,9,10)             109.4963         calculate D2E/DX2 analytically  !
 ! A14   A(7,9,11)             111.1004         calculate D2E/DX2 analytically  !
 ! A15   A(7,9,15)             111.102          calculate D2E/DX2 analytically  !
 ! A16   A(10,9,11)            108.6374         calculate D2E/DX2 analytically  !
 ! A17   A(10,9,15)            108.634          calculate D2E/DX2 analytically  !
 ! A18   A(11,9,15)            107.7959         calculate D2E/DX2 analytically  !
 ! A19   A(9,11,12)            109.5007         calculate D2E/DX2 analytically  !
 ! A20   A(9,11,13)            109.5005         calculate D2E/DX2 analytically  !
 ! A21   A(9,11,14)            109.5061         calculate D2E/DX2 analytically  !
 ! A22   A(12,11,13)           109.441          calculate D2E/DX2 analytically  !
 ! A23   A(12,11,14)           109.4392         calculate D2E/DX2 analytically  !
 ! A24   A(13,11,14)           109.4397         calculate D2E/DX2 analytically  !
 ! A25   A(9,15,16)            120.4974         calculate D2E/DX2 analytically  !
 ! A26   A(9,15,17)            116.6034         calculate D2E/DX2 analytically  !
 ! A27   A(16,15,17)           122.8992         calculate D2E/DX2 analytically  !
 ! A28   A(15,17,18)           119.9987         calculate D2E/DX2 analytically  !
 ! A29   A(15,17,19)           121.8998         calculate D2E/DX2 analytically  !
 ! A30   A(18,17,19)           118.1015         calculate D2E/DX2 analytically  !
 ! A31   A(17,19,20)           109.4954         calculate D2E/DX2 analytically  !
 ! A32   A(17,19,21)           111.0974         calculate D2E/DX2 analytically  !
 ! A33   A(17,19,25)           111.1042         calculate D2E/DX2 analytically  !
 ! A34   A(20,19,21)           108.6349         calculate D2E/DX2 analytically  !
 ! A35   A(20,19,25)           108.6399         calculate D2E/DX2 analytically  !
 ! A36   A(21,19,25)           107.7944         calculate D2E/DX2 analytically  !
 ! A37   A(19,21,22)           109.4996         calculate D2E/DX2 analytically  !
 ! A38   A(19,21,23)           109.4977         calculate D2E/DX2 analytically  !
 ! A39   A(19,21,24)           109.4988         calculate D2E/DX2 analytically  !
 ! A40   A(22,21,23)           109.4452         calculate D2E/DX2 analytically  !
 ! A41   A(22,21,24)           109.4447         calculate D2E/DX2 analytically  !
 ! A42   A(23,21,24)           109.4412         calculate D2E/DX2 analytically  !
 ! A43   A(19,25,26)           120.5014         calculate D2E/DX2 analytically  !
 ! A44   A(19,25,27)           116.5988         calculate D2E/DX2 analytically  !
 ! A45   A(26,25,27)           122.8998         calculate D2E/DX2 analytically  !
 ! A46   A(25,27,28)           120.0005         calculate D2E/DX2 analytically  !
 ! A47   A(25,27,29)           121.8991         calculate D2E/DX2 analytically  !
 ! A48   A(28,27,29)           118.1005         calculate D2E/DX2 analytically  !
 ! A49   A(27,29,30)           109.5023         calculate D2E/DX2 analytically  !
 ! A50   A(27,29,31)           111.0965         calculate D2E/DX2 analytically  !
 ! A51   A(27,29,35)           111.0992         calculate D2E/DX2 analytically  !
 ! A52   A(30,29,31)           108.6378         calculate D2E/DX2 analytically  !
 ! A53   A(30,29,35)           108.637          calculate D2E/DX2 analytically  !
 ! A54   A(31,29,35)           107.7933         calculate D2E/DX2 analytically  !
 ! A55   A(29,31,32)           109.5036         calculate D2E/DX2 analytically  !
 ! A56   A(29,31,33)           109.4968         calculate D2E/DX2 analytically  !
 ! A57   A(29,31,34)           109.498          calculate D2E/DX2 analytically  !
 ! A58   A(32,31,33)           109.4483         calculate D2E/DX2 analytically  !
 ! A59   A(32,31,34)           109.4419         calculate D2E/DX2 analytically  !
 ! A60   A(33,31,34)           109.4387         calculate D2E/DX2 analytically  !
 ! A61   A(29,35,36)           120.5013         calculate D2E/DX2 analytically  !
 ! A62   A(29,35,37)           116.598          calculate D2E/DX2 analytically  !
 ! A63   A(36,35,37)           122.9008         calculate D2E/DX2 analytically  !
 ! A64   A(35,37,38)           120.0001         calculate D2E/DX2 analytically  !
 ! A65   A(35,37,39)           121.8984         calculate D2E/DX2 analytically  !
 ! A66   A(38,37,39)           118.1015         calculate D2E/DX2 analytically  !
 ! A67   A(37,39,40)           109.502          calculate D2E/DX2 analytically  !
 ! A68   A(37,39,41)           109.506          calculate D2E/DX2 analytically  !
 ! A69   A(37,39,42)           109.5            calculate D2E/DX2 analytically  !
 ! A70   A(40,39,41)           109.4463         calculate D2E/DX2 analytically  !
 ! A71   A(40,39,42)           109.4352         calculate D2E/DX2 analytically  !
 ! A72   A(41,39,42)           109.4378         calculate D2E/DX2 analytically  !
 ! D1    D(1,2,5,6)              0.0022         calculate D2E/DX2 analytically  !
 ! D2    D(1,2,5,7)            179.9987         calculate D2E/DX2 analytically  !
 ! D3    D(3,2,5,6)            120.5114         calculate D2E/DX2 analytically  !
 ! D4    D(3,2,5,7)            -59.4921         calculate D2E/DX2 analytically  !
 ! D5    D(4,2,5,6)           -120.5061         calculate D2E/DX2 analytically  !
 ! D6    D(4,2,5,7)             59.4904         calculate D2E/DX2 analytically  !
 ! D7    D(2,5,7,8)              0.0002         calculate D2E/DX2 analytically  !
 ! D8    D(2,5,7,9)           -179.997          calculate D2E/DX2 analytically  !
 ! D9    D(6,5,7,8)            179.9966         calculate D2E/DX2 analytically  !
 ! D10   D(6,5,7,9)             -0.0006         calculate D2E/DX2 analytically  !
 ! D11   D(5,7,9,10)           -60.0013         calculate D2E/DX2 analytically  !
 ! D12   D(5,7,9,11)            59.9987         calculate D2E/DX2 analytically  !
 ! D13   D(5,7,9,15)          -179.9979         calculate D2E/DX2 analytically  !
 ! D14   D(8,7,9,10)           120.0015         calculate D2E/DX2 analytically  !
 ! D15   D(8,7,9,11)          -119.9986         calculate D2E/DX2 analytically  !
 ! D16   D(8,7,9,15)             0.0048         calculate D2E/DX2 analytically  !
 ! D17   D(7,9,11,12)           60.0013         calculate D2E/DX2 analytically  !
 ! D18   D(7,9,11,13)         -179.9997         calculate D2E/DX2 analytically  !
 ! D19   D(7,9,11,14)          -59.999          calculate D2E/DX2 analytically  !
 ! D20   D(10,9,11,12)        -179.4899         calculate D2E/DX2 analytically  !
 ! D21   D(10,9,11,13)         -59.4908         calculate D2E/DX2 analytically  !
 ! D22   D(10,9,11,14)          60.5099         calculate D2E/DX2 analytically  !
 ! D23   D(15,9,11,12)         -61.9473         calculate D2E/DX2 analytically  !
 ! D24   D(15,9,11,13)          58.0517         calculate D2E/DX2 analytically  !
 ! D25   D(15,9,11,14)         178.0524         calculate D2E/DX2 analytically  !
 ! D26   D(7,9,15,16)           -0.0008         calculate D2E/DX2 analytically  !
 ! D27   D(7,9,15,17)          179.9993         calculate D2E/DX2 analytically  !
 ! D28   D(10,9,15,16)        -120.5084         calculate D2E/DX2 analytically  !
 ! D29   D(10,9,15,17)          59.4916         calculate D2E/DX2 analytically  !
 ! D30   D(11,9,15,16)         121.9468         calculate D2E/DX2 analytically  !
 ! D31   D(11,9,15,17)         -58.0532         calculate D2E/DX2 analytically  !
 ! D32   D(9,15,17,18)          -0.0073         calculate D2E/DX2 analytically  !
 ! D33   D(9,15,17,19)        -179.9972         calculate D2E/DX2 analytically  !
 ! D34   D(16,15,17,18)        179.9928         calculate D2E/DX2 analytically  !
 ! D35   D(16,15,17,19)          0.0029         calculate D2E/DX2 analytically  !
 ! D36   D(15,17,19,20)       -179.9987         calculate D2E/DX2 analytically  !
 ! D37   D(15,17,19,21)        -60.0044         calculate D2E/DX2 analytically  !
 ! D38   D(15,17,19,25)         59.9965         frozen, calculate D2E/DX2 analyt!
 ! D39   D(18,17,19,20)          0.0113         calculate D2E/DX2 analytically  !
 ! D40   D(18,17,19,21)        120.0055         calculate D2E/DX2 analytically  !
 ! D41   D(18,17,19,25)       -119.9935         calculate D2E/DX2 analytically  !
 ! D42   D(17,19,21,22)         60.0039         calculate D2E/DX2 analytically  !
 ! D43   D(17,19,21,23)       -179.9943         calculate D2E/DX2 analytically  !
 ! D44   D(17,19,21,24)        -59.998          calculate D2E/DX2 analytically  !
 ! D45   D(20,19,21,22)       -179.4919         calculate D2E/DX2 analytically  !
 ! D46   D(20,19,21,23)        -59.4901         calculate D2E/DX2 analytically  !
 ! D47   D(20,19,21,24)         60.5062         calculate D2E/DX2 analytically  !
 ! D48   D(25,19,21,22)        -61.9445         calculate D2E/DX2 analytically  !
 ! D49   D(25,19,21,23)         58.0573         calculate D2E/DX2 analytically  !
 ! D50   D(25,19,21,24)        178.0536         calculate D2E/DX2 analytically  !
 ! D51   D(17,19,25,26)        -60.0007         calculate D2E/DX2 analytically  !
 ! D52   D(17,19,25,27)        119.9986         frozen, calculate D2E/DX2 analyt!
 ! D53   D(20,19,25,26)        179.4877         calculate D2E/DX2 analytically  !
 ! D54   D(20,19,25,27)         -0.5131         calculate D2E/DX2 analytically  !
 ! D55   D(21,19,25,26)         61.9435         calculate D2E/DX2 analytically  !
 ! D56   D(21,19,25,27)       -118.0573         calculate D2E/DX2 analytically  !
 ! D57   D(19,25,27,28)          0.0039         calculate D2E/DX2 analytically  !
 ! D58   D(19,25,27,29)        179.9979         calculate D2E/DX2 analytically  !
 ! D59   D(26,25,27,28)       -179.9968         calculate D2E/DX2 analytically  !
 ! D60   D(26,25,27,29)         -0.0029         calculate D2E/DX2 analytically  !
 ! D61   D(25,27,29,30)        -59.9969         calculate D2E/DX2 analytically  !
 ! D62   D(25,27,29,31)         60.0049         calculate D2E/DX2 analytically  !
 ! D63   D(25,27,29,35)       -179.9994         calculate D2E/DX2 analytically  !
 ! D64   D(28,27,29,30)        119.9971         calculate D2E/DX2 analytically  !
 ! D65   D(28,27,29,31)       -120.0011         calculate D2E/DX2 analytically  !
 ! D66   D(28,27,29,35)         -0.0054         calculate D2E/DX2 analytically  !
 ! D67   D(27,29,31,32)         59.9976         calculate D2E/DX2 analytically  !
 ! D68   D(27,29,31,33)       -179.9949         calculate D2E/DX2 analytically  !
 ! D69   D(27,29,31,34)        -60.0027         calculate D2E/DX2 analytically  !
 ! D70   D(30,29,31,32)       -179.4883         calculate D2E/DX2 analytically  !
 ! D71   D(30,29,31,33)        -59.4808         calculate D2E/DX2 analytically  !
 ! D72   D(30,29,31,34)         60.5114         calculate D2E/DX2 analytically  !
 ! D73   D(35,29,31,32)        -61.9434         calculate D2E/DX2 analytically  !
 ! D74   D(35,29,31,33)         58.0641         calculate D2E/DX2 analytically  !
 ! D75   D(35,29,31,34)        178.0563         calculate D2E/DX2 analytically  !
 ! D76   D(27,29,35,36)          0.0026         calculate D2E/DX2 analytically  !
 ! D77   D(27,29,35,37)        179.9999         calculate D2E/DX2 analytically  !
 ! D78   D(30,29,35,36)       -120.5127         calculate D2E/DX2 analytically  !
 ! D79   D(30,29,35,37)         59.4846         calculate D2E/DX2 analytically  !
 ! D80   D(31,29,35,36)        121.9418         calculate D2E/DX2 analytically  !
 ! D81   D(31,29,35,37)        -58.0608         calculate D2E/DX2 analytically  !
 ! D82   D(29,35,37,38)          0.0053         calculate D2E/DX2 analytically  !
 ! D83   D(29,35,37,39)       -179.9974         calculate D2E/DX2 analytically  !
 ! D84   D(36,35,37,38)       -179.9974         calculate D2E/DX2 analytically  !
 ! D85   D(36,35,37,39)         -0.0002         calculate D2E/DX2 analytically  !
 ! D86   D(35,37,39,40)         -0.0042         calculate D2E/DX2 analytically  !
 ! D87   D(35,37,39,41)        120.0054         calculate D2E/DX2 analytically  !
 ! D88   D(35,37,39,42)       -119.9966         calculate D2E/DX2 analytically  !
 ! D89   D(38,37,39,40)        179.9931         calculate D2E/DX2 analytically  !
 ! D90   D(38,37,39,41)        -59.9973         calculate D2E/DX2 analytically  !
 ! D91   D(38,37,39,42)         60.0008         calculate D2E/DX2 analytically  !
 --------------------------------------------------------------------------------
 Trust Radius=3.00D-01 FncErr=1.00D-07 GrdErr=1.00D-07
 Number of steps in this run= 252 maximum allowed number of steps= 252.
 GradGradGradGradGradGradGradGradGradGradGradGradGradGradGradGradGradGrad

                          Input orientation:                          
 ---------------------------------------------------------------------
 Center     Atomic      Atomic             Coordinates (Angstroms)
 Number     Number       Type             X           Y           Z
 ---------------------------------------------------------------------
      1          1           0        7.769100    1.000000    3.330800
      2          6           0        7.769100    2.090000    3.330800
      3          1           0        8.796600    2.453800    3.330800
      4          1           0        7.255300    2.453800    4.220600
      5          6           0        7.055400    2.640800    2.094600
      6          8           0        6.573800    1.877400    1.260500
      7          7           0        6.991400    3.969600    1.983800
      8          1           0        7.402500    4.556100    2.695900
      9          6           0        6.342400    4.613900    0.859800
     10          1           0        6.835900    4.315500   -0.065200
     11          6           0        4.871400    4.220800    0.776100
     12          1           0        4.361800    4.521300    1.691600
     13          1           0        4.409600    4.718900   -0.076400
     14          1           0        4.789700    3.140900    0.653200
     15          6           0        6.412700    6.129400    0.981500
     16          8           0        6.968800    6.652700    1.944600
     17          7           0        5.846000    6.834900    0.000000
     18          1           0        5.400600    6.359200   -0.771600
     19          6           0        5.846100    8.283900    0.000000
     20          1           0        5.332300    8.647700   -0.889800
     21          6           0        5.134700    8.832900    1.232200
     22          1           0        5.643100    8.484600    2.131200
     23          1           0        5.149900    9.922400    1.205800
     24          1           0        4.101900    8.484600    1.241400
     25          6           0        7.266000    8.831800    0.000000
     26          8           0        8.038600    8.562400    0.917100
     27          7           0        7.608800    9.603800   -1.033800
     28          1           0        6.938300    9.797000   -1.764000
     29          6           0        8.930800   10.185700   -1.149700
     30          1           0        9.121700   10.829200   -0.290900
     31          6           0       10.004600    9.103800   -1.196300
     32          1           0        9.832200    8.456800   -2.056300
     33          1           0       10.986400    9.569200   -1.283300
     34          1           0        9.963800    8.511100   -0.282400
     35          6           0        9.053800   11.018000   -2.418000
     36          8           0        8.101700   11.126800   -3.187500
     37          7           0       10.232200   11.606800   -2.634600
     38          1           0       10.985500   11.487700   -1.972500
     39          6           0       10.475500   12.425200   -3.805300
     40          1           0        9.575700   12.458100   -4.419700
     41          1           0       10.739700   13.435900   -3.494300
     42          1           0       11.294500   11.998000   -4.384100
 ---------------------------------------------------------------------
                    Distance matrix (angstroms):
                    1          2          3          4          5
     1  H    0.000000
     2  C    1.090000   0.000000
     3  H    1.780250   1.090003   0.000000
     4  H    1.780244   1.089993   1.779705   0.000000
     5  C    2.174806   1.530013   2.143580   2.143550   0.000000
     6  O    2.546510   2.400017   3.091799   3.091742   1.229000
     7  N    3.352275   2.439697   2.714923   2.714879   1.334946
     8  H    3.630887   2.572769   2.601207   2.601162   2.037257
     9  C    4.604518   3.809381   4.098167   4.098097   2.434384
    10  H    4.836964   4.166117   4.340863   4.691472   2.741813
    11  C    5.029583   4.411742   5.005594   4.546411   3.000783
    12  H    5.166839   4.495319   5.160328   4.363799   3.309708
    13  H    6.060154   5.459521   5.998788   5.629644   4.003998
    14  H    4.542006   4.141347   4.867946   4.390630   2.731507
    15  C    5.802566   4.865777   4.971139   4.971094   3.717847
    16  O    5.874951   4.835314   4.784680   4.784665   4.015637
    17  N    6.988462   6.107914   6.244542   6.244488   4.841536
    18  H    7.152657   6.376954   6.604139   6.604099   4.977948
    19  C    8.236951   7.290854   7.334149   7.334124   6.139571
    20  H    9.068560   8.170366   8.257072   8.257028   6.925212
    21  C    8.526342   7.537300   7.648957   7.356657   6.540254
    22  H    7.872620   6.844693   6.910438   6.582958   6.012148
    23  H    9.538609   8.527738   8.578696   8.324765   7.579089
    24  H    8.592624   7.661910   7.923153   7.429005   6.603114
    25  C    8.525516   7.536525   7.356348   7.648037   6.539127
    26  O    7.942825   6.913070   6.611770   6.988681   6.117069
    27  N    9.648876   8.690950   8.460680   8.880100   7.653529
    28  H   10.199727   9.276048   9.128683   9.478318   8.131033
    29  C   10.285986   9.325491   8.937291   9.561888   8.424258
    30  H   10.562169   9.556142   9.130702   9.694556   8.775540
    31  C    9.547967   8.642076   8.134888   9.006884   7.829315
    32  H    9.427677   8.591471   8.131994   9.059575   7.665928
    33  H   10.250470   9.358385   8.758656   9.738734   8.652497
    34  H    8.619080   7.687812   7.149018   8.018969   6.969171
    35  C   11.621509  10.696183  10.317964  10.984131   9.722893
    36  O   12.047860  11.147314  10.871617  11.437538  10.050250
    37  N   12.416000  11.498797  11.019272  11.816645  10.622926
    38  H   12.184501  11.259973  10.701758  11.570662  10.500220
    39  C   13.739859  12.847758  12.376245  13.198999  11.926457
    40  H   13.950703  13.070254  12.679245  13.421068  12.048543
    41  H   14.493380  13.569668  13.075326  13.866047  12.702128
    42  H   13.888993  13.042875  12.524015  13.470254  12.144987
                    6          7          8          9         10
     6  O    0.000000
     7  N    2.252744   0.000000
     8  H    3.150008   1.009986   0.000000
     9  C    2.775345   1.449034   2.120947   0.000000
    10  H    2.787563   2.083801   2.828886   1.090050   0.000000
    11  C    2.936721   2.452762   3.194452   1.524918   2.139162
    12  H    3.474046   2.702693   3.202450   2.150173   3.041360
    13  H    3.813815   3.386970   4.082842   2.150165   2.459632
    14  H    2.268977   2.702725   3.605848   2.150184   2.466317
    15  C    4.264188   2.450354   2.528665   1.522003   2.136566
    16  O    4.840197   2.683482   2.268982   2.392880   3.085363
    17  N    5.166755   3.668426   3.857914   2.432799   2.707680
    18  H    5.058889   3.979078   4.391165   2.567981   2.595341
    19  C    6.569753   4.884707   4.856619   3.801903   4.090496
    20  H    7.211246   5.735400   5.821010   4.511424   4.659263
    21  C    7.102872   5.259651   5.057307   4.404223   4.998423
    22  H    6.728998   4.714325   4.341369   4.133739   4.860899
    23  H    8.170221   6.279509   6.007644   5.451784   5.991274
    24  H    7.054484   5.411616   5.333164   4.488628   5.153965
    25  C    7.101527   5.258503   5.056493   4.402610   4.537202
    26  O    6.852210   4.829937   4.429356   4.297794   4.521898
    27  N    8.126026   6.421160   6.279530   5.485307   5.431545
    28  H    8.485312   6.928738   6.897334   5.839859   5.739621
    29  C    8.966179   7.226340   6.986897   6.463966   6.326452
    30  H    9.435749   7.534358   7.157402   6.904967   6.906816
    31  C    8.368220   6.749253   6.526999   6.148045   5.852167
    32  H    8.056478   6.672894   6.610772   5.954009   5.485678
    33  H    9.225277   7.615083   7.335499   7.121419   6.805276
    34  H    7.607800   5.881840   5.574276   5.441261   5.237747
    35  C   10.160331   8.562084   8.404458   7.688183   7.441657
    36  O   10.376444   8.899473   8.847450   7.867251   7.599001
    37  N   11.100312   9.495221   9.280830   8.731668   8.443916
    38  H   11.057724   9.387597   9.092795   8.765240   8.502789
    39  C   12.334572  10.823576  10.659815   9.993102   9.643768
    40  H   12.378501  10.942488  10.853394   9.992939   9.631724
    41  H   13.174284  11.561582  11.327238  10.775997  10.496670
    42  H   12.512916  11.114046  10.984350  10.322147   9.876883
                   11         12         13         14         15
    11  C    0.000000
    12  H    1.090015   0.000000
    13  H    1.090009   1.779650   0.000000
    14  H    1.089937   1.779572   1.779572   0.000000
    15  C    2.461818   2.701188   2.668534   3.416583   0.000000
    16  O    3.417399   3.376881   3.791244   4.330003   1.229086
    17  N    2.895806   3.227554   2.558620   3.897188   1.334999
    18  H    2.692245   3.244123   2.038619   3.572213   2.037281
    19  C    4.249842   4.384269   3.844294   5.290851   2.434389
    20  H    4.752378   4.963131   4.116851   5.744572   3.318262
    21  C    4.642071   4.404352   4.377579   5.731765   3.000841
    22  H    4.540023   4.188404   4.536024   5.609626   2.731494
    23  H    5.724548   5.479871   5.410036   6.813505   4.003976
    24  H    4.357594   3.997246   4.001471   5.419795   3.309730
    25  C    5.253357   5.465922   5.008074   6.240599   2.999071
    26  O    5.375921   5.518079   5.378585   6.325951   2.926976
    27  N    6.304426   6.618355   5.917241   7.249991   4.190888
    28  H    6.466699   6.812675   5.918565   7.400203   4.611433
    29  C    7.467762   7.812437   7.174895   8.368295   5.228423
    30  H    7.929344   8.147181   7.719175   8.875106   5.571876
    31  C    7.354168   7.821794   7.196218   8.134618   5.147000
    32  H    7.111661   7.711043   6.877244   7.811977   5.132056
    33  H    8.380915   8.844018   8.260528   9.136310   6.154695
    34  H    6.742376   7.155249   6.728473   7.515697   4.458727
    35  C    8.596317   9.006153   8.168864   9.469082   6.513864
    36  O    8.592892   9.023586   8.023199   9.460175   6.723637
    37  N    9.742897  10.167690   9.374979  10.587818   7.593857
    38  H    9.886600  10.287359   9.625711  10.721535   7.638586
    39  C   10.941085  11.404599  10.492230  11.764556   8.891394
    40  H   10.815724  11.292720  10.268791  11.638313   8.901122
    41  H   11.729933  12.126057  11.302137  12.593303   9.598992
    42  H   11.329992  11.869183  10.906119  12.088632   9.330707
                   16         17         18         19         20
    16  O    0.000000
    17  N    2.252853   0.000000
    18  H    3.150101   1.009969   0.000000
    19  C    2.775381   1.449000   2.120921   0.000000
    20  H    3.833012   2.083717   2.292568   1.089993   0.000000
    21  C    2.936785   2.452808   3.194544   1.525060   2.139212
    22  H    2.268955   2.702719   3.605881   2.150233   3.041322
    23  H    3.813812   3.386911   4.082812   2.150193   2.459608
    24  H    3.474113   2.702678   3.202517   2.150253   2.466272
    25  C    2.935690   2.450308   3.191995   1.521943   2.136547
    26  O    2.418095   2.938167   3.829470   2.392842   3.255184
    27  N    4.241398   3.441368   3.933488   2.432692   2.473321
    28  H    4.862229   3.616470   3.894592   2.567892   2.159711
    29  C    5.089816   4.697410   5.219902   3.801845   3.922014
    30  H    5.203421   5.173902   5.835971   4.158453   4.413295
    31  C    5.008915   4.886000   5.376803   4.404145   4.704504
    32  H    5.240328   4.769562   5.068477   4.488570   4.652555
    33  H    5.921691   5.962128   6.462747   5.451746   5.742199
    34  H    4.169317   4.454848   5.068805   4.133621   4.673156
    35  C    6.514242   5.799572   6.144992   4.859153   4.669398
    36  O    6.902136   5.802477   5.988533   4.830111   4.369776
    37  N    7.494128   6.996492   7.372410   6.100873   5.984114
    38  H    7.406401   7.207896   7.676899   6.369342   6.418451
    39  C    8.870178   8.195367   8.470791   7.284368   7.015850
    40  H    9.000162   8.066275   8.242371   7.132153   6.707144
    41  H    9.476979   8.929257   9.273552   7.918368   7.677907
    42  H    9.345392   8.692761   8.921002   7.918329   7.680005
                   21         22         23         24         25
    21  C    0.000000
    22  H    1.089947   0.000000
    23  H    1.089926   1.779573   0.000000
    24  H    1.089988   1.779618   1.779562   0.000000
    25  C    2.461861   2.701179   2.668565   3.416599   0.000000
    26  O    2.933444   2.686729   3.205860   3.950801   1.229048
    27  N    3.442414   3.890220   3.341183   4.327527   1.335005
    28  H    3.627627   4.309585   3.468978   4.335895   2.037325
    29  C    4.681227   4.946415   4.462389   5.650608   2.434423
    30  H    4.711817   4.844004   4.340230   5.748346   2.741870
    31  C    5.448571   5.520720   5.477983   6.416203   3.000841
    32  H    5.746494   5.923216   5.891792   6.611500   3.309740
    33  H    6.411885   6.433197   6.354927   7.412611   4.003997
    34  H    5.071270   4.949204   5.232604   6.056776   2.731432
    35  C    5.784286   6.224645   5.438079   6.658126   3.717852
    36  O    5.796448   6.427636   5.428148   6.526467   4.015666
    37  N    6.973605   7.315793   6.589055   7.896334   4.841496
    38  H    7.179828   7.375649   6.826857   8.168948   4.977875
    39  C    8.173443   8.609440   7.728981   9.034395   6.139521
    40  H    8.050375   8.612104   7.593664   8.820388   6.165915
    41  H    8.656988   9.062944   8.104412   9.539529   6.743475
    42  H    8.916491   9.312971   8.562196   9.783850   6.743439
                   26         27         28         29         30
    26  O    0.000000
    27  N    2.252832   0.000000
    28  H    3.150110   1.009994   0.000000
    29  C    2.775389   1.449043   2.120969   0.000000
    30  H    2.787607   2.083836   2.828904   1.089987   0.000000
    31  C    2.936789   2.452807   3.194527   1.525033   2.139221
    32  H    3.474084   2.702707   3.202535   2.150242   3.041337
    33  H    3.813782   3.386979   4.082901   2.150212   2.459586
    34  H    2.268882   2.702706   3.605874   2.150252   2.466332
    35  C    4.264211   2.450305   2.528616   1.521985   2.136542
    36  O    4.840235   2.683450   2.268969   2.392845   3.085329
    37  N    5.166704   3.668351   3.857862   2.432714   2.707545
    38  H    5.058793   3.978987   4.391101   2.567878   2.595217
    39  C    6.569685   4.884617   4.856555   3.801798   4.090354
    40  H    6.783848   4.845621   4.592393   4.033931   4.461661
    41  H    7.106855   5.526444   5.539510   4.396939   4.435604
    42  H    7.106824   5.526399   5.539477   4.396914   4.779272
                   31         32         33         34         35
    31  C    0.000000
    32  H    1.089922   0.000000
    33  H    1.089999   1.779646   0.000000
    34  H    1.090033   1.779603   1.779631   0.000000
    35  C    2.461856   2.701200   2.668615   3.416641   0.000000
    36  O    3.417373   3.376854   3.791252   4.330001   1.229009
    37  N    2.895776   3.227527   2.558641   3.897210   1.335001
    38  H    2.692142   3.243991   2.038539   3.572178   2.037291
    39  C    4.249744   4.384180   3.844247   5.290826   2.434347
    40  H    4.671787   4.654230   4.491417   5.731202   2.520530
    41  H    4.958656   5.261448   4.461026   5.930597   3.137980
    42  H    4.494697   4.482976   3.950817   5.545555   3.137943
                   36         37         38         39         40
    36  O    0.000000
    37  N    2.252805   0.000000
    38  H    3.150044   1.009961   0.000000
    39  C    2.775328   1.448969   2.120887   0.000000
    40  H    2.337382   2.083815   2.986302   1.090050   0.000000
    41  H    3.519249   2.083806   2.484306   1.089971   1.779706
    42  H    3.519206   2.083811   2.484291   1.090078   1.779672
                   41         42
    41  H    0.000000
    42  H    1.779636   0.000000
 Stoichiometry    C12H22N4O4
 Framework group  C1[X(C12H22N4O4)]
 Deg. of freedom   120
 Full point group                 C1      NOp   1
 Largest Abelian subgroup         C1      NOp   1
 Largest concise Abelian subgroup C1      NOp   1
                         Standard orientation:                         
 ---------------------------------------------------------------------
 Center     Atomic      Atomic             Coordinates (Angstroms)
 Number     Number       Type             X           Y           Z
 ---------------------------------------------------------------------
      1          1           0        6.838202   -2.407282   -0.377349
      2          6           0        5.931136   -1.998296   -0.822390
      3          1           0        5.322180   -2.810741   -1.218890
      4          1           0        6.197611   -1.316847   -1.630290
      5          6           0        5.107386   -1.230327    0.213274
      6          8           0        5.496139   -1.138001    1.375508
      7          7           0        3.968857   -0.681401   -0.216277
      8          1           0        3.691274   -0.784648   -1.181865
      9          6           0        3.100485    0.070777    0.666819
     10          1           0        2.769176   -0.570171    1.483905
     11          6           0        3.826853    1.275199    1.255997
     12          1           0        4.156771    1.931052    0.450303
     13          1           0        3.151318    1.821119    1.914589
     14          1           0        4.692390    0.935729    1.824828
     15          6           0        1.875291    0.584125   -0.076058
     16          8           0        1.724464    0.343114   -1.271807
     17          7           0        0.998101    1.294536    0.636737
     18          1           0        1.165878    1.466326    1.617745
     19          6           0       -0.207744    1.838133    0.045094
     20          1           0       -0.773464    2.378734    0.803906
     21          6           0        0.123618    2.798666   -1.092176
     22          1           0        0.682351    2.269596   -1.864113
     23          1           0       -0.799907    3.191337   -1.517439
     24          1           0        0.725557    3.622550   -0.708826
     25          6           0       -1.086843    0.732363   -0.521269
     26          8           0       -0.664040   -0.009672   -1.405114
     27          7           0       -2.314876    0.623616   -0.009069
     28          1           0       -2.617295    1.257557    0.716707
     29          6           0       -3.247292   -0.388153   -0.463653
     30          1           0       -3.438084   -0.255037   -1.528524
     31          6           0       -2.688768   -1.789499   -0.240029
     32          1           0       -2.501138   -1.941110    0.822863
     33          1           0       -3.409337   -2.528502   -0.590391
     34          1           0       -1.756014   -1.901878   -0.792761
     35          6           0       -4.569659   -0.289838    0.283419
     36          8           0       -4.736300    0.569397    1.146210
     37          7           0       -5.512113   -1.174366   -0.050675
     38          1           0       -5.327879   -1.862364   -0.766733
     39          6           0       -6.813124   -1.184645    0.587116
     40          1           0       -6.859659   -0.389915    1.331730
     41          1           0       -7.587501   -1.024801   -0.163102
     42          1           0       -6.972360   -2.147136    1.073454
 ---------------------------------------------------------------------
 Rotational constants (GHZ):      0.7610605      0.1160490      0.1097379
 Standard basis: 6-31G(d) (6D, 7F)
 There are   344 symmetry adapted basis functions of A   symmetry.
 Integral buffers will be    131072 words long.
 Raffenetti 1 integral format.
 Two-electron integral symmetry is turned on.
   344 basis functions,   648 primitive gaussians,   344 cartesian basis functions
    77 alpha electrons       77 beta electrons
       nuclear repulsion energy      1617.4647718564 Hartrees.
 NAtoms=   42 NActive=   42 NUniq=   42 SFac= 7.50D-01 NAtFMM=   80 NAOKFM=F Big=F
 One-electron integrals computed using PRISM.
 NBasis=   344 RedAO= T  NBF=   344
 NBsUse=   344 1.00D-06 NBFU=   344
 Harris functional with IExCor=  205 diagonalized for initial guess.
 ExpMin= 1.61D-01 ExpMax= 5.48D+03 ExpMxC= 8.25D+02 IAcc=1 IRadAn=         1 AccDes= 0.00D+00
 HarFok:  IExCor=  205 AccDes= 0.00D+00 IRadAn=         1 IDoV= 1
 ScaDFX=  1.000000  1.000000  1.000000  1.000000
 FoFCou: FMM=F IPFlag=           0 FMFlag=      100000 FMFlg1=           0
         NFxFlg=           0 DoJE=T BraDBF=F KetDBF=T FulRan=T
         Omega=  0.000000  0.000000  1.000000  0.000000  0.000000 ICntrl=     500 IOpCl=  0
         NMat0=    1 NMatS0=    1 NMatT0=    0 NMatD0=    1 NMtDS0=    0 NMtDT0=    0
         I1Cent=           4 NGrid=           0.
 Petite list used in FoFCou.
 Initial guess orbital symmetries:
       Occupied  (A) (A) (A) (A) (A) (A) (A) (A) (A) (A) (A) (A)
                 (A) (A) (A) (A) (A) (A) (A) (A) (A) (A) (A) (A)
                 (A) (A) (A) (A) (A) (A) (A) (A) (A) (A) (A) (A)
                 (A) (A) (A) (A) (A) (A) (A) (A) (A) (A) (A) (A)
                 (A) (A) (A) (A) (A) (A) (A) (A) (A) (A) (A) (A)
                 (A) (A) (A) (A) (A) (A) (A) (A) (A) (A) (A) (A)
                 (A) (A) (A) (A) (A)
       Virtual   (A) (A) (A) (A) (A) (A) (A) (A) (A) (A) (A) (A)
                 (A) (A) (A) (A) (A) (A) (A) (A) (A) (A) (A) (A)
                 (A) (A) (A) (A) (A) (A) (A) (A) (A) (A) (A) (A)
                 (A) (A) (A) (A) (A) (A) (A) (A) (A) (A) (A) (A)
                 (A) (A) (A) (A) (A) (A) (A) (A) (A) (A) (A) (A)
                 (A) (A) (A) (A) (A) (A) (A) (A) (A) (A) (A) (A)
                 (A) (A) (A) (A) (A) (A) (A) (A) (A) (A) (A) (A)
                 (A) (A) (A) (A) (A) (A) (A) (A) (A) (A) (A) (A)
                 (A) (A) (A) (A) (A) (A) (A) (A) (A) (A) (A) (A)
                 (A) (A) (A) (A) (A) (A) (A) (A) (A) (A) (A) (A)
                 (A) (A) (A) (A) (A) (A) (A) (A) (A) (A) (A) (A)
                 (A) (A) (A) (A) (A) (A) (A) (A) (A) (A) (A) (A)
                 (A) (A) (A) (A) (A) (A) (A) (A) (A) (A) (A) (A)
                 (A) (A) (A) (A) (A) (A) (A) (A) (A) (A) (A) (A)
                 (A) (A) (A) (A) (A) (A) (A) (A) (A) (A) (A) (A)
                 (A) (A) (A) (A) (A) (A) (A) (A) (A) (A) (A) (A)
                 (A) (A) (A) (A) (A) (A) (A) (A) (A) (A) (A) (A)
                 (A) (A) (A) (A) (A) (A) (A) (A) (A) (A) (A) (A)
                 (A) (A) (A) (A) (A) (A) (A) (A) (A) (A) (A) (A)
                 (A) (A) (A) (A) (A) (A) (A) (A) (A) (A) (A) (A)
                 (A) (A) (A) (A) (A) (A) (A) (A) (A) (A) (A) (A)
                 (A) (A) (A) (A) (A) (A) (A) (A) (A) (A) (A) (A)
                 (A) (A) (A)
 The electronic state of the initial guess is 1-A.
 Requested convergence on RMS density matrix=1.00D-08 within 128 cycles.
 Requested convergence on MAX density matrix=1.00D-06.
 Requested convergence on             energy=1.00D-06.
 No special actions if energy rises.
 Integral accuracy reduced to 1.0D-05 until final iterations.
 Initial convergence to 1.0D-05 achieved.  Increase integral accuracy.
 SCF Done:  E(RHF) =  -984.516199278     A.U. after   15 cycles
             Convg  =    0.4833D-08             -V/T =  2.0019
 Range of M.O.s used for correlation:     1   344
 NBasis=   344 NAE=    77 NBE=    77 NFC=     0 NFV=     0
 NROrb=    344 NOA=    77 NOB=    77 NVA=   267 NVB=   267
 Symmetrizing basis deriv contribution to polar:
 IMax=3 JMax=2 DiffMx= 0.00D+00
 G2DrvN: will do    43 centers at a time, making    1 passes doing MaxLOS=2.
 Calling FoFCou, ICntrl=  3107 FMM=F I1Cent=   0 AccDes= 0.00D+00.
 FoFDir/FoFCou used for L=0 through L=2.
 End of G2Drv Frequency-dependent properties file   721 does not exist.
 End of G2Drv Frequency-dependent properties file   722 does not exist.
          IDoAtm=111111111111111111111111111111111111111111
          Differentiating once with respect to nuclear coordinates.
          There are   129 degrees of freedom in the 1st order CPHF.  IDoFFX=5.
    123 vectors produced by pass  0 Test12= 2.06D-10 1.00D-07 XBig12= 9.36D-02 5.83D-02.
 AX will form   123 AO Fock derivatives at one time.
    123 vectors produced by pass  1 Test12= 2.06D-10 1.00D-07 XBig12= 5.43D-03 2.15D-02.
    123 vectors produced by pass  2 Test12= 2.06D-10 1.00D-07 XBig12= 9.02D-05 1.34D-03.
    123 vectors produced by pass  3 Test12= 2.06D-10 1.00D-07 XBig12= 7.37D-07 1.13D-04.
    123 vectors produced by pass  4 Test12= 2.06D-10 1.00D-07 XBig12= 5.23D-09 8.64D-06.
     34 vectors produced by pass  5 Test12= 2.06D-10 1.00D-07 XBig12= 2.89D-11 5.59D-07.
 Inverted reduced A of dimension   649 with in-core refinement.
 End of Minotr Frequency-dependent properties file   721 does not exist.
 End of Minotr Frequency-dependent properties file   722 does not exist.

 **********************************************************************

            Population analysis using the SCF density.

 **********************************************************************

 Orbital symmetries:
       Occupied  (A) (A) (A) (A) (A) (A) (A) (A) (A) (A) (A) (A)
                 (A) (A) (A) (A) (A) (A) (A) (A) (A) (A) (A) (A)
                 (A) (A) (A) (A) (A) (A) (A) (A) (A) (A) (A) (A)
                 (A) (A) (A) (A) (A) (A) (A) (A) (A) (A) (A) (A)
                 (A) (A) (A) (A) (A) (A) (A) (A) (A) (A) (A) (A)
                 (A) (A) (A) (A) (A) (A) (A) (A) (A) (A) (A) (A)
                 (A) (A) (A) (A) (A)
       Virtual   (A) (A) (A) (A) (A) (A) (A) (A) (A) (A) (A) (A)
                 (A) (A) (A) (A) (A) (A) (A) (A) (A) (A) (A) (A)
                 (A) (A) (A) (A) (A) (A) (A) (A) (A) (A) (A) (A)
                 (A) (A) (A) (A) (A) (A) (A) (A) (A) (A) (A) (A)
                 (A) (A) (A) (A) (A) (A) (A) (A) (A) (A) (A) (A)
                 (A) (A) (A) (A) (A) (A) (A) (A) (A) (A) (A) (A)
                 (A) (A) (A) (A) (A) (A) (A) (A) (A) (A) (A) (A)
                 (A) (A) (A) (A) (A) (A) (A) (A) (A) (A) (A) (A)
                 (A) (A) (A) (A) (A) (A) (A) (A) (A) (A) (A) (A)
                 (A) (A) (A) (A) (A) (A) (A) (A) (A) (A) (A) (A)
                 (A) (A) (A) (A) (A) (A) (A) (A) (A) (A) (A) (A)
                 (A) (A) (A) (A) (A) (A) (A) (A) (A) (A) (A) (A)
                 (A) (A) (A) (A) (A) (A) (A) (A) (A) (A) (A) (A)
                 (A) (A) (A) (A) (A) (A) (A) (A) (A) (A) (A) (A)
                 (A) (A) (A) (A) (A) (A) (A) (A) (A) (A) (A) (A)
                 (A) (A) (A) (A) (A) (A) (A) (A) (A) (A) (A) (A)
                 (A) (A) (A) (A) (A) (A) (A) (A) (A) (A) (A) (A)
                 (A) (A) (A) (A) (A) (A) (A) (A) (A) (A) (A) (A)
                 (A) (A) (A) (A) (A) (A) (A) (A) (A) (A) (A) (A)
                 (A) (A) (A) (A) (A) (A) (A) (A) (A) (A) (A) (A)
                 (A) (A) (A) (A) (A) (A) (A) (A) (A) (A) (A) (A)
                 (A) (A) (A) (A) (A) (A) (A) (A) (A) (A) (A) (A)
                 (A) (A) (A)
 The electronic state is 1-A.
 Alpha  occ. eigenvalues --  -20.53401 -20.51866 -20.50863 -20.50797 -15.60536
 Alpha  occ. eigenvalues --  -15.60286 -15.59260 -15.58104 -11.36250 -11.35098
 Alpha  occ. eigenvalues --  -11.34325 -11.34181 -11.29123 -11.28843 -11.28029
 Alpha  occ. eigenvalues --  -11.27013 -11.22879 -11.22390 -11.21824 -11.21624
 Alpha  occ. eigenvalues --   -1.39357  -1.38759  -1.36755  -1.36211  -1.25106
 Alpha  occ. eigenvalues --   -1.24863  -1.23802  -1.22983  -1.07829  -1.05561
 Alpha  occ. eigenvalues --   -1.02571  -0.97953  -0.96429  -0.91161  -0.89646
 Alpha  occ. eigenvalues --   -0.86782  -0.82029  -0.80093  -0.78223  -0.77436
 Alpha  occ. eigenvalues --   -0.74969  -0.72435  -0.68548  -0.68202  -0.66307
 Alpha  occ. eigenvalues --   -0.66070  -0.64688  -0.63522  -0.62800  -0.62582
 Alpha  occ. eigenvalues --   -0.61578  -0.60610  -0.59904  -0.57955  -0.57825
 Alpha  occ. eigenvalues --   -0.57140  -0.56630  -0.55897  -0.55425  -0.55029
 Alpha  occ. eigenvalues --   -0.54593  -0.54104  -0.53048  -0.52536  -0.52460
 Alpha  occ. eigenvalues --   -0.51790  -0.50562  -0.49308  -0.48438  -0.44215
 Alpha  occ. eigenvalues --   -0.42839  -0.40597  -0.40435  -0.40294  -0.38500
 Alpha  occ. eigenvalues --   -0.38236  -0.36488
 Alpha virt. eigenvalues --    0.17970   0.18850   0.19699   0.20052   0.20999
 Alpha virt. eigenvalues --    0.21498   0.23953   0.24519   0.25879   0.27967
 Alpha virt. eigenvalues --    0.28712   0.28795   0.29526   0.29781   0.30277
 Alpha virt. eigenvalues --    0.30855   0.31503   0.31677   0.31840   0.33026
 Alpha virt. eigenvalues --    0.33461   0.33742   0.34434   0.35299   0.35808
 Alpha virt. eigenvalues --    0.36136   0.36634   0.37148   0.38963   0.39633
 Alpha virt. eigenvalues --    0.41685   0.42018   0.42326   0.43401   0.45062
 Alpha virt. eigenvalues --    0.47629   0.49555   0.52796   0.53290   0.54548
 Alpha virt. eigenvalues --    0.56458   0.59340   0.61795   0.62309   0.66387
 Alpha virt. eigenvalues --    0.69933   0.71266   0.72400   0.72948   0.73229
 Alpha virt. eigenvalues --    0.74639   0.75440   0.76289   0.76378   0.77020
 Alpha virt. eigenvalues --    0.77630   0.78287   0.78790   0.79943   0.81747
 Alpha virt. eigenvalues --    0.82600   0.83662   0.83980   0.86524   0.87581
 Alpha virt. eigenvalues --    0.88864   0.90263   0.91739   0.92015   0.92979
 Alpha virt. eigenvalues --    0.93400   0.93705   0.94872   0.96686   0.98014
 Alpha virt. eigenvalues --    0.98933   0.99433   1.00013   1.00616   1.01045
 Alpha virt. eigenvalues --    1.02671   1.05282   1.06486   1.06855   1.07451
 Alpha virt. eigenvalues --    1.08964   1.09993   1.10503   1.11688   1.11962
 Alpha virt. eigenvalues --    1.13243   1.14159   1.14481   1.14801   1.15471
 Alpha virt. eigenvalues --    1.15801   1.16208   1.16792   1.16896   1.17622
 Alpha virt. eigenvalues --    1.18077   1.18404   1.19519   1.19812   1.20575
 Alpha virt. eigenvalues --    1.20748   1.21380   1.21485   1.22590   1.23117
 Alpha virt. eigenvalues --    1.24343   1.24679   1.25529   1.26785   1.27904
 Alpha virt. eigenvalues --    1.30623   1.32319   1.34187   1.34399   1.36566
 Alpha virt. eigenvalues --    1.36863   1.38937   1.40229   1.43730   1.45469
 Alpha virt. eigenvalues --    1.46123   1.49286   1.50753   1.52169   1.53542
 Alpha virt. eigenvalues --    1.54893   1.56750   1.57628   1.60175   1.60736
 Alpha virt. eigenvalues --    1.62208   1.63444   1.64670   1.65551   1.66987
 Alpha virt. eigenvalues --    1.69878   1.72380   1.74020   1.74538   1.75155
 Alpha virt. eigenvalues --    1.76397   1.76793   1.79677   1.83962   1.87461
 Alpha virt. eigenvalues --    1.91712   1.92714   1.93772   1.98472   1.99665
 Alpha virt. eigenvalues --    2.00826   2.02025   2.03087   2.05266   2.07127
 Alpha virt. eigenvalues --    2.07836   2.08092   2.10098   2.10897   2.12509
 Alpha virt. eigenvalues --    2.13202   2.13773   2.14186   2.14764   2.15359
 Alpha virt. eigenvalues --    2.15719   2.17232   2.18262   2.19392   2.20196
 Alpha virt. eigenvalues --    2.21936   2.22578   2.24753   2.25454   2.27343
 Alpha virt. eigenvalues --    2.28561   2.29315   2.30359   2.32644   2.35687
 Alpha virt. eigenvalues --    2.35921   2.36859   2.37894   2.38905   2.40430
 Alpha virt. eigenvalues --    2.41320   2.43361   2.46403   2.46714   2.48264
 Alpha virt. eigenvalues --    2.49470   2.52012   2.52918   2.54303   2.57749
 Alpha virt. eigenvalues --    2.58239   2.59418   2.61153   2.61457   2.62917
 Alpha virt. eigenvalues --    2.63611   2.64270   2.65664   2.67012   2.67683
 Alpha virt. eigenvalues --    2.69237   2.71305   2.73545   2.76589   2.77618
 Alpha virt. eigenvalues --    2.78672   2.79858   2.80500   2.81774   2.84586
 Alpha virt. eigenvalues --    2.87092   2.91883   2.92708   2.94978   2.97314
 Alpha virt. eigenvalues --    2.98364   2.99811   3.01182   3.03980   3.07018
 Alpha virt. eigenvalues --    3.08504   3.10655   3.11723   3.16444   3.18940
 Alpha virt. eigenvalues --    3.23677   3.26724   3.30501   3.33671   3.35952
 Alpha virt. eigenvalues --    3.36590   3.40331   3.44031   3.52658   3.55866
 Alpha virt. eigenvalues --    3.61256   3.63002   4.39465   4.42905   4.44169
 Alpha virt. eigenvalues --    4.46866   4.48661   4.49970   4.55715   4.63392
 Alpha virt. eigenvalues --    4.65535   4.69866   4.70910   4.72152   4.73252
 Alpha virt. eigenvalues --    4.84595   4.86096   4.87656   4.98452   5.02708
 Alpha virt. eigenvalues --    5.05727   5.13163
          Condensed to atoms (all electrons):
              1          2          3          4          5          6
     1  H    0.461205   0.385506  -0.018923  -0.018972  -0.030923   0.003562
     2  C    0.385506   5.244675   0.374779   0.374805   0.378072  -0.067404
     3  H   -0.018923   0.374779   0.509850  -0.023499  -0.034315   0.001267
     4  H   -0.018972   0.374805  -0.023499   0.512466  -0.035246   0.001191
     5  C   -0.030923   0.378072  -0.034315  -0.035246   4.185527   0.586240
     6  O    0.003562  -0.067404   0.001267   0.001191   0.586240   8.214804
     7  N    0.003879  -0.119812   0.003461   0.003691   0.249727  -0.107782
     8  H   -0.000017  -0.001256   0.000627   0.000469  -0.017244   0.001987
     9  C   -0.000077   0.004608  -0.000241  -0.000092  -0.030574   0.014513
    10  H    0.000002  -0.000011  -0.000003  -0.000002  -0.001714   0.002896
    11  C    0.000006  -0.000502   0.000008   0.000030  -0.003987  -0.015846
    12  H    0.000000  -0.000042   0.000000   0.000002   0.000058  -0.000023
    13  H    0.000000   0.000007   0.000000  -0.000001   0.000281   0.000274
    14  H    0.000001   0.000303  -0.000005  -0.000026   0.000452   0.011237
    15  C    0.000000   0.000002  -0.000010  -0.000006   0.004082   0.000548
    16  O    0.000000  -0.000040  -0.000001  -0.000002   0.000325  -0.000003
    17  N    0.000000   0.000000   0.000000   0.000000  -0.000082  -0.000002
    18  H    0.000000   0.000000   0.000000   0.000000   0.000000   0.000001
    19  C    0.000000   0.000000   0.000000   0.000000   0.000001   0.000000
    20  H    0.000000   0.000000   0.000000   0.000000   0.000000   0.000000
    21  C    0.000000   0.000000   0.000000   0.000000   0.000000   0.000000
    22  H    0.000000   0.000000   0.000000   0.000000   0.000000   0.000000
    23  H    0.000000   0.000000   0.000000   0.000000   0.000000   0.000000
    24  H    0.000000   0.000000   0.000000   0.000000   0.000000   0.000000
    25  C    0.000000   0.000000   0.000000   0.000000   0.000000   0.000000
    26  O    0.000000   0.000000   0.000000   0.000000   0.000000   0.000000
    27  N    0.000000   0.000000   0.000000   0.000000   0.000000   0.000000
    28  H    0.000000   0.000000   0.000000   0.000000   0.000000   0.000000
    29  C    0.000000   0.000000   0.000000   0.000000   0.000000   0.000000
    30  H    0.000000   0.000000   0.000000   0.000000   0.000000   0.000000
    31  C    0.000000   0.000000   0.000000   0.000000   0.000000   0.000000
    32  H    0.000000   0.000000   0.000000   0.000000   0.000000   0.000000
    33  H    0.000000   0.000000   0.000000   0.000000   0.000000   0.000000
    34  H    0.000000   0.000000   0.000000   0.000000   0.000000   0.000000
    35  C    0.000000   0.000000   0.000000   0.000000   0.000000   0.000000
    36  O    0.000000   0.000000   0.000000   0.000000   0.000000   0.000000
    37  N    0.000000   0.000000   0.000000   0.000000   0.000000   0.000000
    38  H    0.000000   0.000000   0.000000   0.000000   0.000000   0.000000
    39  C    0.000000   0.000000   0.000000   0.000000   0.000000   0.000000
    40  H    0.000000   0.000000   0.000000   0.000000   0.000000   0.000000
    41  H    0.000000   0.000000   0.000000   0.000000   0.000000   0.000000
    42  H    0.000000   0.000000   0.000000   0.000000   0.000000   0.000000
              7          8          9         10         11         12
     1  H    0.003879  -0.000017  -0.000077   0.000002   0.000006   0.000000
     2  C   -0.119812  -0.001256   0.004608  -0.000011  -0.000502  -0.000042
     3  H    0.003461   0.000627  -0.000241  -0.000003   0.000008   0.000000
     4  H    0.003691   0.000469  -0.000092  -0.000002   0.000030   0.000002
     5  C    0.249727  -0.017244  -0.030574  -0.001714  -0.003987   0.000058
     6  O   -0.107782   0.001987   0.014513   0.002896  -0.015846  -0.000023
     7  N    7.412045   0.310354   0.200685  -0.040873  -0.063309   0.001727
     8  H    0.310354   0.286193  -0.027518   0.002410   0.003012   0.000247
     9  C    0.200685  -0.027518   5.016767   0.406075   0.334909  -0.042076
    10  H   -0.040873   0.002410   0.406075   0.505795  -0.047524   0.004547
    11  C   -0.063309   0.003012   0.334909  -0.047524   5.214569   0.384937
    12  H    0.001727   0.000247  -0.042076   0.004547   0.384937   0.524895
    13  H    0.004943  -0.000077  -0.042297   0.000338   0.376992  -0.024411
    14  H   -0.005702  -0.000199  -0.026454  -0.003920   0.387192  -0.020229
    15  C   -0.037471  -0.004746   0.380804  -0.040245  -0.066591  -0.002654
    16  O   -0.006369   0.021078  -0.070682   0.000624  -0.000184   0.000578
    17  N    0.002745   0.000791  -0.119327   0.002894   0.003655   0.000215
    18  H    0.000021  -0.000023   0.000735   0.000434   0.000252  -0.000016
    19  C   -0.000047  -0.000024   0.003731  -0.000282  -0.000021  -0.000066
    20  H    0.000000   0.000000  -0.000026   0.000002  -0.000002   0.000001
    21  C    0.000002   0.000008  -0.000323   0.000003   0.000019   0.000032
    22  H   -0.000004   0.000000   0.000302  -0.000003  -0.000043  -0.000003
    23  H    0.000000   0.000000   0.000006   0.000000   0.000000   0.000000
    24  H    0.000000   0.000000  -0.000089   0.000000   0.000039   0.000022
    25  C   -0.000001   0.000001  -0.000395   0.000032   0.000011   0.000002
    26  O    0.000001   0.000019  -0.000103   0.000027  -0.000002   0.000000
    27  N    0.000000   0.000000  -0.000002   0.000000   0.000000   0.000000
    28  H    0.000000   0.000000   0.000000   0.000000   0.000000   0.000000
    29  C    0.000000   0.000000   0.000000   0.000000   0.000000   0.000000
    30  H    0.000000   0.000000   0.000000   0.000000   0.000000   0.000000
    31  C    0.000000   0.000000   0.000000   0.000000   0.000000   0.000000
    32  H    0.000000   0.000000   0.000000   0.000000   0.000000   0.000000
    33  H    0.000000   0.000000   0.000000   0.000000   0.000000   0.000000
    34  H    0.000000   0.000000   0.000000   0.000000   0.000000   0.000000
    35  C    0.000000   0.000000   0.000000   0.000000   0.000000   0.000000
    36  O    0.000000   0.000000   0.000000   0.000000   0.000000   0.000000
    37  N    0.000000   0.000000   0.000000   0.000000   0.000000   0.000000
    38  H    0.000000   0.000000   0.000000   0.000000   0.000000   0.000000
    39  C    0.000000   0.000000   0.000000   0.000000   0.000000   0.000000
    40  H    0.000000   0.000000   0.000000   0.000000   0.000000   0.000000
    41  H    0.000000   0.000000   0.000000   0.000000   0.000000   0.000000
    42  H    0.000000   0.000000   0.000000   0.000000   0.000000   0.000000
             13         14         15         16         17         18
     1  H    0.000000   0.000001   0.000000   0.000000   0.000000   0.000000
     2  C    0.000007   0.000303   0.000002  -0.000040   0.000000   0.000000
     3  H    0.000000  -0.000005  -0.000010  -0.000001   0.000000   0.000000
     4  H   -0.000001  -0.000026  -0.000006  -0.000002   0.000000   0.000000
     5  C    0.000281   0.000452   0.004082   0.000325  -0.000082   0.000000
     6  O    0.000274   0.011237   0.000548  -0.000003  -0.000002   0.000001
     7  N    0.004943  -0.005702  -0.037471  -0.006369   0.002745   0.000021
     8  H   -0.000077  -0.000199  -0.004746   0.021078   0.000791  -0.000023
     9  C   -0.042297  -0.026454   0.380804  -0.070682  -0.119327   0.000735
    10  H    0.000338  -0.003920  -0.040245   0.000624   0.002894   0.000434
    11  C    0.376992   0.387192  -0.066591  -0.000184   0.003655   0.000252
    12  H   -0.024411  -0.020229  -0.002654   0.000578   0.000215  -0.000016
    13  H    0.573858  -0.020361  -0.007258   0.000023   0.000462   0.003007
    14  H   -0.020361   0.426733   0.004171  -0.000053   0.000036  -0.000088
    15  C   -0.007258   0.004171   4.205256   0.573679   0.247598  -0.017488
    16  O    0.000023  -0.000053   0.573679   8.224903  -0.104872   0.002479
    17  N    0.000462   0.000036   0.247598  -0.104872   7.430335   0.323069
    18  H    0.003007  -0.000088  -0.017488   0.002479   0.323069   0.309656
    19  C    0.000176   0.000001  -0.033297   0.015029   0.184167  -0.022978
    20  H   -0.000016   0.000000   0.003432   0.000044  -0.037510  -0.003900
    21  C   -0.000015  -0.000001  -0.003038  -0.014057  -0.065072   0.002773
    22  H   -0.000002   0.000000   0.001635   0.006684  -0.004587  -0.000135
    23  H    0.000000   0.000000   0.000343   0.000277   0.004499  -0.000093
    24  H    0.000018   0.000000  -0.000884   0.000149   0.001033   0.000055
    25  C    0.000002   0.000000  -0.001568   0.002084  -0.049112   0.002123
    26  O    0.000000   0.000000   0.010909  -0.042536   0.002126  -0.000062
    27  N    0.000000   0.000000   0.000029  -0.000034   0.001655  -0.000085
    28  H    0.000000   0.000000   0.000008   0.000002   0.000071  -0.000008
    29  C    0.000000   0.000000  -0.000009   0.000017  -0.000146   0.000001
    30  H    0.000000   0.000000  -0.000002   0.000001  -0.000006   0.000000
    31  C    0.000000   0.000000   0.000009  -0.000012   0.000040  -0.000001
    32  H    0.000000   0.000000  -0.000001   0.000000  -0.000001   0.000000
    33  H    0.000000   0.000000   0.000000   0.000000   0.000000   0.000000
    34  H    0.000000   0.000000   0.000017   0.000020  -0.000021   0.000001
    35  C    0.000000   0.000000   0.000000   0.000000  -0.000001   0.000000
    36  O    0.000000   0.000000   0.000000   0.000000   0.000000   0.000000
    37  N    0.000000   0.000000   0.000000   0.000000   0.000000   0.000000
    38  H    0.000000   0.000000   0.000000   0.000000   0.000000   0.000000
    39  C    0.000000   0.000000   0.000000   0.000000   0.000000   0.000000
    40  H    0.000000   0.000000   0.000000   0.000000   0.000000   0.000000
    41  H    0.000000   0.000000   0.000000   0.000000   0.000000   0.000000
    42  H    0.000000   0.000000   0.000000   0.000000   0.000000   0.000000
             19         20         21         22         23         24
     1  H    0.000000   0.000000   0.000000   0.000000   0.000000   0.000000
     2  C    0.000000   0.000000   0.000000   0.000000   0.000000   0.000000
     3  H    0.000000   0.000000   0.000000   0.000000   0.000000   0.000000
     4  H    0.000000   0.000000   0.000000   0.000000   0.000000   0.000000
     5  C    0.000001   0.000000   0.000000   0.000000   0.000000   0.000000
     6  O    0.000000   0.000000   0.000000   0.000000   0.000000   0.000000
     7  N   -0.000047   0.000000   0.000002  -0.000004   0.000000   0.000000
     8  H   -0.000024   0.000000   0.000008   0.000000   0.000000   0.000000
     9  C    0.003731  -0.000026  -0.000323   0.000302   0.000006  -0.000089
    10  H   -0.000282   0.000002   0.000003  -0.000003   0.000000   0.000000
    11  C   -0.000021  -0.000002   0.000019  -0.000043   0.000000   0.000039
    12  H   -0.000066   0.000001   0.000032  -0.000003   0.000000   0.000022
    13  H    0.000176  -0.000016  -0.000015  -0.000002   0.000000   0.000018
    14  H    0.000001   0.000000  -0.000001   0.000000   0.000000   0.000000
    15  C   -0.033297   0.003432  -0.003038   0.001635   0.000343  -0.000884
    16  O    0.015029   0.000044  -0.014057   0.006684   0.000277   0.000149
    17  N    0.184167  -0.037510  -0.065072  -0.004587   0.004499   0.001033
    18  H   -0.022978  -0.003900   0.002773  -0.000135  -0.000093   0.000055
    19  C    5.072078   0.413265   0.343250  -0.027235  -0.038465  -0.042795
    20  H    0.413265   0.515830  -0.035949   0.003177  -0.001065  -0.003898
    21  C    0.343250  -0.035949   5.172717   0.389519   0.382355   0.388368
    22  H   -0.027235   0.003177   0.389519   0.421662  -0.019384  -0.021404
    23  H   -0.038465  -0.001065   0.382355  -0.019384   0.533598  -0.023274
    24  H   -0.042795  -0.003898   0.388368  -0.021404  -0.023274   0.533235
    25  C    0.346548  -0.055937  -0.060363  -0.005979  -0.002567   0.006014
    26  O   -0.086368   0.002564   0.004144   0.003018  -0.000394   0.000020
    27  N   -0.095837   0.007891  -0.000630   0.000275   0.000804  -0.000080
    28  H   -0.000917   0.002358   0.000057  -0.000003   0.000003  -0.000009
    29  C    0.005759   0.000093  -0.000284  -0.000005  -0.000031   0.000005
    30  H   -0.000125  -0.000010   0.000057  -0.000001  -0.000012   0.000000
    31  C   -0.000691   0.000016  -0.000005   0.000001   0.000002   0.000000
    32  H   -0.000010  -0.000003   0.000001   0.000000   0.000000   0.000000
    33  H    0.000009   0.000000   0.000000   0.000000   0.000000   0.000000
    34  H    0.000289  -0.000014  -0.000004  -0.000001   0.000000   0.000000
    35  C    0.000026  -0.000051  -0.000002   0.000000  -0.000001   0.000000
    36  O   -0.000043  -0.000037   0.000000   0.000000   0.000000   0.000000
    37  N    0.000000   0.000000   0.000000   0.000000   0.000000   0.000000
    38  H    0.000000   0.000000   0.000000   0.000000   0.000000   0.000000
    39  C    0.000000   0.000000   0.000000   0.000000   0.000000   0.000000
    40  H    0.000000   0.000000   0.000000   0.000000   0.000000   0.000000
    41  H    0.000000   0.000000   0.000000   0.000000   0.000000   0.000000
    42  H    0.000000   0.000000   0.000000   0.000000   0.000000   0.000000
             25         26         27         28         29         30
     1  H    0.000000   0.000000   0.000000   0.000000   0.000000   0.000000
     2  C    0.000000   0.000000   0.000000   0.000000   0.000000   0.000000
     3  H    0.000000   0.000000   0.000000   0.000000   0.000000   0.000000
     4  H    0.000000   0.000000   0.000000   0.000000   0.000000   0.000000
     5  C    0.000000   0.000000   0.000000   0.000000   0.000000   0.000000
     6  O    0.000000   0.000000   0.000000   0.000000   0.000000   0.000000
     7  N   -0.000001   0.000001   0.000000   0.000000   0.000000   0.000000
     8  H    0.000001   0.000019   0.000000   0.000000   0.000000   0.000000
     9  C   -0.000395  -0.000103  -0.000002   0.000000   0.000000   0.000000
    10  H    0.000032   0.000027   0.000000   0.000000   0.000000   0.000000
    11  C    0.000011  -0.000002   0.000000   0.000000   0.000000   0.000000
    12  H    0.000002   0.000000   0.000000   0.000000   0.000000   0.000000
    13  H    0.000002   0.000000   0.000000   0.000000   0.000000   0.000000
    14  H    0.000000   0.000000   0.000000   0.000000   0.000000   0.000000
    15  C   -0.001568   0.010909   0.000029   0.000008  -0.000009  -0.000002
    16  O    0.002084  -0.042536  -0.000034   0.000002   0.000017   0.000001
    17  N   -0.049112   0.002126   0.001655   0.000071  -0.000146  -0.000006
    18  H    0.002123  -0.000062  -0.000085  -0.000008   0.000001   0.000000
    19  C    0.346548  -0.086368  -0.095837  -0.000917   0.005759  -0.000125
    20  H   -0.055937   0.002564   0.007891   0.002358   0.000093  -0.000010
    21  C   -0.060363   0.004144  -0.000630   0.000057  -0.000284   0.000057
    22  H   -0.005979   0.003018   0.000275  -0.000003  -0.000005  -0.000001
    23  H   -0.002567  -0.000394   0.000804   0.000003  -0.000031  -0.000012
    24  H    0.006014   0.000020  -0.000080  -0.000009   0.000005   0.000000
    25  C    4.234679   0.563301   0.270211  -0.015246  -0.034339  -0.001090
    26  O    0.563301   8.241795  -0.102490   0.001897   0.014494   0.003037
    27  N    0.270211  -0.102490   7.406788   0.306869   0.192593  -0.041346
    28  H   -0.015246   0.001897   0.306869   0.288469  -0.027141   0.002401
    29  C   -0.034339   0.014494   0.192593  -0.027141   5.047470   0.404215
    30  H   -0.001090   0.003037  -0.041346   0.002401   0.404215   0.496695
    31  C   -0.003934  -0.015669  -0.062297   0.003027   0.334933  -0.044876
    32  H   -0.000061   0.000007   0.001615   0.000261  -0.042858   0.004486
    33  H    0.000269   0.000255   0.004878  -0.000077  -0.042371   0.000170
    34  H    0.000556   0.011092  -0.005476  -0.000196  -0.026458  -0.003937
    35  C    0.003898   0.000471  -0.036887  -0.005678   0.376013  -0.037000
    36  O    0.000302  -0.000003  -0.006296   0.022228  -0.079015   0.001011
    37  N   -0.000101  -0.000001   0.002812   0.000749  -0.116242   0.002047
    38  H    0.000003   0.000001   0.000014  -0.000022   0.001074   0.000476
    39  C    0.000001   0.000000  -0.000050  -0.000010   0.003620  -0.000215
    40  H    0.000000   0.000000  -0.000004  -0.000010   0.000582  -0.000017
    41  H    0.000000   0.000000   0.000000   0.000000  -0.000108   0.000010
    42  H    0.000000   0.000000   0.000001   0.000000  -0.000005  -0.000002
             31         32         33         34         35         36
     1  H    0.000000   0.000000   0.000000   0.000000   0.000000   0.000000
     2  C    0.000000   0.000000   0.000000   0.000000   0.000000   0.000000
     3  H    0.000000   0.000000   0.000000   0.000000   0.000000   0.000000
     4  H    0.000000   0.000000   0.000000   0.000000   0.000000   0.000000
     5  C    0.000000   0.000000   0.000000   0.000000   0.000000   0.000000
     6  O    0.000000   0.000000   0.000000   0.000000   0.000000   0.000000
     7  N    0.000000   0.000000   0.000000   0.000000   0.000000   0.000000
     8  H    0.000000   0.000000   0.000000   0.000000   0.000000   0.000000
     9  C    0.000000   0.000000   0.000000   0.000000   0.000000   0.000000
    10  H    0.000000   0.000000   0.000000   0.000000   0.000000   0.000000
    11  C    0.000000   0.000000   0.000000   0.000000   0.000000   0.000000
    12  H    0.000000   0.000000   0.000000   0.000000   0.000000   0.000000
    13  H    0.000000   0.000000   0.000000   0.000000   0.000000   0.000000
    14  H    0.000000   0.000000   0.000000   0.000000   0.000000   0.000000
    15  C    0.000009  -0.000001   0.000000   0.000017   0.000000   0.000000
    16  O   -0.000012   0.000000   0.000000   0.000020   0.000000   0.000000
    17  N    0.000040  -0.000001   0.000000  -0.000021  -0.000001   0.000000
    18  H   -0.000001   0.000000   0.000000   0.000001   0.000000   0.000000
    19  C   -0.000691  -0.000010   0.000009   0.000289   0.000026  -0.000043
    20  H    0.000016  -0.000003   0.000000  -0.000014  -0.000051  -0.000037
    21  C   -0.000005   0.000001   0.000000  -0.000004  -0.000002   0.000000
    22  H    0.000001   0.000000   0.000000  -0.000001   0.000000   0.000000
    23  H    0.000002   0.000000   0.000000   0.000000  -0.000001   0.000000
    24  H    0.000000   0.000000   0.000000   0.000000   0.000000   0.000000
    25  C   -0.003934  -0.000061   0.000269   0.000556   0.003898   0.000302
    26  O   -0.015669   0.000007   0.000255   0.011092   0.000471  -0.000003
    27  N   -0.062297   0.001615   0.004878  -0.005476  -0.036887  -0.006296
    28  H    0.003027   0.000261  -0.000077  -0.000196  -0.005678   0.022228
    29  C    0.334933  -0.042858  -0.042371  -0.026458   0.376013  -0.079015
    30  H   -0.044876   0.004486   0.000170  -0.003937  -0.037000   0.001011
    31  C    5.207139   0.385410   0.378906   0.387054  -0.063378   0.000046
    32  H    0.385410   0.526034  -0.024156  -0.020283  -0.002695   0.000624
    33  H    0.378906  -0.024156   0.566952  -0.020013  -0.006909   0.000025
    34  H    0.387054  -0.020283  -0.020013   0.422430   0.003902  -0.000064
    35  C   -0.063378  -0.002695  -0.006909   0.003902   4.145564   0.594205
    36  O    0.000046   0.000624   0.000025  -0.000064   0.594205   8.217268
    37  N    0.002389   0.000159   0.000390   0.000088   0.288880  -0.099084
    38  H    0.000036  -0.000005   0.002653  -0.000080  -0.020495   0.002372
    39  C   -0.000076  -0.000042   0.000166   0.000003  -0.025600  -0.004857
    40  H   -0.000049  -0.000001  -0.000008   0.000000  -0.001960   0.009934
    41  H   -0.000004   0.000001   0.000002   0.000000   0.000792   0.000366
    42  H    0.000013   0.000002  -0.000002  -0.000001   0.000921   0.000374
             37         38         39         40         41         42
     1  H    0.000000   0.000000   0.000000   0.000000   0.000000   0.000000
     2  C    0.000000   0.000000   0.000000   0.000000   0.000000   0.000000
     3  H    0.000000   0.000000   0.000000   0.000000   0.000000   0.000000
     4  H    0.000000   0.000000   0.000000   0.000000   0.000000   0.000000
     5  C    0.000000   0.000000   0.000000   0.000000   0.000000   0.000000
     6  O    0.000000   0.000000   0.000000   0.000000   0.000000   0.000000
     7  N    0.000000   0.000000   0.000000   0.000000   0.000000   0.000000
     8  H    0.000000   0.000000   0.000000   0.000000   0.000000   0.000000
     9  C    0.000000   0.000000   0.000000   0.000000   0.000000   0.000000
    10  H    0.000000   0.000000   0.000000   0.000000   0.000000   0.000000
    11  C    0.000000   0.000000   0.000000   0.000000   0.000000   0.000000
    12  H    0.000000   0.000000   0.000000   0.000000   0.000000   0.000000
    13  H    0.000000   0.000000   0.000000   0.000000   0.000000   0.000000
    14  H    0.000000   0.000000   0.000000   0.000000   0.000000   0.000000
    15  C    0.000000   0.000000   0.000000   0.000000   0.000000   0.000000
    16  O    0.000000   0.000000   0.000000   0.000000   0.000000   0.000000
    17  N    0.000000   0.000000   0.000000   0.000000   0.000000   0.000000
    18  H    0.000000   0.000000   0.000000   0.000000   0.000000   0.000000
    19  C    0.000000   0.000000   0.000000   0.000000   0.000000   0.000000
    20  H    0.000000   0.000000   0.000000   0.000000   0.000000   0.000000
    21  C    0.000000   0.000000   0.000000   0.000000   0.000000   0.000000
    22  H    0.000000   0.000000   0.000000   0.000000   0.000000   0.000000
    23  H    0.000000   0.000000   0.000000   0.000000   0.000000   0.000000
    24  H    0.000000   0.000000   0.000000   0.000000   0.000000   0.000000
    25  C   -0.000101   0.000003   0.000001   0.000000   0.000000   0.000000
    26  O   -0.000001   0.000001   0.000000   0.000000   0.000000   0.000000
    27  N    0.002812   0.000014  -0.000050  -0.000004   0.000000   0.000001
    28  H    0.000749  -0.000022  -0.000010  -0.000010   0.000000   0.000000
    29  C   -0.116242   0.001074   0.003620   0.000582  -0.000108  -0.000005
    30  H    0.002047   0.000476  -0.000215  -0.000017   0.000010  -0.000002
    31  C    0.002389   0.000036  -0.000076  -0.000049  -0.000004   0.000013
    32  H    0.000159  -0.000005  -0.000042  -0.000001   0.000001   0.000002
    33  H    0.000390   0.002653   0.000166  -0.000008   0.000002  -0.000002
    34  H    0.000088  -0.000080   0.000003   0.000000   0.000000  -0.000001
    35  C    0.288880  -0.020495  -0.025600  -0.001960   0.000792   0.000921
    36  O   -0.099084   0.002372  -0.004857   0.009934   0.000366   0.000374
    37  N    7.331883   0.322395   0.185920  -0.031812  -0.047029  -0.048041
[...]
    29  C    0.000000   0.000000  -0.000004   0.000001  -0.000156  -0.000007
    30  H    0.000000   0.000000  -0.000002   0.000000  -0.000008   0.000000
    31  C    0.000000   0.000000   0.000002   0.000000   0.000026  -0.000001
    32  H    0.000000   0.000000   0.000000   0.000000  -0.000001   0.000001
    33  H    0.000000   0.000000   0.000000   0.000000   0.000000   0.000000
    34  H    0.000000   0.000000   0.000001   0.000000  -0.000010   0.000002
    35  C    0.000000   0.000000   0.000000   0.000000  -0.000001   0.000000
    36  O    0.000000   0.000000   0.000000   0.000000   0.000000   0.000000
    37  N    0.000000   0.000000   0.000000   0.000000   0.000000   0.000000
    38  H    0.000000   0.000000   0.000000   0.000000   0.000000   0.000000
    39  C    0.000000   0.000000   0.000000   0.000000   0.000000   0.000000
    40  H    0.000000   0.000000   0.000000   0.000000   0.000000   0.000000
    41  H    0.000000   0.000000   0.000000   0.000000   0.000000   0.000000
    42  H    0.000000   0.000000   0.000000   0.000000   0.000000   0.000000
             19         20         21         22         23         24
     1  H    0.000000   0.000000   0.000000   0.000000   0.000000   0.000000
     2  C    0.000000   0.000000   0.000000   0.000000   0.000000   0.000000
     3  H    0.000000   0.000000   0.000000   0.000000   0.000000   0.000000
     4  H    0.000000   0.000000   0.000000   0.000000   0.000000   0.000000
     5  C    0.000002   0.000000   0.000000   0.000000   0.000000   0.000000
     6  O    0.000000   0.000000   0.000000   0.000000   0.000000   0.000000
     7  N   -0.000063   0.000001   0.000001  -0.000001   0.000000   0.000000
     8  H   -0.000027   0.000000   0.000001  -0.000001   0.000000   0.000000
     9  C    0.003242  -0.000083  -0.000097   0.000110   0.000006  -0.000040
    10  H   -0.000407  -0.000004   0.000002  -0.000003   0.000000   0.000000
    11  C   -0.000057   0.000007  -0.000008  -0.000005   0.000000   0.000006
    12  H   -0.000021   0.000000   0.000003  -0.000002   0.000000   0.000001
    13  H    0.000031  -0.000010  -0.000009   0.000000   0.000000   0.000004
    14  H    0.000002   0.000000   0.000000   0.000000   0.000000   0.000000
    15  C   -0.024906   0.003181  -0.001767   0.000998   0.000194  -0.000571
    16  O    0.009113  -0.000025  -0.004110   0.005000   0.000195  -0.000118
    17  N    0.201784  -0.045381  -0.058462  -0.002448   0.003984   0.000467
    18  H   -0.030149  -0.004746   0.003909  -0.000114  -0.000100  -0.000072
    19  C    5.045636   0.421166   0.336656  -0.029854  -0.037730  -0.038085
    20  H    0.421166   0.520899  -0.033814   0.003343  -0.001995  -0.003643
    21  C    0.336656  -0.033814   5.140868   0.390598   0.381329   0.391281
    22  H   -0.029854   0.003343   0.390598   0.436746  -0.021021  -0.020863
    23  H   -0.037730  -0.001995   0.381329  -0.021021   0.539213  -0.025145
    24  H   -0.038085  -0.003643   0.391281  -0.020863  -0.025145   0.514275
    25  C    0.351378  -0.060314  -0.053140  -0.004983  -0.002307   0.005115
    26  O   -0.075778   0.002478   0.002523   0.003132  -0.000163  -0.000026
    27  N   -0.098319   0.008376  -0.000498   0.000333   0.000918  -0.000105
    28  H   -0.001156   0.002050   0.000069  -0.000005  -0.000011  -0.000009
    29  C    0.005586   0.000080  -0.000233  -0.000003  -0.000043   0.000004
    30  H    0.000143  -0.000020   0.000037  -0.000002  -0.000010   0.000000
    31  C   -0.000406   0.000013  -0.000003   0.000000   0.000001   0.000000
    32  H   -0.000001  -0.000001   0.000000   0.000000   0.000000   0.000000
    33  H    0.000004   0.000000   0.000000   0.000000   0.000000   0.000000
    34  H    0.000101  -0.000010  -0.000001   0.000000   0.000000   0.000000
    35  C    0.000005  -0.000052   0.000000   0.000000  -0.000002   0.000000
    36  O   -0.000059  -0.000046   0.000000   0.000000  -0.000001   0.000000
    37  N    0.000000   0.000000   0.000000   0.000000   0.000000   0.000000
    38  H    0.000000   0.000000   0.000000   0.000000   0.000000   0.000000
    39  C    0.000000   0.000000   0.000000   0.000000   0.000000   0.000000
    40  H    0.000000   0.000000   0.000000   0.000000   0.000000   0.000000
    41  H    0.000000   0.000000   0.000000   0.000000   0.000000   0.000000
    42  H    0.000000   0.000000   0.000000   0.000000   0.000000   0.000000
             25         26         27         28         29         30
     1  H    0.000000   0.000000   0.000000   0.000000   0.000000   0.000000
     2  C    0.000000   0.000000   0.000000   0.000000   0.000000   0.000000
     3  H    0.000000   0.000000   0.000000   0.000000   0.000000   0.000000
     4  H    0.000000   0.000000   0.000000   0.000000   0.000000   0.000000
     5  C    0.000000   0.000000   0.000000   0.000000   0.000000   0.000000
     6  O    0.000000   0.000000   0.000000   0.000000   0.000000   0.000000
     7  N   -0.000003   0.000000   0.000000   0.000000   0.000000   0.000000
     8  H    0.000008   0.000005   0.000000   0.000000   0.000000   0.000000
     9  C   -0.000452  -0.000064  -0.000002   0.000000   0.000000   0.000000
    10  H    0.000116   0.000021   0.000000   0.000000   0.000000   0.000000
    11  C   -0.000002   0.000000   0.000000   0.000000   0.000000   0.000000
    12  H    0.000001   0.000000   0.000000   0.000000   0.000000   0.000000
    13  H    0.000003   0.000000   0.000000   0.000000   0.000000   0.000000
    14  H    0.000000   0.000000   0.000000   0.000000   0.000000   0.000000
    15  C   -0.003318   0.007753   0.000003   0.000001  -0.000004  -0.000002
    16  O   -0.001996  -0.002833  -0.000013  -0.000001   0.000001   0.000000
    17  N   -0.048426  -0.000827   0.002538   0.000105  -0.000156  -0.000008
    18  H    0.001027   0.000005   0.000223  -0.000008  -0.000007   0.000000
    19  C    0.351378  -0.075778  -0.098319  -0.001156   0.005586   0.000143
    20  H   -0.060314   0.002478   0.008376   0.002050   0.000080  -0.000020
    21  C   -0.053140   0.002523  -0.000498   0.000069  -0.000233   0.000037
    22  H   -0.004983   0.003132   0.000333  -0.000005  -0.000003  -0.000002
    23  H   -0.002307  -0.000163   0.000918  -0.000011  -0.000043  -0.000010
    24  H    0.005115  -0.000026  -0.000105  -0.000009   0.000004   0.000000
    25  C    4.218398   0.592184   0.262159  -0.013230  -0.030549  -0.000488
    26  O    0.592184   8.167742  -0.107965   0.001882   0.010502   0.006291
    27  N    0.262159  -0.107965   7.430814   0.306397   0.193927  -0.043923
    28  H   -0.013230   0.001882   0.306397   0.286248  -0.028772   0.002777
    29  C   -0.030549   0.010502   0.193927  -0.028772   5.053603   0.411216
    30  H   -0.000488   0.006291  -0.043923   0.002777   0.411216   0.484130
    31  C   -0.002129  -0.004186  -0.063871   0.002749   0.337242  -0.040760
    32  H    0.000180  -0.000005   0.000292   0.000486  -0.038525   0.003996
    33  H    0.000028   0.000009   0.004620  -0.000067  -0.037772   0.000029
    34  H    0.002083   0.004714  -0.005448  -0.000184  -0.029507  -0.003593
    35  C    0.003706   0.000481  -0.041414  -0.007881   0.376641  -0.042205
    36  O    0.000412  -0.000004  -0.010499   0.025437  -0.076107   0.001705
    37  N   -0.000106  -0.000001   0.002559   0.001102  -0.116649   0.003594
    38  H   -0.000004   0.000000   0.000005  -0.000033   0.000526   0.001257
    39  C    0.000002   0.000000  -0.000079  -0.000033   0.004349  -0.000102
    40  H    0.000000   0.000000  -0.000003  -0.000003   0.000145  -0.000001
    41  H    0.000000   0.000000   0.000006   0.000001  -0.000166  -0.000002
    42  H    0.000000   0.000000   0.000000   0.000000   0.000004  -0.000010
             31         32         33         34         35         36
     1  H    0.000000   0.000000   0.000000   0.000000   0.000000   0.000000
     2  C    0.000000   0.000000   0.000000   0.000000   0.000000   0.000000
     3  H    0.000000   0.000000   0.000000   0.000000   0.000000   0.000000
     4  H    0.000000   0.000000   0.000000   0.000000   0.000000   0.000000
     5  C    0.000000   0.000000   0.000000   0.000000   0.000000   0.000000
     6  O    0.000000   0.000000   0.000000   0.000000   0.000000   0.000000
     7  N    0.000000   0.000000   0.000000   0.000000   0.000000   0.000000
     8  H    0.000000   0.000000   0.000000   0.000000   0.000000   0.000000
     9  C    0.000000   0.000000   0.000000   0.000000   0.000000   0.000000
    10  H    0.000000   0.000000   0.000000   0.000001   0.000000   0.000000
    11  C    0.000000   0.000000   0.000000   0.000000   0.000000   0.000000
    12  H    0.000000   0.000000   0.000000   0.000000   0.000000   0.000000
    13  H    0.000000   0.000000   0.000000   0.000000   0.000000   0.000000
    14  H    0.000000   0.000000   0.000000   0.000000   0.000000   0.000000
    15  C    0.000002   0.000000   0.000000   0.000001   0.000000   0.000000
    16  O    0.000000   0.000000   0.000000   0.000000   0.000000   0.000000
    17  N    0.000026  -0.000001   0.000000  -0.000010  -0.000001   0.000000
    18  H   -0.000001   0.000001   0.000000   0.000002   0.000000   0.000000
    19  C   -0.000406  -0.000001   0.000004   0.000101   0.000005  -0.000059
    20  H    0.000013  -0.000001   0.000000  -0.000010  -0.000052  -0.000046
    21  C   -0.000003   0.000000   0.000000  -0.000001   0.000000   0.000000
    22  H    0.000000   0.000000   0.000000   0.000000   0.000000   0.000000
    23  H    0.000001   0.000000   0.000000   0.000000  -0.000002  -0.000001
    24  H    0.000000   0.000000   0.000000   0.000000   0.000000   0.000000
    25  C   -0.002129   0.000180   0.000028   0.002083   0.003706   0.000412
    26  O   -0.004186  -0.000005   0.000009   0.004714   0.000481  -0.000004
    27  N   -0.063871   0.000292   0.004620  -0.005448  -0.041414  -0.010499
    28  H    0.002749   0.000486  -0.000067  -0.000184  -0.007881   0.025437
    29  C    0.337242  -0.038525  -0.037772  -0.029507   0.376641  -0.076107
    30  H   -0.040760   0.003996   0.000029  -0.003593  -0.042205   0.001705
    31  C    5.144933   0.388502   0.382276   0.391607  -0.053195  -0.000819
    32  H    0.388502   0.517010  -0.024641  -0.023109  -0.003976   0.001413
    33  H    0.382276  -0.024641   0.538217  -0.022676  -0.003104   0.000020
    34  H    0.391607  -0.023109  -0.022676   0.469437   0.004145  -0.000071
    35  C   -0.053195  -0.003976  -0.003104   0.004145   4.161834   0.597693
    36  O   -0.000819   0.001413   0.000020  -0.000071   0.597693   8.182295
    37  N    0.001989   0.000392   0.002258  -0.000045   0.284205  -0.104371
    38  H    0.000370   0.000005   0.000598  -0.000038  -0.022252   0.002519
    39  C   -0.000259  -0.000010  -0.000005   0.000003  -0.028755   0.008456
    40  H   -0.000001   0.000003  -0.000011   0.000000  -0.003004   0.003043
    41  H   -0.000005   0.000000   0.000003   0.000000  -0.003781   0.001233
    42  H    0.000003  -0.000001  -0.000007   0.000000   0.004539   0.000355
             37         38         39         40         41         42
     1  H    0.000000   0.000000   0.000000   0.000000   0.000000   0.000000
     2  C    0.000000   0.000000   0.000000   0.000000   0.000000   0.000000
     3  H    0.000000   0.000000   0.000000   0.000000   0.000000   0.000000
     4  H    0.000000   0.000000   0.000000   0.000000   0.000000   0.000000
     5  C    0.000000   0.000000   0.000000   0.000000   0.000000   0.000000
     6  O    0.000000   0.000000   0.000000   0.000000   0.000000   0.000000
     7  N    0.000000   0.000000   0.000000   0.000000   0.000000   0.000000
     8  H    0.000000   0.000000   0.000000   0.000000   0.000000   0.000000
     9  C    0.000000   0.000000   0.000000   0.000000   0.000000   0.000000
    10  H    0.000000   0.000000   0.000000   0.000000   0.000000   0.000000
    11  C    0.000000   0.000000   0.000000   0.000000   0.000000   0.000000
    12  H    0.000000   0.000000   0.000000   0.000000   0.000000   0.000000
    13  H    0.000000   0.000000   0.000000   0.000000   0.000000   0.000000
    14  H    0.000000   0.000000   0.000000   0.000000   0.000000   0.000000
    15  C    0.000000   0.000000   0.000000   0.000000   0.000000   0.000000
    16  O    0.000000   0.000000   0.000000   0.000000   0.000000   0.000000
    17  N    0.000000   0.000000   0.000000   0.000000   0.000000   0.000000
    18  H    0.000000   0.000000   0.000000   0.000000   0.000000   0.000000
    19  C    0.000000   0.000000   0.000000   0.000000   0.000000   0.000000
    20  H    0.000000   0.000000   0.000000   0.000000   0.000000   0.000000
    21  C    0.000000   0.000000   0.000000   0.000000   0.000000   0.000000
    22  H    0.000000   0.000000   0.000000   0.000000   0.000000   0.000000
    23  H    0.000000   0.000000   0.000000   0.000000   0.000000   0.000000
    24  H    0.000000   0.000000   0.000000   0.000000   0.000000   0.000000
    25  C   -0.000106  -0.000004   0.000002   0.000000   0.000000   0.000000
    26  O   -0.000001   0.000000   0.000000   0.000000   0.000000   0.000000
    27  N    0.002559   0.000005  -0.000079  -0.000003   0.000006   0.000000
    28  H    0.001102  -0.000033  -0.000033  -0.000003   0.000001   0.000000
    29  C   -0.116649   0.000526   0.004349   0.000145  -0.000166   0.000004
    30  H    0.003594   0.001257  -0.000102  -0.000001  -0.000002  -0.000010
    31  C    0.001989   0.000370  -0.000259  -0.000001  -0.000005   0.000003
    32  H    0.000392   0.000005  -0.000010   0.000003   0.000000  -0.000001
    33  H    0.002258   0.000598  -0.000005  -0.000011   0.000003  -0.000007
    34  H   -0.000045  -0.000038   0.000003   0.000000   0.000000   0.000000
    35  C    0.284205  -0.022252  -0.028755  -0.003004  -0.003781   0.004539
    36  O   -0.104371   0.002519   0.008456   0.003043   0.001233   0.000355
    37  N    7.324381   0.328587   0.194102  -0.040762  -0.045369  -0.036959
    38  H    0.328587   0.319762  -0.022074   0.002474   0.001384  -0.004584
    39  C    0.194102  -0.022074   4.908975   0.404369   0.406322   0.397479
    40  H   -0.040762   0.002474   0.404369   0.488599  -0.032842  -0.024913
    41  H   -0.045369   0.001384   0.406322  -0.032842   0.518153  -0.030598
    42  H   -0.036959  -0.004584   0.397479  -0.024913  -0.030598   0.521228
 Mulliken atomic charges:
              1
     1  H    0.205127
     2  C   -0.574113
     3  H    0.174287
     4  H    0.202235
     5  C    0.755960
     6  O   -0.626152
     7  N   -0.822430
     8  H    0.422815
     9  C   -0.036587
    10  H    0.210308
    11  C   -0.482994
    12  H    0.177428
    13  H    0.157298
    14  H    0.211649
    15  C    0.792477
    16  O   -0.598822
    17  N   -0.815975
    18  H    0.381818
    19  C   -0.037833
    20  H    0.188550
    21  C   -0.495136
    22  H    0.239044
    23  H    0.162686
    24  H    0.177524
    25  C    0.784648
    26  O   -0.607868
    27  N   -0.841029
    28  H    0.422092
    29  C   -0.035335
    30  H    0.215952
    31  C   -0.484080
    32  H    0.177991
    33  H    0.160221
    34  H    0.212598
    35  C    0.776374
    36  O   -0.632604
    37  N   -0.798907
    38  H    0.391495
    39  C   -0.272740
    40  H    0.202905
    41  H    0.185661
    42  H    0.173463
 Sum of Mulliken atomic charges =   0.00000
 Mulliken charges with hydrogens summed into heavy atoms:
              1
     2  C    0.007536
     5  C    0.755960
     6  O   -0.626152
     7  N   -0.399615
     9  C    0.173721
    11  C    0.063381
    15  C    0.792477
    16  O   -0.598822
    17  N   -0.434157
    19  C    0.150718
    21  C    0.084119
    25  C    0.784648
    26  O   -0.607868
    27  N   -0.418937
    29  C    0.180617
    31  C    0.066730
    35  C    0.776374
    36  O   -0.632604
    37  N   -0.407412
    39  C    0.289289
 Sum of Mulliken charges with hydrogens summed into heavy atoms =   0.00000
 Electronic spatial extent (au):  <R**2>=           9540.6060
 Charge=              0.0000 electrons
 Dipole moment (field-independent basis, Debye):
    X=             -4.7766    Y=             -0.0742    Z=             -0.5774  Tot=              4.8119
 Quadrupole moment (field-independent basis, Debye-Ang):
   XX=           -106.2111   YY=           -117.3159   ZZ=           -126.8844
   XY=             15.4454   XZ=              2.1944   YZ=             10.7144
 Traceless Quadrupole moment (field-independent basis, Debye-Ang):
   XX=             10.5927   YY=             -0.5121   ZZ=            -10.0806
   XY=             15.4454   XZ=              2.1944   YZ=             10.7144
 Octapole moment (field-independent basis, Debye-Ang**2):
  XXX=           -166.7061  YYY=              1.0096  ZZZ=              1.8589  XYY=            -30.8934
  XXY=            -44.8743  XXZ=           -137.9504  XZZ=            -10.7884  YZZ=              1.8868
  YYZ=            -16.2851  XYZ=             34.8467
 Hexadecapole moment (field-independent basis, Debye-Ang**3):
 XXXX=          -9018.9866 YYYY=          -1657.3257 ZZZZ=           -638.0834 XXXY=            474.2262
 XXXZ=            -60.7513 YYYX=              0.8528 YYYZ=             27.9235 ZZZX=             -0.2245
 ZZZY=             18.0222 XXYY=          -1954.8142 XXZZ=          -1883.8291 YYZZ=           -393.9047
 XXYZ=            206.0054 YYXZ=            -42.8274 ZZXY=             47.1653
 N-N= 1.608963095019D+03 E-N=-5.526107328123D+03  KE= 9.830800484789D+02
 1\1\GINC-NODE001\FOpt\RHF\6-31G(d)\C12H22N4O4\MANAGER\27-Dec-2016\0\\#
  HF/6-31G* Opt=(ModRedundant, maxcycles=1000, calcfc) geom=nocrowd\\Ph
 i Psi fixed scan\\0,1\H,9.0981678201,2.0461887179,2.8435721981\C,8.121
 3195029,2.3742707753,3.1750458013\H,8.2355866619,3.1253059476,3.946890
 5092\H,7.6087882568,1.5149910974,3.5925585682\C,7.3421887931,2.8613050
 123,1.9725544811\O,7.2529849885,2.1991556586,0.9704853474\N,6.74671283
 19,4.0628171931,2.1039715579\H,6.890662229,4.6252591718,2.9125022544\C
 ,6.0121657229,4.6755096668,1.0252971902\H,6.5369438702,4.4729870892,0.
 0992609832\C,4.5829142765,4.1256209699,0.9181877312\H,4.0321915418,4.3
 333266748,1.8290740806\H,4.0466579015,4.5668712201,0.0845515483\H,4.62
 68208236,3.0550052331,0.769772924\C,5.9933995989,6.1835916212,1.284773
 6561\O,6.2096062721,6.625196922,2.3751845555\N,5.6119749086,6.93063249
 45,0.2063449594\H,5.589002014,6.4202053222,-0.6489265784\C,5.867467615
 4,8.3555788224,0.0123414031\H,5.448456559,8.5802507113,-0.9607323729\C
 ,5.1584540734,9.2220654389,1.0545995571\H,5.565392433,9.040537385,2.03
 72777481\H,5.2829957276,10.2718432426,0.8070150355\H,4.0992684847,8.99
 28173779,1.0599403097\C,7.3657323155,8.690117507,-0.0013772819\O,8.092
 388678,8.469073474,0.9274583361\N,7.8013642981,9.257530382,-1.14537625
 5\H,7.1786320803,9.4800493411,-1.889714136\C,9.1596586065,9.7203227015
 ,-1.3034590547\H,9.4839515133,10.1531825531,-0.3648951537\C,10.1144782
 936,8.5803462929,-1.6820646011\H,9.8197992767,8.1406767194,-2.62871848
 38\H,11.1363065011,8.9341416525,-1.770538579\H,10.0811558278,7.8187528
 196,-0.9144531344\C,9.149580886,10.7942186233,-2.3885184488\O,8.252415
 7236,10.87049207,-3.1885695448\N,10.2171851144,11.6099095462,-2.410885
 8419\H,10.8783758483,11.560188572,-1.6710542243\C,10.3485149233,12.666
 5809769,-3.3935289328\H,10.1832852272,12.2723691546,-4.3859156009\H,9.
 6362946644,13.464185479,-3.2174351827\H,11.3506573144,13.0689283688,-3
 .3358973288\\Version=EM64L-G09RevA.02\State=1-A\HF=-984.5516103\RMSD=5
 .162e-09\RMSF=1.668e-03\Dipole=0.6852269,1.6215437,-0.6964998\Quadrupo
 le=10.968622,-5.3004318,-5.6681903,10.52507,-2.4773663,-7.0689315\PG=C
 01 [X(C12H22N4O4)]\\@


 SUCCESS IS COUNTED SWEETEST
 BY THOSE WHO NE'ER SUCCEED.
 TO COMPREHEND NECTAR
 REQUIRES SOREST NEED.
           EMILY DICKINSON
 Job cpu time:  0 days  3 hours 24 minutes  6.7 seconds.
 File lengths (MBytes):  RWF=    553 Int=      0 D2E=      0 Chk=     11 Scr=      1
 Normal termination of Gaussian 09 at Tue Dec 27 14:39:38 2016.
