 Entering Gaussian System, Link 0=/home/steboss/local/g09/g09
 Initial command:
 /home/steboss/local//g09/l1.exe /tmp/Gau-26159.inp -scrdir=/tmp/
 Entering Link 1 = /home/steboss/local//g09/l1.exe PID=     26161.
  
 Copyright (c) 1988,1990,1992,1993,1995,1998,2003,2009, Gaussian, Inc.
                  All Rights Reserved.
  
 This is part of the Gaussian(R) 09 program.  It is based on
 the Gaussian(R) 03 system (copyright 2003, Gaussian, Inc.),
 the Gaussian(R) 98 system (copyright 1998, Gaussian, Inc.),
 the Gaussian(R) 94 system (copyright 1995, Gaussian, Inc.),
 the Gaussian 92(TM) system (copyright 1992, Gaussian, Inc.),
 the Gaussian 90(TM) system (copyright 1990, Gaussian, Inc.),
 the Gaussian 88(TM) system (copyright 1988, Gaussian, Inc.),
 the Gaussian 86(TM) system (copyright 1986, Carnegie Mellon
 University), and the Gaussian 82(TM) system (copyright 1983,
 Carnegie Mellon University). Gaussian is a federally registered
 trademark of Gaussian, Inc.
  
 This software contains proprietary and confidential information,
 including trade secrets, belonging to Gaussian, Inc.
  
 This software is provided under written license and may be
 used, copied, transmitted, or stored only in accord with that
 written license.
  
 The following legend is applicable only to US Government
 contracts under FAR:
  
                    RESTRICTED RIGHTS LEGEND
  
 Use, reproduction and disclosure by the US Government is
 subject to restrictions as set forth in subparagraphs (a)
 and (c) of the Commercial Computer Software - Restricted
 Rights clause in FAR 52.227-19.
  
 Gaussian, Inc.
 340 Quinnipiac St., Bldg. 40, Wallingford CT 06492
  
  
 ---------------------------------------------------------------
 Warning -- This program may not be used in any manner that
 competes with the business of Gaussian, Inc. or will provide
 assistance to any competitor of Gaussian, Inc.  The licensee
 of this program is prohibited from giving any competitor of
 Gaussian, Inc. access to this program.  By using this program,
 the user acknowledges that Gaussian, Inc. is engaged in the
 business of creating and licensing software in the field of
 computational chemistry and represents and warrants to the
 licensee that it is not a competitor of Gaussian, Inc. and that
 it will not use this program in any manner prohibited above.
 ---------------------------------------------------------------
  

 Cite this work as:
 Gaussian 09, Revision A.02,
 M. J. Frisch, G. W. Trucks, H. B. Schlegel, G. E. Scuseria, 
 M. A. Robb, J. R. Cheeseman, G. Scalmani, V. Barone, B. Mennucci, 
 G. A. Petersson, H. Nakatsuji, M. Caricato, X. Li, H. P. Hratchian, 
 A. F. Izmaylov, J. Bloino, G. Zheng, J. L. Sonnenberg, M. Hada, 
 M. Ehara, K. Toyota, R. Fukuda, J. Hasegawa, M. Ishida, T. Nakajima, 
 Y. Honda, O. Kitao, H. Nakai, T. Vreven, J. A. Montgomery, Jr., 
 J. E. Peralta, F. Ogliaro, M. Bearpark, J. J. Heyd, E. Brothers, 
 K. N. Kudin, V. N. Staroverov, R. Kobayashi, J. Normand, 
 K. Raghavachari, A. Rendell, J. C. Burant, S. S. Iyengar, J. Tomasi, 
 M. Cossi, N. Rega, J. M. Millam, M. Klene, J. E. Knox, J. B. Cross, 
 V. Bakken, C. Adamo, J. Jaramillo, R. Gomperts, R. E. Stratmann, 
 O. Yazyev, A. J. Austin, R. Cammi, C. Pomelli, J. W. Ochterski, 
 R. L. Martin, K. Morokuma, V. G. Zakrzewski, G. A. Voth, 
 P. Salvador, J. J. Dannenberg, S. Dapprich, A. D. Daniels, 
 O. Farkas, J. B. Foresman, J. V. Ortiz, J. Cioslowski, 
 and D. J. Fox, Gaussian, Inc., Wallingford CT, 2009.
 
 ******************************************
 Gaussian 09:  EM64L-G09RevA.02 11-Jun-2009
                19-Mar-2017 
 ******************************************
 %nproc=8
 Will use up to    8 processors via shared memory.
 %mem=4096MB
 %chk=IPolQout.vacu.chk
 ----------------------------------------------------------------------
 #MP2/cc-pvTZ density=MP2, maxdisk=16GB, pop=(minimal, MK), 5d, punch=m
 o
 ----------------------------------------------------------------------
 1/30=1,38=1/1;
 2/12=2,17=6,18=5,40=1/2;
 3/5=16,6=1,8=1,11=9,16=1,25=1,30=1,71=1/1,2,3;
 4//1;
 5/5=2,38=5/2;
 8/6=4,10=1/1;
 9/15=1,16=-3/6;
 10/5=1,13=10/2;
 6/7=2,8=2,9=2,10=2,15=8,20=1,22=2/1,2;
 99/5=1,9=1,10=32/99;
 -----------------
 Generated by mdgx
 -----------------
 Symbolic Z-matrix:
 Charge =  0 Multiplicity = 1
 H                     16.45325   17.14193   12.53283 
 C                     16.96511   16.39946   13.14506 
 H                     18.02458   16.48475   12.90348 
 H                     16.61929   15.37947   12.97732 
 C                     16.84098   16.85822   14.62384 
 O                     16.5917   18.01342   14.86917 
 N                     16.82787   15.91027   15.6066 
 H                     16.95375   14.93692   15.36819 
 C                     16.61836   16.20979   17.05298 
 H                     16.41044   15.2707   17.5658 
 C                     17.97072   16.67804   17.65126 
 H                     18.37051   17.61939   17.27428 
 H                     17.95314   16.79438   18.73489 
 H                     18.73248   15.92684   17.44267 
 C                     15.49045   17.16523   17.28683 
 O                     15.61956   18.08424   18.17246 
 N                     14.33687   17.05054   16.55908 
 H                     14.25411   16.17991   16.05386 
 C                     13.22155   17.98969   16.78709 
 H                     12.48266   18.04734   15.98783 
 H                     12.79537   17.72383   17.75446 
 H                     13.75384   18.94084   16.77845 
 
                          Input orientation:                          
 ---------------------------------------------------------------------
 Center     Atomic      Atomic             Coordinates (Angstroms)
 Number     Number       Type             X           Y           Z
 ---------------------------------------------------------------------
      1          1           0       16.453248   17.141933   12.532827
      2          6           0       16.965114   16.399458   13.145056
      3          1           0       18.024580   16.484746   12.903484
      4          1           0       16.619289   15.379473   12.977318
      5          6           0       16.840977   16.858216   14.623836
      6          8           0       16.591701   18.013419   14.869166
      7          7           0       16.827865   15.910272   15.606597
      8          1           0       16.953746   14.936918   15.368194
      9          6           0       16.618355   16.209789   17.052984
     10          1           0       16.410436   15.270701   17.565802
     11          6           0       17.970715   16.678040   17.651263
     12          1           0       18.370514   17.619394   17.274284
     13          1           0       17.953139   16.794378   18.734894
     14          1           0       18.732482   15.926841   17.442669
     15          6           0       15.490452   17.165226   17.286826
     16          8           0       15.619560   18.084237   18.172455
     17          7           0       14.336871   17.050545   16.559081
     18          1           0       14.254105   16.179912   16.053861
     19          6           0       13.221546   17.989691   16.787092
     20          1           0       12.482659   18.047343   15.987828
     21          1           0       12.795372   17.723832   17.754457
     22          1           0       13.753840   18.940842   16.778453
 ---------------------------------------------------------------------
                    Distance matrix (angstroms):
                    1          2          3          4          5
     1  H    0.000000
     2  C    1.090000   0.000000
     3  H    1.743091   1.090000   0.000000
     4  H    1.825214   1.090000   1.789392   0.000000
     5  C    2.145495   1.553273   2.121322   2.224151   0.000000
     6  O    2.497426   2.390996   2.872959   3.243073   1.206988
     7  N    3.332475   2.513428   3.011473   2.690420   1.365500
     8  H    3.626554   2.661108   3.101170   2.454385   2.063534
     9  C    4.618222   3.927864   4.389923   4.159385   2.524040
    10  H    5.369747   4.596167   5.081002   4.594522   3.370569
    11  C    5.358758   4.625444   4.752017   5.035711   3.236369
    12  H    5.136661   4.529229   4.528906   5.152470   3.153371
    13  H    6.390313   5.690206   5.840062   6.077071   4.259317
    14  H    5.547783   4.670806   4.627806   4.970368   3.520095
    15  C    4.850569   4.462654   5.108674   4.799483   3.001614
    16  O    5.778268   5.470260   6.008707   5.941772   3.948125
    17  N    4.549519   4.357424   5.223286   4.564092   3.170601
    18  H    4.261384   3.982325   4.922833   3.962311   3.032651
    19  C    5.409377   5.459631   6.357390   5.733435   4.365798
    20  H    5.340635   5.557813   6.532058   5.769957   4.719050
    21  H    6.401881   6.355099   7.239606   6.552817   5.188159
    22  H    5.343053   5.474713   6.267936   5.944979   4.302339
                    6          7          8          9         10
     6  O    0.000000
     7  N    2.241162   0.000000
     8  H    3.137669   1.010000   0.000000
     9  C    2.832464   1.491858   2.138038   0.000000
    10  H    3.850612   2.102804   2.288248   1.090000   0.000000
    11  C    3.380086   2.465001   3.046003   1.551152   2.102945
    12  H    3.017287   2.842894   3.582749   2.259650   3.072987
    13  H    4.275912   3.440077   3.972860   2.225357   2.463392
    14  H    3.944575   2.645563   2.906424   2.168282   2.416109
    15  C    2.788774   2.487318   3.284468   1.496565   2.124481
    16  O    3.444096   3.573480   4.421488   2.400909   2.984878
    17  N    2.977784   2.900431   3.568426   2.481125   2.912216
    18  H    3.198376   2.626212   3.050120   2.566870   2.786107
    19  C    3.877751   4.327019   5.026133   3.844095   4.262431
    20  H    4.258730   4.857286   5.481725   4.649209   5.062329
    21  H    4.777120   4.915618   5.545558   4.171281   4.372885
    22  H    3.543860   4.472945   5.315980   3.967299   4.598625
                   11         12         13         14         15
    11  C    0.000000
    12  H    1.090000   0.000000
    13  H    1.090000   1.728651   0.000000
    14  H    1.090000   1.738997   1.740644   0.000000
    15  C    2.553795   2.915679   2.880843   3.473995   0.000000
    16  O    2.788721   2.930963   2.725008   3.857102   1.282806
    17  N    3.812669   4.135865   4.228141   4.622211   1.368763
    18  H    4.075907   4.528395   4.609594   4.695604   2.004894
    19  C    5.002183   5.185205   5.254587   5.920773   2.465241
    20  H    5.895826   6.041932   6.248396   6.758209   3.392985
    21  H    5.280957   5.596756   5.331763   6.210931   2.791805
    22  H    4.864577   4.827603   5.105789   5.857667   2.535168
                   16         17         18         19         20
    16  O    0.000000
    17  N    2.305816   0.000000
    18  H    3.159013   1.010000   0.000000
    19  C    2.771036   1.475783   2.208871   0.000000
    20  H    3.822840   2.181293   2.574817   1.090000   0.000000
    21  H    2.877612   2.063603   2.720959   1.090000   1.823027
    22  H    2.481517   1.990295   2.897937   1.090000   1.743368
                   21         22
    21  H    0.000000
    22  H    1.830945   0.000000
 Stoichiometry    C6H12N2O2
 Framework group  C1[X(C6H12N2O2)]
 Deg. of freedom    60
 Full point group                 C1      NOp   1
 Largest Abelian subgroup         C1      NOp   1
 Largest concise Abelian subgroup C1      NOp   1
                         Standard orientation:                         
 ---------------------------------------------------------------------
 Center     Atomic      Atomic             Coordinates (Angstroms)
 Number     Number       Type             X           Y           Z
 ---------------------------------------------------------------------
      1          1           0       -2.921600   -2.122316    0.518559
      2          6           0       -2.978331   -1.196251   -0.053530
      3          1           0       -3.777224   -0.608427    0.398503
      4          1           0       -3.173977   -1.348240   -1.115001
      5          6           0       -1.672985   -0.402240    0.226249
      6          8           0       -1.021728   -0.656278    1.210194
      7          7           0       -1.191347    0.431720   -0.741804
      8          1           0       -1.712761    0.564060   -1.596622
      9          6           0        0.097836    1.175243   -0.637767
     10          1           0        0.349020    1.556115   -1.627688
     11          6           0       -0.146285    2.451354    0.209593
     12          1           0       -0.411670    2.298343    1.255661
     13          1           0        0.705460    3.131135    0.232571
     14          1           0       -0.969746    3.017083   -0.226254
     15          6           0        1.218035    0.320087   -0.134213
     16          8           0        2.053340    0.810767    0.706674
     17          7           0        1.342077   -0.970379   -0.573331
     18          1           0        0.776031   -1.186048   -1.381526
     19          6           0        2.445832   -1.816976   -0.080448
     20          1           0        2.312508   -2.890543   -0.213785
     21          1           0        3.353431   -1.430900   -0.544462
     22          1           0        2.377905   -1.632862    0.991741
 ---------------------------------------------------------------------
 Rotational constants (GHZ):      1.7306220      1.0483912      0.7770900
 Standard basis: CC-pVTZ (5D, 7F)
 There are   468 symmetry adapted basis functions of A   symmetry.
 Integral buffers will be    131072 words long.
 Raffenetti 1 integral format.
 Two-electron integral symmetry is turned on.
   468 basis functions,   724 primitive gaussians,   530 cartesian basis functions
    39 alpha electrons       39 beta electrons
       nuclear repulsion energy       566.7047678049 Hartrees.
 NAtoms=   22 NActive=   22 NUniq=   22 SFac= 7.50D-01 NAtFMM=   80 NAOKFM=F Big=F
 One-electron integrals computed using PRISM.
 NBasis=   468 RedAO= T  NBF=   468
 NBsUse=   468 1.00D-06 NBFU=   468
 Harris functional with IExCor=  205 diagonalized for initial guess.
 ExpMin= 1.03D-01 ExpMax= 1.53D+04 ExpMxC= 5.22D+02 IAcc=1 IRadAn=         1 AccDes= 0.00D+00
 HarFok:  IExCor=  205 AccDes= 0.00D+00 IRadAn=         1 IDoV= 1
 ScaDFX=  1.000000  1.000000  1.000000  1.000000
 FoFCou: FMM=F IPFlag=           0 FMFlag=      100000 FMFlg1=           0
         NFxFlg=           0 DoJE=T BraDBF=F KetDBF=T FulRan=T
         Omega=  0.000000  0.000000  1.000000  0.000000  0.000000 ICntrl=     500 IOpCl=  0
         NMat0=    1 NMatS0=    1 NMatT0=    0 NMatD0=    1 NMtDS0=    0 NMtDT0=    0
         I1Cent=           4 NGrid=           0.
 Petite list used in FoFCou.
 Initial guess orbital symmetries:
       Occupied  (A) (A) (A) (A) (A) (A) (A) (A) (A) (A) (A) (A)
                 (A) (A) (A) (A) (A) (A) (A) (A) (A) (A) (A) (A)
                 (A) (A) (A) (A) (A) (A) (A) (A) (A) (A) (A) (A)
                 (A) (A) (A)
       Virtual   (A) (A) (A) (A) (A) (A) (A) (A) (A) (A) (A) (A)
                 (A) (A) (A) (A) (A) (A) (A) (A) (A) (A) (A) (A)
                 (A) (A) (A) (A) (A) (A) (A) (A) (A) (A) (A) (A)
                 (A) (A) (A) (A) (A) (A) (A) (A) (A) (A) (A) (A)
                 (A) (A) (A) (A) (A) (A) (A) (A) (A) (A) (A) (A)
                 (A) (A) (A) (A) (A) (A) (A) (A) (A) (A) (A) (A)
                 (A) (A) (A) (A) (A) (A) (A) (A) (A) (A) (A) (A)
                 (A) (A) (A) (A) (A) (A) (A) (A) (A) (A) (A) (A)
                 (A) (A) (A) (A) (A) (A) (A) (A) (A) (A) (A) (A)
                 (A) (A) (A) (A) (A) (A) (A) (A) (A) (A) (A) (A)
                 (A) (A) (A) (A) (A) (A) (A) (A) (A) (A) (A) (A)
                 (A) (A) (A) (A) (A) (A) (A) (A) (A) (A) (A) (A)
                 (A) (A) (A) (A) (A) (A) (A) (A) (A) (A) (A) (A)
                 (A) (A) (A) (A) (A) (A) (A) (A) (A) (A) (A) (A)
                 (A) (A) (A) (A) (A) (A) (A) (A) (A) (A) (A) (A)
                 (A) (A) (A) (A) (A) (A) (A) (A) (A) (A) (A) (A)
                 (A) (A) (A) (A) (A) (A) (A) (A) (A) (A) (A) (A)
                 (A) (A) (A) (A) (A) (A) (A) (A) (A) (A) (A) (A)
                 (A) (A) (A) (A) (A) (A) (A) (A) (A) (A) (A) (A)
                 (A) (A) (A) (A) (A) (A) (A) (A) (A) (A) (A) (A)
                 (A) (A) (A) (A) (A) (A) (A) (A) (A) (A) (A) (A)
                 (A) (A) (A) (A) (A) (A) (A) (A) (A) (A) (A) (A)
                 (A) (A) (A) (A) (A) (A) (A) (A) (A) (A) (A) (A)
                 (A) (A) (A) (A) (A) (A) (A) (A) (A) (A) (A) (A)
                 (A) (A) (A) (A) (A) (A) (A) (A) (A) (A) (A) (A)
                 (A) (A) (A) (A) (A) (A) (A) (A) (A) (A) (A) (A)
                 (A) (A) (A) (A) (A) (A) (A) (A) (A) (A) (A) (A)
                 (A) (A) (A) (A) (A) (A) (A) (A) (A) (A) (A) (A)
                 (A) (A) (A) (A) (A) (A) (A) (A) (A) (A) (A) (A)
                 (A) (A) (A) (A) (A) (A) (A) (A) (A) (A) (A) (A)
                 (A) (A) (A) (A) (A) (A) (A) (A) (A) (A) (A) (A)
                 (A) (A) (A) (A) (A) (A) (A) (A) (A) (A) (A) (A)
                 (A) (A) (A) (A) (A) (A) (A) (A) (A) (A) (A) (A)
                 (A) (A) (A) (A) (A) (A) (A) (A) (A) (A) (A) (A)
                 (A) (A) (A) (A) (A) (A) (A) (A) (A) (A) (A) (A)
                 (A) (A) (A) (A) (A) (A) (A) (A) (A)
 The electronic state of the initial guess is 1-A.
 Requested convergence on RMS density matrix=1.00D-08 within 128 cycles.
 Requested convergence on MAX density matrix=1.00D-06.
 Requested convergence on             energy=1.00D-06.
 No special actions if energy rises.
 Integral accuracy reduced to 1.0D-05 until final iterations.
 Initial convergence to 1.0D-05 achieved.  Increase integral accuracy.
 SCF Done:  E(RHF) =  -493.000784904     A.U. after   15 cycles
             Convg  =    0.3966D-08             -V/T =  2.0021
 ExpMin= 1.03D-01 ExpMax= 1.53D+04 ExpMxC= 5.22D+02 IAcc=1 IRadAn=         1 AccDes= 0.00D+00
 HarFok:  IExCor=  205 AccDes= 0.00D+00 IRadAn=         1 IDoV=-2
 ScaDFX=  1.000000  1.000000  1.000000  1.000000
 Range of M.O.s used for correlation:    11   468
 NBasis=   468 NAE=    39 NBE=    39 NFC=    10 NFV=     0
 NROrb=    458 NOA=    29 NOB=    29 NVA=   429 NVB=   429

 **** Warning!!: The largest alpha MO coefficient is  0.10771379D+02

 Disk-based method using ON**2 memory for  8 occupieds at a time.
 Estimated scratch disk usage=  1917621644 words.
 Actual    scratch disk usage=  1755059596 words.
 JobTyp=1 Pass  1:  I=  11 to  18 NPSUse=  8 ParTrn=T ParDer=T DoDerP=T.
 JobTyp=1 Pass  2:  I=  19 to  25 NPSUse=  8 ParTrn=T ParDer=T DoDerP=T.
 JobTyp=1 Pass  3:  I=  26 to  32 NPSUse=  8 ParTrn=T ParDer=T DoDerP=T.
 JobTyp=1 Pass  4:  I=  33 to  39 NPSUse=  8 ParTrn=T ParDer=T DoDerP=T.
 Spin components of T(2) and E(2):
     alpha-alpha T2 =       0.7116800939D-01 E2=     -0.2331834209D+00
     alpha-beta  T2 =       0.4036515393D+00 E2=     -0.1426030407D+01
     beta-beta   T2 =       0.7116800939D-01 E2=     -0.2331834209D+00
 ANorm=    0.1243377480D+01
 E2 =    -0.1892397249D+01 EUMP2 =    -0.49489318215310D+03
          Differentiating once with respect to electric field.
                with respect to dipole field.
          Electric field/nuclear overlap derivatives assumed to be zero.
          There are     1 degrees of freedom in the 1st order CPHF.  IDoFFX=0.
 LinEq1:  Iter=  0 NonCon=     1 RMS=2.89D-03 Max=9.49D-02
 AX will form     1 AO Fock derivatives at one time.
 LinEq1:  Iter=  1 NonCon=     1 RMS=8.57D-04 Max=1.49D-02
 LinEq1:  Iter=  2 NonCon=     1 RMS=3.30D-04 Max=9.57D-03
 LinEq1:  Iter=  3 NonCon=     1 RMS=1.53D-04 Max=3.33D-03
 LinEq1:  Iter=  4 NonCon=     1 RMS=4.47D-05 Max=9.40D-04
 LinEq1:  Iter=  5 NonCon=     1 RMS=1.52D-05 Max=2.06D-04
 LinEq1:  Iter=  6 NonCon=     1 RMS=6.58D-06 Max=2.25D-04
 LinEq1:  Iter=  7 NonCon=     1 RMS=2.54D-06 Max=5.70D-05
 LinEq1:  Iter=  8 NonCon=     1 RMS=9.83D-07 Max=2.09D-05
 LinEq1:  Iter=  9 NonCon=     1 RMS=3.56D-07 Max=7.57D-06
 LinEq1:  Iter= 10 NonCon=     1 RMS=1.05D-07 Max=1.89D-06
 LinEq1:  Iter= 11 NonCon=     1 RMS=3.53D-08 Max=8.44D-07
 LinEq1:  Iter= 12 NonCon=     1 RMS=1.15D-08 Max=2.81D-07
 LinEq1:  Iter= 13 NonCon=     1 RMS=3.96D-09 Max=7.12D-08
 LinEq1:  Iter= 14 NonCon=     1 RMS=1.35D-09 Max=2.60D-08
 LinEq1:  Iter= 15 NonCon=     1 RMS=4.29D-10 Max=4.97D-09
 LinEq1:  Iter= 16 NonCon=     1 RMS=1.29D-10 Max=2.17D-09
 LinEq1:  Iter= 17 NonCon=     0 RMS=2.97D-11 Max=5.09D-10
 Linear equations converged to 1.000D-10 1.000D-09 after    17 iterations.
 End of Minotr Frequency-dependent properties file   721 does not exist.
 End of Minotr Frequency-dependent properties file   722 does not exist.

 **********************************************************************

            Population analysis using the MP2 density.

 **********************************************************************

 Orbital symmetries:
       Occupied  (A) (A) (A) (A) (A) (A) (A) (A) (A) (A) (A) (A)
                 (A) (A) (A) (A) (A) (A) (A) (A) (A) (A) (A) (A)
                 (A) (A) (A) (A) (A) (A) (A) (A) (A) (A) (A) (A)
                 (A) (A) (A)
       Virtual   (A) (A) (A) (A) (A) (A) (A) (A) (A) (A) (A) (A)
                 (A) (A) (A) (A) (A) (A) (A) (A) (A) (A) (A) (A)
                 (A) (A) (A) (A) (A) (A) (A) (A) (A) (A) (A) (A)
                 (A) (A) (A) (A) (A) (A) (A) (A) (A) (A) (A) (A)
                 (A) (A) (A) (A) (A) (A) (A) (A) (A) (A) (A) (A)
                 (A) (A) (A) (A) (A) (A) (A) (A) (A) (A) (A) (A)
                 (A) (A) (A) (A) (A) (A) (A) (A) (A) (A) (A) (A)
                 (A) (A) (A) (A) (A) (A) (A) (A) (A) (A) (A) (A)
                 (A) (A) (A) (A) (A) (A) (A) (A) (A) (A) (A) (A)
                 (A) (A) (A) (A) (A) (A) (A) (A) (A) (A) (A) (A)
                 (A) (A) (A) (A) (A) (A) (A) (A) (A) (A) (A) (A)
                 (A) (A) (A) (A) (A) (A) (A) (A) (A) (A) (A) (A)
                 (A) (A) (A) (A) (A) (A) (A) (A) (A) (A) (A) (A)
                 (A) (A) (A) (A) (A) (A) (A) (A) (A) (A) (A) (A)
                 (A) (A) (A) (A) (A) (A) (A) (A) (A) (A) (A) (A)
                 (A) (A) (A) (A) (A) (A) (A) (A) (A) (A) (A) (A)
                 (A) (A) (A) (A) (A) (A) (A) (A) (A) (A) (A) (A)
                 (A) (A) (A) (A) (A) (A) (A) (A) (A) (A) (A) (A)
                 (A) (A) (A) (A) (A) (A) (A) (A) (A) (A) (A) (A)
                 (A) (A) (A) (A) (A) (A) (A) (A) (A) (A) (A) (A)
                 (A) (A) (A) (A) (A) (A) (A) (A) (A) (A) (A) (A)
                 (A) (A) (A) (A) (A) (A) (A) (A) (A) (A) (A) (A)
                 (A) (A) (A) (A) (A) (A) (A) (A) (A) (A) (A) (A)
                 (A) (A) (A) (A) (A) (A) (A) (A) (A) (A) (A) (A)
                 (A) (A) (A) (A) (A) (A) (A) (A) (A) (A) (A) (A)
                 (A) (A) (A) (A) (A) (A) (A) (A) (A) (A) (A) (A)
                 (A) (A) (A) (A) (A) (A) (A) (A) (A) (A) (A) (A)
                 (A) (A) (A) (A) (A) (A) (A) (A) (A) (A) (A) (A)
                 (A) (A) (A) (A) (A) (A) (A) (A) (A) (A) (A) (A)
                 (A) (A) (A) (A) (A) (A) (A) (A) (A) (A) (A) (A)
                 (A) (A) (A) (A) (A) (A) (A) (A) (A) (A) (A) (A)
                 (A) (A) (A) (A) (A) (A) (A) (A) (A) (A) (A) (A)
                 (A) (A) (A) (A) (A) (A) (A) (A) (A) (A) (A) (A)
                 (A) (A) (A) (A) (A) (A) (A) (A) (A) (A) (A) (A)
                 (A) (A) (A) (A) (A) (A) (A) (A) (A) (A) (A) (A)
                 (A) (A) (A) (A) (A) (A) (A) (A) (A)
 The electronic state is 1-A.
 Alpha  occ. eigenvalues --  -20.51632 -20.49952 -15.59545 -15.57801 -11.35439
 Alpha  occ. eigenvalues --  -11.34663 -11.29796 -11.25428 -11.24556 -11.21577
 Alpha  occ. eigenvalues --   -1.39197  -1.33381  -1.23595  -1.20580  -1.04789
 Alpha  occ. eigenvalues --   -0.98887  -0.95195  -0.87848  -0.80915  -0.75949
 Alpha  occ. eigenvalues --   -0.71006  -0.69370  -0.64762  -0.63261  -0.62269
 Alpha  occ. eigenvalues --   -0.61050  -0.59020  -0.58074  -0.57596  -0.55169
 Alpha  occ. eigenvalues --   -0.53125  -0.52479  -0.51763  -0.51039  -0.48598
 Alpha  occ. eigenvalues --   -0.42027  -0.41914  -0.39689  -0.37709
 Alpha virt. eigenvalues --    0.10459   0.14522   0.15050   0.16376   0.17938
 Alpha virt. eigenvalues --    0.18736   0.19119   0.19776   0.20845   0.22223
 Alpha virt. eigenvalues --    0.22684   0.23537   0.24705   0.25343   0.27912
 Alpha virt. eigenvalues --    0.28750   0.31885   0.34404   0.35017   0.35925
 Alpha virt. eigenvalues --    0.36711   0.39235   0.39791   0.41640   0.42587
 Alpha virt. eigenvalues --    0.44736   0.45526   0.47238   0.49042   0.49913
 Alpha virt. eigenvalues --    0.51237   0.53072   0.53859   0.55068   0.56528
 Alpha virt. eigenvalues --    0.56740   0.59259   0.59512   0.60491   0.61129
 Alpha virt. eigenvalues --    0.61331   0.62346   0.63507   0.63755   0.64265
 Alpha virt. eigenvalues --    0.64738   0.65109   0.65788   0.66448   0.68460
 Alpha virt. eigenvalues --    0.69850   0.70530   0.70915   0.72590   0.72865
 Alpha virt. eigenvalues --    0.74590   0.76004   0.77263   0.77895   0.80736
 Alpha virt. eigenvalues --    0.81477   0.83585   0.84358   0.85046   0.87658
 Alpha virt. eigenvalues --    0.89508   0.91153   0.91631   0.93956   0.95054
 Alpha virt. eigenvalues --    0.95941   0.97639   0.98622   1.00585   1.01934
 Alpha virt. eigenvalues --    1.03586   1.05560   1.07149   1.07875   1.08733
 Alpha virt. eigenvalues --    1.09817   1.10534   1.12807   1.14074   1.14661
 Alpha virt. eigenvalues --    1.15953   1.16471   1.17812   1.18507   1.19820
 Alpha virt. eigenvalues --    1.21329   1.22443   1.23720   1.25053   1.26356
 Alpha virt. eigenvalues --    1.27649   1.28459   1.29340   1.30683   1.32908
 Alpha virt. eigenvalues --    1.33610   1.34508   1.36412   1.37592   1.38749
 Alpha virt. eigenvalues --    1.40886   1.41670   1.44914   1.45065   1.46339
 Alpha virt. eigenvalues --    1.47417   1.48453   1.49870   1.49972   1.52043
 Alpha virt. eigenvalues --    1.53049   1.53581   1.54113   1.55158   1.57092
 Alpha virt. eigenvalues --    1.58278   1.59130   1.60292   1.61360   1.63605
 Alpha virt. eigenvalues --    1.64059   1.65074   1.66123   1.67392   1.70417
 Alpha virt. eigenvalues --    1.73153   1.74939   1.75997   1.76680   1.78059
 Alpha virt. eigenvalues --    1.79779   1.81256   1.82607   1.84430   1.85170
 Alpha virt. eigenvalues --    1.87437   1.89386   1.93076   1.94725   2.00808
 Alpha virt. eigenvalues --    2.02162   2.06102   2.06771   2.10739   2.12554
 Alpha virt. eigenvalues --    2.16984   2.18746   2.22886   2.28986   2.35124
 Alpha virt. eigenvalues --    2.37782   2.43147   2.44087   2.49100   2.51378
 Alpha virt. eigenvalues --    2.52418   2.55329   2.56463   2.59680   2.60519
 Alpha virt. eigenvalues --    2.62169   2.64915   2.66930   2.68999   2.71904
 Alpha virt. eigenvalues --    2.75073   2.76055   2.77086   2.81396   2.82155
 Alpha virt. eigenvalues --    2.84456   2.85956   2.86790   2.89066   2.91184
 Alpha virt. eigenvalues --    2.93350   2.94019   2.94629   2.98014   2.99850
 Alpha virt. eigenvalues --    3.01040   3.02209   3.04083   3.04843   3.06671
 Alpha virt. eigenvalues --    3.08128   3.10143   3.11587   3.12212   3.12914
 Alpha virt. eigenvalues --    3.14114   3.14889   3.15892   3.16941   3.17323
 Alpha virt. eigenvalues --    3.19167   3.21244   3.22231   3.24197   3.26178
 Alpha virt. eigenvalues --    3.27905   3.28689   3.29937   3.30862   3.32132
 Alpha virt. eigenvalues --    3.33218   3.34415   3.35985   3.36840   3.37775
 Alpha virt. eigenvalues --    3.38556   3.40462   3.40885   3.42297   3.42875
 Alpha virt. eigenvalues --    3.44360   3.45524   3.46037   3.46202   3.48523
 Alpha virt. eigenvalues --    3.50247   3.52866   3.54489   3.56537   3.57080
 Alpha virt. eigenvalues --    3.57354   3.58553   3.59413   3.62009   3.62856
 Alpha virt. eigenvalues --    3.64182   3.64908   3.65865   3.67474   3.68829
 Alpha virt. eigenvalues --    3.70287   3.71149   3.71800   3.71946   3.72705
 Alpha virt. eigenvalues --    3.74797   3.75679   3.76628   3.78136   3.79248
 Alpha virt. eigenvalues --    3.79789   3.81263   3.81564   3.82739   3.84921
 Alpha virt. eigenvalues --    3.85635   3.87017   3.88503   3.89511   3.91558
 Alpha virt. eigenvalues --    3.93345   3.95069   3.96438   3.96728   3.99313
 Alpha virt. eigenvalues --    4.01213   4.04053   4.05168   4.05988   4.07762
 Alpha virt. eigenvalues --    4.08172   4.10577   4.11959   4.13004   4.14644
 Alpha virt. eigenvalues --    4.16972   4.18176   4.18839   4.19518   4.20461
 Alpha virt. eigenvalues --    4.22004   4.22847   4.24833   4.26834   4.27524
 Alpha virt. eigenvalues --    4.28804   4.30808   4.31300   4.33130   4.33466
 Alpha virt. eigenvalues --    4.35518   4.36012   4.37254   4.38577   4.38817
 Alpha virt. eigenvalues --    4.40411   4.40656   4.43195   4.43973   4.45458
 Alpha virt. eigenvalues --    4.48273   4.48787   4.49397   4.50725   4.51934
 Alpha virt. eigenvalues --    4.54201   4.55698   4.56612   4.57470   4.60472
 Alpha virt. eigenvalues --    4.61994   4.63504   4.65009   4.65453   4.66818
 Alpha virt. eigenvalues --    4.67755   4.72177   4.72962   4.76925   4.78111
 Alpha virt. eigenvalues --    4.81111   4.81923   4.85311   4.87150   4.89883
 Alpha virt. eigenvalues --    4.91628   4.96547   4.98659   5.02022   5.06548
 Alpha virt. eigenvalues --    5.08657   5.10526   5.13503   5.13996   5.15297
 Alpha virt. eigenvalues --    5.18484   5.20952   5.21763   5.22152   5.23991
 Alpha virt. eigenvalues --    5.24955   5.25334   5.29471   5.30064   5.33057
 Alpha virt. eigenvalues --    5.33700   5.36682   5.37887   5.41178   5.42422
 Alpha virt. eigenvalues --    5.44775   5.47087   5.47821   5.49829   5.50051
 Alpha virt. eigenvalues --    5.54705   5.57036   5.57239   5.58359   5.60976
 Alpha virt. eigenvalues --    5.61426   5.61843   5.62851   5.63330   5.66124
 Alpha virt. eigenvalues --    5.66386   5.67027   5.68985   5.71363   5.72724
 Alpha virt. eigenvalues --    5.74254   5.75737   5.76605   5.77259   5.78720
 Alpha virt. eigenvalues --    5.81368   5.82649   5.83623   5.86524   5.88682
 Alpha virt. eigenvalues --    5.94985   5.99045   6.02901   6.03770   6.05773
 Alpha virt. eigenvalues --    6.11396   6.14070   6.18959   6.19677   6.21802
 Alpha virt. eigenvalues --    6.23144   6.26601   6.28278   6.32098   6.32328
 Alpha virt. eigenvalues --    6.36431   6.39745   6.43556   6.48033   6.50712
 Alpha virt. eigenvalues --    6.55568   6.61101   6.72101   6.82086   6.83338
 Alpha virt. eigenvalues --    6.92781   6.96938   6.99167   7.00615   7.08779
 Alpha virt. eigenvalues --    7.11752   7.19724   7.34934   7.39269   7.40098
 Alpha virt. eigenvalues --    7.59084   7.62288   7.64101   7.65825   9.95584
 Alpha virt. eigenvalues --   10.39493  12.52649  12.74800  13.20493  13.65295
 Alpha virt. eigenvalues --   13.77934  14.06328  14.21285  14.23110
          Condensed to atoms (all electrons):
              1          2          3          4          5          6
     1  H    0.543722   0.365952  -0.019747  -0.023675  -0.029843   0.009203
     2  C    0.365952   5.133378   0.365532   0.363887   0.303249  -0.076374
     3  H   -0.019747   0.365532   0.568145  -0.025922  -0.027899   0.001116
     4  H   -0.023675   0.363887  -0.025922   0.605682  -0.046734   0.003107
     5  C   -0.029843   0.303249  -0.027899  -0.046734   4.703986   0.707323
     6  O    0.009203  -0.076374   0.001116   0.003107   0.707323   7.770164
     7  N    0.003927  -0.082149   0.000985   0.015544   0.294672  -0.143736
     8  H   -0.000342   0.001311  -0.000125  -0.002952  -0.015467   0.006063
     9  C   -0.000666   0.005984  -0.000199   0.000483  -0.053514   0.009452
    10  H    0.000020  -0.000180   0.000008  -0.000050   0.005633   0.000275
    11  C   -0.000037  -0.000732   0.000170   0.000150  -0.009804  -0.004552
    12  H   -0.000013   0.000334  -0.000081  -0.000020   0.002849   0.005912
    13  H    0.000001   0.000022  -0.000006  -0.000003   0.000544  -0.000104
    14  H    0.000015   0.000010  -0.000018  -0.000057  -0.001255  -0.000156
    15  C    0.000297  -0.000269  -0.000113  -0.000396  -0.011206   0.020507
    16  O    0.000000  -0.000014   0.000000   0.000002  -0.000843  -0.002109
    17  N    0.000208  -0.001071   0.000030   0.000157   0.017758  -0.017410
    18  H   -0.000224   0.000185   0.000024   0.000299  -0.001675  -0.002711
    19  C    0.000024  -0.000028   0.000001  -0.000021   0.000209   0.001472
    20  H    0.000002  -0.000004   0.000000   0.000000  -0.000144   0.000007
    21  H    0.000001  -0.000001   0.000000   0.000000   0.000224   0.000029
    22  H    0.000005   0.000016  -0.000001  -0.000007  -0.000901   0.001624
              7          8          9         10         11         12
     1  H    0.003927  -0.000342  -0.000666   0.000020  -0.000037  -0.000013
     2  C   -0.082149   0.001311   0.005984  -0.000180  -0.000732   0.000334
     3  H    0.000985  -0.000125  -0.000199   0.000008   0.000170  -0.000081
     4  H    0.015544  -0.002952   0.000483  -0.000050   0.000150  -0.000020
     5  C    0.294672  -0.015467  -0.053514   0.005633  -0.009804   0.002849
     6  O   -0.143736   0.006063   0.009452   0.000275  -0.004552   0.005912
     7  N    6.708060   0.305496   0.206892  -0.027278  -0.060848  -0.007178
     8  H    0.305496   0.545439  -0.022593  -0.008183   0.000832   0.000103
     9  C    0.206892  -0.022593   5.397700   0.363832   0.301242  -0.018470
    10  H   -0.027278  -0.008183   0.363832   0.566168  -0.034460   0.004873
    11  C   -0.060848   0.000832   0.301242  -0.034460   5.128574   0.377292
    12  H   -0.007178   0.000103  -0.018470   0.004873   0.377292   0.544218
    13  H    0.007281  -0.000368  -0.027353  -0.003193   0.356615  -0.024194
    14  H    0.008584   0.000583  -0.054040  -0.004593   0.366384  -0.032721
    15  C   -0.036565   0.002515   0.113851  -0.023031  -0.071207  -0.005648
    16  O    0.003299  -0.000268  -0.100221   0.000725   0.014782   0.002141
    17  N   -0.000059  -0.000158  -0.087950  -0.000657   0.005998   0.000000
    18  H    0.015583  -0.000171   0.007501  -0.000724   0.001102   0.000047
    19  C   -0.001103   0.000052   0.006081  -0.000282  -0.000675  -0.000071
    20  H   -0.000045   0.000006   0.000455  -0.000008   0.000005  -0.000001
    21  H   -0.000044   0.000005  -0.000368  -0.000057  -0.000182  -0.000008
    22  H   -0.000316   0.000005   0.001381   0.000009   0.000155   0.000027
             13         14         15         16         17         18
     1  H    0.000001   0.000015   0.000297   0.000000   0.000208  -0.000224
     2  C    0.000022   0.000010  -0.000269  -0.000014  -0.001071   0.000185
     3  H   -0.000006  -0.000018  -0.000113   0.000000   0.000030   0.000024
     4  H   -0.000003  -0.000057  -0.000396   0.000002   0.000157   0.000299
     5  C    0.000544  -0.001255  -0.011206  -0.000843   0.017758  -0.001675
     6  O   -0.000104  -0.000156   0.020507  -0.002109  -0.017410  -0.002711
     7  N    0.007281   0.008584  -0.036565   0.003299  -0.000059   0.015583
     8  H   -0.000368   0.000583   0.002515  -0.000268  -0.000158  -0.000171
     9  C   -0.027353  -0.054040   0.113851  -0.100221  -0.087950   0.007501
    10  H   -0.003193  -0.004593  -0.023031   0.000725  -0.000657  -0.000724
    11  C    0.356615   0.366384  -0.071207   0.014782   0.005998   0.001102
    12  H   -0.024194  -0.032721  -0.005648   0.002141   0.000000   0.000047
    13  H    0.570825  -0.029311   0.001741   0.006190   0.000177  -0.000215
    14  H   -0.029311   0.625770   0.012913   0.001375  -0.000086  -0.000150
    15  C    0.001741   0.012913   4.919332   0.672951   0.316368  -0.033999
    16  O    0.006190   0.001375   0.672951   7.832873  -0.110329   0.005494
    17  N    0.000177  -0.000086   0.316368  -0.110329   6.533079   0.318842
    18  H   -0.000215  -0.000150  -0.033999   0.005494   0.318842   0.563464
    19  C    0.000016   0.000022  -0.053231   0.001873   0.303205  -0.037831
    20  H   -0.000002  -0.000001   0.007090   0.001492  -0.022793  -0.004961
    21  H    0.000031  -0.000002  -0.008766   0.003285  -0.054463  -0.001422
    22  H   -0.000036   0.000007  -0.001601   0.013847  -0.055430   0.006894
             19         20         21         22
     1  H    0.000024   0.000002   0.000001   0.000005
     2  C   -0.000028  -0.000004  -0.000001   0.000016
     3  H    0.000001   0.000000   0.000000  -0.000001
     4  H   -0.000021   0.000000   0.000000  -0.000007
     5  C    0.000209  -0.000144   0.000224  -0.000901
     6  O    0.001472   0.000007   0.000029   0.001624
     7  N   -0.001103  -0.000045  -0.000044  -0.000316
     8  H    0.000052   0.000006   0.000005   0.000005
     9  C    0.006081   0.000455  -0.000368   0.001381
    10  H   -0.000282  -0.000008  -0.000057   0.000009
    11  C   -0.000675   0.000005  -0.000182   0.000155
    12  H   -0.000071  -0.000001  -0.000008   0.000027
    13  H    0.000016  -0.000002   0.000031  -0.000036
    14  H    0.000022  -0.000001  -0.000002   0.000007
    15  C   -0.053231   0.007090  -0.008766  -0.001601
    16  O    0.001873   0.001492   0.003285   0.013847
    17  N    0.303205  -0.022793  -0.054463  -0.055430
    18  H   -0.037831  -0.004961  -0.001422   0.006894
    19  C    4.903094   0.369453   0.395533   0.370650
    20  H    0.369453   0.588686  -0.039420  -0.025371
    21  H    0.395533  -0.039420   0.623513  -0.040728
    22  H    0.370650  -0.025371  -0.040728   0.582124
 Mulliken atomic charges:
              1
     1  H    0.151167
     2  C   -0.379038
     3  H    0.138101
     4  H    0.110525
     5  C    0.162836
     6  O   -0.289101
     7  N   -0.211003
     8  H    0.188217
     9  C   -0.049480
    10  H    0.161152
    11  C   -0.370803
    12  H    0.150609
    13  H    0.141341
    14  H    0.106726
    15  C    0.178465
    16  O   -0.346545
    17  N   -0.145416
    18  H    0.164647
    19  C   -0.258440
    20  H    0.125554
    21  H    0.122838
    22  H    0.147650
 Sum of Mulliken atomic charges =   0.00000
 Mulliken charges with hydrogens summed into heavy atoms:
              1
     2  C    0.020755
     5  C    0.162836
     6  O   -0.289101
     7  N   -0.022786
     9  C    0.111671
    11  C    0.027872
    15  C    0.178465
    16  O   -0.346545
    17  N    0.019231
    19  C    0.137601
 Sum of Mulliken charges with hydrogens summed into heavy atoms =   0.00000
 Electronic spatial extent (au):  <R**2>=           1617.4059
 Charge=              0.0000 electrons
 Dipole moment (field-independent basis, Debye):
    X=             -2.7414    Y=             -1.1204    Z=             -5.0584  Tot=              5.8615
 Quadrupole moment (field-independent basis, Debye-Ang):
   XX=            -60.0833   YY=            -57.1459   ZZ=            -60.7990
   XY=             -5.3854   XZ=             -0.4225   YZ=             -0.2881
 Traceless Quadrupole moment (field-independent basis, Debye-Ang):
   XX=             -0.7406   YY=              2.1969   ZZ=             -1.4563
   XY=             -5.3854   XZ=             -0.4225   YZ=             -0.2881
 Octapole moment (field-independent basis, Debye-Ang**2):
  XXX=            -20.0169  YYY=             -8.6338  ZZZ=             -9.4777  XYY=              4.6096
  XXY=            -16.8236  XXZ=             -8.9033  XZZ=             -2.3303  YZZ=              1.8758
  YYZ=             -2.0733  XYZ=             -3.1306
 Hexadecapole moment (field-independent basis, Debye-Ang**3):
 XXXX=          -1187.3332 YYYY=           -704.2873 ZZZZ=           -209.7856 XXXY=            -22.1946
 XXXZ=            -17.7514 YYYX=             -8.0951 YYYZ=             -0.5504 ZZZX=             14.1279
 ZZZY=              0.3600 XXYY=           -310.9593 XXZZ=           -233.9314 YYZZ=           -154.5266
 XXYZ=             -9.8531 YYXZ=             -2.9310 ZZXY=             -6.2272
 N-N= 5.667047678049D+02 E-N=-2.291009535857D+03  KE= 4.942862318722D+02
 Merz-Kollman atomic radii used.

 **********************************************************************

          Electrostatic Properties Using The MP2 Density

 **********************************************************************

       Atomic Center    1 is at  -2.921600 -2.122316  0.518559
       Atomic Center    2 is at  -2.978331 -1.196251 -0.053530
       Atomic Center    3 is at  -3.777224 -0.608427  0.398503
       Atomic Center    4 is at  -3.173977 -1.348240 -1.115001
       Atomic Center    5 is at  -1.672985 -0.402240  0.226249
       Atomic Center    6 is at  -1.021728 -0.656278  1.210194
       Atomic Center    7 is at  -1.191347  0.431720 -0.741804
       Atomic Center    8 is at  -1.712761  0.564060 -1.596622
       Atomic Center    9 is at   0.097836  1.175243 -0.637767
       Atomic Center   10 is at   0.349020  1.556115 -1.627688
       Atomic Center   11 is at  -0.146285  2.451354  0.209593
       Atomic Center   12 is at  -0.411670  2.298343  1.255661
       Atomic Center   13 is at   0.705460  3.131135  0.232571
       Atomic Center   14 is at  -0.969746  3.017083 -0.226254
       Atomic Center   15 is at   1.218035  0.320087 -0.134213
       Atomic Center   16 is at   2.053340  0.810767  0.706674
       Atomic Center   17 is at   1.342077 -0.970379 -0.573331
       Atomic Center   18 is at   0.776031 -1.186048 -1.381526
       Atomic Center   19 is at   2.445832 -1.816976 -0.080448
       Atomic Center   20 is at   2.312508 -2.890543 -0.213785
       Atomic Center   21 is at   3.353431 -1.430900 -0.544462
       Atomic Center   22 is at   2.377905 -1.632862  0.991741
    1000 points will be used for fitting atomic charges
 Fitting point charges to electrostatic potential
 Charges from ESP fit, RMS=   0.00167 RRMS=   0.07046:
 Charge=   0.00000 Dipole=    -2.7419    -1.1268    -5.0157 Tot=     5.8262
              1
     1  H    0.165860
     2  C   -0.562641
     3  H    0.153817
     4  H    0.148772
     5  C    0.643098
     6  O   -0.474730
     7  N   -0.661363
     8  H    0.326667
     9  C    0.345161
    10  H    0.020041
    11  C   -0.229767
    12  H    0.105129
    13  H    0.057030
    14  H    0.043721
    15  C    0.203536
    16  O   -0.443498
    17  N   -0.100668
    18  H    0.179251
    19  C   -0.380525
    20  H    0.154547
    21  H    0.130988
    22  H    0.175575
 -----------------------------------------------------------------

              Electrostatic Properties (Atomic Units)

 -----------------------------------------------------------------
    Center     Electric         -------- Electric Field --------
               Potential          X             Y             Z
 -----------------------------------------------------------------
    1 Atom     -1.092200
    2 Atom    -14.750485
    3 Atom     -1.088484
    4 Atom     -1.085149
    5 Atom    -14.656574
    6 Atom    -22.382425
    7 Atom    -18.337923
    8 Atom     -0.999039
    9 Atom    -14.690790
   10 Atom     -1.075202
   11 Atom    -14.771332
   12 Atom     -1.120676
   13 Atom     -1.120996
   14 Atom     -1.116902
   15 Atom    -14.663952
   16 Atom    -22.392626
   17 Atom    -18.348705
   18 Atom     -1.012147
   19 Atom    -14.728487
   20 Atom     -1.093054
   21 Atom     -1.108343
   22 Atom     -1.111271
 -----------------------------------------------------------------
 1\1\GINC-TACHIKOMA\SP\RMP2-FC\CC-pVTZ\C6H12N2O2\STEBOSS\19-Mar-2017\0\
 \#MP2/cc-pvTZ density=MP2, maxdisk=16GB, pop=(minimal, MK), 5d, punch=
 mo\\Generated by mdgx\\0,1\H,0,16.4532483,17.1419328,12.5328268\C,0,16
 .9651141,16.3994577,13.1450562\H,0,18.0245803,16.4847458,12.9034835\H,
 0,16.6192889,15.3794729,12.9773181\C,0,16.8409768,16.8582161,14.623835
 7\O,0,16.5917012,18.0134194,14.8691658\N,0,16.8278651,15.9102716,15.60
 65968\H,0,16.9537458,14.9369176,15.3681939\C,0,16.6183553,16.2097893,1
 7.0529841\H,0,16.4104357,15.2707009,17.5658021\C,0,17.9707151,16.67803
 99,17.6512625\H,0,18.3705141,17.6193941,17.2742836\H,0,17.9531391,16.7
 943782,18.7348938\H,0,18.7324824,15.9268414,17.4426686\C,0,15.490452,1
 7.1652255,17.2868255\O,0,15.6195596,18.0842371,18.1724554\N,0,14.33687
 1,17.0505448,16.5590808\H,0,14.2541051,16.1799115,16.0538606\C,0,13.22
 15457,17.9896914,16.7870915\H,0,12.4826589,18.0473434,15.9878278\H,0,1
 2.7953724,17.7238318,17.7544567\H,0,13.7538403,18.9408423,16.7784528\\
 Version=EM64L-G09RevA.02\State=1-A\HF=-493.0007849\MP2=-494.8931822\RM
 SD=3.966e-09\Dipole=-0.3296445,-2.075795,-0.9489659\Quadrupole=4.05527
 94,-0.5593575,-3.4959219,-1.7595494,0.3719539,-0.7232775\PG=C01 [X(C6H
 12N2O2)]\\@


 YE HAVE SOWN MUCH, AND BRING IN LITTLE.
 YE EAT, BUT YE HAVE NOT ENOUGH.
 YE DRINK, BUT YE ARE NOT FILLED WITH DRINK.
 YE CLOTHE YOU, BUT THERE IS NONE WARM.
 AND HE THAT EARNETH WAGES EARNETH WAGES TO PUT
 IT INTO A BAG WITH HOLES.
                                     HAGGAI I,6
 Job cpu time:  0 days  3 hours  4 minutes 24.4 seconds.
 File lengths (MBytes):  RWF=  13512 Int=      0 D2E=      0 Chk=     14 Scr=      1
 Normal termination of Gaussian 09 at Sun Mar 19 23:12:59 2017.
