 Entering Gaussian System, Link 0=g09
 Initial command:
 /home/steboss/Software/g09/l1.exe /home/steboss/projects/phi_psi_scan/alanine/MP2/300/5561/Gau-26370.inp -scrdir=/home/steboss/projects/phi_psi_scan/alanine/MP2/300/5561/
 Entering Link 1 = /home/steboss/Software/g09/l1.exe PID=     26372.
  
 Copyright (c) 1988,1990,1992,1993,1995,1998,2003,2009, Gaussian, Inc.
                  All Rights Reserved.
  
 This is part of the Gaussian(R) 09 program.  It is based on
 the Gaussian(R) 03 system (copyright 2003, Gaussian, Inc.),
 the Gaussian(R) 98 system (copyright 1998, Gaussian, Inc.),
 the Gaussian(R) 94 system (copyright 1995, Gaussian, Inc.),
 the Gaussian 92(TM) system (copyright 1992, Gaussian, Inc.),
 the Gaussian 90(TM) system (copyright 1990, Gaussian, Inc.),
 the Gaussian 88(TM) system (copyright 1988, Gaussian, Inc.),
 the Gaussian 86(TM) system (copyright 1986, Carnegie Mellon
 University), and the Gaussian 82(TM) system (copyright 1983,
 Carnegie Mellon University). Gaussian is a federally registered
 trademark of Gaussian, Inc.
  
 This software contains proprietary and confidential information,
 including trade secrets, belonging to Gaussian, Inc.
  
 This software is provided under written license and may be
 used, copied, transmitted, or stored only in accord with that
 written license.
  
 The following legend is applicable only to US Government
 contracts under FAR:
  
                    RESTRICTED RIGHTS LEGEND
  
 Use, reproduction and disclosure by the US Government is
 subject to restrictions as set forth in subparagraphs (a)
 and (c) of the Commercial Computer Software - Restricted
 Rights clause in FAR 52.227-19.
  
 Gaussian, Inc.
 340 Quinnipiac St., Bldg. 40, Wallingford CT 06492
  
  
 ---------------------------------------------------------------
 Warning -- This program may not be used in any manner that
 competes with the business of Gaussian, Inc. or will provide
 assistance to any competitor of Gaussian, Inc.  The licensee
 of this program is prohibited from giving any competitor of
 Gaussian, Inc. access to this program.  By using this program,
 the user acknowledges that Gaussian, Inc. is engaged in the
 business of creating and licensing software in the field of
 computational chemistry and represents and warrants to the
 licensee that it is not a competitor of Gaussian, Inc. and that
 it will not use this program in any manner prohibited above.
 ---------------------------------------------------------------
  

 Cite this work as:
 Gaussian 09, Revision A.02,
 M. J. Frisch, G. W. Trucks, H. B. Schlegel, G. E. Scuseria, 
 M. A. Robb, J. R. Cheeseman, G. Scalmani, V. Barone, B. Mennucci, 
 G. A. Petersson, H. Nakatsuji, M. Caricato, X. Li, H. P. Hratchian, 
 A. F. Izmaylov, J. Bloino, G. Zheng, J. L. Sonnenberg, M. Hada, 
 M. Ehara, K. Toyota, R. Fukuda, J. Hasegawa, M. Ishida, T. Nakajima, 
 Y. Honda, O. Kitao, H. Nakai, T. Vreven, J. A. Montgomery, Jr., 
 J. E. Peralta, F. Ogliaro, M. Bearpark, J. J. Heyd, E. Brothers, 
 K. N. Kudin, V. N. Staroverov, R. Kobayashi, J. Normand, 
 K. Raghavachari, A. Rendell, J. C. Burant, S. S. Iyengar, J. Tomasi, 
 M. Cossi, N. Rega, J. M. Millam, M. Klene, J. E. Knox, J. B. Cross, 
 V. Bakken, C. Adamo, J. Jaramillo, R. Gomperts, R. E. Stratmann, 
 O. Yazyev, A. J. Austin, R. Cammi, C. Pomelli, J. W. Ochterski, 
 R. L. Martin, K. Morokuma, V. G. Zakrzewski, G. A. Voth, 
 P. Salvador, J. J. Dannenberg, S. Dapprich, A. D. Daniels, 
 O. Farkas, J. B. Foresman, J. V. Ortiz, J. Cioslowski, 
 and D. J. Fox, Gaussian, Inc., Wallingford CT, 2009.
 
 ******************************************
 Gaussian 09:  EM64L-G09RevA.02 11-Jun-2009
                13-Feb-2017 
 ******************************************
 %chk=structure_75.chk
 %NProcShared=8
 Will use up to    8 processors via shared memory.
 -------------------
 #SP MP2/aug-cc-pVDZ
 -------------------
 1/38=1/1;
 2/12=2,17=6,18=5,40=1/2;
 3/5=16,7=10,11=9,16=1,25=1,30=1/1,2,3;
 4//1;
 5/5=2,38=5/2;
 8/10=1/1;
 9/16=-3/6;
 6/7=2,8=2,9=2,10=2/1;
 99/5=1,9=1/99;
 -------------------------------
 Single Point calculation at MP2
 -------------------------------
 Symbolic Z-matrix:
 Charge =  0 Multiplicity = 1
 H                    -3.836    -1.0775    0.1301 
 C                    -3.0677   -0.6096    0.7506 
 H                    -2.8516   -1.2941    1.5786 
 H                    -3.4564    0.3269    1.1618 
 C                    -1.8105   -0.4332   -0.0855 
 O                    -1.4099   -1.3292   -0.8305 
 N                    -1.2005    0.7826    0.0168 
 H                    -1.5232    1.3866    0.7625 
 C                     0.137     1.1115   -0.5107 
 H                     0.0995    0.9024   -1.5871 
 C                     0.4115    2.5936   -0.2837 
 H                     0.5134    2.8072    0.7848 
 H                     1.3536    2.8784   -0.7577 
 H                    -0.3946    3.2009   -0.7085 
 C                     1.2799    0.2412    0.0906 
 O                     2.0791    0.7148    0.8942 
 N                     1.3417   -1.0302   -0.3787 
 H                     0.5105   -1.3792   -0.8528 
 C                     2.3081   -1.9778    0.1496 
 H                     3.2373   -1.4484    0.3679 
 H                     1.9597   -2.4541    1.0763 
 H                     2.4969   -2.7551   -0.596 
 
                          Input orientation:                          
 ---------------------------------------------------------------------
 Center     Atomic      Atomic             Coordinates (Angstroms)
 Number     Number       Type             X           Y           Z
 ---------------------------------------------------------------------
      1          1           0       -3.836000   -1.077500    0.130100
      2          6           0       -3.067700   -0.609600    0.750600
      3          1           0       -2.851600   -1.294100    1.578600
      4          1           0       -3.456400    0.326900    1.161800
      5          6           0       -1.810500   -0.433200   -0.085500
      6          8           0       -1.409900   -1.329200   -0.830500
      7          7           0       -1.200500    0.782600    0.016800
      8          1           0       -1.523200    1.386600    0.762500
      9          6           0        0.137000    1.111500   -0.510700
     10          1           0        0.099500    0.902400   -1.587100
     11          6           0        0.411500    2.593600   -0.283700
     12          1           0        0.513400    2.807200    0.784800
     13          1           0        1.353600    2.878400   -0.757700
     14          1           0       -0.394600    3.200900   -0.708500
     15          6           0        1.279900    0.241200    0.090600
     16          8           0        2.079100    0.714800    0.894200
     17          7           0        1.341700   -1.030200   -0.378700
     18          1           0        0.510500   -1.379200   -0.852800
     19          6           0        2.308100   -1.977800    0.149600
     20          1           0        3.237300   -1.448400    0.367900
     21          1           0        1.959700   -2.454100    1.076300
     22          1           0        2.496900   -2.755100   -0.596000
 ---------------------------------------------------------------------
                    Distance matrix (angstroms):
                    1          2          3          4          5
     1  H    0.000000
     2  C    1.092811   0.000000
     3  H    1.764684   1.095821   0.000000
     4  H    1.783491   1.094169   1.779648   0.000000
     5  C    2.136412   1.520109   2.143424   2.200567   0.000000
     6  O    2.621463   2.401250   2.807756   3.301528   1.232202
     7  N    3.227796   2.441950   3.078641   2.570559   1.364088
     8  H    3.438134   2.523972   3.101100   2.240461   2.028131
     9  C    4.581165   3.850086   4.368503   4.040467   2.521835
    10  H    4.728313   4.216888   4.853376   4.531233   2.772495
    11  C    5.629339   4.840981   5.406496   4.710419   3.760065
    12  H    5.868288   4.949744   5.364141   4.696097   4.081437
    13  H    6.585536   5.830009   6.368026   5.773277   4.629263
    14  H    5.554385   4.877945   5.610054   4.597012   3.949631
    15  C    5.283272   4.478960   4.651944   4.856681   3.168028
    16  O    6.227728   5.316409   5.368043   5.555523   4.172134
    17  N    5.202854   4.571108   4.635130   5.218872   3.221605
    18  H    4.466450   3.995834   4.150020   4.765048   2.621203
    19  C    6.209741   5.579641   5.397406   6.290123   4.404989
    20  H    7.087008   6.372054   6.210017   6.970480   5.168799
    21  H    6.031622   5.364980   4.974587   6.088958   4.432632
    22  H    6.591448   6.114023   5.955658   6.930394   4.919911
                    6          7          8          9         10
     6  O    0.000000
     7  N    2.285052   0.000000
     8  H    3.150564   1.012433   0.000000
     9  C    2.907265   1.474903   2.110209   0.000000
    10  H    2.798351   2.068054   2.896243   1.097163   0.000000
    11  C    4.359455   2.443065   2.508874   1.524303   2.157858
    12  H    4.839223   2.761572   2.483212   2.166886   3.070095
    13  H    5.034494   3.393472   3.579449   2.159412   2.482992
    14  H    4.644085   2.650228   2.594082   2.165021   2.509816
    15  C    3.248016   2.539871   3.101735   1.557307   2.155274
    16  O    4.396095   3.395615   3.666773   2.429582   3.179758
    17  N    2.804430   3.147292   3.918024   2.460814   2.595811
    18  H    1.921180   2.890866   3.794045   2.541677   2.431834
    19  C    3.899334   4.466287   5.135532   3.833203   4.023629
    20  H    4.800712   4.979428   5.554754   4.115445   4.381104
    21  H    4.031810   4.646034   5.194231   4.307471   4.671203
    22  H    4.165485   5.153796   5.929621   4.530673   4.484095
                   11         12         13         14         15
    11  C    0.000000
    12  H    1.094395   0.000000
    13  H    1.092401   1.757928   0.000000
    14  H    1.095019   1.791482   1.778379   0.000000
    15  C    2.535351   2.766549   2.771258   3.493184   0.000000
    16  O    2.774568   2.615630   2.817142   3.855974   1.228328
    17  N    3.742489   4.094564   3.926950   4.585380   1.356658
    18  H    4.014575   4.495296   4.341315   4.670904   2.026740
    19  C    4.968152   5.149821   5.031594   5.904224   2.446352
    20  H    4.974685   5.069869   4.851443   5.997110   2.600588
    21  H    5.452137   5.464251   5.671549   6.380224   2.949301
    22  H    5.749349   6.064657   5.750618   6.621734   3.306104
                   16         17         18         19         20
    16  O    0.000000
    17  N    2.282336   0.000000
    18  H    3.146006   1.018560   0.000000
    19  C    2.803028   1.452920   2.143477   0.000000
    20  H    2.509552   2.079808   2.988367   1.091482   0.000000
    21  H    3.176373   2.127543   2.641404   1.098643   1.773563
    22  H    3.799402   2.087340   2.429986   1.093508   1.784590
                   21         22
    21  H    0.000000
    22  H    1.782070   0.000000
 Stoichiometry    C6H12N2O2
 Framework group  C1[X(C6H12N2O2)]
 Deg. of freedom    60
 Full point group                 C1      NOp   1
 Largest Abelian subgroup         C1      NOp   1
 Largest concise Abelian subgroup C1      NOp   1
                         Standard orientation:                         
 ---------------------------------------------------------------------
 Center     Atomic      Atomic             Coordinates (Angstroms)
 Number     Number       Type             X           Y           Z
 ---------------------------------------------------------------------
      1          1           0       -3.836007   -1.077514    0.130079
      2          6           0       -3.067709   -0.609611    0.750579
      3          1           0       -2.851606   -1.294110    1.578579
      4          1           0       -3.456413    0.326887    1.161779
      5          6           0       -1.810510   -0.433205   -0.085521
      6          8           0       -1.409906   -1.329204   -0.830521
      7          7           0       -1.200515    0.782597    0.016779
      8          1           0       -1.523218    1.386596    0.762479
      9          6           0        0.136984    1.111503   -0.510721
     10          1           0        0.099485    0.902403   -1.587121
     11          6           0        0.411477    2.593604   -0.283721
     12          1           0        0.513376    2.807205    0.784779
     13          1           0        1.353576    2.878408   -0.757721
     14          1           0       -0.394626    3.200901   -0.708521
     15          6           0        1.279887    0.241208    0.090579
     16          8           0        2.079085    0.714812    0.894179
     17          7           0        1.341693   -1.030192   -0.378721
     18          1           0        0.510494   -1.379195   -0.852821
     19          6           0        2.308097   -1.977787    0.149579
     20          1           0        3.237295   -1.448383    0.367879
     21          1           0        1.959699   -2.454089    1.076279
     22          1           0        2.496901   -2.755087   -0.596021
 ---------------------------------------------------------------------
 Rotational constants (GHZ):      1.6434816      1.0238748      0.7166148
 Standard basis: Aug-CC-pVDZ (5D, 7F)
 There are   338 symmetry adapted basis functions of A   symmetry.
 Integral buffers will be    131072 words long.
 Raffenetti 1 integral format.
 Two-electron integral symmetry is turned on.
   338 basis functions,   562 primitive gaussians,   358 cartesian basis functions
    39 alpha electrons       39 beta electrons
       nuclear repulsion energy       561.2766597527 Hartrees.
 NAtoms=   22 NActive=   22 NUniq=   22 SFac= 7.50D-01 NAtFMM=   80 NAOKFM=F Big=F
 One-electron integrals computed using PRISM.
 NBasis=   338 RedAO= T  NBF=   338
 NBsUse=   338 1.00D-06 NBFU=   338
 Harris functional with IExCor=  205 diagonalized for initial guess.
 ExpMin= 2.97D-02 ExpMax= 1.17D+04 ExpMxC= 4.01D+02 IAcc=3 IRadAn=         0 AccDes= 0.00D+00
 HarFok:  IExCor=  205 AccDes= 0.00D+00 IRadAn=         0 IDoV= 1
 ScaDFX=  1.000000  1.000000  1.000000  1.000000
 FoFCou: FMM=F IPFlag=           0 FMFlag=      100000 FMFlg1=           0
         NFxFlg=           0 DoJE=T BraDBF=F KetDBF=T FulRan=T
         Omega=  0.000000  0.000000  1.000000  0.000000  0.000000 ICntrl=     500 IOpCl=  0
         NMat0=    1 NMatS0=    1 NMatT0=    0 NMatD0=    1 NMtDS0=    0 NMtDT0=    0
         I1Cent=           4 NGrid=           0.
 Petite list used in FoFCou.
 Initial guess orbital symmetries:
       Occupied  (A) (A) (A) (A) (A) (A) (A) (A) (A) (A) (A) (A)
                 (A) (A) (A) (A) (A) (A) (A) (A) (A) (A) (A) (A)
                 (A) (A) (A) (A) (A) (A) (A) (A) (A) (A) (A) (A)
                 (A) (A) (A)
       Virtual   (A) (A) (A) (A) (A) (A) (A) (A) (A) (A) (A) (A)
                 (A) (A) (A) (A) (A) (A) (A) (A) (A) (A) (A) (A)
                 (A) (A) (A) (A) (A) (A) (A) (A) (A) (A) (A) (A)
                 (A) (A) (A) (A) (A) (A) (A) (A) (A) (A) (A) (A)
                 (A) (A) (A) (A) (A) (A) (A) (A) (A) (A) (A) (A)
                 (A) (A) (A) (A) (A) (A) (A) (A) (A) (A) (A) (A)
                 (A) (A) (A) (A) (A) (A) (A) (A) (A) (A) (A) (A)
                 (A) (A) (A) (A) (A) (A) (A) (A) (A) (A) (A) (A)
                 (A) (A) (A) (A) (A) (A) (A) (A) (A) (A) (A) (A)
                 (A) (A) (A) (A) (A) (A) (A) (A) (A) (A) (A) (A)
                 (A) (A) (A) (A) (A) (A) (A) (A) (A) (A) (A) (A)
                 (A) (A) (A) (A) (A) (A) (A) (A) (A) (A) (A) (A)
                 (A) (A) (A) (A) (A) (A) (A) (A) (A) (A) (A) (A)
                 (A) (A) (A) (A) (A) (A) (A) (A) (A) (A) (A) (A)
                 (A) (A) (A) (A) (A) (A) (A) (A) (A) (A) (A) (A)
                 (A) (A) (A) (A) (A) (A) (A) (A) (A) (A) (A) (A)
                 (A) (A) (A) (A) (A) (A) (A) (A) (A) (A) (A) (A)
                 (A) (A) (A) (A) (A) (A) (A) (A) (A) (A) (A) (A)
                 (A) (A) (A) (A) (A) (A) (A) (A) (A) (A) (A) (A)
                 (A) (A) (A) (A) (A) (A) (A) (A) (A) (A) (A) (A)
                 (A) (A) (A) (A) (A) (A) (A) (A) (A) (A) (A) (A)
                 (A) (A) (A) (A) (A) (A) (A) (A) (A) (A) (A) (A)
                 (A) (A) (A) (A) (A) (A) (A) (A) (A) (A) (A) (A)
                 (A) (A) (A) (A) (A) (A) (A) (A) (A) (A) (A) (A)
                 (A) (A) (A) (A) (A) (A) (A) (A) (A) (A) (A)
 The electronic state of the initial guess is 1-A.
 Requested convergence on RMS density matrix=1.00D-08 within 128 cycles.
 Requested convergence on MAX density matrix=1.00D-06.
 Requested convergence on             energy=1.00D-06.
 No special actions if energy rises.
 Initial convergence to 1.0D-05 achieved.  Increase integral accuracy.
 SCF Done:  E(RHF) =  -492.925344201     A.U. after   14 cycles
             Convg  =    0.8410D-08             -V/T =  2.0017
 ExpMin= 2.97D-02 ExpMax= 1.17D+04 ExpMxC= 4.01D+02 IAcc=3 IRadAn=         5 AccDes= 0.00D+00
 HarFok:  IExCor=  205 AccDes= 0.00D+00 IRadAn=         5 IDoV=-2
 ScaDFX=  1.000000  1.000000  1.000000  1.000000
 Range of M.O.s used for correlation:    11   338
 NBasis=   338 NAE=    39 NBE=    39 NFC=    10 NFV=     0
 NROrb=    328 NOA=    29 NOB=    29 NVA=   299 NVB=   299

 **** Warning!!: The largest alpha MO coefficient is  0.53602663D+02

 Disk-based method using OVN memory for 29 occupieds at a time.
 Estimated scratch disk usage=  1389033636 words.
 Actual    scratch disk usage=  1376145886 words.
 JobTyp=1 Pass  1:  I=   1 to  29 NPSUse=  8 ParTrn=T ParDer=T DoDerP=F.
 Spin components of T(2) and E(2):
     alpha-alpha T2 =       0.6811752120D-01 E2=     -0.2062798789D+00
     alpha-beta  T2 =       0.3770572785D+00 E2=     -0.1191213907D+01
     beta-beta   T2 =       0.6811752120D-01 E2=     -0.2062798789D+00
 ANorm=    0.1230159470D+01
 E2 =    -0.1603773665D+01 EUMP2 =    -0.49452911786656D+03

 **********************************************************************

            Population analysis using the SCF density.

 **********************************************************************

 Orbital symmetries:
       Occupied  (A) (A) (A) (A) (A) (A) (A) (A) (A) (A) (A) (A)
                 (A) (A) (A) (A) (A) (A) (A) (A) (A) (A) (A) (A)
                 (A) (A) (A) (A) (A) (A) (A) (A) (A) (A) (A) (A)
                 (A) (A) (A)
       Virtual   (A) (A) (A) (A) (A) (A) (A) (A) (A) (A) (A) (A)
                 (A) (A) (A) (A) (A) (A) (A) (A) (A) (A) (A) (A)
                 (A) (A) (A) (A) (A) (A) (A) (A) (A) (A) (A) (A)
                 (A) (A) (A) (A) (A) (A) (A) (A) (A) (A) (A) (A)
                 (A) (A) (A) (A) (A) (A) (A) (A) (A) (A) (A) (A)
                 (A) (A) (A) (A) (A) (A) (A) (A) (A) (A) (A) (A)
                 (A) (A) (A) (A) (A) (A) (A) (A) (A) (A) (A) (A)
                 (A) (A) (A) (A) (A) (A) (A) (A) (A) (A) (A) (A)
                 (A) (A) (A) (A) (A) (A) (A) (A) (A) (A) (A) (A)
                 (A) (A) (A) (A) (A) (A) (A) (A) (A) (A) (A) (A)
                 (A) (A) (A) (A) (A) (A) (A) (A) (A) (A) (A) (A)
                 (A) (A) (A) (A) (A) (A) (A) (A) (A) (A) (A) (A)
                 (A) (A) (A) (A) (A) (A) (A) (A) (A) (A) (A) (A)
                 (A) (A) (A) (A) (A) (A) (A) (A) (A) (A) (A) (A)
                 (A) (A) (A) (A) (A) (A) (A) (A) (A) (A) (A) (A)
                 (A) (A) (A) (A) (A) (A) (A) (A) (A) (A) (A) (A)
                 (A) (A) (A) (A) (A) (A) (A) (A) (A) (A) (A) (A)
                 (A) (A) (A) (A) (A) (A) (A) (A) (A) (A) (A) (A)
                 (A) (A) (A) (A) (A) (A) (A) (A) (A) (A) (A) (A)
                 (A) (A) (A) (A) (A) (A) (A) (A) (A) (A) (A) (A)
                 (A) (A) (A) (A) (A) (A) (A) (A) (A) (A) (A) (A)
                 (A) (A) (A) (A) (A) (A) (A) (A) (A) (A) (A) (A)
                 (A) (A) (A) (A) (A) (A) (A) (A) (A) (A) (A) (A)
                 (A) (A) (A) (A) (A) (A) (A) (A) (A) (A) (A) (A)
                 (A) (A) (A) (A) (A) (A) (A) (A) (A) (A) (A)
 The electronic state is 1-A.
 Alpha  occ. eigenvalues --  -20.54730 -20.52526 -15.61445 -15.57610 -11.38063
 Alpha  occ. eigenvalues --  -11.35107 -11.29786 -11.25903 -11.25712 -11.23728
 Alpha  occ. eigenvalues --   -1.40074  -1.37588  -1.25283  -1.21896  -1.06141
 Alpha  occ. eigenvalues --   -1.00084  -0.95392  -0.87150  -0.81427  -0.77173
 Alpha  occ. eigenvalues --   -0.72241  -0.69430  -0.67340  -0.63842  -0.62095
 Alpha  occ. eigenvalues --   -0.61182  -0.60008  -0.59327  -0.57888  -0.54708
 Alpha  occ. eigenvalues --   -0.54364  -0.53490  -0.52602  -0.51836  -0.50992
 Alpha  occ. eigenvalues --   -0.45070  -0.43774  -0.39696  -0.37740
 Alpha virt. eigenvalues --    0.02685   0.04078   0.04260   0.04701   0.05688
 Alpha virt. eigenvalues --    0.06147   0.06445   0.06847   0.07199   0.08187
 Alpha virt. eigenvalues --    0.09193   0.09990   0.11372   0.11688   0.12730
 Alpha virt. eigenvalues --    0.13249   0.13677   0.14761   0.14863   0.15639
 Alpha virt. eigenvalues --    0.15763   0.15859   0.16101   0.16602   0.17106
 Alpha virt. eigenvalues --    0.17762   0.17849   0.18191   0.18629   0.19408
 Alpha virt. eigenvalues --    0.19735   0.20001   0.20962   0.21285   0.23200
 Alpha virt. eigenvalues --    0.23259   0.23982   0.24181   0.25164   0.26999
 Alpha virt. eigenvalues --    0.27587   0.28733   0.29239   0.30246   0.30792
 Alpha virt. eigenvalues --    0.32092   0.32310   0.32616   0.33025   0.33351
 Alpha virt. eigenvalues --    0.34083   0.35510   0.35773   0.35871   0.36313
 Alpha virt. eigenvalues --    0.37428   0.37590   0.38664   0.39158   0.40168
 Alpha virt. eigenvalues --    0.40324   0.40870   0.41726   0.42287   0.42821
 Alpha virt. eigenvalues --    0.43661   0.44084   0.44398   0.45806   0.46144
 Alpha virt. eigenvalues --    0.46354   0.46820   0.47291   0.49132   0.49505
 Alpha virt. eigenvalues --    0.49809   0.50149   0.51053   0.51874   0.53083
 Alpha virt. eigenvalues --    0.53252   0.53811   0.54514   0.55635   0.55772
 Alpha virt. eigenvalues --    0.56224   0.57142   0.57406   0.58109   0.58589
 Alpha virt. eigenvalues --    0.59541   0.60160   0.61219   0.61859   0.62325
 Alpha virt. eigenvalues --    0.63526   0.63815   0.63983   0.65028   0.65750
 Alpha virt. eigenvalues --    0.66171   0.66613   0.66944   0.68220   0.68947
 Alpha virt. eigenvalues --    0.69311   0.69937   0.70205   0.70637   0.71730
 Alpha virt. eigenvalues --    0.71907   0.72640   0.74201   0.74383   0.74620
 Alpha virt. eigenvalues --    0.76399   0.77306   0.78053   0.78803   0.79217
 Alpha virt. eigenvalues --    0.79924   0.80152   0.81344   0.83173   0.85014
 Alpha virt. eigenvalues --    0.85116   0.85982   0.86354   0.87788   0.88875
 Alpha virt. eigenvalues --    0.89243   0.90215   0.91167   0.91449   0.92003
 Alpha virt. eigenvalues --    0.94208   0.95689   0.96204   0.97383   0.99598
 Alpha virt. eigenvalues --    1.00189   1.01043   1.02621   1.04631   1.05564
 Alpha virt. eigenvalues --    1.07037   1.07913   1.08687   1.09449   1.11467
 Alpha virt. eigenvalues --    1.12718   1.13165   1.13815   1.14770   1.15893
 Alpha virt. eigenvalues --    1.17176   1.18464   1.19581   1.21546   1.22326
 Alpha virt. eigenvalues --    1.22575   1.24101   1.26263   1.27264   1.29173
 Alpha virt. eigenvalues --    1.30409   1.31711   1.35267   1.37680   1.39312
 Alpha virt. eigenvalues --    1.40238   1.42269   1.44813   1.45460   1.46443
 Alpha virt. eigenvalues --    1.49127   1.50740   1.51851   1.52721   1.55209
 Alpha virt. eigenvalues --    1.57526   1.58106   1.60008   1.62898   1.64166
 Alpha virt. eigenvalues --    1.65530   1.68696   1.69450   1.70487   1.74146
 Alpha virt. eigenvalues --    1.74711   1.77164   1.77436   1.78751   1.81435
 Alpha virt. eigenvalues --    1.82857   1.83219   1.85653   1.86647   1.88086
 Alpha virt. eigenvalues --    1.88597   1.90113   1.91277   1.93047   1.95214
 Alpha virt. eigenvalues --    1.95717   1.96269   1.97095   1.99365   2.01048
 Alpha virt. eigenvalues --    2.02373   2.03591   2.05162   2.08537   2.09407
 Alpha virt. eigenvalues --    2.10212   2.12945   2.14382   2.15582   2.17176
 Alpha virt. eigenvalues --    2.18627   2.20716   2.20899   2.22678   2.24312
 Alpha virt. eigenvalues --    2.26164   2.26848   2.27319   2.28889   2.29326
 Alpha virt. eigenvalues --    2.30827   2.31344   2.33508   2.34933   2.36460
 Alpha virt. eigenvalues --    2.37557   2.39224   2.40895   2.43274   2.46135
 Alpha virt. eigenvalues --    2.46258   2.48358   2.49429   2.50056   2.51480
 Alpha virt. eigenvalues --    2.53224   2.55177   2.58059   2.59219   2.59866
 Alpha virt. eigenvalues --    2.62422   2.63815   2.64571   2.67442   2.68883
 Alpha virt. eigenvalues --    2.71012   2.74339   2.77199   2.79638   2.81666
 Alpha virt. eigenvalues --    2.83147   2.83792   2.84404   2.87780   2.89585
 Alpha virt. eigenvalues --    2.90780   2.91817   2.92452   2.95464   2.96069
 Alpha virt. eigenvalues --    3.01030   3.01648   3.03392   3.07079   3.10547
 Alpha virt. eigenvalues --    3.11827   3.13422   3.19047   3.20937   3.22726
 Alpha virt. eigenvalues --    3.34925   3.39105   3.44317   3.50571   3.52835
 Alpha virt. eigenvalues --    3.62088   3.66788   3.75513   3.82540   3.86710
 Alpha virt. eigenvalues --    3.88605   3.90007   3.91983   3.97124   4.04044
 Alpha virt. eigenvalues --    4.06484   4.16014   4.21616   4.23066
          Condensed to atoms (all electrons):
              1          2          3          4          5          6
     1  H    0.753956   0.428391  -0.052931  -0.096785  -0.111075   0.016415
     2  C    0.428391   4.529794   0.339408   0.271507   0.170899  -0.032462
     3  H   -0.052931   0.339408   0.737757  -0.063782  -0.086214   0.013425
     4  H   -0.096785   0.271507  -0.063782   1.080278   0.196404  -0.006390
     5  C   -0.111075   0.170899  -0.086214   0.196404   5.613771   0.136359
     6  O    0.016415  -0.032462   0.013425  -0.006390   0.136359   8.810497
     7  N    0.048571  -0.011321   0.052221  -0.206137   0.057153  -0.114896
     8  H   -0.002802  -0.047120  -0.007778   0.010032  -0.060963  -0.010958
     9  C   -0.009089   0.033662   0.018302  -0.029966  -0.381721   0.086621
    10  H   -0.001360  -0.004352   0.001372  -0.002763  -0.023357   0.012071
    11  C    0.000812  -0.025047  -0.000995  -0.007877  -0.024434   0.002886
    12  H   -0.000117  -0.005009  -0.000610  -0.001134  -0.019412   0.001600
    13  H    0.000017  -0.000116   0.000028  -0.000587   0.004198  -0.000558
    14  H    0.000133   0.008322   0.000243   0.001855   0.002566   0.001275
    15  C   -0.001544  -0.015215   0.002682  -0.015520  -0.162107   0.034288
    16  O    0.000084   0.000634   0.000686   0.000399   0.036507  -0.005394
    17  N    0.001361   0.001648  -0.002628   0.004316   0.051931  -0.045342
    18  H   -0.002743  -0.018814  -0.002673   0.004500  -0.006660   0.022081
    19  C    0.000031  -0.001893  -0.000082  -0.000421   0.002441  -0.006407
    20  H   -0.000125   0.001126   0.000099   0.000014  -0.008813  -0.000354
    21  H   -0.000116  -0.000199   0.000278   0.000199   0.006479   0.000924
    22  H    0.000142  -0.001818  -0.000185  -0.000240   0.002196   0.000444
              7          8          9         10         11         12
     1  H    0.048571  -0.002802  -0.009089  -0.001360   0.000812  -0.000117
     2  C   -0.011321  -0.047120   0.033662  -0.004352  -0.025047  -0.005009
     3  H    0.052221  -0.007778   0.018302   0.001372  -0.000995  -0.000610
     4  H   -0.206137   0.010032  -0.029966  -0.002763  -0.007877  -0.001134
     5  C    0.057153  -0.060963  -0.381721  -0.023357  -0.024434  -0.019412
     6  O   -0.114896  -0.010958   0.086621   0.012071   0.002886   0.001600
     7  N    7.385096   0.390090  -0.171974   0.033728  -0.058748   0.008614
     8  H    0.390090   0.918558  -0.216539   0.008441   0.009915   0.012687
     9  C   -0.171974  -0.216539   7.424927  -0.301833   0.114492  -0.176365
    10  H    0.033728   0.008441  -0.301833   1.384038  -0.019243   0.059310
    11  C   -0.058748   0.009915   0.114492  -0.019243   4.416260   0.450184
    12  H    0.008614   0.012687  -0.176365   0.059310   0.450184   0.974095
    13  H    0.057821   0.004595  -0.013417  -0.051898   0.213477  -0.145188
    14  H   -0.083406  -0.016217   0.257646  -0.060628   0.199436  -0.205105
    15  C    0.132692   0.009994  -0.696742   0.167259   0.042156   0.041873
    16  O    0.016431  -0.002090  -0.053916  -0.015012  -0.047652   0.002465
    17  N   -0.001816   0.014856   0.106507  -0.029677  -0.021109  -0.003728
    18  H   -0.020112  -0.001536  -0.006343   0.036638   0.007758   0.000949
    19  C    0.009946   0.004507  -0.050292   0.011485   0.004290   0.001293
    20  H   -0.001626  -0.000408   0.012175   0.003129  -0.005819  -0.001075
    21  H    0.001386   0.000418   0.003315  -0.000200   0.001831  -0.000049
    22  H    0.000881   0.000107  -0.011176  -0.001918   0.003692   0.000609
             13         14         15         16         17         18
     1  H    0.000017   0.000133  -0.001544   0.000084   0.001361  -0.002743
     2  C   -0.000116   0.008322  -0.015215   0.000634   0.001648  -0.018814
     3  H    0.000028   0.000243   0.002682   0.000686  -0.002628  -0.002673
     4  H   -0.000587   0.001855  -0.015520   0.000399   0.004316   0.004500
     5  C    0.004198   0.002566  -0.162107   0.036507   0.051931  -0.006660
     6  O   -0.000558   0.001275   0.034288  -0.005394  -0.045342   0.022081
     7  N    0.057821  -0.083406   0.132692   0.016431  -0.001816  -0.020112
     8  H    0.004595  -0.016217   0.009994  -0.002090   0.014856  -0.001536
     9  C   -0.013417   0.257646  -0.696742  -0.053916   0.106507  -0.006343
    10  H   -0.051898  -0.060628   0.167259  -0.015012  -0.029677   0.036638
    11  C    0.213477   0.199436   0.042156  -0.047652  -0.021109   0.007758
    12  H   -0.145188  -0.205105   0.041873   0.002465  -0.003728   0.000949
    13  H    1.205264  -0.201340   0.005408   0.014362  -0.003806   0.001915
    14  H   -0.201340   1.179461  -0.074920   0.009594   0.011733  -0.001691
    15  C    0.005408  -0.074920   5.324281   0.267080   0.088735  -0.066792
    16  O    0.014362   0.009594   0.267080   8.760263  -0.160825   0.004274
    17  N   -0.003806   0.011733   0.088735  -0.160825   7.156639   0.221546
    18  H    0.001915  -0.001691  -0.066792   0.004274   0.221546   0.962793
    19  C    0.001084  -0.000158  -0.074839   0.014310   0.203665  -0.129843
    20  H   -0.000274   0.000187   0.050531  -0.026243  -0.057378   0.001051
    21  H    0.000468  -0.000004  -0.017701   0.004749   0.092791  -0.014824
    22  H   -0.000338   0.000050  -0.023490   0.012076  -0.138375   0.024069
             19         20         21         22
     1  H    0.000031  -0.000125  -0.000116   0.000142
     2  C   -0.001893   0.001126  -0.000199  -0.001818
     3  H   -0.000082   0.000099   0.000278  -0.000185
     4  H   -0.000421   0.000014   0.000199  -0.000240
     5  C    0.002441  -0.008813   0.006479   0.002196
     6  O   -0.006407  -0.000354   0.000924   0.000444
     7  N    0.009946  -0.001626   0.001386   0.000881
     8  H    0.004507  -0.000408   0.000418   0.000107
     9  C   -0.050292   0.012175   0.003315  -0.011176
    10  H    0.011485   0.003129  -0.000200  -0.001918
    11  C    0.004290  -0.005819   0.001831   0.003692
    12  H    0.001293  -0.001075  -0.000049   0.000609
    13  H    0.001084  -0.000274   0.000468  -0.000338
    14  H   -0.000158   0.000187  -0.000004   0.000050
    15  C   -0.074839   0.050531  -0.017701  -0.023490
    16  O    0.014310  -0.026243   0.004749   0.012076
    17  N    0.203665  -0.057378   0.092791  -0.138375
    18  H   -0.129843   0.001051  -0.014824   0.024069
    19  C    4.112997   0.433727   0.262037   0.438287
    20  H    0.433727   1.008865  -0.106102  -0.178536
    21  H    0.262037  -0.106102   0.991738  -0.154348
    22  H    0.438287  -0.178536  -0.154348   1.186788
 Mulliken atomic charges:
              1
     1  H    0.028773
     2  C    0.377977
     3  H    0.051378
     4  H   -0.137902
     5  C    0.603850
     6  O   -0.916123
     7  N   -0.524592
     8  H   -0.017788
     9  C    0.061726
    10  H   -0.205227
    11  C    0.743736
    12  H    0.004112
    13  H   -0.091113
    14  H   -0.029032
    15  C    0.981895
    16  O   -0.832783
    17  N   -0.491045
    18  H   -0.015541
    19  C    0.763833
    20  H   -0.124152
    21  H   -0.073068
    22  H   -0.158913
 Sum of Mulliken atomic charges =   0.00000
 Mulliken charges with hydrogens summed into heavy atoms:
              1
     2  C    0.320226
     5  C    0.603850
     6  O   -0.916123
     7  N   -0.542380
     9  C   -0.143501
    11  C    0.627702
    15  C    0.981895
    16  O   -0.832783
    17  N   -0.506586
    19  C    0.407700
 Sum of Mulliken charges with hydrogens summed into heavy atoms =   0.00000
 Electronic spatial extent (au):  <R**2>=           1695.5900
 Charge=              0.0000 electrons
 Dipole moment (field-independent basis, Debye):
    X=             -3.3050    Y=              0.8624    Z=              0.3437  Tot=              3.4329
 Quadrupole moment (field-independent basis, Debye-Ang):
   XX=            -60.9829   YY=            -59.3818   ZZ=            -63.1306
   XY=             -7.3986   XZ=             -9.3395   YZ=             -3.8332
 Traceless Quadrupole moment (field-independent basis, Debye-Ang):
   XX=              0.1822   YY=              1.7833   ZZ=             -1.9655
   XY=             -7.3986   XZ=             -9.3395   YZ=             -3.8332
 Octapole moment (field-independent basis, Debye-Ang**2):
  XXX=            -32.9937  YYY=              2.1605  ZZZ=             -0.1955  XYY=              7.5826
  XXY=            -12.0729  XXZ=              0.1991  XZZ=             -5.1673  YZZ=              0.1087
  YYZ=              3.0821  XYZ=             -2.0038
 Hexadecapole moment (field-independent basis, Debye-Ang**3):
 XXXX=          -1197.5491 YYYY=           -786.9307 ZZZZ=           -194.9660 XXXY=            -13.0131
 XXXZ=            -27.8936 YYYX=            -18.5181 YYYZ=              3.5926 ZZZX=             -4.3753
 ZZZY=              0.5438 XXYY=           -333.0158 XXZZ=           -251.5588 YYZZ=           -160.1178
 XXYZ=            -11.6931 YYXZ=            -16.0950 ZZXY=             -5.3935
 N-N= 5.612766597527D+02 E-N=-2.277791822120D+03  KE= 4.920766414303D+02
 1\1\GINC-NODE003\SP\RMP2-FC\Aug-CC-pVDZ\C6H12N2O2\STEBOSS\13-Feb-2017\
 0\\#SP MP2/aug-cc-pVDZ\\Single Point calculation at MP2\\0,1\H,0,-3.83
 6,-1.0775,0.1301\C,0,-3.0677,-0.6096,0.7506\H,0,-2.8516,-1.2941,1.5786
 \H,0,-3.4564,0.3269,1.1618\C,0,-1.8105,-0.4332,-0.0855\O,0,-1.4099,-1.
 3292,-0.8305\N,0,-1.2005,0.7826,0.0168\H,0,-1.5232,1.3866,0.7625\C,0,0
 .137,1.1115,-0.5107\H,0,0.0995,0.9024,-1.5871\C,0,0.4115,2.5936,-0.283
 7\H,0,0.5134,2.8072,0.7848\H,0,1.3536,2.8784,-0.7577\H,0,-0.3946,3.200
 9,-0.7085\C,0,1.2799,0.2412,0.0906\O,0,2.0791,0.7148,0.8942\N,0,1.3417
 ,-1.0302,-0.3787\H,0,0.5105,-1.3792,-0.8528\C,0,2.3081,-1.9778,0.1496\
 H,0,3.2373,-1.4484,0.3679\H,0,1.9597,-2.4541,1.0763\H,0,2.4969,-2.7551
 ,-0.596\\Version=EM64L-G09RevA.02\State=1-A\HF=-492.9253442\MP2=-494.5
 291179\RMSD=8.410e-09\PG=C01 [X(C6H12N2O2)]\\@


 ONE OF THE BENEFITS OF A COLLEGE EDUCATION
 IS TO SHOW THE BOY ITS LITTLE AVAIL 
                                    EMERSON IN 'CULTURE'
 Job cpu time:  0 days 13 hours 19 minutes 17.0 seconds.
 File lengths (MBytes):  RWF=  10616 Int=      0 D2E=      0 Chk=      7 Scr=      2
 Normal termination of Gaussian 09 at Mon Feb 13 17:52:27 2017.
