 Entering Gaussian System, Link 0=g09
 Initial command:
 /home/steboss/Software/g09/l1.exe /home/steboss/projects/phi_psi_scan/alanine/MP2/300/5539/Gau-15060.inp -scrdir=/home/steboss/projects/phi_psi_scan/alanine/MP2/300/5539/
 Entering Link 1 = /home/steboss/Software/g09/l1.exe PID=     15062.
  
 Copyright (c) 1988,1990,1992,1993,1995,1998,2003,2009, Gaussian, Inc.
                  All Rights Reserved.
  
 This is part of the Gaussian(R) 09 program.  It is based on
 the Gaussian(R) 03 system (copyright 2003, Gaussian, Inc.),
 the Gaussian(R) 98 system (copyright 1998, Gaussian, Inc.),
 the Gaussian(R) 94 system (copyright 1995, Gaussian, Inc.),
 the Gaussian 92(TM) system (copyright 1992, Gaussian, Inc.),
 the Gaussian 90(TM) system (copyright 1990, Gaussian, Inc.),
 the Gaussian 88(TM) system (copyright 1988, Gaussian, Inc.),
 the Gaussian 86(TM) system (copyright 1986, Carnegie Mellon
 University), and the Gaussian 82(TM) system (copyright 1983,
 Carnegie Mellon University). Gaussian is a federally registered
 trademark of Gaussian, Inc.
  
 This software contains proprietary and confidential information,
 including trade secrets, belonging to Gaussian, Inc.
  
 This software is provided under written license and may be
 used, copied, transmitted, or stored only in accord with that
 written license.
  
 The following legend is applicable only to US Government
 contracts under FAR:
  
                    RESTRICTED RIGHTS LEGEND
  
 Use, reproduction and disclosure by the US Government is
 subject to restrictions as set forth in subparagraphs (a)
 and (c) of the Commercial Computer Software - Restricted
 Rights clause in FAR 52.227-19.
  
 Gaussian, Inc.
 340 Quinnipiac St., Bldg. 40, Wallingford CT 06492
  
  
 ---------------------------------------------------------------
 Warning -- This program may not be used in any manner that
 competes with the business of Gaussian, Inc. or will provide
 assistance to any competitor of Gaussian, Inc.  The licensee
 of this program is prohibited from giving any competitor of
 Gaussian, Inc. access to this program.  By using this program,
 the user acknowledges that Gaussian, Inc. is engaged in the
 business of creating and licensing software in the field of
 computational chemistry and represents and warrants to the
 licensee that it is not a competitor of Gaussian, Inc. and that
 it will not use this program in any manner prohibited above.
 ---------------------------------------------------------------
  

 Cite this work as:
 Gaussian 09, Revision A.02,
 M. J. Frisch, G. W. Trucks, H. B. Schlegel, G. E. Scuseria, 
 M. A. Robb, J. R. Cheeseman, G. Scalmani, V. Barone, B. Mennucci, 
 G. A. Petersson, H. Nakatsuji, M. Caricato, X. Li, H. P. Hratchian, 
 A. F. Izmaylov, J. Bloino, G. Zheng, J. L. Sonnenberg, M. Hada, 
 M. Ehara, K. Toyota, R. Fukuda, J. Hasegawa, M. Ishida, T. Nakajima, 
 Y. Honda, O. Kitao, H. Nakai, T. Vreven, J. A. Montgomery, Jr., 
 J. E. Peralta, F. Ogliaro, M. Bearpark, J. J. Heyd, E. Brothers, 
 K. N. Kudin, V. N. Staroverov, R. Kobayashi, J. Normand, 
 K. Raghavachari, A. Rendell, J. C. Burant, S. S. Iyengar, J. Tomasi, 
 M. Cossi, N. Rega, J. M. Millam, M. Klene, J. E. Knox, J. B. Cross, 
 V. Bakken, C. Adamo, J. Jaramillo, R. Gomperts, R. E. Stratmann, 
 O. Yazyev, A. J. Austin, R. Cammi, C. Pomelli, J. W. Ochterski, 
 R. L. Martin, K. Morokuma, V. G. Zakrzewski, G. A. Voth, 
 P. Salvador, J. J. Dannenberg, S. Dapprich, A. D. Daniels, 
 O. Farkas, J. B. Foresman, J. V. Ortiz, J. Cioslowski, 
 and D. J. Fox, Gaussian, Inc., Wallingford CT, 2009.
 
 ******************************************
 Gaussian 09:  EM64L-G09RevA.02 11-Jun-2009
                13-Feb-2017 
 ******************************************
 %chk=structure_0.chk
 %NProcShared=8
 Will use up to    8 processors via shared memory.
 -------------------
 #SP MP2/aug-cc-pVDZ
 -------------------
 1/38=1/1;
 2/12=2,17=6,18=5,40=1/2;
 3/5=16,7=10,11=9,16=1,25=1,30=1/1,2,3;
 4//1;
 5/5=2,38=5/2;
 8/10=1/1;
 9/16=-3/6;
 6/7=2,8=2,9=2,10=2/1;
 99/5=1,9=1/99;
 -------------------------------
 Single Point calculation at MP2
 -------------------------------
 Symbolic Z-matrix:
 Charge =  0 Multiplicity = 1
 H                     3.4315   -1.5117   -0.7428 
 C                     3.2781   -0.4895   -0.3871 
 H                     3.4867    0.2114   -1.2013 
 H                     3.9978   -0.3126    0.4195 
 C                     1.8715   -0.3737    0.1817 
 O                     1.4168   -1.2146    0.9566 
 N                     1.1612    0.7175   -0.217 
 H                     1.5892    1.3315   -0.8958 
 C                    -0.1423    1.1475    0.3038 
 H                    -0.0358    1.2965    1.387 
 C                    -0.5082    2.4896   -0.3389 
 H                    -0.5938    2.3897   -1.4279 
 H                    -1.4717    2.8201    0.0502 
 H                     0.2492    3.2485   -0.1122 
 C                    -1.3468    0.1797    0.1729 
 O                    -2.4463    0.5807    0.5399 
 N                    -1.1494   -1.0308   -0.4196 
 H                    -0.226    -1.4288   -0.2883 
 C                    -2.258    -1.976    -0.4703 
 H                    -3.1443   -1.4655   -0.8511 
 H                    -1.9933   -2.7951   -1.1441 
 H                    -2.5012   -2.3865    0.5185 
 
                          Input orientation:                          
 ---------------------------------------------------------------------
 Center     Atomic      Atomic             Coordinates (Angstroms)
 Number     Number       Type             X           Y           Z
 ---------------------------------------------------------------------
      1          1           0        3.431500   -1.511700   -0.742800
      2          6           0        3.278100   -0.489500   -0.387100
      3          1           0        3.486700    0.211400   -1.201300
      4          1           0        3.997800   -0.312600    0.419500
      5          6           0        1.871500   -0.373700    0.181700
      6          8           0        1.416800   -1.214600    0.956600
      7          7           0        1.161200    0.717500   -0.217000
      8          1           0        1.589200    1.331500   -0.895800
      9          6           0       -0.142300    1.147500    0.303800
     10          1           0       -0.035800    1.296500    1.387000
     11          6           0       -0.508200    2.489600   -0.338900
     12          1           0       -0.593800    2.389700   -1.427900
     13          1           0       -1.471700    2.820100    0.050200
     14          1           0        0.249200    3.248500   -0.112200
     15          6           0       -1.346800    0.179700    0.172900
     16          8           0       -2.446300    0.580700    0.539900
     17          7           0       -1.149400   -1.030800   -0.419600
     18          1           0       -0.226000   -1.428800   -0.288300
     19          6           0       -2.258000   -1.976000   -0.470300
     20          1           0       -3.144300   -1.465500   -0.851100
     21          1           0       -1.993300   -2.795100   -1.144100
     22          1           0       -2.501200   -2.386500    0.518500
 ---------------------------------------------------------------------
                    Distance matrix (angstroms):
                    1          2          3          4          5
     1  H    0.000000
     2  C    1.093136   0.000000
     3  H    1.783912   1.094393   0.000000
     4  H    1.763371   1.095384   1.778424   0.000000
     5  C    2.140875   1.521666   2.205426   2.140428   0.000000
     6  O    2.652404   2.407434   3.312777   2.786331   1.230583
     7  N    3.224912   2.442754   2.575448   3.084240   1.361692
     8  H    3.391351   2.535192   2.224514   3.199130   2.036764
     9  C    4.575889   3.854380   4.038719   4.391549   2.526727
    10  H    4.944108   4.161629   4.503859   4.449178   2.807153
    11  C    5.629811   4.818032   4.679012   5.360180   3.759320
    12  H    5.647417   4.936058   4.631071   5.638981   4.037932
    13  H    6.590502   5.805625   5.740845   6.313923   4.625434
    14  H    5.760572   4.818968   4.570724   5.197705   3.979770
    15  C    5.150873   4.706499   5.025152   5.372887   3.265545
    16  O    6.369615   5.896899   6.194243   6.506835   4.436506
    17  N    4.617398   4.460585   4.862874   5.264368   3.149473
    18  H    3.686563   3.629155   4.160284   4.425762   2.394503
    19  C    5.714914   5.732801   6.190368   6.534040   4.477191
    20  H    6.576854   6.512687   6.848708   7.345284   5.236120
    21  H    5.588972   5.803146   6.250817   6.670902   4.749484
    22  H    6.128057   6.149718   6.749944   6.822599   4.825485
                    6          7          8          9         10
     6  O    0.000000
     7  N    2.275012   0.000000
     8  H    3.153368   1.010420   0.000000
     9  C    2.904558   1.468075   2.114471   0.000000
    10  H    2.932732   2.083475   2.802325   1.098574   0.000000
    11  C    4.370932   2.437641   2.459760   1.532377   2.150670
    12  H    4.766480   2.709715   2.483628   2.178462   3.070849
    13  H    5.044185   3.380013   3.532698   2.151559   2.483989
    14  H    4.735492   2.692339   2.466682   2.177276   2.477727
    15  C    3.193077   2.594478   3.329994   1.550675   2.107131
    16  O    4.280220   3.688586   4.348585   2.384412   2.653386
    17  N    2.917720   2.904561   3.647898   2.506501   3.149640
    18  H    2.072305   2.556562   3.359057   2.644789   3.204694
    19  C    4.014963   4.360050   5.091321   3.851191   4.370011
    20  H    4.912674   4.868768   5.498293   4.144100   4.722341
    21  H    4.305776   4.811314   5.470355   4.589849   5.194176
    22  H    4.112907   4.856846   5.705711   4.254370   4.516301
                   11         12         13         14         15
    11  C    0.000000
    12  H    1.096918   0.000000
    13  H    1.090395   1.772211   0.000000
    14  H    1.095891   1.783046   1.780842   0.000000
    15  C    2.510145   2.830843   2.646199   3.470739   0.000000
    16  O    2.858745   3.252149   2.490896   3.848131   1.226536
    17  N    3.579227   3.609041   3.892816   4.512536   1.362106
    18  H    3.928875   4.001863   4.440665   4.704674   2.013994
    19  C    4.797984   4.769266   4.887920   5.806004   2.427145
    20  H    4.780605   4.658360   4.687889   5.855221   2.643154
    21  H    5.548146   5.377852   5.764451   6.528302   3.316909
    22  H    5.336997   5.498976   5.328026   6.302040   2.835042
                   16         17         18         19         20
    16  O    0.000000
    17  N    2.280246   0.000000
    18  H    3.107046   1.014057   0.000000
    19  C    2.755481   1.457727   2.112244   0.000000
    20  H    2.570801   2.086812   2.972300   1.091397   0.000000
    21  H    3.799617   2.085623   2.392179   1.093159   1.782831
    22  H    2.967785   2.131975   2.597047   1.097899   1.771334
                   21         22
    21  H    0.000000
    22  H    1.785821   0.000000
 Stoichiometry    C6H12N2O2
 Framework group  C1[X(C6H12N2O2)]
 Deg. of freedom    60
 Full point group                 C1      NOp   1
 Largest Abelian subgroup         C1      NOp   1
 Largest concise Abelian subgroup C1      NOp   1
                         Standard orientation:                         
 ---------------------------------------------------------------------
 Center     Atomic      Atomic             Coordinates (Angstroms)
 Number     Number       Type             X           Y           Z
 ---------------------------------------------------------------------
      1          1           0        3.431499   -1.511667   -0.742801
      2          6           0        3.278094   -0.489468   -0.387101
      3          1           0        3.486690    0.211433   -1.201301
      4          1           0        3.997793   -0.312564    0.419499
      5          6           0        1.871493   -0.373675    0.181699
      6          8           0        1.416797   -1.214577    0.956599
      7          7           0        1.161187    0.717521   -0.217001
      8          1           0        1.589184    1.331524   -0.895801
      9          6           0       -0.142315    1.147515    0.303799
     10          1           0       -0.035816    1.296515    1.386999
     11          6           0       -0.508222    2.489613   -0.338901
     12          1           0       -0.593821    2.389712   -1.427901
     13          1           0       -1.471723    2.820108    0.050199
     14          1           0        0.249174    3.248517   -0.112201
     15          6           0       -1.346810    0.179708    0.172899
     16          8           0       -2.446312    0.580703    0.539899
     17          7           0       -1.149404   -1.030791   -0.419601
     18          1           0       -0.226002   -1.428786   -0.288301
     19          6           0       -2.257999   -1.975996   -0.470301
     20          1           0       -3.144301   -1.465501   -0.851101
     21          1           0       -1.993295   -2.795095   -1.144101
     22          1           0       -2.501197   -2.386497    0.518499
 ---------------------------------------------------------------------
 Rotational constants (GHZ):      1.8027621      0.9575532      0.6929167
 Standard basis: Aug-CC-pVDZ (5D, 7F)
 There are   338 symmetry adapted basis functions of A   symmetry.
 Integral buffers will be    131072 words long.
 Raffenetti 1 integral format.
 Two-electron integral symmetry is turned on.
   338 basis functions,   562 primitive gaussians,   358 cartesian basis functions
    39 alpha electrons       39 beta electrons
       nuclear repulsion energy       560.1361806867 Hartrees.
 NAtoms=   22 NActive=   22 NUniq=   22 SFac= 7.50D-01 NAtFMM=   80 NAOKFM=F Big=F
 One-electron integrals computed using PRISM.
 NBasis=   338 RedAO= T  NBF=   338
 NBsUse=   338 1.00D-06 NBFU=   338
 Harris functional with IExCor=  205 diagonalized for initial guess.
 ExpMin= 2.97D-02 ExpMax= 1.17D+04 ExpMxC= 4.01D+02 IAcc=3 IRadAn=         0 AccDes= 0.00D+00
 HarFok:  IExCor=  205 AccDes= 0.00D+00 IRadAn=         0 IDoV= 1
 ScaDFX=  1.000000  1.000000  1.000000  1.000000
 FoFCou: FMM=F IPFlag=           0 FMFlag=      100000 FMFlg1=           0
         NFxFlg=           0 DoJE=T BraDBF=F KetDBF=T FulRan=T
         Omega=  0.000000  0.000000  1.000000  0.000000  0.000000 ICntrl=     500 IOpCl=  0
         NMat0=    1 NMatS0=    1 NMatT0=    0 NMatD0=    1 NMtDS0=    0 NMtDT0=    0
         I1Cent=           4 NGrid=           0.
 Petite list used in FoFCou.
 Initial guess orbital symmetries:
       Occupied  (A) (A) (A) (A) (A) (A) (A) (A) (A) (A) (A) (A)
                 (A) (A) (A) (A) (A) (A) (A) (A) (A) (A) (A) (A)
                 (A) (A) (A) (A) (A) (A) (A) (A) (A) (A) (A) (A)
                 (A) (A) (A)
       Virtual   (A) (A) (A) (A) (A) (A) (A) (A) (A) (A) (A) (A)
                 (A) (A) (A) (A) (A) (A) (A) (A) (A) (A) (A) (A)
                 (A) (A) (A) (A) (A) (A) (A) (A) (A) (A) (A) (A)
                 (A) (A) (A) (A) (A) (A) (A) (A) (A) (A) (A) (A)
                 (A) (A) (A) (A) (A) (A) (A) (A) (A) (A) (A) (A)
                 (A) (A) (A) (A) (A) (A) (A) (A) (A) (A) (A) (A)
                 (A) (A) (A) (A) (A) (A) (A) (A) (A) (A) (A) (A)
                 (A) (A) (A) (A) (A) (A) (A) (A) (A) (A) (A) (A)
                 (A) (A) (A) (A) (A) (A) (A) (A) (A) (A) (A) (A)
                 (A) (A) (A) (A) (A) (A) (A) (A) (A) (A) (A) (A)
                 (A) (A) (A) (A) (A) (A) (A) (A) (A) (A) (A) (A)
                 (A) (A) (A) (A) (A) (A) (A) (A) (A) (A) (A) (A)
                 (A) (A) (A) (A) (A) (A) (A) (A) (A) (A) (A) (A)
                 (A) (A) (A) (A) (A) (A) (A) (A) (A) (A) (A) (A)
                 (A) (A) (A) (A) (A) (A) (A) (A) (A) (A) (A) (A)
                 (A) (A) (A) (A) (A) (A) (A) (A) (A) (A) (A) (A)
                 (A) (A) (A) (A) (A) (A) (A) (A) (A) (A) (A) (A)
                 (A) (A) (A) (A) (A) (A) (A) (A) (A) (A) (A) (A)
                 (A) (A) (A) (A) (A) (A) (A) (A) (A) (A) (A) (A)
                 (A) (A) (A) (A) (A) (A) (A) (A) (A) (A) (A) (A)
                 (A) (A) (A) (A) (A) (A) (A) (A) (A) (A) (A) (A)
                 (A) (A) (A) (A) (A) (A) (A) (A) (A) (A) (A) (A)
                 (A) (A) (A) (A) (A) (A) (A) (A) (A) (A) (A) (A)
                 (A) (A) (A) (A) (A) (A) (A) (A) (A) (A) (A) (A)
                 (A) (A) (A) (A) (A) (A) (A) (A) (A) (A) (A)
 The electronic state of the initial guess is 1-A.
 Requested convergence on RMS density matrix=1.00D-08 within 128 cycles.
 Requested convergence on MAX density matrix=1.00D-06.
 Requested convergence on             energy=1.00D-06.
 No special actions if energy rises.
 Initial convergence to 1.0D-05 achieved.  Increase integral accuracy.
 SCF Done:  E(RHF) =  -492.922305195     A.U. after   14 cycles
             Convg  =    0.6998D-08             -V/T =  2.0017
 ExpMin= 2.97D-02 ExpMax= 1.17D+04 ExpMxC= 4.01D+02 IAcc=3 IRadAn=         5 AccDes= 0.00D+00
 HarFok:  IExCor=  205 AccDes= 0.00D+00 IRadAn=         5 IDoV=-2
 ScaDFX=  1.000000  1.000000  1.000000  1.000000
 Range of M.O.s used for correlation:    11   338
 NBasis=   338 NAE=    39 NBE=    39 NFC=    10 NFV=     0
 NROrb=    328 NOA=    29 NOB=    29 NVA=   299 NVB=   299

 **** Warning!!: The largest alpha MO coefficient is  0.60628196D+02

 Disk-based method using OVN memory for 29 occupieds at a time.
 Estimated scratch disk usage=  1388678309 words.
 Actual    scratch disk usage=  1375377803 words.
 JobTyp=1 Pass  1:  I=   1 to  29 NPSUse=  8 ParTrn=T ParDer=T DoDerP=F.
 Spin components of T(2) and E(2):
     alpha-alpha T2 =       0.6806097512D-01 E2=     -0.2061277398D+00
     alpha-beta  T2 =       0.3766779575D+00 E2=     -0.1190702095D+01
     beta-beta   T2 =       0.6806097512D-01 E2=     -0.2061277398D+00
 ANorm=    0.1229959311D+01
 E2 =    -0.1602957574D+01 EUMP2 =    -0.49452526276912D+03

 **********************************************************************

            Population analysis using the SCF density.

 **********************************************************************

 Orbital symmetries:
       Occupied  (A) (A) (A) (A) (A) (A) (A) (A) (A) (A) (A) (A)
                 (A) (A) (A) (A) (A) (A) (A) (A) (A) (A) (A) (A)
                 (A) (A) (A) (A) (A) (A) (A) (A) (A) (A) (A) (A)
                 (A) (A) (A)
       Virtual   (A) (A) (A) (A) (A) (A) (A) (A) (A) (A) (A) (A)
                 (A) (A) (A) (A) (A) (A) (A) (A) (A) (A) (A) (A)
                 (A) (A) (A) (A) (A) (A) (A) (A) (A) (A) (A) (A)
                 (A) (A) (A) (A) (A) (A) (A) (A) (A) (A) (A) (A)
                 (A) (A) (A) (A) (A) (A) (A) (A) (A) (A) (A) (A)
                 (A) (A) (A) (A) (A) (A) (A) (A) (A) (A) (A) (A)
                 (A) (A) (A) (A) (A) (A) (A) (A) (A) (A) (A) (A)
                 (A) (A) (A) (A) (A) (A) (A) (A) (A) (A) (A) (A)
                 (A) (A) (A) (A) (A) (A) (A) (A) (A) (A) (A) (A)
                 (A) (A) (A) (A) (A) (A) (A) (A) (A) (A) (A) (A)
                 (A) (A) (A) (A) (A) (A) (A) (A) (A) (A) (A) (A)
                 (A) (A) (A) (A) (A) (A) (A) (A) (A) (A) (A) (A)
                 (A) (A) (A) (A) (A) (A) (A) (A) (A) (A) (A) (A)
                 (A) (A) (A) (A) (A) (A) (A) (A) (A) (A) (A) (A)
                 (A) (A) (A) (A) (A) (A) (A) (A) (A) (A) (A) (A)
                 (A) (A) (A) (A) (A) (A) (A) (A) (A) (A) (A) (A)
                 (A) (A) (A) (A) (A) (A) (A) (A) (A) (A) (A) (A)
                 (A) (A) (A) (A) (A) (A) (A) (A) (A) (A) (A) (A)
                 (A) (A) (A) (A) (A) (A) (A) (A) (A) (A) (A) (A)
                 (A) (A) (A) (A) (A) (A) (A) (A) (A) (A) (A) (A)
                 (A) (A) (A) (A) (A) (A) (A) (A) (A) (A) (A) (A)
                 (A) (A) (A) (A) (A) (A) (A) (A) (A) (A) (A) (A)
                 (A) (A) (A) (A) (A) (A) (A) (A) (A) (A) (A) (A)
                 (A) (A) (A) (A) (A) (A) (A) (A) (A) (A) (A) (A)
                 (A) (A) (A) (A) (A) (A) (A) (A) (A) (A) (A)
 The electronic state is 1-A.
 Alpha  occ. eigenvalues --  -20.54542 -20.52588 -15.61364 -15.57989 -11.37940
 Alpha  occ. eigenvalues --  -11.35399 -11.29967 -11.26069 -11.25676 -11.24313
 Alpha  occ. eigenvalues --   -1.40027  -1.37896  -1.25394  -1.21912  -1.06318
 Alpha  occ. eigenvalues --   -1.00226  -0.95016  -0.87822  -0.81706  -0.77388
 Alpha  occ. eigenvalues --   -0.71762  -0.69526  -0.67745  -0.63301  -0.62415
 Alpha  occ. eigenvalues --   -0.62009  -0.59568  -0.58715  -0.58203  -0.55292
 Alpha  occ. eigenvalues --   -0.54560  -0.54039  -0.53439  -0.52201  -0.49422
 Alpha  occ. eigenvalues --   -0.44219  -0.43885  -0.40317  -0.38200
 Alpha virt. eigenvalues --    0.02361   0.03901   0.04238   0.04568   0.05870
 Alpha virt. eigenvalues --    0.06039   0.06411   0.06665   0.07204   0.08006
 Alpha virt. eigenvalues --    0.09013   0.09974   0.11545   0.11658   0.12251
 Alpha virt. eigenvalues --    0.13395   0.13843   0.14494   0.14822   0.15242
 Alpha virt. eigenvalues --    0.15882   0.16324   0.16827   0.17043   0.17393
 Alpha virt. eigenvalues --    0.18010   0.18329   0.18445   0.18773   0.18887
 Alpha virt. eigenvalues --    0.19409   0.20317   0.20606   0.21309   0.22059
 Alpha virt. eigenvalues --    0.23226   0.24257   0.25151   0.25840   0.26140
 Alpha virt. eigenvalues --    0.26322   0.28018   0.29465   0.29830   0.30823
 Alpha virt. eigenvalues --    0.31509   0.32329   0.32480   0.33515   0.34204
 Alpha virt. eigenvalues --    0.34458   0.34791   0.35050   0.35686   0.36889
 Alpha virt. eigenvalues --    0.37580   0.38045   0.38694   0.39229   0.39944
 Alpha virt. eigenvalues --    0.40931   0.41199   0.41619   0.42535   0.42726
 Alpha virt. eigenvalues --    0.43265   0.43822   0.44666   0.45050   0.45893
 Alpha virt. eigenvalues --    0.46547   0.47540   0.47591   0.48561   0.49685
 Alpha virt. eigenvalues --    0.50005   0.50176   0.51398   0.51619   0.52665
 Alpha virt. eigenvalues --    0.52791   0.53603   0.53955   0.55011   0.55337
 Alpha virt. eigenvalues --    0.56617   0.56857   0.57287   0.58148   0.58443
 Alpha virt. eigenvalues --    0.59313   0.60270   0.60790   0.62112   0.62265
 Alpha virt. eigenvalues --    0.62816   0.63522   0.63918   0.64758   0.65116
 Alpha virt. eigenvalues --    0.66128   0.66401   0.66695   0.67643   0.67719
 Alpha virt. eigenvalues --    0.69124   0.69414   0.69562   0.71209   0.71617
 Alpha virt. eigenvalues --    0.72176   0.73485   0.74534   0.75045   0.75144
 Alpha virt. eigenvalues --    0.75468   0.77319   0.77891   0.78902   0.79981
 Alpha virt. eigenvalues --    0.80705   0.81521   0.82198   0.82860   0.83566
 Alpha virt. eigenvalues --    0.84234   0.85590   0.86345   0.87208   0.88821
 Alpha virt. eigenvalues --    0.89724   0.90249   0.91271   0.91766   0.92428
 Alpha virt. eigenvalues --    0.93684   0.93986   0.96921   0.98662   0.99836
 Alpha virt. eigenvalues --    1.00663   1.01373   1.02425   1.05055   1.05500
 Alpha virt. eigenvalues --    1.06424   1.07809   1.09119   1.10724   1.10995
 Alpha virt. eigenvalues --    1.12606   1.13219   1.14230   1.15744   1.16841
 Alpha virt. eigenvalues --    1.17669   1.19481   1.20884   1.21659   1.23470
 Alpha virt. eigenvalues --    1.24487   1.26221   1.27965   1.29431   1.31574
 Alpha virt. eigenvalues --    1.33154   1.33287   1.35065   1.36212   1.38519
 Alpha virt. eigenvalues --    1.39797   1.40474   1.42370   1.43661   1.45816
 Alpha virt. eigenvalues --    1.47813   1.49836   1.50265   1.52101   1.55752
 Alpha virt. eigenvalues --    1.56676   1.58231   1.58950   1.62284   1.63629
 Alpha virt. eigenvalues --    1.65570   1.67771   1.68880   1.70803   1.71283
 Alpha virt. eigenvalues --    1.73953   1.75205   1.77513   1.79737   1.82438
 Alpha virt. eigenvalues --    1.83667   1.84523   1.85543   1.86012   1.87874
 Alpha virt. eigenvalues --    1.89733   1.90288   1.92240   1.92959   1.93310
 Alpha virt. eigenvalues --    1.94805   1.96758   1.99042   2.00850   2.01548
 Alpha virt. eigenvalues --    2.02980   2.05166   2.06435   2.07417   2.08952
 Alpha virt. eigenvalues --    2.11425   2.12778   2.13952   2.16736   2.17737
 Alpha virt. eigenvalues --    2.19573   2.20129   2.20772   2.22052   2.22960
 Alpha virt. eigenvalues --    2.24504   2.27047   2.28094   2.29668   2.30354
 Alpha virt. eigenvalues --    2.30815   2.32601   2.35269   2.36299   2.38299
 Alpha virt. eigenvalues --    2.39549   2.40676   2.41047   2.44386   2.46240
 Alpha virt. eigenvalues --    2.47557   2.48816   2.49913   2.50399   2.51855
 Alpha virt. eigenvalues --    2.51998   2.54259   2.55913   2.58360   2.59142
 Alpha virt. eigenvalues --    2.61587   2.64115   2.65891   2.67275   2.68475
 Alpha virt. eigenvalues --    2.71001   2.72699   2.76027   2.76348   2.78552
 Alpha virt. eigenvalues --    2.80317   2.84430   2.86255   2.87664   2.89000
 Alpha virt. eigenvalues --    2.90510   2.91772   2.94309   2.95964   2.97110
 Alpha virt. eigenvalues --    2.98497   3.02692   3.05072   3.07597   3.10280
 Alpha virt. eigenvalues --    3.11268   3.14909   3.18697   3.21156   3.22010
 Alpha virt. eigenvalues --    3.33149   3.38409   3.44691   3.51037   3.52383
 Alpha virt. eigenvalues --    3.62190   3.63620   3.76981   3.84760   3.86109
 Alpha virt. eigenvalues --    3.86682   3.88287   3.92270   3.95818   3.97218
 Alpha virt. eigenvalues --    4.04230   4.07198   4.20501   4.24086
          Condensed to atoms (all electrons):
              1          2          3          4          5          6
     1  H    0.725710   0.334169  -0.084531  -0.043893  -0.071754   0.026219
     2  C    0.334169   4.562421   0.361124   0.387528   0.270306  -0.049157
     3  H   -0.084531   0.361124   1.071733  -0.064063   0.155919  -0.015692
     4  H   -0.043893   0.387528  -0.064063   0.710300  -0.090253   0.008105
     5  C   -0.071754   0.270306   0.155919  -0.090253   5.497918   0.147245
     6  O    0.026219  -0.049157  -0.015692   0.008105   0.147245   8.756994
     7  N    0.069832  -0.066533  -0.230993   0.042406   0.050759  -0.113539
     8  H   -0.001847  -0.060875   0.009983  -0.007380  -0.068703  -0.011365
     9  C    0.005789  -0.093358  -0.045865  -0.008276  -0.294687   0.103503
    10  H    0.000208  -0.005207  -0.000461  -0.001849  -0.006694   0.013292
    11  C   -0.000852  -0.018024  -0.003450   0.002111   0.002472  -0.002895
    12  H   -0.000528  -0.007351  -0.000739   0.000138  -0.011592   0.000239
    13  H    0.000232   0.002515   0.000187   0.000168   0.006935  -0.001743
    14  H   -0.000265  -0.001428   0.000361  -0.000394   0.002296   0.002001
    15  C    0.000126   0.006570  -0.006579   0.004575  -0.103695  -0.021947
    16  O    0.000151   0.001327  -0.000034  -0.000100   0.008113   0.002545
    17  N    0.001821   0.005174  -0.000838  -0.000812   0.017926   0.007822
    18  H    0.003964   0.001871  -0.002668  -0.002572   0.012959   0.028625
    19  C   -0.000251   0.005208  -0.000026   0.000078   0.017888  -0.007002
    20  H    0.000302   0.000918  -0.000162   0.000002  -0.000523  -0.001526
    21  H   -0.000578   0.000196   0.000257   0.000175   0.014651   0.000612
    22  H   -0.000091  -0.000610   0.000091  -0.000014  -0.002828   0.001564
              7          8          9         10         11         12
     1  H    0.069832  -0.001847   0.005789   0.000208  -0.000852  -0.000528
     2  C   -0.066533  -0.060875  -0.093358  -0.005207  -0.018024  -0.007351
     3  H   -0.230993   0.009983  -0.045865  -0.000461  -0.003450  -0.000739
     4  H    0.042406  -0.007380  -0.008276  -0.001849   0.002111   0.000138
     5  C    0.050759  -0.068703  -0.294687  -0.006694   0.002472  -0.011592
     6  O   -0.113539  -0.011365   0.103503   0.013292  -0.002895   0.000239
     7  N    7.502583   0.371096  -0.147179  -0.087093   0.006513  -0.062641
     8  H    0.371096   0.943662  -0.176413  -0.000139   0.012412   0.007693
     9  C   -0.147179  -0.176413   6.618994   0.088645   0.217722  -0.136517
    10  H   -0.087093  -0.000139   0.088645   0.990822  -0.027275   0.072232
    11  C    0.006513   0.012412   0.217722  -0.027275   4.281527   0.434012
    12  H   -0.062641   0.007693  -0.136517   0.072232   0.434012   1.097200
    13  H    0.051959   0.000760  -0.012620  -0.036098   0.296444  -0.166128
    14  H   -0.039245  -0.000599   0.153878  -0.054898   0.227007  -0.207329
    15  C    0.026813   0.021894  -0.138319  -0.029364  -0.143347  -0.042777
    16  O    0.012765  -0.001321  -0.120884   0.023698   0.000998   0.018197
    17  N    0.013881   0.004762  -0.099809   0.035652   0.068335   0.023368
    18  H   -0.003949  -0.000987  -0.015936   0.000650  -0.010092   0.001271
    19  C   -0.005725   0.003316  -0.051817   0.008559  -0.008002   0.003546
    20  H   -0.000674   0.000485   0.004561   0.001223  -0.005297  -0.000761
    21  H   -0.002850  -0.000057  -0.021634  -0.000345   0.001184  -0.000117
    22  H    0.002472   0.000078   0.000211  -0.000394   0.000297   0.000292
             13         14         15         16         17         18
     1  H    0.000232  -0.000265   0.000126   0.000151   0.001821   0.003964
     2  C    0.002515  -0.001428   0.006570   0.001327   0.005174   0.001871
     3  H    0.000187   0.000361  -0.006579  -0.000034  -0.000838  -0.002668
     4  H    0.000168  -0.000394   0.004575  -0.000100  -0.000812  -0.002572
     5  C    0.006935   0.002296  -0.103695   0.008113   0.017926   0.012959
     6  O   -0.001743   0.002001  -0.021947   0.002545   0.007822   0.028625
     7  N    0.051959  -0.039245   0.026813   0.012765   0.013881  -0.003949
     8  H    0.000760  -0.000599   0.021894  -0.001321   0.004762  -0.000987
     9  C   -0.012620   0.153878  -0.138319  -0.120884  -0.099809  -0.015936
    10  H   -0.036098  -0.054898  -0.029364   0.023698   0.035652   0.000650
    11  C    0.296444   0.227007  -0.143347   0.000998   0.068335  -0.010092
    12  H   -0.166128  -0.207329  -0.042777   0.018197   0.023368   0.001271
    13  H    1.148932  -0.210768   0.045049  -0.032669  -0.012773  -0.001923
    14  H   -0.210768   1.194869   0.003836   0.003609   0.001643   0.000132
    15  C    0.045049   0.003836   5.240366   0.257702   0.131600  -0.027789
    16  O   -0.032669   0.003609   0.257702   8.812232  -0.128426   0.004777
    17  N   -0.012773   0.001643   0.131600  -0.128426   7.092031   0.269187
    18  H   -0.001923   0.000132  -0.027789   0.004777   0.269187   0.902055
    19  C    0.000915  -0.000776  -0.099303   0.018858   0.135838  -0.124132
    20  H   -0.000341   0.000126   0.045633  -0.016282  -0.078714   0.005100
    21  H    0.000002   0.000118  -0.034456   0.008957  -0.155863   0.006098
    22  H    0.000355  -0.000156   0.010575   0.003202   0.145703  -0.017077
             19         20         21         22
     1  H   -0.000251   0.000302  -0.000578  -0.000091
     2  C    0.005208   0.000918   0.000196  -0.000610
     3  H   -0.000026  -0.000162   0.000257   0.000091
     4  H    0.000078   0.000002   0.000175  -0.000014
     5  C    0.017888  -0.000523   0.014651  -0.002828
     6  O   -0.007002  -0.001526   0.000612   0.001564
     7  N   -0.005725  -0.000674  -0.002850   0.002472
     8  H    0.003316   0.000485  -0.000057   0.000078
     9  C   -0.051817   0.004561  -0.021634   0.000211
    10  H    0.008559   0.001223  -0.000345  -0.000394
    11  C   -0.008002  -0.005297   0.001184   0.000297
    12  H    0.003546  -0.000761  -0.000117   0.000292
    13  H    0.000915  -0.000341   0.000002   0.000355
    14  H   -0.000776   0.000126   0.000118  -0.000156
    15  C   -0.099303   0.045633  -0.034456   0.010575
    16  O    0.018858  -0.016282   0.008957   0.003202
    17  N    0.135838  -0.078714  -0.155863   0.145703
    18  H   -0.124132   0.005100   0.006098  -0.017077
    19  C    4.191030   0.438528   0.482216   0.228799
    20  H    0.438528   1.034978  -0.206447  -0.097167
    21  H    0.482216  -0.206447   1.272870  -0.168898
    22  H    0.228799  -0.097167  -0.168898   0.936145
 Mulliken atomic charges:
              1
     1  H    0.036066
     2  C    0.363215
     3  H   -0.143556
     4  H    0.064020
     5  C    0.445339
     6  O   -0.873898
     7  N   -0.390659
     8  H   -0.046456
     9  C    0.170007
    10  H    0.014838
    11  C    0.668199
    12  H   -0.021707
    13  H   -0.079390
    14  H   -0.074020
    15  C    0.852835
    16  O   -0.877415
    17  N   -0.477508
    18  H   -0.029563
    19  C    0.762254
    20  H   -0.123962
    21  H   -0.196091
    22  H   -0.042549
 Sum of Mulliken atomic charges =   0.00000
 Mulliken charges with hydrogens summed into heavy atoms:
              1
     2  C    0.319746
     5  C    0.445339
     6  O   -0.873898
     7  N   -0.437115
     9  C    0.184846
    11  C    0.493082
    15  C    0.852835
    16  O   -0.877415
    17  N   -0.507071
    19  C    0.399651
 Sum of Mulliken charges with hydrogens summed into heavy atoms =   0.00000
 Electronic spatial extent (au):  <R**2>=           1726.2837
 Charge=              0.0000 electrons
 Dipole moment (field-independent basis, Debye):
    X=              4.2812    Y=              1.2760    Z=             -3.0907  Tot=              5.4322
 Quadrupole moment (field-independent basis, Debye-Ang):
   XX=            -62.5329   YY=            -57.7150   ZZ=            -63.4424
   XY=              7.4352   XZ=             -1.1361   YZ=              2.0924
 Traceless Quadrupole moment (field-independent basis, Debye-Ang):
   XX=             -1.3028   YY=              3.5151   ZZ=             -2.2123
   XY=              7.4352   XZ=             -1.1361   YZ=              2.0924
 Octapole moment (field-independent basis, Debye-Ang**2):
  XXX=             51.6897  YYY=              0.5411  ZZZ=              1.3019  XYY=             -6.7281
  XXY=            -11.9890  XXZ=            -15.3849  XZZ=              0.8105  YZZ=              4.2093
  YYZ=             -7.4557  XYZ=              4.6958
 Hexadecapole moment (field-independent basis, Debye-Ang**3):
 XXXX=          -1336.0769 YYYY=           -726.9021 ZZZZ=           -172.6123 XXXY=             23.9445
 XXXZ=             21.5917 YYYX=             10.3155 YYYZ=             11.5165 ZZZX=             -5.4173
 ZZZY=             -1.2928 XXYY=           -341.9381 XXZZ=           -257.0962 YYZZ=           -152.1971
 XXYZ=              0.2997 YYXZ=            -10.2836 ZZXY=              8.6159
 N-N= 5.601361806867D+02 E-N=-2.275413546210D+03  KE= 4.920640135844D+02
 1\1\GINC-NODE011\SP\RMP2-FC\Aug-CC-pVDZ\C6H12N2O2\MANAGER\13-Feb-2017\
 0\\#SP MP2/aug-cc-pVDZ\\Single Point calculation at MP2\\0,1\H,0,3.431
 5,-1.5117,-0.7428\C,0,3.2781,-0.4895,-0.3871\H,0,3.4867,0.2114,-1.2013
 \H,0,3.9978,-0.3126,0.4195\C,0,1.8715,-0.3737,0.1817\O,0,1.4168,-1.214
 6,0.9566\N,0,1.1612,0.7175,-0.217\H,0,1.5892,1.3315,-0.8958\C,0,-0.142
 3,1.1475,0.3038\H,0,-0.0358,1.2965,1.387\C,0,-0.5082,2.4896,-0.3389\H,
 0,-0.5938,2.3897,-1.4279\H,0,-1.4717,2.8201,0.0502\H,0,0.2492,3.2485,-
 0.1122\C,0,-1.3468,0.1797,0.1729\O,0,-2.4463,0.5807,0.5399\N,0,-1.1494
 ,-1.0308,-0.4196\H,0,-0.226,-1.4288,-0.2883\C,0,-2.258,-1.976,-0.4703\
 H,0,-3.1443,-1.4655,-0.8511\H,0,-1.9933,-2.7951,-1.1441\H,0,-2.5012,-2
 .3865,0.5185\\Version=EM64L-G09RevA.02\State=1-A\HF=-492.9223052\MP2=-
 494.5252628\RMSD=6.998e-09\PG=C01 [X(C6H12N2O2)]\\@


 We're simply so accustomed to the marvels of everyday thought
 that we never wonder about it.
 -- Marvin Minsky in "Why people think computers are smart"
 Job cpu time:  0 days 11 hours  4 minutes 55.9 seconds.
 File lengths (MBytes):  RWF=  10610 Int=      0 D2E=      0 Chk=      7 Scr=      2
 Normal termination of Gaussian 09 at Mon Feb 13 16:03:40 2017.
