 Entering Gaussian System, Link 0=g09
 Initial command:
 /home/steboss/Software/g09/l1.exe /tmp/Gau-31066.inp -scrdir=/tmp/
 Entering Link 1 = /home/steboss/Software/g09/l1.exe PID=     31068.
  
 Copyright (c) 1988,1990,1992,1993,1995,1998,2003,2009, Gaussian, Inc.
                  All Rights Reserved.
  
 This is part of the Gaussian(R) 09 program.  It is based on
 the Gaussian(R) 03 system (copyright 2003, Gaussian, Inc.),
 the Gaussian(R) 98 system (copyright 1998, Gaussian, Inc.),
 the Gaussian(R) 94 system (copyright 1995, Gaussian, Inc.),
 the Gaussian 92(TM) system (copyright 1992, Gaussian, Inc.),
 the Gaussian 90(TM) system (copyright 1990, Gaussian, Inc.),
 the Gaussian 88(TM) system (copyright 1988, Gaussian, Inc.),
 the Gaussian 86(TM) system (copyright 1986, Carnegie Mellon
 University), and the Gaussian 82(TM) system (copyright 1983,
 Carnegie Mellon University). Gaussian is a federally registered
 trademark of Gaussian, Inc.
  
 This software contains proprietary and confidential information,
 including trade secrets, belonging to Gaussian, Inc.
  
 This software is provided under written license and may be
 used, copied, transmitted, or stored only in accord with that
 written license.
  
 The following legend is applicable only to US Government
 contracts under FAR:
  
                    RESTRICTED RIGHTS LEGEND
  
 Use, reproduction and disclosure by the US Government is
 subject to restrictions as set forth in subparagraphs (a)
 and (c) of the Commercial Computer Software - Restricted
 Rights clause in FAR 52.227-19.
  
 Gaussian, Inc.
 340 Quinnipiac St., Bldg. 40, Wallingford CT 06492
  
  
 ---------------------------------------------------------------
 Warning -- This program may not be used in any manner that
 competes with the business of Gaussian, Inc. or will provide
 assistance to any competitor of Gaussian, Inc.  The licensee
 of this program is prohibited from giving any competitor of
 Gaussian, Inc. access to this program.  By using this program,
 the user acknowledges that Gaussian, Inc. is engaged in the
 business of creating and licensing software in the field of
 computational chemistry and represents and warrants to the
 licensee that it is not a competitor of Gaussian, Inc. and that
 it will not use this program in any manner prohibited above.
 ---------------------------------------------------------------
  

 Cite this work as:
 Gaussian 09, Revision A.02,
 M. J. Frisch, G. W. Trucks, H. B. Schlegel, G. E. Scuseria, 
 M. A. Robb, J. R. Cheeseman, G. Scalmani, V. Barone, B. Mennucci, 
 G. A. Petersson, H. Nakatsuji, M. Caricato, X. Li, H. P. Hratchian, 
 A. F. Izmaylov, J. Bloino, G. Zheng, J. L. Sonnenberg, M. Hada, 
 M. Ehara, K. Toyota, R. Fukuda, J. Hasegawa, M. Ishida, T. Nakajima, 
 Y. Honda, O. Kitao, H. Nakai, T. Vreven, J. A. Montgomery, Jr., 
 J. E. Peralta, F. Ogliaro, M. Bearpark, J. J. Heyd, E. Brothers, 
 K. N. Kudin, V. N. Staroverov, R. Kobayashi, J. Normand, 
 K. Raghavachari, A. Rendell, J. C. Burant, S. S. Iyengar, J. Tomasi, 
 M. Cossi, N. Rega, J. M. Millam, M. Klene, J. E. Knox, J. B. Cross, 
 V. Bakken, C. Adamo, J. Jaramillo, R. Gomperts, R. E. Stratmann, 
 O. Yazyev, A. J. Austin, R. Cammi, C. Pomelli, J. W. Ochterski, 
 R. L. Martin, K. Morokuma, V. G. Zakrzewski, G. A. Voth, 
 P. Salvador, J. J. Dannenberg, S. Dapprich, A. D. Daniels, 
 O. Farkas, J. B. Foresman, J. V. Ortiz, J. Cioslowski, 
 and D. J. Fox, Gaussian, Inc., Wallingford CT, 2009.
 
 ******************************************
 Gaussian 09:  EM64L-G09RevA.02 11-Jun-2009
                 9-Feb-2017 
 ******************************************
 %chk=structure_255.chk
 %NProcShared=8
 Will use up to    8 processors via shared memory.
 -------------------------------------------
 # HF/6-31G* Opt=(ModRedundant) geom=nocrowd
 -------------------------------------------
 1/18=120,19=15,38=1/1,3;
 2/9=110,12=1,17=6,18=5,40=1/2;
 3/5=1,6=6,7=1,11=9,16=1,25=1,30=1,71=1/1,2,3;
 4//1;
 5/5=2,38=5/2;
 6/7=2,8=2,9=2,10=2,28=1/1;
 7//1,2,3,16;
 1/18=20,19=15/3(2);
 2/9=110,12=1/2;
 99//99;
 2/9=110,12=1/2;
 3/5=1,6=6,7=1,11=9,16=1,25=1,30=1,71=1/1,2,3;
 4/5=5,16=3/1;
 5/5=2,38=5/2;
 7//1,2,3,16;
 1/18=20,19=15/3(-5);
 2/9=110,12=1/2;
 6/7=2,8=2,9=2,10=2,19=2,28=1/1;
 99/9=1/99;
 ------------------
 Phi Psi fixed scan
 ------------------
 Symbolic Z-matrix:
 Charge =  0 Multiplicity = 1
 H                     0.8983    3.2194   -1.9013 
 C                     1.4447    3.2086   -0.9582 
 H                     1.6234    2.1775   -0.6531 
 H                     0.8591    3.7173   -0.1925 
 C                     2.7931    3.9187   -1.0948 
 O                     3.1338    4.4092   -2.1689 
 N                     3.5554    3.9697    0. 
 H                     3.2318    3.5516    0.8606 
 C                     4.8533    4.6139    0. 
 H                     5.4076    4.3155    0.8898 
 C                     5.6613    4.2208   -1.2322 
 H                     5.1233    4.5214   -2.1312 
 H                     6.6305    4.7189   -1.2058 
 H                     5.8085    3.1409   -1.2414 
 C                     4.7127    6.1294    0. 
 O                     4.3822    6.7252    1.0229 
 N                     4.9651    6.7532   -1.153 
 H                     5.2337    6.2197   -1.9675 
 C                     4.8663    8.193    -1.2823 
 H                     4.5691    8.6246   -0.3265 
 H                     5.8335    8.5989   -1.5786 
 H                     4.1219    8.4401   -2.0392 
 
 The following ModRedundant input section has been read:
 D    5    7    9   15 F                                                       
 D    7    9   15   17 F                                                       

 GradGradGradGradGradGradGradGradGradGradGradGradGradGradGradGradGradGrad
 Berny optimization.
 Initialization pass.
                           ----------------------------
                           !    Initial Parameters    !
                           ! (Angstroms and Degrees)  !
 --------------------------                            --------------------------
 ! Name  Definition              Value          Derivative Info.                !
 --------------------------------------------------------------------------------
 ! R1    R(1,2)                  1.09           estimate D2E/DX2                !
 ! R2    R(2,3)                  1.09           estimate D2E/DX2                !
 ! R3    R(2,4)                  1.09           estimate D2E/DX2                !
 ! R4    R(2,5)                  1.5301         estimate D2E/DX2                !
 ! R5    R(5,6)                  1.229          estimate D2E/DX2                !
 ! R6    R(5,7)                  1.335          estimate D2E/DX2                !
 ! R7    R(7,8)                  1.01           estimate D2E/DX2                !
 ! R8    R(7,9)                  1.449          estimate D2E/DX2                !
 ! R9    R(9,10)                 1.09           estimate D2E/DX2                !
 ! R10   R(9,11)                 1.525          estimate D2E/DX2                !
 ! R11   R(9,15)                 1.522          estimate D2E/DX2                !
 ! R12   R(11,12)                1.09           estimate D2E/DX2                !
 ! R13   R(11,13)                1.09           estimate D2E/DX2                !
 ! R14   R(11,14)                1.0899         estimate D2E/DX2                !
 ! R15   R(15,16)                1.229          estimate D2E/DX2                !
 ! R16   R(15,17)                1.335          estimate D2E/DX2                !
 ! R17   R(17,18)                1.01           estimate D2E/DX2                !
 ! R18   R(17,19)                1.449          estimate D2E/DX2                !
 ! R19   R(19,20)                1.09           estimate D2E/DX2                !
 ! R20   R(19,21)                1.09           estimate D2E/DX2                !
 ! R21   R(19,22)                1.09           estimate D2E/DX2                !
 ! A1    A(1,2,3)              109.4952         estimate D2E/DX2                !
 ! A2    A(1,2,4)              109.5044         estimate D2E/DX2                !
 ! A3    A(1,2,5)              111.0955         estimate D2E/DX2                !
 ! A4    A(3,2,4)              109.4467         estimate D2E/DX2                !
 ! A5    A(3,2,5)              108.6338         estimate D2E/DX2                !
 ! A6    A(4,2,5)              108.6385         estimate D2E/DX2                !
 ! A7    A(2,5,6)              120.5019         estimate D2E/DX2                !
 ! A8    A(2,5,7)              116.5977         estimate D2E/DX2                !
 ! A9    A(6,5,7)              122.9003         estimate D2E/DX2                !
 ! A10   A(5,7,8)              119.9988         estimate D2E/DX2                !
 ! A11   A(5,7,9)              121.9007         estimate D2E/DX2                !
 ! A12   A(8,7,9)              118.1005         estimate D2E/DX2                !
 ! A13   A(7,9,10)             109.5            estimate D2E/DX2                !
 ! A14   A(7,9,11)             111.0992         estimate D2E/DX2                !
 ! A15   A(7,9,15)             111.0966         estimate D2E/DX2                !
 ! A16   A(10,9,11)            108.6382         estimate D2E/DX2                !
 ! A17   A(10,9,15)            108.6373         estimate D2E/DX2                !
 ! A18   A(11,9,15)            107.7947         estimate D2E/DX2                !
 ! A19   A(9,11,12)            109.5007         estimate D2E/DX2                !
 ! A20   A(9,11,13)            109.4959         estimate D2E/DX2                !
 ! A21   A(9,11,14)            109.4978         estimate D2E/DX2                !
 ! A22   A(12,11,13)           109.441          estimate D2E/DX2                !
 ! A23   A(12,11,14)           109.4482         estimate D2E/DX2                !
 ! A24   A(13,11,14)           109.4436         estimate D2E/DX2                !
 ! A25   A(9,15,16)            120.5            estimate D2E/DX2                !
 ! A26   A(9,15,17)            116.6027         estimate D2E/DX2                !
 ! A27   A(16,15,17)           122.8974         estimate D2E/DX2                !
 ! A28   A(15,17,18)           119.9957         estimate D2E/DX2                !
 ! A29   A(15,17,19)           121.9032         estimate D2E/DX2                !
 ! A30   A(18,17,19)           118.1011         estimate D2E/DX2                !
 ! A31   A(17,19,20)           109.4991         estimate D2E/DX2                !
 ! A32   A(17,19,21)           109.4992         estimate D2E/DX2                !
 ! A33   A(17,19,22)           109.4994         estimate D2E/DX2                !
 ! A34   A(20,19,21)           109.4425         estimate D2E/DX2                !
 ! A35   A(20,19,22)           109.4467         estimate D2E/DX2                !
 ! A36   A(21,19,22)           109.4404         estimate D2E/DX2                !
 ! D1    D(1,2,5,6)              0.0109         estimate D2E/DX2                !
 ! D2    D(1,2,5,7)            179.9999         estimate D2E/DX2                !
 ! D3    D(3,2,5,6)            120.513          estimate D2E/DX2                !
 ! D4    D(3,2,5,7)            -59.498          estimate D2E/DX2                !
 ! D5    D(4,2,5,6)           -120.5056         estimate D2E/DX2                !
 ! D6    D(4,2,5,7)             59.4834         estimate D2E/DX2                !
 ! D7    D(2,5,7,8)              0.0091         estimate D2E/DX2                !
 ! D8    D(2,5,7,9)           -179.9996         estimate D2E/DX2                !
 ! D9    D(6,5,7,8)            179.9978         estimate D2E/DX2                !
 ! D10   D(6,5,7,9)             -0.0109         estimate D2E/DX2                !
 ! D11   D(5,7,9,10)          -164.9942         estimate D2E/DX2                !
 ! D12   D(5,7,9,11)           -44.9916         estimate D2E/DX2                !
 ! D13   D(5,7,9,15)            75.006          Frozen                          !
 ! D14   D(8,7,9,10)            14.9973         estimate D2E/DX2                !
 ! D15   D(8,7,9,11)           134.9999         estimate D2E/DX2                !
 ! D16   D(8,7,9,15)          -105.0025         estimate D2E/DX2                !
 ! D17   D(7,9,11,12)           60.0024         estimate D2E/DX2                !
 ! D18   D(7,9,11,13)          179.9986         estimate D2E/DX2                !
 ! D19   D(7,9,11,14)          -60.0038         estimate D2E/DX2                !
 ! D20   D(10,9,11,12)        -179.4843         estimate D2E/DX2                !
 ! D21   D(10,9,11,13)         -59.4881         estimate D2E/DX2                !
 ! D22   D(10,9,11,14)          60.5095         estimate D2E/DX2                !
 ! D23   D(15,9,11,12)         -61.938          estimate D2E/DX2                !
 ! D24   D(15,9,11,13)          58.0582         estimate D2E/DX2                !
 ! D25   D(15,9,11,14)         178.0558         estimate D2E/DX2                !
 ! D26   D(7,9,15,16)           75.0019         estimate D2E/DX2                !
 ! D27   D(7,9,15,17)         -105.0            Frozen                          !
 ! D28   D(10,9,15,16)         -45.5091         estimate D2E/DX2                !
 ! D29   D(10,9,15,17)         134.4889         estimate D2E/DX2                !
 ! D30   D(11,9,15,16)        -163.056          estimate D2E/DX2                !
 ! D31   D(11,9,15,17)          16.942          estimate D2E/DX2                !
 ! D32   D(9,15,17,18)           0.0049         estimate D2E/DX2                !
 ! D33   D(9,15,17,19)         179.9992         estimate D2E/DX2                !
 ! D34   D(16,15,17,18)       -179.9971         estimate D2E/DX2                !
 ! D35   D(16,15,17,19)         -0.0028         estimate D2E/DX2                !
 ! D36   D(15,17,19,20)          0.0032         estimate D2E/DX2                !
 ! D37   D(15,17,19,21)        120.0022         estimate D2E/DX2                !
 ! D38   D(15,17,19,22)       -120.0011         estimate D2E/DX2                !
 ! D39   D(18,17,19,20)        179.9976         estimate D2E/DX2                !
 ! D40   D(18,17,19,21)        -60.0033         estimate D2E/DX2                !
 ! D41   D(18,17,19,22)         59.9933         estimate D2E/DX2                !
 --------------------------------------------------------------------------------
 Trust Radius=3.00D-01 FncErr=1.00D-07 GrdErr=1.00D-07
 Number of steps in this run= 108 maximum allowed number of steps= 132.
 GradGradGradGradGradGradGradGradGradGradGradGradGradGradGradGradGradGrad

                          Input orientation:                          
 ---------------------------------------------------------------------
 Center     Atomic      Atomic             Coordinates (Angstroms)
 Number     Number       Type             X           Y           Z
 ---------------------------------------------------------------------
      1          1           0        0.898300    3.219400   -1.901300
      2          6           0        1.444700    3.208600   -0.958200
      3          1           0        1.623400    2.177500   -0.653100
      4          1           0        0.859100    3.717300   -0.192500
      5          6           0        2.793100    3.918700   -1.094800
      6          8           0        3.133800    4.409200   -2.168900
      7          7           0        3.555400    3.969700    0.000000
      8          1           0        3.231800    3.551600    0.860600
      9          6           0        4.853300    4.613900    0.000000
     10          1           0        5.407600    4.315500    0.889800
     11          6           0        5.661300    4.220800   -1.232200
     12          1           0        5.123300    4.521400   -2.131200
     13          1           0        6.630500    4.718900   -1.205800
     14          1           0        5.808500    3.140900   -1.241400
     15          6           0        4.712700    6.129400    0.000000
     16          8           0        4.382200    6.725200    1.022900
     17          7           0        4.965100    6.753200   -1.153000
     18          1           0        5.233700    6.219700   -1.967500
     19          6           0        4.866300    8.193000   -1.282300
     20          1           0        4.569100    8.624600   -0.326500
     21          1           0        5.833500    8.598900   -1.578600
     22          1           0        4.121900    8.440100   -2.039200
 ---------------------------------------------------------------------
                    Distance matrix (angstroms):
                    1          2          3          4          5
     1  H    0.000000
     2  C    1.090003   0.000000
     3  H    1.780261   1.090040   0.000000
     4  H    1.780292   1.089954   1.779688   0.000000
     5  C    2.174794   1.530060   2.143612   2.143610   0.000000
     6  O    2.546506   2.400061   3.091835   3.091786   1.228966
     7  N    3.352323   2.439769   2.714985   2.714921   1.335024
     8  H    3.630932   2.572821   2.601228   2.601188   2.037353
     9  C    4.604519   3.809405   4.098151   4.098119   2.434402
    10  H    5.415299   4.510533   4.612131   4.713605   3.306312
    11  C    4.912908   4.345036   4.562353   4.939192   2.887337
    12  H    4.427040   4.078170   4.464073   4.752740   2.620535
    13  H    5.965764   5.406925   5.642273   5.944665   3.921515
    14  H    4.954967   4.373504   4.334662   5.092052   3.117547
    15  C    5.160687   4.486540   5.058441   4.550331   3.125803
    16  O    5.742747   4.992008   5.576874   4.789248   3.858281
    17  N    5.439353   4.999535   5.688048   5.196007   3.571465
    18  H    5.272748   4.943878   5.576853   5.343197   3.465939
    19  C    6.392565   6.054472   6.862837   6.105506   4.754257
    20  H    6.720934   6.284423   7.095697   6.153345   5.088217
    21  H    7.307486   6.978667   7.734072   7.106050   5.601997
    22  H    6.137289   5.975329   6.883599   6.030009   4.806314
                    6          7          8          9         10
     6  O    0.000000
     7  N    2.252784   0.000000
     8  H    3.150072   1.010028   0.000000
     9  C    2.775376   1.448978   2.120938   0.000000
    10  H    3.812426   2.083739   2.306188   1.089970   0.000000
    11  C    2.702065   2.452791   3.275685   1.525027   2.139209
    12  H    1.993018   2.702720   3.670034   2.150225   3.041326
    13  H    3.640108   3.386959   4.145330   2.150214   2.459625
    14  H    3.102074   2.702673   3.350591   2.150165   2.466256
    15  C    3.186870   2.450234   3.094956   1.522008   2.136554
    16  O    4.136417   3.053310   3.379571   2.392874   2.622178
    17  N    3.143254   3.326340   4.160427   2.432799   3.211109
    18  H    2.779937   3.427863   4.373158   2.567947   3.438078
    19  C    4.254969   4.604239   5.367141   3.801897   4.477279
    20  H    4.819141   4.775174   5.378932   4.033991   4.555306
    21  H    5.019006   5.395481   6.180111   4.396930   4.962046
    22  H    4.152267   4.946083   5.753134   4.396941   5.219616
                   11         12         13         14         15
    11  C    0.000000
    12  H    1.089957   0.000000
    13  H    1.090023   1.779613   0.000000
    14  H    1.089925   1.779613   1.779617   0.000000
    15  C    2.461892   2.701161   2.668599   3.416575   0.000000
    16  O    3.604663   3.918458   3.747959   4.473097   1.229037
    17  N    2.627550   2.441891   2.629586   3.710505   1.335006
    18  H    2.172351   1.709739   2.187153   3.215062   2.037315
    19  C    4.051285   3.777212   3.897130   5.139370   2.434406
    20  H    4.626732   4.516672   4.503002   5.695974   2.520565
    21  H    4.395157   4.175615   3.978516   5.468463   3.137929
    22  H    4.563277   4.045674   4.564533   5.618062   3.137948
                   16         17         18         19         20
    16  O    0.000000
    17  N    2.252798   0.000000
    18  H    3.150091   1.010039   0.000000
    19  C    2.775380   1.448967   2.120942   0.000000
    20  H    2.337420   2.083760   2.986322   1.090028   0.000000
    21  H    3.519208   2.083714   2.484270   1.089965   1.779641
    22  H    3.519246   2.083739   2.484234   1.089994   1.779710
                   21         22
    21  H    0.000000
    22  H    1.779591   0.000000
 Stoichiometry    C6H12N2O2
 Framework group  C1[X(C6H12N2O2)]
 Deg. of freedom    60
 Full point group                 C1      NOp   1
 Largest Abelian subgroup         C1      NOp   1
 Largest concise Abelian subgroup C1      NOp   1
                         Standard orientation:                         
 ---------------------------------------------------------------------
 Center     Atomic      Atomic             Coordinates (Angstroms)
 Number     Number       Type             X           Y           Z
 ---------------------------------------------------------------------
      1          1           0        3.503049   -1.725861   -0.117528
      2          6           0        3.130328   -0.895439    0.482127
      3          1           0        3.855964   -0.082148    0.468123
      4          1           0        2.977516   -1.227778    1.508869
      5          6           0        1.800528   -0.373643   -0.066001
      6          8           0        1.291350   -0.886401   -1.060070
      7          7           0        1.243766    0.647930    0.588746
      8          1           0        1.700781    1.035984    1.401586
      9          6           0       -0.014360    1.231692    0.169365
     10          1           0       -0.150098    2.195168    0.660612
     11          6           0       -0.044044    1.445845   -1.340259
     12          1           0        0.081488    0.488565   -1.846086
     13          1           0       -0.999714    1.884947   -1.626673
     14          1           0        0.764663    2.117340   -1.628400
     15          6           0       -1.185194    0.330359    0.534409
     16          8           0       -1.573319    0.252440    1.697946
     17          7           0       -1.748502   -0.352197   -0.465112
     18          1           0       -1.393777   -0.255046   -1.405809
     19          6           0       -2.869968   -1.243459   -0.247234
     20          1           0       -3.135978   -1.241846    0.809836
     21          1           0       -3.722633   -0.906080   -0.836439
     22          1           0       -2.596106   -2.253818   -0.550980
 ---------------------------------------------------------------------
 Rotational constants (GHZ):      2.1080609      0.8541778      0.8397121
 Standard basis: 6-31G(d) (6D, 7F)
 There are   174 symmetry adapted basis functions of A   symmetry.
 Integral buffers will be    131072 words long.
 Raffenetti 1 integral format.
 Two-electron integral symmetry is turned on.
   174 basis functions,   328 primitive gaussians,   174 cartesian basis functions
    39 alpha electrons       39 beta electrons
       nuclear repulsion energy       572.6278165291 Hartrees.
 NAtoms=   22 NActive=   22 NUniq=   22 SFac= 7.50D-01 NAtFMM=   80 NAOKFM=F Big=F
 One-electron integrals computed using PRISM.
 NBasis=   174 RedAO= T  NBF=   174
 NBsUse=   174 1.00D-06 NBFU=   174
 Harris functional with IExCor=  205 diagonalized for initial guess.
 ExpMin= 1.61D-01 ExpMax= 5.48D+03 ExpMxC= 8.25D+02 IAcc=1 IRadAn=         1 AccDes= 0.00D+00
 HarFok:  IExCor=  205 AccDes= 0.00D+00 IRadAn=         1 IDoV= 1
 ScaDFX=  1.000000  1.000000  1.000000  1.000000
 FoFCou: FMM=F IPFlag=           0 FMFlag=      100000 FMFlg1=           0
         NFxFlg=           0 DoJE=T BraDBF=F KetDBF=T FulRan=T
         Omega=  0.000000  0.000000  1.000000  0.000000  0.000000 ICntrl=     500 IOpCl=  0
         NMat0=    1 NMatS0=    1 NMatT0=    0 NMatD0=    1 NMtDS0=    0 NMtDT0=    0
         I1Cent=           4 NGrid=           0.
 Petite list used in FoFCou.
 Initial guess orbital symmetries:
       Occupied  (A) (A) (A) (A) (A) (A) (A) (A) (A) (A) (A) (A)
                 (A) (A) (A) (A) (A) (A) (A) (A) (A) (A) (A) (A)
                 (A) (A) (A) (A) (A) (A) (A) (A) (A) (A) (A) (A)
                 (A) (A) (A)
       Virtual   (A) (A) (A) (A) (A) (A) (A) (A) (A) (A) (A) (A)
                 (A) (A) (A) (A) (A) (A) (A) (A) (A) (A) (A) (A)
                 (A) (A) (A) (A) (A) (A) (A) (A) (A) (A) (A) (A)
                 (A) (A) (A) (A) (A) (A) (A) (A) (A) (A) (A) (A)
                 (A) (A) (A) (A) (A) (A) (A) (A) (A) (A) (A) (A)
                 (A) (A) (A) (A) (A) (A) (A) (A) (A) (A) (A) (A)
                 (A) (A) (A) (A) (A) (A) (A) (A) (A) (A) (A) (A)
                 (A) (A) (A) (A) (A) (A) (A) (A) (A) (A) (A) (A)
                 (A) (A) (A) (A) (A) (A) (A) (A) (A) (A) (A) (A)
                 (A) (A) (A) (A) (A) (A) (A) (A) (A) (A) (A) (A)
                 (A) (A) (A) (A) (A) (A) (A) (A) (A) (A) (A) (A)
                 (A) (A) (A)
 The electronic state of the initial guess is 1-A.
 Requested convergence on RMS density matrix=1.00D-08 within 128 cycles.
 Requested convergence on MAX density matrix=1.00D-06.
 Requested convergence on             energy=1.00D-06.
 No special actions if energy rises.
 Integral accuracy reduced to 1.0D-05 until final iterations.
 Initial convergence to 1.0D-05 achieved.  Increase integral accuracy.
 SCF Done:  E(RHF) =  -492.830931228     A.U. after   15 cycles
             Convg  =    0.4214D-08             -V/T =  2.0018

 **********************************************************************

            Population analysis using the SCF density.

 **********************************************************************

 Orbital symmetries:
       Occupied  (A) (A) (A) (A) (A) (A) (A) (A) (A) (A) (A) (A)
                 (A) (A) (A) (A) (A) (A) (A) (A) (A) (A) (A) (A)
                 (A) (A) (A) (A) (A) (A) (A) (A) (A) (A) (A) (A)
                 (A) (A) (A)
       Virtual   (A) (A) (A) (A) (A) (A) (A) (A) (A) (A) (A) (A)
                 (A) (A) (A) (A) (A) (A) (A) (A) (A) (A) (A) (A)
                 (A) (A) (A) (A) (A) (A) (A) (A) (A) (A) (A) (A)
                 (A) (A) (A) (A) (A) (A) (A) (A) (A) (A) (A) (A)
                 (A) (A) (A) (A) (A) (A) (A) (A) (A) (A) (A) (A)
                 (A) (A) (A) (A) (A) (A) (A) (A) (A) (A) (A) (A)
                 (A) (A) (A) (A) (A) (A) (A) (A) (A) (A) (A) (A)
                 (A) (A) (A) (A) (A) (A) (A) (A) (A) (A) (A) (A)
                 (A) (A) (A) (A) (A) (A) (A) (A) (A) (A) (A) (A)
                 (A) (A) (A) (A) (A) (A) (A) (A) (A) (A) (A) (A)
                 (A) (A) (A) (A) (A) (A) (A) (A) (A) (A) (A) (A)
                 (A) (A) (A)
 The electronic state is 1-A.
 Alpha  occ. eigenvalues --  -20.52417 -20.50593 -15.60263 -15.57973 -11.35883
 Alpha  occ. eigenvalues --  -11.33657 -11.28485 -11.25014 -11.24129 -11.21619
 Alpha  occ. eigenvalues --   -1.38619  -1.36318  -1.24874  -1.22431  -1.06284
 Alpha  occ. eigenvalues --   -0.99398  -0.94324  -0.89100  -0.80908  -0.77098
 Alpha  occ. eigenvalues --   -0.72539  -0.70811  -0.64793  -0.63453  -0.62121
 Alpha  occ. eigenvalues --   -0.61339  -0.58720  -0.57719  -0.56768  -0.55646
 Alpha  occ. eigenvalues --   -0.54913  -0.54147  -0.51807  -0.51403  -0.50670
 Alpha  occ. eigenvalues --   -0.42608  -0.41183  -0.38391  -0.37185
 Alpha virt. eigenvalues --    0.18680   0.19581   0.22594   0.24635   0.25791
 Alpha virt. eigenvalues --    0.27327   0.29180   0.30136   0.31035   0.31956
 Alpha virt. eigenvalues --    0.32331   0.33196   0.33936   0.36381   0.38074
 Alpha virt. eigenvalues --    0.39498   0.40313   0.45778   0.46940   0.50808
 Alpha virt. eigenvalues --    0.52504   0.59132   0.62939   0.69867   0.71676
 Alpha virt. eigenvalues --    0.74115   0.74960   0.76686   0.77224   0.78842
 Alpha virt. eigenvalues --    0.81229   0.81652   0.83964   0.90098   0.92212
 Alpha virt. eigenvalues --    0.92537   0.93742   0.94621   0.97002   0.98098
 Alpha virt. eigenvalues --    1.00597   1.01074   1.04605   1.07399   1.07835
 Alpha virt. eigenvalues --    1.12131   1.12301   1.14235   1.14674   1.16148
 Alpha virt. eigenvalues --    1.16607   1.18104   1.18541   1.18810   1.20560
 Alpha virt. eigenvalues --    1.22463   1.23217   1.25274   1.27199   1.28016
 Alpha virt. eigenvalues --    1.36203   1.36887   1.39548   1.40646   1.43279
 Alpha virt. eigenvalues --    1.47644   1.50212   1.55785   1.59173   1.60264
 Alpha virt. eigenvalues --    1.64046   1.66265   1.69692   1.71432   1.76902
 Alpha virt. eigenvalues --    1.81772   1.83043   1.89917   1.95206   1.98781
 Alpha virt. eigenvalues --    2.01448   2.05130   2.09791   2.10967   2.12923
 Alpha virt. eigenvalues --    2.15076   2.16738   2.17626   2.20345   2.21547
 Alpha virt. eigenvalues --    2.23867   2.26540   2.31770   2.34355   2.35470
 Alpha virt. eigenvalues --    2.38030   2.39348   2.40428   2.47642   2.48773
 Alpha virt. eigenvalues --    2.52655   2.55490   2.60704   2.61780   2.64183
 Alpha virt. eigenvalues --    2.65320   2.68383   2.70645   2.73289   2.75478
 Alpha virt. eigenvalues --    2.80381   2.82182   2.83650   2.93276   2.99604
 Alpha virt. eigenvalues --    3.02611   3.04392   3.09284   3.10253   3.26234
 Alpha virt. eigenvalues --    3.30754   3.35919   3.38734   3.55167   3.56925
 Alpha virt. eigenvalues --    4.39178   4.41917   4.49576   4.60652   4.62944
 Alpha virt. eigenvalues --    4.69970   4.75910   4.79809   4.90167   5.14848
          Condensed to atoms (all electrons):
              1          2          3          4          5          6
     1  H    0.453490   0.385465  -0.018518  -0.017937  -0.030292   0.003529
     2  C    0.385465   5.251544   0.373781   0.375375   0.375499  -0.067012
     3  H   -0.018518   0.373781   0.515614  -0.023745  -0.035706   0.001221
     4  H   -0.017937   0.375375  -0.023745   0.502658  -0.034179   0.001133
     5  C   -0.030292   0.375499  -0.035706  -0.034179   4.187707   0.576495
     6  O    0.003529  -0.067012   0.001221   0.001133   0.576495   8.251427
     7  N    0.003744  -0.119522   0.003682   0.003353   0.254748  -0.102803
     8  H   -0.000012  -0.000909   0.000483   0.000483  -0.018791   0.002443
     9  C   -0.000067   0.003790  -0.000082  -0.000197  -0.028765   0.010410
    10  H    0.000001  -0.000027   0.000001  -0.000004   0.003342   0.000113
    11  C    0.000006  -0.000522   0.000010   0.000009  -0.005797  -0.031711
    12  H    0.000006   0.000305  -0.000013  -0.000008  -0.000903   0.003545
    13  H    0.000000   0.000012  -0.000001   0.000000   0.000379   0.001103
    14  H    0.000001  -0.000091   0.000008   0.000000  -0.000190  -0.000303
    15  C    0.000002  -0.000272   0.000006   0.000022  -0.004552   0.001601
    16  O    0.000000  -0.000012   0.000000   0.000000  -0.000163   0.000008
    17  N    0.000000   0.000020   0.000000   0.000002   0.003453  -0.002751
    18  H    0.000000   0.000003   0.000000   0.000000  -0.000157   0.000407
    19  C    0.000000  -0.000001   0.000000   0.000000  -0.000053  -0.000016
    20  H    0.000000   0.000000   0.000000   0.000000  -0.000006  -0.000001
    21  H    0.000000   0.000000   0.000000   0.000000   0.000002  -0.000002
    22  H    0.000000   0.000000   0.000000   0.000000  -0.000011   0.000069
              7          8          9         10         11         12
     1  H    0.003744  -0.000012  -0.000067   0.000001   0.000006   0.000006
     2  C   -0.119522  -0.000909   0.003790  -0.000027  -0.000522   0.000305
     3  H    0.003682   0.000483  -0.000082   0.000001   0.000010  -0.000013
     4  H    0.003353   0.000483  -0.000197  -0.000004   0.000009  -0.000008
     5  C    0.254748  -0.018791  -0.028765   0.003342  -0.005797  -0.000903
     6  O   -0.102803   0.002443   0.010410   0.000113  -0.031711   0.003545
     7  N    7.361950   0.328432   0.194708  -0.035445  -0.057008  -0.003591
     8  H    0.328432   0.310097  -0.022971  -0.003532   0.003019  -0.000167
     9  C    0.194708  -0.022971   5.062575   0.413027   0.318613  -0.027206
    10  H   -0.035445  -0.003532   0.413027   0.474654  -0.035470   0.003398
    11  C   -0.057008   0.003019   0.318613  -0.035470   5.290043   0.387905
    12  H   -0.003591  -0.000167  -0.027206   0.003398   0.387905   0.449003
    13  H    0.004214  -0.000071  -0.045028  -0.003201   0.383558  -0.027981
    14  H    0.001266  -0.000003  -0.034294  -0.002976   0.386402  -0.018754
    15  C   -0.058956   0.001594   0.364647  -0.036503  -0.075760  -0.006920
    16  O    0.003568   0.000374  -0.073620   0.001811   0.003057  -0.000081
    17  N    0.000600  -0.000089  -0.103577   0.002671  -0.012128  -0.004962
    18  H    0.000165  -0.000008  -0.003793   0.000044   0.001362   0.004608
    19  C   -0.000154   0.000002   0.004289  -0.000080   0.000068   0.000215
    20  H   -0.000014   0.000000   0.000522  -0.000012  -0.000064  -0.000015
    21  H   -0.000002   0.000000  -0.000021   0.000010  -0.000030   0.000027
    22  H    0.000014   0.000000  -0.000173  -0.000002   0.000015  -0.000018
             13         14         15         16         17         18
     1  H    0.000000   0.000001   0.000002   0.000000   0.000000   0.000000
     2  C    0.000012  -0.000091  -0.000272  -0.000012   0.000020   0.000003
     3  H   -0.000001   0.000008   0.000006   0.000000   0.000000   0.000000
     4  H    0.000000   0.000000   0.000022   0.000000   0.000002   0.000000
     5  C    0.000379  -0.000190  -0.004552  -0.000163   0.003453  -0.000157
     6  O    0.001103  -0.000303   0.001601   0.000008  -0.002751   0.000407
     7  N    0.004214   0.001266  -0.058956   0.003568   0.000600   0.000165
     8  H   -0.000071  -0.000003   0.001594   0.000374  -0.000089  -0.000008
     9  C   -0.045028  -0.034294   0.364647  -0.073620  -0.103577  -0.003793
    10  H   -0.003201  -0.002976  -0.036503   0.001811   0.002671   0.000044
    11  C    0.383558   0.386402  -0.075760   0.003057  -0.012128   0.001362
    12  H   -0.027981  -0.018754  -0.006920  -0.000081  -0.004962   0.004608
    13  H    0.538573  -0.019252   0.002609  -0.000021  -0.001942  -0.001459
    14  H   -0.019252   0.508225   0.004419  -0.000062   0.000483   0.000360
    15  C    0.002609   0.004419   4.169103   0.593615   0.294352  -0.011792
    16  O   -0.000021  -0.000062   0.593615   8.222993  -0.101062   0.002448
    17  N   -0.001942   0.000483   0.294352  -0.101062   7.328387   0.313248
    18  H   -0.001459   0.000360  -0.011792   0.002448   0.313248   0.302376
    19  C   -0.000118   0.000003  -0.027313  -0.005102   0.195220  -0.021331
    20  H   -0.000007   0.000001  -0.001913   0.011049  -0.032649   0.002252
    21  H   -0.000005  -0.000001   0.000605   0.000405  -0.048659  -0.000914
    22  H    0.000009   0.000000   0.001393   0.000418  -0.047398  -0.001043
             19         20         21         22
     1  H    0.000000   0.000000   0.000000   0.000000
     2  C   -0.000001   0.000000   0.000000   0.000000
     3  H    0.000000   0.000000   0.000000   0.000000
     4  H    0.000000   0.000000   0.000000   0.000000
     5  C   -0.000053  -0.000006   0.000002  -0.000011
     6  O   -0.000016  -0.000001  -0.000002   0.000069
     7  N   -0.000154  -0.000014  -0.000002   0.000014
     8  H    0.000002   0.000000   0.000000   0.000000
     9  C    0.004289   0.000522  -0.000021  -0.000173
    10  H   -0.000080  -0.000012   0.000010  -0.000002
    11  C    0.000068  -0.000064  -0.000030   0.000015
    12  H    0.000215  -0.000015   0.000027  -0.000018
    13  H   -0.000118  -0.000007  -0.000005   0.000009
    14  H    0.000003   0.000001  -0.000001   0.000000
    15  C   -0.027313  -0.001913   0.000605   0.001393
    16  O   -0.005102   0.011049   0.000405   0.000418
    17  N    0.195220  -0.032649  -0.048659  -0.047398
    18  H   -0.021331   0.002252  -0.000914  -0.001043
    19  C    4.943425   0.396661   0.402695   0.401806
    20  H    0.396661   0.438670  -0.023301  -0.022441
    21  H    0.402695  -0.023301   0.542124  -0.037034
    22  H    0.401806  -0.022441  -0.037034   0.529906
 Mulliken atomic charges:
              1
     1  H    0.220582
     2  C   -0.577425
     3  H    0.183260
     4  H    0.193033
     5  C    0.757938
     6  O   -0.648903
     7  N   -0.782951
     8  H    0.399623
     9  C   -0.032788
    10  H    0.218179
    11  C   -0.555578
    12  H    0.241606
    13  H    0.168630
    14  H    0.174757
    15  C    0.790011
    16  O   -0.659623
    17  N   -0.783220
    18  H    0.413224
    19  C   -0.290217
    20  H    0.231269
    21  H    0.164102
    22  H    0.174489
 Sum of Mulliken atomic charges =   0.00000
 Mulliken charges with hydrogens summed into heavy atoms:
              1
     2  C    0.019449
     5  C    0.757938
     6  O   -0.648903
     7  N   -0.383328
     9  C    0.185391
    11  C    0.029416
    15  C    0.790011
    16  O   -0.659623
    17  N   -0.369995
    19  C    0.279644
 Sum of Mulliken charges with hydrogens summed into heavy atoms =   0.00000
 Electronic spatial extent (au):  <R**2>=           1617.8512
 Charge=              0.0000 electrons
 Dipole moment (field-independent basis, Debye):
    X=              2.0487    Y=              1.5672    Z=             -0.8518  Tot=              2.7164
 Quadrupole moment (field-independent basis, Debye-Ang):
   XX=            -53.0904   YY=            -58.0802   ZZ=            -66.4807
   XY=              4.0762   XZ=             12.3296   YZ=             -1.2779
 Traceless Quadrupole moment (field-independent basis, Debye-Ang):
   XX=              6.1267   YY=              1.1368   ZZ=             -7.2636
   XY=              4.0762   XZ=             12.3296   YZ=             -1.2779
 Octapole moment (field-independent basis, Debye-Ang**2):
  XXX=             12.9582  YYY=              1.8922  ZZZ=             -7.7974  XYY=             -1.7028
  XXY=             -9.4541  XXZ=             -1.4569  XZZ=              8.5637  YZZ=              0.8542
  YYZ=              6.7350  XYZ=              0.2946
 Hexadecapole moment (field-independent basis, Debye-Ang**3):
 XXXX=          -1256.8236 YYYY=           -392.5761 ZZZZ=           -374.1915 XXXY=             12.8317
 XXXZ=             18.9469 YYYX=              1.7881 YYYZ=             12.3813 ZZZX=             32.0520
 ZZZY=              5.8253 XXYY=           -273.4531 XXZZ=           -293.7953 YYZZ=           -126.4045
 XXYZ=             -0.9708 YYXZ=              3.2711 ZZXY=             13.0279
 N-N= 5.726278165291D+02 E-N=-2.300752789593D+03  KE= 4.919473570561D+02
 Calling FoFJK, ICntrl=      2127 FMM=F ISym2X=0 I1Cent= 0 IOpClX= 0 NMat=1 NMatS=1 NMatT=0.
 ***** Axes restored to original set *****
 -------------------------------------------------------------------
 Center     Atomic                   Forces (Hartrees/Bohr)
 Number     Number              X              Y              Z
 -------------------------------------------------------------------
      1        1           0.007437530    0.001942151    0.005639983
      2        6           0.008425614    0.002477816    0.004061334
      3        1          -0.004370116    0.002651999    0.000581097
      4        1          -0.000252374   -0.004668302   -0.001832575
      5        6          -0.014326676    0.010063023   -0.050740707
      6        8          -0.022388768   -0.013948761    0.033933127
      7        7           0.002800169   -0.008527732    0.023223704
      8        1           0.002797071    0.008769416   -0.013390350
      9        6           0.014043421    0.002745913   -0.018870775
     10        1          -0.009269351    0.004466377   -0.001924669
     11        6           0.011369476   -0.014048219   -0.004792005
     12        1           0.013191324   -0.014921105    0.008798964
     13        1          -0.000921856   -0.006254313    0.001628367
     14        1           0.001444628    0.003948119   -0.003104843
     15        6          -0.016363586    0.025411770    0.043816301
     16        8           0.009194253   -0.020748837   -0.028907467
     17        7           0.005966643    0.005279978   -0.009646942
     18        1          -0.009527497    0.016014359    0.016693743
     19        6          -0.001087679    0.001991240   -0.000585632
     20        1           0.002766661   -0.005271492   -0.008207662
     21        1          -0.004491648    0.001168962    0.000616832
     22        1           0.003562760    0.001457639    0.003010175
 -------------------------------------------------------------------
 Cartesian Forces:  Max     0.050740707 RMS     0.013780323

 GradGradGradGradGradGradGradGradGradGradGradGradGradGradGradGradGradGrad
 Berny optimization.
 Internal  Forces:  Max     0.047380065 RMS     0.013925980
 Search for a local minimum.
 Step number   1 out of a maximum of  108
 All quantities printed in internal units (Hartrees-Bohrs-Radians)
 Mixed Optimization -- RFO/linear search
 Second derivative matrix not updated -- first step.
     Eigenvalues ---    0.00368   0.00435   0.00999   0.01044   0.01269
     Eigenvalues ---    0.01422   0.01660   0.02551   0.02552   0.03503
     Eigenvalues ---    0.05232   0.05841   0.05844   0.05844   0.07165
     Eigenvalues ---    0.07463   0.07686   0.07686   0.15421   0.16000
     Eigenvalues ---    0.16000   0.16000   0.16000   0.16000   0.16000
     Eigenvalues ---    0.16000   0.16000   0.16000   0.16000   0.16000
     Eigenvalues ---    0.16180   0.22000   0.22000   0.25000   0.25000
     Eigenvalues ---    0.25000   0.25000   0.29418   0.29887   0.30174
     Eigenvalues ---    0.34808   0.34809   0.34810   0.34812   0.34813
     Eigenvalues ---    0.34816   0.34817   0.34818   0.34818   0.34821
     Eigenvalues ---    0.38379   0.38381   0.45966   0.45968   0.58335
     Eigenvalues ---    0.58339   0.91489   0.915191000.000001000.00000
     Eigenvalues --- 1000.000001000.000001000.000001000.000001000.00000
     Eigenvalues --- 1000.000001000.000001000.000001000.000001000.00000
     Eigenvalues --- 1000.000001000.000001000.000001000.000001000.00000
     Eigenvalues --- 1000.000001000.000001000.000001000.000001000.00000
     Eigenvalues --- 1000.000001000.000001000.000001000.000001000.00000
     Eigenvalues --- 1000.000001000.000001000.000001000.000001000.00000
     Eigenvalues --- 1000.000001000.000001000.000001000.000001000.00000
     Eigenvalues --- 1000.000001000.000001000.00000
 RFO step:  Lambda=-6.66200194D-02 EMin= 3.68308990D-03
 Linear search not attempted -- first point.
 Maximum step size (   0.300) exceeded in Quadratic search.
    -- Step size scaled by   0.497
 Iteration  1 RMS(Cart)=  0.13511774 RMS(Int)=  0.00471159
 Iteration  2 RMS(Cart)=  0.00875128 RMS(Int)=  0.00054680
 Iteration  3 RMS(Cart)=  0.00001972 RMS(Int)=  0.00054666
 Iteration  4 RMS(Cart)=  0.00000001 RMS(Int)=  0.00054666
 Iteration  1 RMS(Cart)=  0.00020710 RMS(Int)=  0.00007802
 Iteration  2 RMS(Cart)=  0.00011113 RMS(Int)=  0.00008711
 Iteration  3 RMS(Cart)=  0.00006008 RMS(Int)=  0.00009826
 Iteration  4 RMS(Cart)=  0.00003286 RMS(Int)=  0.00010560
 Iteration  5 RMS(Cart)=  0.00001828 RMS(Int)=  0.00010994
 Iteration  6 RMS(Cart)=  0.00001041 RMS(Int)=  0.00011243
 Iteration  7 RMS(Cart)=  0.00000610 RMS(Int)=  0.00011385
 Iteration  8 RMS(Cart)=  0.00000369 RMS(Int)=  0.00011466
 Iteration  9 RMS(Cart)=  0.00000230 RMS(Int)=  0.00011513
 Iteration 10 RMS(Cart)=  0.00000147 RMS(Int)=  0.00011541
 Iteration 11 RMS(Cart)=  0.00000096 RMS(Int)=  0.00011557
 Variable       Old X    -DE/DX   Delta X   Delta X   Delta X     New X
                                 (Linear)    (Quad)   (Total)
    R1        2.05981  -0.00859   0.00000  -0.01030  -0.01030   2.04951
    R2        2.05988  -0.00306   0.00000  -0.00367  -0.00367   2.05620
    R3        2.05971  -0.00333   0.00000  -0.00399  -0.00399   2.05572
    R4        2.89139  -0.01027   0.00000  -0.01415  -0.01415   2.87724
    R5        2.32241  -0.04143   0.00000  -0.02099  -0.02099   2.30142
    R6        2.52283   0.02146   0.00000   0.01642   0.01642   2.53925
    R7        1.90868  -0.01594   0.00000  -0.01506  -0.01506   1.89362
    R8        2.73817   0.01836   0.00000   0.02027   0.02027   2.75844
    R9        2.05975  -0.00751   0.00000  -0.00900  -0.00900   2.05074
   R10        2.88188   0.01931   0.00000   0.02627   0.02627   2.90816
   R11        2.87618   0.02612   0.00000   0.03526   0.03526   2.91144
   R12        2.05972  -0.01788   0.00000  -0.02144  -0.02144   2.03828
   R13        2.05984  -0.00364   0.00000  -0.00436  -0.00436   2.05548
   R14        2.05966  -0.00369   0.00000  -0.00442  -0.00442   2.05524
   R15        2.32254  -0.03659   0.00000  -0.01854  -0.01854   2.30400
   R16        2.52280   0.00749   0.00000   0.00573   0.00573   2.52853
   R17        1.90870  -0.02445   0.00000  -0.02311  -0.02311   1.88559
   R18        2.73815  -0.00024   0.00000  -0.00026  -0.00026   2.73789
   R19        2.05985  -0.01004   0.00000  -0.01204  -0.01204   2.04781
   R20        2.05974  -0.00372   0.00000  -0.00446  -0.00446   2.05528
   R21        2.05979  -0.00419   0.00000  -0.00503  -0.00503   2.05476
    A1        1.91105   0.00042   0.00000   0.00048   0.00053   1.91159
    A2        1.91121   0.00062   0.00000   0.00074   0.00079   1.91200
    A3        1.93898  -0.00800   0.00000  -0.01810  -0.01805   1.92094
    A4        1.91021  -0.00442   0.00000  -0.00858  -0.00868   1.90153
    A5        1.89602   0.00605   0.00000   0.01358   0.01356   1.90958
    A6        1.89610   0.00537   0.00000   0.01200   0.01197   1.90807
    A7        2.10316  -0.00268   0.00000  -0.00421  -0.00424   2.09892
    A8        2.03501  -0.01675   0.00000  -0.02632  -0.02635   2.00866
    A9        2.14502   0.01943   0.00000   0.03053   0.03049   2.17551
   A10        2.09437  -0.02488   0.00000  -0.04372  -0.04394   2.05044
   A11        2.12757   0.04738   0.00000   0.08222   0.08199   2.20956
   A12        2.06124  -0.02250   0.00000  -0.03849  -0.03873   2.02251
   A13        1.91114  -0.00086   0.00000  -0.01989  -0.02072   1.89042
   A14        1.93905   0.00987   0.00000   0.02808   0.02745   1.96650
   A15        1.93900  -0.02370   0.00000  -0.03025  -0.03402   1.90498
   A16        1.89609  -0.01755   0.00000  -0.04614  -0.04501   1.85108
   A17        1.89608  -0.00957   0.00000  -0.02817  -0.02812   1.86796
   A18        1.88137   0.04184   0.00000   0.09591   0.09632   1.97769
   A19        1.91115   0.01533   0.00000   0.03630   0.03615   1.94729
   A20        1.91106  -0.00093   0.00000  -0.00135  -0.00151   1.90955
   A21        1.91110   0.00111   0.00000  -0.00093  -0.00095   1.91014
   A22        1.91011  -0.00250   0.00000   0.00121   0.00093   1.91104
   A23        1.91023  -0.00920   0.00000  -0.02157  -0.02160   1.88863
   A24        1.91015  -0.00382   0.00000  -0.01370  -0.01372   1.89643
   A25        2.10312  -0.02214   0.00000  -0.03478  -0.03492   2.06820
   A26        2.03510   0.03636   0.00000   0.05712   0.05698   2.09208
   A27        2.14496  -0.01422   0.00000  -0.02234  -0.02248   2.12249
   A28        2.09432   0.00301   0.00000   0.00698   0.00697   2.10129
   A29        2.12761   0.00168   0.00000   0.00291   0.00290   2.13051
   A30        2.06125  -0.00468   0.00000  -0.00990  -0.00991   2.05134
   A31        1.91112  -0.00350   0.00000  -0.00813  -0.00812   1.90300
   A32        1.91112   0.00404   0.00000   0.00912   0.00910   1.92022
   A33        1.91113   0.00344   0.00000   0.00775   0.00774   1.91886
   A34        1.91013  -0.00066   0.00000  -0.00185  -0.00183   1.90830
   A35        1.91020  -0.00047   0.00000  -0.00153  -0.00152   1.90869
   A36        1.91010  -0.00286   0.00000  -0.00537  -0.00541   1.90468
    D1        0.00019   0.00111   0.00000   0.00719   0.00713   0.00732
    D2        3.14159  -0.00117   0.00000  -0.00713  -0.00706   3.13453
    D3        2.10335   0.00059   0.00000   0.00537   0.00524   2.10859
    D4       -1.03844  -0.00169   0.00000  -0.00895  -0.00895  -1.04738
    D5       -2.10322   0.00183   0.00000   0.00971   0.00970  -2.09352
    D6        1.03818  -0.00046   0.00000  -0.00461  -0.00448   1.03370
    D7        0.00016  -0.00419   0.00000  -0.03141  -0.03105  -0.03089
    D8       -3.14159  -0.00002   0.00000   0.01072   0.01056  -3.13103
    D9        3.14155  -0.00654   0.00000  -0.04612  -0.04595   3.09561
   D10       -0.00019  -0.00236   0.00000  -0.00398  -0.00434  -0.00453
   D11       -2.87969  -0.00986   0.00000  -0.06709  -0.06643  -2.94612
   D12       -0.78525  -0.02602   0.00000  -0.11968  -0.11877  -0.90402
   D13        1.30910   0.01758   0.00000   0.00000   0.00000   1.30910
   D14        0.26175  -0.00576   0.00000  -0.02572  -0.02541   0.23634
   D15        2.35619  -0.02192   0.00000  -0.07832  -0.07775   2.27844
   D16       -1.83264   0.02168   0.00000   0.04137   0.04102  -1.79162
   D17        1.04724   0.00081   0.00000   0.01482   0.01600   1.06324
   D18        3.14157   0.00657   0.00000   0.03774   0.03905  -3.10256
   D19       -1.04726   0.00200   0.00000   0.01956   0.02080  -1.02646
   D20       -3.13259  -0.00550   0.00000  -0.02226  -0.02204   3.12855
   D21       -1.03826   0.00026   0.00000   0.00066   0.00101  -1.03725
   D22        1.05609  -0.00431   0.00000  -0.01753  -0.01725   1.03884
   D23       -1.08102  -0.00336   0.00000  -0.02791  -0.02950  -1.11052
   D24        1.01331   0.00240   0.00000  -0.00499  -0.00645   1.00686
   D25        3.10766  -0.00217   0.00000  -0.02318  -0.02471   3.08295
   D26        1.30903  -0.01505   0.00000  -0.03074  -0.03048   1.27855
   D27       -1.83260  -0.01429   0.00000   0.00000   0.00000  -1.83260
   D28       -0.79428   0.00687   0.00000   0.03082   0.03059  -0.76370
   D29        2.34727   0.00763   0.00000   0.06156   0.06106   2.40834
   D30       -2.84586   0.00989   0.00000   0.04809   0.04797  -2.79790
   D31        0.29569   0.01065   0.00000   0.07882   0.07844   0.37414
   D32        0.00009   0.00133   0.00000  -0.00604  -0.00597  -0.00589
   D33        3.14158  -0.00026   0.00000  -0.01553  -0.01551   3.12607
   D34       -3.14154   0.00211   0.00000   0.02550   0.02548  -3.11606
   D35       -0.00005   0.00052   0.00000   0.01601   0.01594   0.01589
   D36        0.00006   0.00076   0.00000   0.00469   0.00468   0.00473
   D37        2.09443   0.00029   0.00000   0.00303   0.00299   2.09742
   D38       -2.09441   0.00137   0.00000   0.00680   0.00681  -2.08761
   D39        3.14155  -0.00079   0.00000  -0.00462  -0.00460   3.13695
   D40       -1.04726  -0.00127   0.00000  -0.00629  -0.00629  -1.05355
   D41        1.04708  -0.00019   0.00000  -0.00251  -0.00247   1.04461
         Item               Value     Threshold  Converged?
 Maximum Force            0.047380     0.000450     NO 
 RMS     Force            0.013667     0.000300     NO 
 Maximum Displacement     0.495190     0.001800     NO 
 RMS     Displacement     0.134837     0.001200     NO 
 Predicted change in Energy=-2.789283D-02
 GradGradGradGradGradGradGradGradGradGradGradGradGradGradGradGradGradGrad

                          Input orientation:                          
 ---------------------------------------------------------------------
 Center     Atomic      Atomic             Coordinates (Angstroms)
 Number     Number       Type             X           Y           Z
 ---------------------------------------------------------------------
      1          1           0        0.795994    3.209661   -1.799901
      2          6           0        1.398974    3.220280   -0.898482
      3          1           0        1.581550    2.198816   -0.571017
      4          1           0        0.869151    3.753894   -0.112389
      5          6           0        2.729017    3.910649   -1.167917
      6          8           0        2.974969    4.358881   -2.273258
      7          7           0        3.555321    3.987709   -0.111106
      8          1           0        3.227313    3.617349    0.760310
      9          6           0        4.878397    4.603720   -0.083976
     10          1           0        5.363760    4.328258    0.846731
     11          6           0        5.794365    4.091600   -1.209606
     12          1           0        5.385343    4.309236   -2.183635
     13          1           0        6.774728    4.553415   -1.116141
     14          1           0        5.907812    3.013523   -1.121755
     15          6           0        4.722126    6.136416   -0.074854
     16          8           0        4.338691    6.676000    0.949030
     17          7           0        4.972234    6.838337   -1.186204
     18          1           0        5.264499    6.375600   -2.020518
     19          6           0        4.822432    8.278521   -1.236465
     20          1           0        4.498185    8.634211   -0.265558
     21          1           0        5.772251    8.743006   -1.491388
     22          1           0        4.081489    8.548419   -1.985099
 ---------------------------------------------------------------------
                    Distance matrix (angstroms):
                    1          2          3          4          5
     1  H    0.000000
     2  C    1.084553   0.000000
     3  H    1.774559   1.088096   0.000000
     4  H    1.774609   1.087841   1.770909   0.000000
     5  C    2.151132   1.522571   2.145540   2.144251   0.000000
     6  O    2.508526   2.381215   3.083037   3.077309   1.217860
     7  N    3.327352   2.420483   2.703225   2.696327   1.343713
     8  H    3.554181   2.500415   2.548176   2.518169   2.013053
     9  C    4.642609   3.831934   4.109742   4.098423   2.505017
    10  H    5.396333   4.471343   4.566141   4.631556   3.342914
    11  C    5.109793   4.491711   4.662429   5.057239   3.070967
    12  H    4.734812   4.327654   4.639316   4.999446   2.871694
    13  H    6.165912   5.542866   5.728036   6.043393   4.096780
    14  H    5.160333   4.519095   4.436621   5.191827   3.303287
    15  C    5.191936   4.497284   5.061037   4.530258   3.181401
    16  O    5.667701   4.898698   5.473349   4.658650   3.836623
    17  N    5.566408   5.093262   5.779303   5.244250   3.688321
    18  H    5.480819   5.114420   5.754189   5.461994   3.637524
    19  C    6.497923   6.117198   6.921629   6.112629   4.844109
    20  H    6.744343   6.270275   7.072083   6.083653   5.124084
    21  H    7.448236   7.069483   7.825310   7.129745   5.719928
    22  H    6.271451   6.063472   6.968986   6.067423   4.899579
                    6          7          8          9         10
     6  O    0.000000
     7  N    2.269245   0.000000
     8  H    3.133062   1.002059   0.000000
     9  C    2.911347   1.459705   2.100435   0.000000
    10  H    3.929579   2.074579   2.253279   1.085206   0.000000
    11  C    3.025193   2.496160   3.270358   1.538930   2.114225
    12  H    2.412551   2.783476   3.715187   2.179973   3.030503
    13  H    3.976799   3.419752   4.120855   2.159622   2.427837
    14  H    3.426005   2.739464   3.330443   2.159955   2.428880
    15  C    3.323428   2.445341   3.045926   1.540669   2.128485
    16  O    4.196655   2.994072   3.259774   2.377547   2.563811
    17  N    3.364291   3.359994   4.148305   2.493436   3.253708
    18  H    3.061532   3.502737   4.414870   2.653078   3.524568
    19  C    4.455518   4.613358   5.315830   3.851691   4.498592
    20  H    4.962810   4.743714   5.276024   4.052454   4.530744
    21  H    5.258960   5.425201   6.149733   4.462451   5.012351
    22  H    4.342770   4.958706   5.708094   4.450840   5.241492
                   11         12         13         14         15
    11  C    0.000000
    12  H    1.078609   0.000000
    13  H    1.087714   1.769056   0.000000
    14  H    1.087584   1.754832   1.767157   0.000000
    15  C    2.572670   2.867996   2.793447   3.500617   0.000000
    16  O    3.668490   4.063329   3.834654   4.490438   1.219226
    17  N    2.867231   2.749887   2.911144   3.938104   1.338038
    18  H    2.480926   2.076311   2.533584   3.539094   2.033958
    19  C    4.298336   4.119372   4.207416   5.376934   2.438856
    20  H    4.817325   4.813675   4.749635   5.857666   2.515054
    21  H    4.659986   4.504133   4.324169   5.742994   3.147005
    22  H    4.837207   4.439608   4.895782   5.892019   3.142803
                   16         17         18         19         20
    16  O    0.000000
    17  N    2.233149   0.000000
    18  H    3.124992   0.997809   0.000000
    19  C    2.752902   1.448826   2.105058   0.000000
    20  H    2.309816   2.073035   2.961156   1.083657   0.000000
    21  H    3.504746   2.088283   2.478387   1.087606   1.771367
    22  H    3.490160   2.087113   2.474249   1.087333   1.771388
                   21         22
    21  H    0.000000
    22  H    1.772087   0.000000
 Stoichiometry    C6H12N2O2
 Framework group  C1[X(C6H12N2O2)]
 Deg. of freedom    60
 Full point group                 C1      NOp   1
 Largest Abelian subgroup         C1      NOp   1
 Largest concise Abelian subgroup C1      NOp   1
                         Standard orientation:                         
 ---------------------------------------------------------------------
 Center     Atomic      Atomic             Coordinates (Angstroms)
 Number     Number       Type             X           Y           Z
 ---------------------------------------------------------------------
      1          1           0        3.545557   -1.644815   -0.505156
      2          6           0        3.125668   -1.020281    0.275808
      3          1           0        3.839123   -0.243487    0.543252
      4          1           0        2.917848   -1.626811    1.154631
      5          6           0        1.834007   -0.375947   -0.208615
      6          8           0        1.417060   -0.604550   -1.329811
      7          7           0        1.221641    0.416401    0.687352
      8          1           0        1.639411    0.497631    1.594542
      9          6           0       -0.029039    1.143923    0.494355
     10          1           0       -0.149569    1.839513    1.318551
     11          6           0       -0.027291    1.997402   -0.786222
     12          1           0        0.101747    1.389471   -1.667793
     13          1           0       -0.964435    2.545019   -0.856915
     14          1           0        0.791128    2.712395   -0.743639
     15          6           0       -1.206342    0.152633    0.564815
     16          8           0       -1.520446   -0.301202    1.651959
     17          7           0       -1.834340   -0.216923   -0.557412
     18          1           0       -1.548084    0.149576   -1.440226
     19          6           0       -2.934114   -1.160064   -0.548579
     20          1           0       -3.125354   -1.470407    0.471925
     21          1           0       -3.827887   -0.693673   -0.956666
     22          1           0       -2.680845   -2.030732   -1.148650
 ---------------------------------------------------------------------
 Rotational constants (GHZ):      1.9984273      0.8327348      0.8055743
 Standard basis: 6-31G(d) (6D, 7F)
 There are   174 symmetry adapted basis functions of A   symmetry.
 Integral buffers will be    131072 words long.
 Raffenetti 1 integral format.
 Two-electron integral symmetry is turned on.
   174 basis functions,   328 primitive gaussians,   174 cartesian basis functions
    39 alpha electrons       39 beta electrons
       nuclear repulsion energy       564.9655329823 Hartrees.
 NAtoms=   22 NActive=   22 NUniq=   22 SFac= 7.50D-01 NAtFMM=   80 NAOKFM=F Big=F
 One-electron integrals computed using PRISM.
 NBasis=   174 RedAO= T  NBF=   174
 NBsUse=   174 1.00D-06 NBFU=   174
 Initial guess read from the read-write file.
 B after Tr=     0.000000    0.000000    0.000000
         Rot=    1.000000    0.000000    0.000000    0.000000 Ang=   0.00 deg.
 Initial guess orbital symmetries:
       Occupied  (A) (A) (A) (A) (A) (A) (A) (A) (A) (A) (A) (A)
                 (A) (A) (A) (A) (A) (A) (A) (A) (A) (A) (A) (A)
                 (A) (A) (A) (A) (A) (A) (A) (A) (A) (A) (A) (A)
                 (A) (A) (A)
       Virtual   (A) (A) (A) (A) (A) (A) (A) (A) (A) (A) (A) (A)
                 (A) (A) (A) (A) (A) (A) (A) (A) (A) (A) (A) (A)
                 (A) (A) (A) (A) (A) (A) (A) (A) (A) (A) (A) (A)
                 (A) (A) (A) (A) (A) (A) (A) (A) (A) (A) (A) (A)
                 (A) (A) (A) (A) (A) (A) (A) (A) (A) (A) (A) (A)
                 (A) (A) (A) (A) (A) (A) (A) (A) (A) (A) (A) (A)
                 (A) (A) (A) (A) (A) (A) (A) (A) (A) (A) (A) (A)
                 (A) (A) (A) (A) (A) (A) (A) (A) (A) (A) (A) (A)
                 (A) (A) (A) (A) (A) (A) (A) (A) (A) (A) (A) (A)
                 (A) (A) (A) (A) (A) (A) (A) (A) (A) (A) (A) (A)
                 (A) (A) (A) (A) (A) (A) (A) (A) (A) (A) (A) (A)
                 (A) (A) (A)
 Harris functional with IExCor=  205 diagonalized for initial guess.
 ExpMin= 1.61D-01 ExpMax= 5.48D+03 ExpMxC= 8.25D+02 IAcc=1 IRadAn=         1 AccDes= 0.00D+00
 HarFok:  IExCor=  205 AccDes= 0.00D+00 IRadAn=         1 IDoV= 1
 ScaDFX=  1.000000  1.000000  1.000000  1.000000
 FoFCou: FMM=F IPFlag=           0 FMFlag=      100000 FMFlg1=           0
         NFxFlg=           0 DoJE=T BraDBF=F KetDBF=T FulRan=T
         Omega=  0.000000  0.000000  1.000000  0.000000  0.000000 ICntrl=     500 IOpCl=  0
         NMat0=    1 NMatS0=    1 NMatT0=    0 NMatD0=    1 NMtDS0=    0 NMtDT0=    0
         I1Cent=           4 NGrid=           0.
 Petite list used in FoFCou.
 Requested convergence on RMS density matrix=1.00D-08 within 128 cycles.
 Requested convergence on MAX density matrix=1.00D-06.
 Requested convergence on             energy=1.00D-06.
 No special actions if energy rises.
 Integral accuracy reduced to 1.0D-05 until final iterations.
 Initial convergence to 1.0D-05 achieved.  Increase integral accuracy.
 SCF Done:  E(RHF) =  -492.847022918     A.U. after   16 cycles
             Convg  =    0.4124D-08             -V/T =  2.0019
 Calling FoFJK, ICntrl=      2127 FMM=F ISym2X=0 I1Cent= 0 IOpClX= 0 NMat=1 NMatS=1 NMatT=0.
 ***** Axes restored to original set *****
 -------------------------------------------------------------------
 Center     Atomic                   Forces (Hartrees/Bohr)
 Number     Number              X              Y              Z
 -------------------------------------------------------------------
      1        1           0.004201011    0.001157452    0.002530432
      2        6           0.005341383    0.000387911    0.003617463
      3        1          -0.003011754    0.001440392    0.000581408
      4        1          -0.000681964   -0.002946394   -0.000898945
      5        6          -0.011231332    0.009650532   -0.034715349
      6        8           0.001733444   -0.007194186    0.025573598
      7        7           0.008556506   -0.007669033    0.017604136
      8        1           0.001361357    0.004928011   -0.006696525
      9        6           0.008191260    0.003369762   -0.023134906
     10        1          -0.009112929    0.004543086    0.001080271
     11        6          -0.001685051   -0.002554260    0.004434674
     12        1           0.000773946   -0.002350010   -0.000826880
     13        1          -0.001037711   -0.001882141   -0.000160957
     14        1           0.000563637    0.002551030   -0.000712248
     15        6          -0.014503791    0.012831438    0.030726283
     16        8           0.007734851   -0.014356845   -0.014867469
     17        7           0.007153362   -0.002493183   -0.005569274
     18        1          -0.004642046    0.000937026    0.005042413
     19        6          -0.000790808    0.001250779   -0.000870717
     20        1           0.001677566   -0.002571673   -0.004808607
     21        1          -0.002453970    0.000320774    0.000298638
     22        1           0.001863034    0.000649531    0.001772560
 -------------------------------------------------------------------
 Cartesian Forces:  Max     0.034715349 RMS     0.009122197

 GradGradGradGradGradGradGradGradGradGradGradGradGradGradGradGradGradGrad
 Berny optimization.
 Using GEDIIS/GDIIS optimizer.
 Internal  Forces:  Max     0.025508571 RMS     0.004791542
 Search for a local minimum.
 Step number   2 out of a maximum of  108
 All quantities printed in internal units (Hartrees-Bohrs-Radians)
 Mixed Optimization -- RFO/linear search
 Update second derivatives using D2CorX and points    1    2
 DE= -1.61D-02 DEPred=-2.79D-02 R= 5.77D-01
 SS=  1.41D+00  RLast= 3.00D-01 DXNew= 5.0454D-01 8.9952D-01
 Trust test= 5.77D-01 RLast= 3.00D-01 DXMaxT set to 5.05D-01
 Use linear search instead of GDIIS.
     Eigenvalues ---    0.00368   0.00435   0.01004   0.01044   0.01298
     Eigenvalues ---    0.01427   0.01667   0.02551   0.02562   0.04268
     Eigenvalues ---    0.05153   0.05631   0.05870   0.05993   0.07232
     Eigenvalues ---    0.07346   0.07604   0.07703   0.15614   0.15935
     Eigenvalues ---    0.16000   0.16000   0.16000   0.16000   0.16000
     Eigenvalues ---    0.16000   0.16000   0.16000   0.16005   0.16110
     Eigenvalues ---    0.17867   0.21924   0.23294   0.24691   0.24994
     Eigenvalues ---    0.24999   0.29065   0.29414   0.30000   0.34297
     Eigenvalues ---    0.34586   0.34808   0.34810   0.34811   0.34813
     Eigenvalues ---    0.34815   0.34817   0.34818   0.34821   0.37356
     Eigenvalues ---    0.38381   0.44918   0.45860   0.54934   0.58319
     Eigenvalues ---    0.60858   0.87158   0.915091000.000001000.00000
     Eigenvalues --- 1000.000001000.000001000.000001000.000001000.00000
     Eigenvalues --- 1000.000001000.000001000.000001000.000001000.00000
     Eigenvalues --- 1000.000001000.000001000.000001000.000001000.00000
     Eigenvalues --- 1000.000001000.000001000.000001000.000001000.00000
     Eigenvalues --- 1000.000001000.000001000.000001000.000001000.00000
     Eigenvalues --- 1000.000001000.000001000.000001000.000001000.00000
     Eigenvalues --- 1000.000001000.000001000.000001000.000001000.00000
     Eigenvalues --- 1000.000001000.000001000.00000
 RFO step:  Lambda=-1.10414790D-02 EMin= 3.68308555D-03
 Quartic linear search produced a step of  0.20092.
 Iteration  1 RMS(Cart)=  0.07343485 RMS(Int)=  0.00231018
 Iteration  2 RMS(Cart)=  0.00519705 RMS(Int)=  0.00079870
 Iteration  3 RMS(Cart)=  0.00000764 RMS(Int)=  0.00079868
 Iteration  4 RMS(Cart)=  0.00000000 RMS(Int)=  0.00079868
 Iteration  1 RMS(Cart)=  0.00030228 RMS(Int)=  0.00011519
 Iteration  2 RMS(Cart)=  0.00016576 RMS(Int)=  0.00012860
 Iteration  3 RMS(Cart)=  0.00009129 RMS(Int)=  0.00014541
 Iteration  4 RMS(Cart)=  0.00005061 RMS(Int)=  0.00015670
 Iteration  5 RMS(Cart)=  0.00002833 RMS(Int)=  0.00016346
 Iteration  6 RMS(Cart)=  0.00001609 RMS(Int)=  0.00016738
 Iteration  7 RMS(Cart)=  0.00000931 RMS(Int)=  0.00016963
 Iteration  8 RMS(Cart)=  0.00000551 RMS(Int)=  0.00017092
 Iteration  9 RMS(Cart)=  0.00000335 RMS(Int)=  0.00017166
 Iteration 10 RMS(Cart)=  0.00000209 RMS(Int)=  0.00017209
 Iteration 11 RMS(Cart)=  0.00000133 RMS(Int)=  0.00017234
 Iteration 12 RMS(Cart)=  0.00000087 RMS(Int)=  0.00017249
 Variable       Old X    -DE/DX   Delta X   Delta X   Delta X     New X
                                 (Linear)    (Quad)   (Total)
    R1        2.04951  -0.00445  -0.00207  -0.01197  -0.01404   2.03547
    R2        2.05620  -0.00168  -0.00074  -0.00458  -0.00532   2.05088
    R3        2.05572  -0.00176  -0.00080  -0.00476  -0.00557   2.05016
    R4        2.87724  -0.00410  -0.00284  -0.01225  -0.01510   2.86214
    R5        2.30142  -0.02551  -0.00422  -0.02677  -0.03098   2.27044
    R6        2.53925   0.00471   0.00330   0.00494   0.00824   2.54749
    R7        1.89362  -0.00809  -0.00303  -0.01631  -0.01934   1.87428
    R8        2.75844  -0.00572   0.00407  -0.02239  -0.01831   2.74013
    R9        2.05074  -0.00430  -0.00181  -0.01182  -0.01363   2.03711
   R10        2.90816  -0.00142   0.00528  -0.01207  -0.00679   2.90137
   R11        2.91144  -0.00294   0.00709  -0.02008  -0.01299   2.89845
   R12        2.03828  -0.00002  -0.00431   0.00547   0.00116   2.03944
   R13        2.05548  -0.00175  -0.00088  -0.00462  -0.00550   2.04998
   R14        2.05524  -0.00253  -0.00089  -0.00717  -0.00805   2.04718
   R15        2.30400  -0.02127  -0.00373  -0.02204  -0.02577   2.27823
   R16        2.52853   0.00296   0.00115   0.00434   0.00549   2.53402
   R17        1.88559  -0.00601  -0.00464  -0.00897  -0.01361   1.87198
   R18        2.73789  -0.00025  -0.00005  -0.00069  -0.00074   2.73714
   R19        2.04781  -0.00565  -0.00242  -0.01548  -0.01790   2.02991
   R20        2.05528  -0.00208  -0.00090  -0.00567  -0.00657   2.04871
   R21        2.05476  -0.00233  -0.00101  -0.00636  -0.00737   2.04739
    A1        1.91159  -0.00002   0.00011  -0.00197  -0.00161   1.90997
    A2        1.91200   0.00009   0.00016  -0.00227  -0.00192   1.91008
    A3        1.92094  -0.00481  -0.00363  -0.03129  -0.03468   1.88625
    A4        1.90153  -0.00310  -0.00174  -0.01489  -0.01716   1.88436
    A5        1.90958   0.00422   0.00272   0.02736   0.02993   1.93951
    A6        1.90807   0.00365   0.00240   0.02329   0.02551   1.93358
    A7        2.09892   0.00956  -0.00085   0.04436   0.04345   2.14237
    A8        2.00866  -0.00158  -0.00529  -0.00052  -0.00586   2.00280
    A9        2.17551  -0.00798   0.00613  -0.04357  -0.03749   2.13801
   A10        2.05044   0.00234  -0.00883   0.02088   0.01095   2.06139
   A11        2.20956  -0.00555   0.01647  -0.04896  -0.03364   2.17592
   A12        2.02251   0.00315  -0.00778   0.02537   0.01638   2.03889
   A13        1.89042  -0.00173  -0.00416  -0.06351  -0.06943   1.82099
   A14        1.96650  -0.00158   0.00552   0.01118   0.01516   1.98166
   A15        1.90498  -0.00342  -0.00684   0.00185  -0.00965   1.89533
   A16        1.85108   0.00171  -0.00904   0.03900   0.03206   1.88314
   A17        1.86796  -0.00516  -0.00565  -0.06340  -0.07169   1.79626
   A18        1.97769   0.00964   0.01935   0.06491   0.08394   2.06163
   A19        1.94729   0.00276   0.00726   0.01429   0.02140   1.96869
   A20        1.90955   0.00057  -0.00030   0.00578   0.00530   1.91485
   A21        1.91014   0.00030  -0.00019  -0.00267  -0.00285   1.90730
   A22        1.91104  -0.00072   0.00019   0.00438   0.00425   1.91529
   A23        1.88863  -0.00184  -0.00434  -0.01047  -0.01479   1.87385
   A24        1.89643  -0.00119  -0.00276  -0.01218  -0.01494   1.88149
   A25        2.06820  -0.00213  -0.00702  -0.00085  -0.00796   2.06024
   A26        2.09208  -0.00883   0.01145  -0.05390  -0.04254   2.04954
   A27        2.12249   0.01097  -0.00452   0.05548   0.05087   2.17336
   A28        2.10129  -0.00412   0.00140  -0.02577  -0.02488   2.07641
   A29        2.13051   0.00491   0.00058   0.02430   0.02436   2.15487
   A30        2.05134  -0.00081  -0.00199   0.00098  -0.00155   2.04979
   A31        1.90300  -0.00180  -0.00163  -0.01184  -0.01342   1.88958
   A32        1.92022   0.00194   0.00183   0.01212   0.01390   1.93412
   A33        1.91886   0.00174   0.00155   0.01076   0.01226   1.93112
   A34        1.90830  -0.00023  -0.00037  -0.00216  -0.00248   1.90582
   A35        1.90869  -0.00024  -0.00030  -0.00292  -0.00318   1.90550
   A36        1.90468  -0.00143  -0.00109  -0.00607  -0.00729   1.89740
    D1        0.00732  -0.00021   0.00143  -0.00690  -0.00564   0.00168
    D2        3.13453   0.00016  -0.00142   0.01250   0.01129  -3.13736
    D3        2.10859  -0.00057   0.00105  -0.01157  -0.01102   2.09757
    D4       -1.04738  -0.00020  -0.00180   0.00783   0.00591  -1.04147
    D5       -2.09352   0.00037   0.00195   0.00067   0.00272  -2.09080
    D6        1.03370   0.00074  -0.00090   0.02006   0.01965   1.05335
    D7       -0.03089  -0.00136  -0.00624  -0.05895  -0.06450  -0.09539
    D8       -3.13103   0.00033   0.00212   0.02314   0.02515  -3.10588
    D9        3.09561  -0.00081  -0.00923  -0.03774  -0.04685   3.04875
   D10       -0.00453   0.00088  -0.00087   0.04436   0.04279   0.03826
   D11       -2.94612  -0.00407  -0.01335  -0.10926  -0.12147  -3.06759
   D12       -0.90402  -0.00399  -0.02386  -0.09520  -0.11783  -1.02185
   D13        1.30910   0.00485   0.00000   0.00000   0.00000   1.30910
   D14        0.23634  -0.00239  -0.00511  -0.02825  -0.03278   0.20357
   D15        2.27844  -0.00231  -0.01562  -0.01419  -0.02914   2.24931
   D16       -1.79162   0.00653   0.00824   0.08100   0.08869  -1.70293
   D17        1.06324   0.00049   0.00322   0.01127   0.01575   1.07899
   D18       -3.10256   0.00177   0.00785   0.03002   0.03930  -3.06326
   D19       -1.02646   0.00084   0.00418   0.01705   0.02259  -1.00387
   D20        3.12855  -0.00141  -0.00443  -0.03525  -0.04037   3.08818
   D21       -1.03725  -0.00013   0.00020  -0.01650  -0.01682  -1.05408
   D22        1.03884  -0.00105  -0.00346  -0.02947  -0.03353   1.00531
   D23       -1.11052  -0.00136  -0.00593  -0.05248  -0.05924  -1.16977
   D24        1.00686  -0.00008  -0.00130  -0.03373  -0.03569   0.97116
   D25        3.08295  -0.00100  -0.00496  -0.04670  -0.05240   3.03055
   D26        1.27855  -0.00183  -0.00612   0.02788   0.02176   1.30031
   D27       -1.83260  -0.00257   0.00000   0.00000   0.00000  -1.83260
   D28       -0.76370   0.00480   0.00615   0.13646   0.14078  -0.62292
   D29        2.40834   0.00406   0.01227   0.10858   0.11903   2.52736
   D30       -2.79790   0.00060   0.00964   0.09279   0.10346  -2.69444
   D31        0.37414  -0.00014   0.01576   0.06491   0.08171   0.45584
   D32       -0.00589   0.00168  -0.00120   0.06739   0.06631   0.06043
   D33        3.12607   0.00028  -0.00312   0.00678   0.00428   3.13035
   D34       -3.11606   0.00116   0.00512   0.03970   0.04421  -3.07186
   D35        0.01589  -0.00023   0.00320  -0.02091  -0.01783  -0.00194
   D36        0.00473   0.00068   0.00094   0.03073   0.03183   0.03656
   D37        2.09742   0.00046   0.00060   0.02812   0.02881   2.12623
   D38       -2.08761   0.00103   0.00137   0.03508   0.03668  -2.05093
   D39        3.13695  -0.00070  -0.00092  -0.02837  -0.02945   3.10750
   D40       -1.05355  -0.00092  -0.00126  -0.03098  -0.03247  -1.08602
   D41        1.04461  -0.00035  -0.00050  -0.02402  -0.02460   1.02000
         Item               Value     Threshold  Converged?
 Maximum Force            0.025509     0.000450     NO 
 RMS     Force            0.004769     0.000300     NO 
 Maximum Displacement     0.268551     0.001800     NO 
 RMS     Displacement     0.075423     0.001200     NO 
 Predicted change in Energy=-4.691079D-03
 GradGradGradGradGradGradGradGradGradGradGradGradGradGradGradGradGradGrad

                          Input orientation:                          
 ---------------------------------------------------------------------
 Center     Atomic      Atomic             Coordinates (Angstroms)
 Number     Number       Type             X           Y           Z
 ---------------------------------------------------------------------
      1          1           0        0.835415    3.322995   -1.814549
      2          6           0        1.417587    3.282911   -0.909197
      3          1           0        1.555748    2.247649   -0.614279
      4          1           0        0.882150    3.789104   -0.112909
      5          6           0        2.747590    3.956782   -1.175549
      6          8           0        3.032750    4.433720   -2.240786
      7          7           0        3.590413    3.977688   -0.123641
      8          1           0        3.259388    3.637452    0.747209
      9          6           0        4.898598    4.603129   -0.127130
     10          1           0        5.312820    4.360904    0.838177
     11          6           0        5.843283    4.042881   -1.199957
     12          1           0        5.475020    4.196199   -2.202752
     13          1           0        6.823766    4.495387   -1.096560
     14          1           0        5.954568    2.974927   -1.056166
     15          6           0        4.713889    6.123765   -0.049223
     16          8           0        4.389764    6.601875    1.008983
     17          7           0        4.915730    6.828871   -1.171816
     18          1           0        5.122388    6.345466   -2.011407
     19          6           0        4.764510    8.267288   -1.249587
     20          1           0        4.510983    8.632509   -0.271728
     21          1           0        5.686521    8.734505   -1.576604
     22          1           0        3.975720    8.531492   -1.943732
 ---------------------------------------------------------------------
                    Distance matrix (angstroms):
                    1          2          3          4          5
     1  H    0.000000
     2  C    1.077123   0.000000
     3  H    1.765190   1.085280   0.000000
     4  H    1.764943   1.084896   1.755332   0.000000
     5  C    2.113391   1.514581   2.157927   2.153413   0.000000
     6  O    2.498734   2.388775   3.099350   3.093295   1.201465
     7  N    3.298152   2.412672   2.715441   2.714842   1.348072
     8  H    3.540781   2.502321   2.586038   2.532600   2.015169
     9  C    4.582093   3.804214   4.118282   4.098133   2.478665
    10  H    5.306729   4.403207   4.548744   4.567533   3.286155
    11  C    5.096538   4.499876   4.684958   5.085166   3.096986
    12  H    4.736995   4.355474   4.656264   5.062374   2.924268
    13  H    6.144132   5.543643   5.747777   6.063762   4.112365
    14  H    5.186716   4.549797   4.480381   5.223222   3.356039
    15  C    5.099338   4.435720   5.031642   4.487418   3.135403
    16  O    5.599713   4.850646   5.442969   4.633970   3.803345
    17  N    5.417864   4.987966   5.708584   5.160546   3.598575
    18  H    5.249021   4.931497   5.609366   5.302726   3.470466
    19  C    6.340584   6.013466   6.850973   6.034806   4.759612
    20  H    6.639355   6.212379   7.043947   6.054108   5.078274
    21  H    7.271471   6.956228   7.750398   7.048502   5.623593
    22  H    6.083309   5.929748   6.863701   5.950826   4.798581
                    6          7          8          9         10
     6  O    0.000000
     7  N    2.236349   0.000000
     8  H    3.100568   0.991825   0.000000
     9  C    2.824469   1.450013   2.093803   0.000000
    10  H    3.831976   2.009636   2.179046   1.077994   0.000000
    11  C    3.022445   2.497625   3.260727   1.535338   2.129911
    12  H    2.454088   2.814640   3.731420   2.192273   3.049703
    13  H    3.960411   3.416015   4.103697   2.158164   2.458506
    14  H    3.473963   2.732099   3.309848   2.151563   2.433374
    15  C    3.238121   2.423506   2.988583   1.533793   2.062493
    16  O    4.135623   2.967854   3.183407   2.354708   2.429641
    17  N    3.228786   3.314270   4.075694   2.458778   3.207587
    18  H    2.841473   3.393668   4.291162   2.576105   3.477769
    19  C    4.321772   4.587693   5.261936   3.834573   4.463097
    20  H    4.867462   4.747287   5.249316   4.050562   4.485693
    21  H    5.097096   5.397415   6.105001   4.448603   5.009911
    22  H    4.215349   4.919179   5.630801   4.425356   5.188512
                   11         12         13         14         15
    11  C    0.000000
    12  H    1.079223   0.000000
    13  H    1.084804   1.769827   0.000000
    14  H    1.083322   1.742450   1.751838   0.000000
    15  C    2.632451   2.988732   2.863583   3.531062   0.000000
    16  O    3.679753   4.156958   3.846422   4.457376   1.205589
    17  N    2.936476   2.882117   3.015197   3.993175   1.340944
    18  H    2.545592   2.186392   2.674775   3.600769   2.016479
    19  C    4.360256   4.241122   4.300138   5.427959   2.457260
    20  H    4.868400   4.933464   4.810934   5.891308   2.526752
    21  H    4.709329   4.586177   4.415188   5.789252   3.177243
[...]
    16  O    5.813127   4.905166   5.217972   4.810093   3.851360
    17  N    5.571962   4.987061   5.623529   5.071598   3.609448
    18  H    5.115760   4.698088   5.417840   4.909700   3.273532
    19  C    6.487482   5.915697   6.634487   5.770150   4.699220
    20  H    7.290933   6.615825   7.229254   6.441603   5.410808
    21  H    7.005664   6.566088   7.358510   6.473811   5.312428
    22  H    6.159544   5.594366   6.371463   5.267433   4.585126
                    6          7          8          9         10
     6  O    0.000000
     7  N    2.246199   0.000000
     8  H    3.107817   0.993700   0.000000
     9  C    2.825172   1.458388   2.101468   0.000000
    10  H    3.840629   2.025753   2.206704   1.081598   0.000000
    11  C    3.012300   2.500177   3.291246   1.527360   2.119914
    12  H    2.441129   2.819249   3.757831   2.188045   3.044542
    13  H    3.941937   3.418736   4.129785   2.149399   2.447367
    14  H    3.472710   2.732854   3.362393   2.140939   2.415040
    15  C    3.243672   2.440611   2.965335   1.536347   2.067642
    16  O    4.167824   3.016271   3.183298   2.368320   2.445800
    17  N    3.231239   3.336005   4.061332   2.466840   3.216388
    18  H    2.616552   3.288459   4.166486   2.577987   3.520263
    19  C    4.268242   4.547414   5.162814   3.817237   4.452678
    20  H    5.138557   5.026626   5.514144   4.151609   4.550878
    21  H    4.665566   5.306556   6.022601   4.532065   5.240275
    22  H    4.211267   4.607244   5.138988   4.200656   4.875382
                   11         12         13         14         15
    11  C    0.000000
    12  H    1.078886   0.000000
    13  H    1.084567   1.761593   0.000000
    14  H    1.084398   1.748978   1.757127   0.000000
    15  C    2.618053   2.977196   2.835010   3.518239   0.000000
    16  O    3.666430   4.147679   3.806970   4.449694   1.202108
    17  N    2.921984   2.865712   2.979368   3.981970   1.348972
    18  H    2.626516   2.222769   2.838699   3.664659   2.000434
    19  C    4.362767   4.242430   4.311686   5.427879   2.425125
    20  H    4.801127   4.887361   4.584435   5.843365   2.667734
    21  H    4.769155   4.471585   4.622640   5.850294   3.299518
    22  H    4.949290   4.771320   5.090059   5.967157   2.816576
                   16         17         18         19         20
    16  O    0.000000
    17  N    2.247118   0.000000
    18  H    3.080055   0.995523   0.000000
    19  C    2.754034   1.448396   2.097365   0.000000
    20  H    2.621917   2.075191   2.932322   1.079733   0.000000
    21  H    3.788104   2.066933   2.336633   1.082009   1.760102
    22  H    2.944739   2.112029   2.625807   1.085252   1.755993
                   21         22
    21  H    0.000000
    22  H    1.765257   0.000000
 Stoichiometry    C6H12N2O2
 Framework group  C1[X(C6H12N2O2)]
 Deg. of freedom    60
 Full point group                 C1      NOp   1
 Largest Abelian subgroup         C1      NOp   1
 Largest concise Abelian subgroup C1      NOp   1
                         Standard orientation:                         
 ---------------------------------------------------------------------
 Center     Atomic      Atomic             Coordinates (Angstroms)
 Number     Number       Type             X           Y           Z
 ---------------------------------------------------------------------
      1          1           0        3.681449   -1.327749   -0.474140
      2          6           0        3.044928   -1.070597    0.360457
      3          1           0        3.591021   -0.447507    1.058691
      4          1           0        2.760699   -1.987968    0.866476
      5          6           0        1.796673   -0.399034   -0.168806
      6          8           0        1.345698   -0.667331   -1.252542
      7          7           0        1.215137    0.491354    0.667304
      8          1           0        1.544819    0.542125    1.603345
      9          6           0       -0.033080    1.186149    0.373859
     10          1           0       -0.166736    1.874525    1.197345
     11          6           0        0.010705    2.011267   -0.910699
     12          1           0        0.188300    1.413423   -1.791061
     13          1           0       -0.924255    2.547759   -1.030328
     14          1           0        0.811494    2.738504   -0.834655
     15          6           0       -1.206180    0.209419    0.547634
     16          8           0       -1.578809   -0.069067    1.656082
     17          7           0       -1.787683   -0.266769   -0.572555
     18          1           0       -1.233172   -0.249871   -1.399174
     19          6           0       -2.805932   -1.293030   -0.484195
     20          1           0       -3.568726   -0.984045    0.214730
     21          1           0       -3.253761   -1.421744   -1.460733
     22          1           0       -2.401105   -2.243416   -0.151547
 ---------------------------------------------------------------------
 Rotational constants (GHZ):      1.9297639      0.8711468      0.8238113

 **********************************************************************

            Population analysis using the SCF density.

 **********************************************************************

 Orbital symmetries:
       Occupied  (A) (A) (A) (A) (A) (A) (A) (A) (A) (A) (A) (A)
                 (A) (A) (A) (A) (A) (A) (A) (A) (A) (A) (A) (A)
                 (A) (A) (A) (A) (A) (A) (A) (A) (A) (A) (A) (A)
                 (A) (A) (A)
       Virtual   (A) (A) (A) (A) (A) (A) (A) (A) (A) (A) (A) (A)
                 (A) (A) (A) (A) (A) (A) (A) (A) (A) (A) (A) (A)
                 (A) (A) (A) (A) (A) (A) (A) (A) (A) (A) (A) (A)
                 (A) (A) (A) (A) (A) (A) (A) (A) (A) (A) (A) (A)
                 (A) (A) (A) (A) (A) (A) (A) (A) (A) (A) (A) (A)
                 (A) (A) (A) (A) (A) (A) (A) (A) (A) (A) (A) (A)
                 (A) (A) (A) (A) (A) (A) (A) (A) (A) (A) (A) (A)
                 (A) (A) (A) (A) (A) (A) (A) (A) (A) (A) (A) (A)
                 (A) (A) (A) (A) (A) (A) (A) (A) (A) (A) (A) (A)
                 (A) (A) (A) (A) (A) (A) (A) (A) (A) (A) (A) (A)
                 (A) (A) (A) (A) (A) (A) (A) (A) (A) (A) (A) (A)
                 (A) (A) (A)
 The electronic state is 1-A.
 Alpha  occ. eigenvalues --  -20.53089 -20.51903 -15.59437 -15.57616 -11.35713
 Alpha  occ. eigenvalues --  -11.33842 -11.28232 -11.24925 -11.23777 -11.22176
 Alpha  occ. eigenvalues --   -1.40005  -1.38599  -1.24477  -1.22497  -1.05744
 Alpha  occ. eigenvalues --   -0.99688  -0.94887  -0.89037  -0.80256  -0.76929
 Alpha  occ. eigenvalues --   -0.72076  -0.70149  -0.65398  -0.63969  -0.62442
 Alpha  occ. eigenvalues --   -0.61604  -0.59833  -0.58451  -0.57095  -0.55980
 Alpha  occ. eigenvalues --   -0.54877  -0.54310  -0.52507  -0.51609  -0.50820
 Alpha  occ. eigenvalues --   -0.43288  -0.42341  -0.39209  -0.37884
 Alpha virt. eigenvalues --    0.18934   0.19778   0.22098   0.24643   0.25850
 Alpha virt. eigenvalues --    0.27363   0.29377   0.30052   0.31216   0.32129
 Alpha virt. eigenvalues --    0.32822   0.33912   0.34271   0.35676   0.38615
 Alpha virt. eigenvalues --    0.39141   0.39998   0.45375   0.47301   0.48995
 Alpha virt. eigenvalues --    0.52857   0.60263   0.63694   0.69434   0.70083
 Alpha virt. eigenvalues --    0.73348   0.75557   0.76164   0.77122   0.78721
 Alpha virt. eigenvalues --    0.80920   0.81776   0.82320   0.88201   0.91779
 Alpha virt. eigenvalues --    0.93516   0.94005   0.94716   0.96956   0.99869
 Alpha virt. eigenvalues --    1.01442   1.02858   1.04016   1.04657   1.09971
 Alpha virt. eigenvalues --    1.11706   1.13356   1.13872   1.14907   1.16304
 Alpha virt. eigenvalues --    1.17013   1.17290   1.19177   1.20611   1.20849
 Alpha virt. eigenvalues --    1.22343   1.23051   1.24846   1.25416   1.26593
 Alpha virt. eigenvalues --    1.29206   1.34363   1.37998   1.39432   1.40919
 Alpha virt. eigenvalues --    1.46024   1.49939   1.51827   1.53533   1.60581
 Alpha virt. eigenvalues --    1.66003   1.66575   1.67928   1.71260   1.73627
 Alpha virt. eigenvalues --    1.76957   1.86033   1.88938   1.94811   1.98113
 Alpha virt. eigenvalues --    1.99625   2.04264   2.08125   2.10820   2.11200
 Alpha virt. eigenvalues --    2.14812   2.16669   2.18663   2.21408   2.21503
 Alpha virt. eigenvalues --    2.25715   2.27227   2.30274   2.31745   2.33773
 Alpha virt. eigenvalues --    2.36622   2.38367   2.42181   2.45331   2.50493
 Alpha virt. eigenvalues --    2.52931   2.56731   2.57306   2.61730   2.64447
 Alpha virt. eigenvalues --    2.68621   2.70497   2.71906   2.73709   2.76158
 Alpha virt. eigenvalues --    2.79348   2.82325   2.87429   2.92449   2.99884
 Alpha virt. eigenvalues --    3.03154   3.03851   3.08540   3.09426   3.27772
 Alpha virt. eigenvalues --    3.32651   3.38058   3.40074   3.54253   3.55534
 Alpha virt. eigenvalues --    4.38417   4.42764   4.48764   4.59075   4.63281
 Alpha virt. eigenvalues --    4.66827   4.76718   4.78707   4.90737   5.10212
          Condensed to atoms (all electrons):
              1          2          3          4          5          6
     1  H    0.464809   0.384438  -0.021485  -0.017721  -0.030983   0.002550
     2  C    0.384438   5.259561   0.376009   0.376809   0.372649  -0.072246
     3  H   -0.021485   0.376009   0.521266  -0.023424  -0.038006   0.002374
     4  H   -0.017721   0.376809  -0.023424   0.483820  -0.026190   0.000120
     5  C   -0.030983   0.372649  -0.038006  -0.026190   4.150236   0.594132
     6  O    0.002550  -0.072246   0.002374   0.000120   0.594132   8.189266
     7  N    0.003712  -0.116351   0.005754   0.000302   0.268364  -0.104932
     8  H    0.000041  -0.000109   0.000504   0.000023  -0.018282   0.002555
     9  C   -0.000087   0.004213   0.000102  -0.000198  -0.027995   0.010624
    10  H    0.000002  -0.000019  -0.000020   0.000000   0.003721   0.000110
    11  C    0.000014  -0.000241  -0.000010  -0.000004  -0.004017  -0.008274
    12  H    0.000001   0.000111  -0.000007  -0.000001   0.001558   0.004768
    13  H    0.000000   0.000007   0.000000   0.000000   0.000162   0.000280
    14  H   -0.000001  -0.000048   0.000003   0.000001  -0.000220  -0.000054
    15  C   -0.000005  -0.000322   0.000011   0.000047  -0.003643   0.001659
    16  O    0.000000  -0.000021   0.000000   0.000001  -0.000103   0.000019
    17  N    0.000000   0.000008   0.000000   0.000002   0.002707  -0.004256
    18  H    0.000000   0.000073  -0.000001  -0.000004   0.000152   0.007825
    19  C    0.000000  -0.000001   0.000000   0.000000  -0.000081   0.000012
    20  H    0.000000   0.000000   0.000000   0.000000   0.000002  -0.000001
    21  H    0.000000   0.000000   0.000000   0.000000   0.000002  -0.000006
    22  H    0.000000   0.000000   0.000000  -0.000001  -0.000019   0.000051
              7          8          9         10         11         12
     1  H    0.003712   0.000041  -0.000087   0.000002   0.000014   0.000001
     2  C   -0.116351  -0.000109   0.004213  -0.000019  -0.000241   0.000111
     3  H    0.005754   0.000504   0.000102  -0.000020  -0.000010  -0.000007
     4  H    0.000302   0.000023  -0.000198   0.000000  -0.000004  -0.000001
     5  C    0.268364  -0.018282  -0.027995   0.003721  -0.004017   0.001558
     6  O   -0.104932   0.002555   0.010624   0.000110  -0.008274   0.004768
     7  N    7.369496   0.329616   0.194049  -0.039645  -0.049734  -0.003191
     8  H    0.329616   0.314287  -0.025326  -0.004807   0.003162  -0.000111
     9  C    0.194049  -0.025326   5.054331   0.418573   0.324573  -0.027226
    10  H   -0.039645  -0.004807   0.418573   0.489768  -0.036135   0.003369
    11  C   -0.049734   0.003162   0.324573  -0.036135   5.148328   0.388477
    12  H   -0.003191  -0.000111  -0.027226   0.003369   0.388477   0.474985
    13  H    0.003750  -0.000068  -0.040823  -0.002394   0.388538  -0.023971
    14  H    0.001034  -0.000020  -0.035603  -0.004643   0.389200  -0.023858
    15  C   -0.064720   0.001859   0.377599  -0.049663  -0.050975  -0.003789
    16  O    0.002683   0.000968  -0.075924   0.004118   0.002506  -0.000027
    17  N    0.001863  -0.000060  -0.110884   0.004205   0.005017   0.000255
    18  H   -0.000702  -0.000021  -0.000080   0.000096  -0.001629   0.002421
    19  C   -0.000210   0.000003   0.004537  -0.000142  -0.000183  -0.000033
    20  H   -0.000008   0.000000   0.000140   0.000011  -0.000029   0.000000
    21  H   -0.000001   0.000000   0.000025   0.000002  -0.000023   0.000009
    22  H    0.000035   0.000000  -0.000304  -0.000007   0.000018  -0.000002
             13         14         15         16         17         18
     1  H    0.000000  -0.000001  -0.000005   0.000000   0.000000   0.000000
     2  C    0.000007  -0.000048  -0.000322  -0.000021   0.000008   0.000073
     3  H    0.000000   0.000003   0.000011   0.000000   0.000000  -0.000001
     4  H    0.000000   0.000001   0.000047   0.000001   0.000002  -0.000004
     5  C    0.000162  -0.000220  -0.003643  -0.000103   0.002707   0.000152
     6  O    0.000280  -0.000054   0.001659   0.000019  -0.004256   0.007825
     7  N    0.003750   0.001034  -0.064720   0.002683   0.001863  -0.000702
     8  H   -0.000068  -0.000020   0.001859   0.000968  -0.000060  -0.000021
     9  C   -0.040823  -0.035603   0.377599  -0.075924  -0.110884  -0.000080
    10  H   -0.002394  -0.004643  -0.049663   0.004118   0.004205   0.000096
    11  C    0.388538   0.389200  -0.050975   0.002506   0.005017  -0.001629
    12  H   -0.023971  -0.023858  -0.003789  -0.000027   0.000255   0.002421
    13  H    0.523055  -0.023987   0.000045   0.000002   0.000459  -0.000095
    14  H   -0.023987   0.519486   0.003906  -0.000061  -0.000022   0.000009
    15  C    0.000045   0.003906   4.189852   0.607446   0.283025  -0.017711
    16  O    0.000002  -0.000061   0.607446   8.171397  -0.108259   0.002368
    17  N    0.000459  -0.000022   0.283025  -0.108259   7.304528   0.316300
    18  H   -0.000095   0.000009  -0.017711   0.002368   0.316300   0.304791
    19  C   -0.000054   0.000005  -0.032742   0.007727   0.208937  -0.023161
    20  H   -0.000005   0.000000  -0.003718   0.003567  -0.037815   0.002713
    21  H    0.000000   0.000000   0.004439   0.000372  -0.038974  -0.003762
    22  H    0.000002   0.000000  -0.002510   0.001619  -0.048174   0.000644
             19         20         21         22
     1  H    0.000000   0.000000   0.000000   0.000000
     2  C   -0.000001   0.000000   0.000000   0.000000
     3  H    0.000000   0.000000   0.000000   0.000000
     4  H    0.000000   0.000000   0.000000  -0.000001
     5  C   -0.000081   0.000002   0.000002  -0.000019
     6  O    0.000012  -0.000001  -0.000006   0.000051
     7  N   -0.000210  -0.000008  -0.000001   0.000035
     8  H    0.000003   0.000000   0.000000   0.000000
     9  C    0.004537   0.000140   0.000025  -0.000304
    10  H   -0.000142   0.000011   0.000002  -0.000007
    11  C   -0.000183  -0.000029  -0.000023   0.000018
    12  H   -0.000033   0.000000   0.000009  -0.000002
    13  H   -0.000054  -0.000005   0.000000   0.000002
    14  H    0.000005   0.000000   0.000000   0.000000
    15  C   -0.032742  -0.003718   0.004439  -0.002510
    16  O    0.007727   0.003567   0.000372   0.001619
    17  N    0.208937  -0.037815  -0.038974  -0.048174
    18  H   -0.023161   0.002713  -0.003762   0.000644
    19  C    4.908215   0.403069   0.398990   0.404231
    20  H    0.403069   0.489207  -0.024802  -0.032506
    21  H    0.398990  -0.024802   0.526811  -0.032861
    22  H    0.404231  -0.032506  -0.032861   0.535326
 Mulliken atomic charges:
              1
     1  H    0.214715
     2  C   -0.584520
     3  H    0.176931
     4  H    0.206416
     5  C    0.755854
     6  O   -0.626576
     7  N   -0.801163
     8  H    0.395787
     9  C   -0.044316
    10  H    0.213501
    11  C   -0.498581
    12  H    0.206263
    13  H    0.175099
    14  H    0.174875
    15  C    0.759910
    16  O   -0.620399
    17  N   -0.778861
    18  H    0.409774
    19  C   -0.279118
    20  H    0.200175
    21  H    0.169778
    22  H    0.174456
 Sum of Mulliken atomic charges =   0.00000
 Mulliken charges with hydrogens summed into heavy atoms:
              1
     2  C    0.013542
     5  C    0.755854
     6  O   -0.626576
     7  N   -0.405377
     9  C    0.169185
    11  C    0.057656
    15  C    0.759910
    16  O   -0.620399
    17  N   -0.369087
    19  C    0.265292
 Sum of Mulliken charges with hydrogens summed into heavy atoms =   0.00000
 Electronic spatial extent (au):  <R**2>=           1640.7064
 Charge=              0.0000 electrons
 Dipole moment (field-independent basis, Debye):
    X=              1.9576    Y=              0.8937    Z=             -0.1245  Tot=              2.1556
 Quadrupole moment (field-independent basis, Debye-Ang):
   XX=            -55.3453   YY=            -57.2950   ZZ=            -65.8807
   XY=              1.1775   XZ=             11.7108   YZ=              0.1553
 Traceless Quadrupole moment (field-independent basis, Debye-Ang):
   XX=              4.1618   YY=              2.2120   ZZ=             -6.3737
   XY=              1.1775   XZ=             11.7108   YZ=              0.1553
 Octapole moment (field-independent basis, Debye-Ang**2):
  XXX=             11.8385  YYY=             -2.3330  ZZZ=             -4.5094  XYY=             -2.5939
  XXY=            -12.1043  XXZ=             -1.9836  XZZ=              7.8511  YZZ=              4.1593
  YYZ=              4.1820  XYZ=             -5.2117
 Hexadecapole moment (field-independent basis, Debye-Ang**3):
 XXXX=          -1225.1802 YYYY=           -477.4902 ZZZZ=           -347.5815 XXXY=              5.4716
 XXXZ=             13.3576 YYYX=             -1.6204 YYYZ=              3.0554 ZZZX=             35.7963
 ZZZY=              8.9519 XXYY=           -285.2201 XXZZ=           -283.8951 YYZZ=           -137.3954
 XXYZ=              7.9062 YYXZ=              1.6741 ZZXY=              8.0368
 N-N= 5.680531379458D+02 E-N=-2.291604436068D+03  KE= 4.921239779765D+02
 1\1\GINC-RODAN\FOpt\RHF\6-31G(d)\C6H12N2O2\STEBOSS\09-Feb-2017\0\\# HF
 /6-31G* Opt=(ModRedundant) geom=nocrowd\\Phi Psi fixed scan\\0,1\H,1.0
 830230406,2.9219658369,-1.9487395827\C,1.4266735578,3.32709866,-1.0076
 704728\H,1.4364228853,2.5473511951,-0.2554149603\H,0.7301158459,4.0988
 386822,-0.6952056938\C,2.7876565784,3.9543654811,-1.2162797681\O,3.104
 1606964,4.4414921233,-2.2709739805\N,3.6008340791,3.954594762,-0.13517
 07895\H,3.2177258088,3.6858589103,0.7414414797\C,4.9197490719,4.576492
 8892,-0.110646932\H,5.3272644605,4.3227791036,0.8585867457\C,5.8766239
 516,4.0289245828,-1.1677120991\H,5.5307846763,4.1931820718,-2.17637910
 37\H,6.8515763695,4.488961048,-1.0488886361\H,5.9863507632,2.959840020
 2,-1.0230135316\C,4.7560004457,6.101786764,-0.0268136638\O,4.459286201
 6,6.6033477133,1.0245950028\N,4.9901582002,6.8131321755,-1.1488131696\
 H,4.90670839,6.3200140126,-2.0095894371\C,4.7229735339,8.2363862976,-1
 .1773035711\H,5.2126133445,8.711382689,-0.3403716425\H,5.1205931876,8.
 6452020322,-2.0968204166\H,3.6613049114,8.4545029492,-1.1220157773\\Ve
 rsion=EM64L-G09RevA.02\State=1-A\HF=-492.8537865\RMSD=5.905e-09\RMSF=1
 .190e-03\Dipole=-0.1380989,-0.8346994,-0.0585263\Quadrupole=3.3398569,
 2.9539162,-6.2937731,2.1179241,-2.8514766,-7.1826325\PG=C01 [X(C6H12N2
 O2)]\\@


 WHEN A MATHEMATICIAN ENGAGED IN INVESTIGATING
 PHYSICAL ACTIONS AND RESULTS HAS ARRIVED AT HIS
 CONCLUSIONS, MAY THEY NOT BE EXPRESSED IN COMMON
 LANGUAGE AS FULLY, CLEARLY, AND DEFINITELY AS IN
 MATHEMATICAL FORMULAE?
           - LETTER FROM M. FARADAY TO J.C. MAXWELL, 1857.
 Job cpu time:  0 days  0 hours 24 minutes 31.6 seconds.
 File lengths (MBytes):  RWF=     25 Int=      0 D2E=      0 Chk=      3 Scr=      1
 Normal termination of Gaussian 09 at Thu Feb  9 20:12:24 2017.
