 Entering Gaussian System, Link 0=g09
 Initial command:
 /home/steboss/Software/g09/l1.exe /tmp/Gau-27476.inp -scrdir=/tmp/
 Entering Link 1 = /home/steboss/Software/g09/l1.exe PID=     27478.
  
 Copyright (c) 1988,1990,1992,1993,1995,1998,2003,2009, Gaussian, Inc.
                  All Rights Reserved.
  
 This is part of the Gaussian(R) 09 program.  It is based on
 the Gaussian(R) 03 system (copyright 2003, Gaussian, Inc.),
 the Gaussian(R) 98 system (copyright 1998, Gaussian, Inc.),
 the Gaussian(R) 94 system (copyright 1995, Gaussian, Inc.),
 the Gaussian 92(TM) system (copyright 1992, Gaussian, Inc.),
 the Gaussian 90(TM) system (copyright 1990, Gaussian, Inc.),
 the Gaussian 88(TM) system (copyright 1988, Gaussian, Inc.),
 the Gaussian 86(TM) system (copyright 1986, Carnegie Mellon
 University), and the Gaussian 82(TM) system (copyright 1983,
 Carnegie Mellon University). Gaussian is a federally registered
 trademark of Gaussian, Inc.
  
 This software contains proprietary and confidential information,
 including trade secrets, belonging to Gaussian, Inc.
  
 This software is provided under written license and may be
 used, copied, transmitted, or stored only in accord with that
 written license.
  
 The following legend is applicable only to US Government
 contracts under FAR:
  
                    RESTRICTED RIGHTS LEGEND
  
 Use, reproduction and disclosure by the US Government is
 subject to restrictions as set forth in subparagraphs (a)
 and (c) of the Commercial Computer Software - Restricted
 Rights clause in FAR 52.227-19.
  
 Gaussian, Inc.
 340 Quinnipiac St., Bldg. 40, Wallingford CT 06492
  
  
 ---------------------------------------------------------------
 Warning -- This program may not be used in any manner that
 competes with the business of Gaussian, Inc. or will provide
 assistance to any competitor of Gaussian, Inc.  The licensee
 of this program is prohibited from giving any competitor of
 Gaussian, Inc. access to this program.  By using this program,
 the user acknowledges that Gaussian, Inc. is engaged in the
 business of creating and licensing software in the field of
 computational chemistry and represents and warrants to the
 licensee that it is not a competitor of Gaussian, Inc. and that
 it will not use this program in any manner prohibited above.
 ---------------------------------------------------------------
  

 Cite this work as:
 Gaussian 09, Revision A.02,
 M. J. Frisch, G. W. Trucks, H. B. Schlegel, G. E. Scuseria, 
 M. A. Robb, J. R. Cheeseman, G. Scalmani, V. Barone, B. Mennucci, 
 G. A. Petersson, H. Nakatsuji, M. Caricato, X. Li, H. P. Hratchian, 
 A. F. Izmaylov, J. Bloino, G. Zheng, J. L. Sonnenberg, M. Hada, 
 M. Ehara, K. Toyota, R. Fukuda, J. Hasegawa, M. Ishida, T. Nakajima, 
 Y. Honda, O. Kitao, H. Nakai, T. Vreven, J. A. Montgomery, Jr., 
 J. E. Peralta, F. Ogliaro, M. Bearpark, J. J. Heyd, E. Brothers, 
 K. N. Kudin, V. N. Staroverov, R. Kobayashi, J. Normand, 
 K. Raghavachari, A. Rendell, J. C. Burant, S. S. Iyengar, J. Tomasi, 
 M. Cossi, N. Rega, J. M. Millam, M. Klene, J. E. Knox, J. B. Cross, 
 V. Bakken, C. Adamo, J. Jaramillo, R. Gomperts, R. E. Stratmann, 
 O. Yazyev, A. J. Austin, R. Cammi, C. Pomelli, J. W. Ochterski, 
 R. L. Martin, K. Morokuma, V. G. Zakrzewski, G. A. Voth, 
 P. Salvador, J. J. Dannenberg, S. Dapprich, A. D. Daniels, 
 O. Farkas, J. B. Foresman, J. V. Ortiz, J. Cioslowski, 
 and D. J. Fox, Gaussian, Inc., Wallingford CT, 2009.
 
 ******************************************
 Gaussian 09:  EM64L-G09RevA.02 11-Jun-2009
                 9-Feb-2017 
 ******************************************
 %chk=structure_225.chk
 %NProcShared=8
 Will use up to    8 processors via shared memory.
 -------------------------------------------
 # HF/6-31G* Opt=(ModRedundant) geom=nocrowd
 -------------------------------------------
 1/18=120,19=15,38=1/1,3;
 2/9=110,12=1,17=6,18=5,40=1/2;
 3/5=1,6=6,7=1,11=9,16=1,25=1,30=1,71=1/1,2,3;
 4//1;
 5/5=2,38=5/2;
 6/7=2,8=2,9=2,10=2,28=1/1;
 7//1,2,3,16;
 1/18=20,19=15/3(2);
 2/9=110,12=1/2;
 99//99;
 2/9=110,12=1/2;
 3/5=1,6=6,7=1,11=9,16=1,25=1,30=1,71=1/1,2,3;
 4/5=5,16=3/1;
 5/5=2,38=5/2;
 7//1,2,3,16;
 1/18=20,19=15/3(-5);
 2/9=110,12=1/2;
 6/7=2,8=2,9=2,10=2,19=2,28=1/1;
 99/9=1/99;
 ------------------
 Phi Psi fixed scan
 ------------------
 Symbolic Z-matrix:
 Charge =  0 Multiplicity = 1
 H                     0.8983    3.2194   -1.9013 
 C                     1.4447    3.2086   -0.9582 
 H                     1.6234    2.1775   -0.6531 
 H                     0.8591    3.7173   -0.1925 
 C                     2.7931    3.9187   -1.0948 
 O                     3.1338    4.4092   -2.1689 
 N                     3.5554    3.9697    0. 
 H                     3.2318    3.5516    0.8606 
 C                     4.8533    4.6139    0. 
 H                     5.4076    4.3155    0.8898 
 C                     5.6613    4.2208   -1.2322 
 H                     5.1233    4.5214   -2.1312 
 H                     6.6305    4.7189   -1.2058 
 H                     5.8085    3.1409   -1.2414 
 C                     4.7127    6.1294    0. 
 O                     3.9095    6.6814    0.7488 
 N                     5.4979    6.8026   -0.8441 
 H                     6.143     6.3041   -1.4403 
 C                     5.4589    8.248    -0.9387 
 H                     4.72      8.6386   -0.239 
 H                     6.4402    8.6552   -0.695 
 H                     5.1871    8.539    -1.9534 
 
 The following ModRedundant input section has been read:
 D    5    7    9   15 F                                                       
 D    7    9   15   17 F                                                       

 GradGradGradGradGradGradGradGradGradGradGradGradGradGradGradGradGradGrad
 Berny optimization.
 Initialization pass.
                           ----------------------------
                           !    Initial Parameters    !
                           ! (Angstroms and Degrees)  !
 --------------------------                            --------------------------
 ! Name  Definition              Value          Derivative Info.                !
 --------------------------------------------------------------------------------
 ! R1    R(1,2)                  1.09           estimate D2E/DX2                !
 ! R2    R(2,3)                  1.09           estimate D2E/DX2                !
 ! R3    R(2,4)                  1.09           estimate D2E/DX2                !
 ! R4    R(2,5)                  1.5301         estimate D2E/DX2                !
 ! R5    R(5,6)                  1.229          estimate D2E/DX2                !
 ! R6    R(5,7)                  1.335          estimate D2E/DX2                !
 ! R7    R(7,8)                  1.01           estimate D2E/DX2                !
 ! R8    R(7,9)                  1.449          estimate D2E/DX2                !
 ! R9    R(9,10)                 1.09           estimate D2E/DX2                !
 ! R10   R(9,11)                 1.525          estimate D2E/DX2                !
 ! R11   R(9,15)                 1.522          estimate D2E/DX2                !
 ! R12   R(11,12)                1.09           estimate D2E/DX2                !
 ! R13   R(11,13)                1.09           estimate D2E/DX2                !
 ! R14   R(11,14)                1.0899         estimate D2E/DX2                !
 ! R15   R(15,16)                1.229          estimate D2E/DX2                !
 ! R16   R(15,17)                1.335          estimate D2E/DX2                !
 ! R17   R(17,18)                1.01           estimate D2E/DX2                !
 ! R18   R(17,19)                1.449          estimate D2E/DX2                !
 ! R19   R(19,20)                1.09           estimate D2E/DX2                !
 ! R20   R(19,21)                1.09           estimate D2E/DX2                !
 ! R21   R(19,22)                1.09           estimate D2E/DX2                !
 ! A1    A(1,2,3)              109.4952         estimate D2E/DX2                !
 ! A2    A(1,2,4)              109.5044         estimate D2E/DX2                !
 ! A3    A(1,2,5)              111.0955         estimate D2E/DX2                !
 ! A4    A(3,2,4)              109.4467         estimate D2E/DX2                !
 ! A5    A(3,2,5)              108.6338         estimate D2E/DX2                !
 ! A6    A(4,2,5)              108.6385         estimate D2E/DX2                !
 ! A7    A(2,5,6)              120.5019         estimate D2E/DX2                !
 ! A8    A(2,5,7)              116.5977         estimate D2E/DX2                !
 ! A9    A(6,5,7)              122.9003         estimate D2E/DX2                !
 ! A10   A(5,7,8)              119.9988         estimate D2E/DX2                !
 ! A11   A(5,7,9)              121.9007         estimate D2E/DX2                !
 ! A12   A(8,7,9)              118.1005         estimate D2E/DX2                !
 ! A13   A(7,9,10)             109.5            estimate D2E/DX2                !
 ! A14   A(7,9,11)             111.0992         estimate D2E/DX2                !
 ! A15   A(7,9,15)             111.0966         estimate D2E/DX2                !
 ! A16   A(10,9,11)            108.6382         estimate D2E/DX2                !
 ! A17   A(10,9,15)            108.6373         estimate D2E/DX2                !
 ! A18   A(11,9,15)            107.7947         estimate D2E/DX2                !
 ! A19   A(9,11,12)            109.5007         estimate D2E/DX2                !
 ! A20   A(9,11,13)            109.4959         estimate D2E/DX2                !
 ! A21   A(9,11,14)            109.4978         estimate D2E/DX2                !
 ! A22   A(12,11,13)           109.441          estimate D2E/DX2                !
 ! A23   A(12,11,14)           109.4482         estimate D2E/DX2                !
 ! A24   A(13,11,14)           109.4436         estimate D2E/DX2                !
 ! A25   A(9,15,16)            120.5029         estimate D2E/DX2                !
 ! A26   A(9,15,17)            116.6012         estimate D2E/DX2                !
 ! A27   A(16,15,17)           122.8959         estimate D2E/DX2                !
 ! A28   A(15,17,18)           120.0006         estimate D2E/DX2                !
 ! A29   A(15,17,19)           121.9013         estimate D2E/DX2                !
 ! A30   A(18,17,19)           118.0981         estimate D2E/DX2                !
 ! A31   A(17,19,20)           109.4988         estimate D2E/DX2                !
 ! A32   A(17,19,21)           109.5003         estimate D2E/DX2                !
 ! A33   A(17,19,22)           109.4985         estimate D2E/DX2                !
 ! A34   A(20,19,21)           109.444          estimate D2E/DX2                !
 ! A35   A(20,19,22)           109.4425         estimate D2E/DX2                !
 ! A36   A(21,19,22)           109.4431         estimate D2E/DX2                !
 ! D1    D(1,2,5,6)              0.0109         estimate D2E/DX2                !
 ! D2    D(1,2,5,7)            179.9999         estimate D2E/DX2                !
 ! D3    D(3,2,5,6)            120.513          estimate D2E/DX2                !
 ! D4    D(3,2,5,7)            -59.498          estimate D2E/DX2                !
 ! D5    D(4,2,5,6)           -120.5056         estimate D2E/DX2                !
 ! D6    D(4,2,5,7)             59.4834         estimate D2E/DX2                !
 ! D7    D(2,5,7,8)              0.0091         estimate D2E/DX2                !
 ! D8    D(2,5,7,9)           -179.9996         estimate D2E/DX2                !
 ! D9    D(6,5,7,8)            179.9978         estimate D2E/DX2                !
 ! D10   D(6,5,7,9)             -0.0109         estimate D2E/DX2                !
 ! D11   D(5,7,9,10)          -164.9942         estimate D2E/DX2                !
 ! D12   D(5,7,9,11)           -44.9916         estimate D2E/DX2                !
 ! D13   D(5,7,9,15)            75.006          Frozen                          !
 ! D14   D(8,7,9,10)            14.9973         estimate D2E/DX2                !
 ! D15   D(8,7,9,11)           134.9999         estimate D2E/DX2                !
 ! D16   D(8,7,9,15)          -105.0025         estimate D2E/DX2                !
 ! D17   D(7,9,11,12)           60.0024         estimate D2E/DX2                !
 ! D18   D(7,9,11,13)          179.9986         estimate D2E/DX2                !
 ! D19   D(7,9,11,14)          -60.0038         estimate D2E/DX2                !
 ! D20   D(10,9,11,12)        -179.4843         estimate D2E/DX2                !
 ! D21   D(10,9,11,13)         -59.4881         estimate D2E/DX2                !
 ! D22   D(10,9,11,14)          60.5095         estimate D2E/DX2                !
 ! D23   D(15,9,11,12)         -61.938          estimate D2E/DX2                !
 ! D24   D(15,9,11,13)          58.0582         estimate D2E/DX2                !
 ! D25   D(15,9,11,14)         178.0558         estimate D2E/DX2                !
 ! D26   D(7,9,15,16)           45.001          estimate D2E/DX2                !
 ! D27   D(7,9,15,17)         -134.9977         Frozen                          !
 ! D28   D(10,9,15,16)         -75.5101         estimate D2E/DX2                !
 ! D29   D(10,9,15,17)         104.4912         estimate D2E/DX2                !
 ! D30   D(11,9,15,16)         166.9431         estimate D2E/DX2                !
 ! D31   D(11,9,15,17)         -13.0557         estimate D2E/DX2                !
 ! D32   D(9,15,17,18)          -0.0065         estimate D2E/DX2                !
 ! D33   D(9,15,17,19)        -179.9968         estimate D2E/DX2                !
 ! D34   D(16,15,17,18)        179.9949         estimate D2E/DX2                !
 ! D35   D(16,15,17,19)          0.0045         estimate D2E/DX2                !
 ! D36   D(15,17,19,20)         -0.0032         estimate D2E/DX2                !
 ! D37   D(15,17,19,21)        119.9981         estimate D2E/DX2                !
 ! D38   D(15,17,19,22)       -120.0017         estimate D2E/DX2                !
 ! D39   D(18,17,19,20)       -179.9937         estimate D2E/DX2                !
 ! D40   D(18,17,19,21)        -59.9924         estimate D2E/DX2                !
 ! D41   D(18,17,19,22)         60.0078         estimate D2E/DX2                !
 --------------------------------------------------------------------------------
 Trust Radius=3.00D-01 FncErr=1.00D-07 GrdErr=1.00D-07
 Number of steps in this run= 108 maximum allowed number of steps= 132.
 GradGradGradGradGradGradGradGradGradGradGradGradGradGradGradGradGradGrad

                          Input orientation:                          
 ---------------------------------------------------------------------
 Center     Atomic      Atomic             Coordinates (Angstroms)
 Number     Number       Type             X           Y           Z
 ---------------------------------------------------------------------
      1          1           0        0.898300    3.219400   -1.901300
      2          6           0        1.444700    3.208600   -0.958200
      3          1           0        1.623400    2.177500   -0.653100
      4          1           0        0.859100    3.717300   -0.192500
      5          6           0        2.793100    3.918700   -1.094800
      6          8           0        3.133800    4.409200   -2.168900
      7          7           0        3.555400    3.969700    0.000000
      8          1           0        3.231800    3.551600    0.860600
      9          6           0        4.853300    4.613900    0.000000
     10          1           0        5.407600    4.315500    0.889800
     11          6           0        5.661300    4.220800   -1.232200
     12          1           0        5.123300    4.521400   -2.131200
     13          1           0        6.630500    4.718900   -1.205800
     14          1           0        5.808500    3.140900   -1.241400
     15          6           0        4.712700    6.129400    0.000000
     16          8           0        3.909500    6.681400    0.748800
     17          7           0        5.497900    6.802600   -0.844100
     18          1           0        6.143000    6.304100   -1.440300
     19          6           0        5.458900    8.248000   -0.938700
     20          1           0        4.720000    8.638600   -0.239000
     21          1           0        6.440200    8.655200   -0.695000
     22          1           0        5.187100    8.539000   -1.953400
 ---------------------------------------------------------------------
                    Distance matrix (angstroms):
                    1          2          3          4          5
     1  H    0.000000
     2  C    1.090003   0.000000
     3  H    1.780261   1.090040   0.000000
     4  H    1.780292   1.089954   1.779688   0.000000
     5  C    2.174794   1.530060   2.143612   2.143610   0.000000
     6  O    2.546506   2.400061   3.091835   3.091786   1.228966
     7  N    3.352323   2.439769   2.714985   2.714921   1.335024
     8  H    3.630932   2.572821   2.601228   2.601188   2.037353
     9  C    4.604519   3.809405   4.098151   4.098119   2.434402
    10  H    5.415299   4.510533   4.612131   4.713605   3.306312
    11  C    4.912908   4.345036   4.562353   4.939192   2.887337
    12  H    4.427040   4.078170   4.464073   4.752740   2.620535
    13  H    5.965764   5.406925   5.642273   5.944665   3.921515
    14  H    4.954967   4.373504   4.334662   5.092052   3.117547
    15  C    5.160687   4.486540   5.058441   4.550331   3.125803
    16  O    5.298660   4.587966   5.241821   4.356245   3.503958
    17  N    5.925649   5.418329   6.036537   5.609111   3.961776
    18  H    6.102030   5.646996   6.170518   6.013995   4.126904
    19  C    6.856565   6.442805   7.186348   6.499401   5.086619
    20  H    6.836400   6.381985   7.176784   6.255230   5.169409
    21  H    7.855936   7.395252   8.072417   7.468871   5.991295
    22  H    6.833349   6.588562   7.406715   6.714249   5.274050
                    6          7          8          9         10
     6  O    0.000000
     7  N    2.252784   0.000000
     8  H    3.150072   1.010028   0.000000
     9  C    2.775376   1.448978   2.120938   0.000000
    10  H    3.812426   2.083739   2.306188   1.089970   0.000000
    11  C    2.702065   2.452791   3.275685   1.525027   2.139209
    12  H    1.993018   2.702720   3.670034   2.150225   3.041326
    13  H    3.640108   3.386959   4.145330   2.150214   2.459625
    14  H    3.102074   2.702673   3.350591   2.150165   2.466256
    15  C    3.186870   2.450234   3.094956   1.522008   2.136554
    16  O    3.778568   2.835384   3.204282   2.392910   2.803867
    17  N    3.615581   3.537108   4.313956   2.432781   3.033188
    18  H    3.629985   3.770883   4.620117   2.567989   3.150351
    19  C    4.653587   4.775806   5.500330   3.801919   4.337119
    20  H    4.912064   4.817888   5.413079   4.033993   4.520639
    21  H    5.579711   5.546080   6.225789   4.396974   4.734010
    22  H    4.617113   5.230365   6.051112   4.396999   5.096112
                   11         12         13         14         15
    11  C    0.000000
    12  H    1.089957   0.000000
    13  H    1.090023   1.779613   0.000000
    14  H    1.089925   1.779613   1.779617   0.000000
    15  C    2.461892   2.701161   2.668599   3.416575   0.000000
    16  O    3.612162   3.799120   3.882745   4.483552   1.229039
    17  N    2.615915   2.645907   2.399045   3.696264   1.335006
    18  H    2.148367   2.166830   1.674964   3.187050   2.037337
    19  C    4.042950   3.927115   3.728074   5.127994   2.434428
    20  H    4.624873   4.549111   4.466404   5.693360   2.520567
    21  H    4.534222   4.570033   3.973863   5.577195   3.137985
    22  H    4.403617   4.022038   4.151563   5.480198   3.137993
                   16         17         18         19         20
    16  O    0.000000
    17  N    2.252784   0.000000
    18  H    3.150085   1.010005   0.000000
    19  C    2.775344   1.449017   2.120930   0.000000
    20  H    2.337368   2.083788   2.986292   1.090010   0.000000
    21  H    3.519217   2.083815   2.484245   1.090023   1.779691
    22  H    3.519208   2.083801   2.484310   1.090033   1.779683
                   21         22
    21  H    0.000000
    22  H    1.779700   0.000000
 Stoichiometry    C6H12N2O2
 Framework group  C1[X(C6H12N2O2)]
 Deg. of freedom    60
 Full point group                 C1      NOp   1
 Largest Abelian subgroup         C1      NOp   1
 Largest concise Abelian subgroup C1      NOp   1
                         Standard orientation:                         
 ---------------------------------------------------------------------
 Center     Atomic      Atomic             Coordinates (Angstroms)
 Number     Number       Type             X           Y           Z
 ---------------------------------------------------------------------
      1          1           0       -3.658125   -0.845916    1.347746
      2          6           0       -3.248764   -0.799739    0.338588
      3          1           0       -3.922318   -0.229803   -0.301477
      4          1           0       -3.140406   -1.809678   -0.056736
      5          6           0       -1.877046   -0.121935    0.331214
      6          8           0       -1.377749    0.287097    1.377041
      7          7           0       -1.273515   -0.006951   -0.854036
      8          1           0       -1.724289   -0.358967   -1.686530
      9          6           0        0.027547    0.615374   -0.993632
     10          1           0        0.211143    0.843158   -2.043604
     11          6           0        0.105103    1.911035   -0.193034
     12          1           0       -0.067591    1.697827    0.861823
     13          1           0        1.092381    2.356277   -0.316281
     14          1           0       -0.653786    2.606281   -0.551722
     15          6           0        1.131826   -0.306005   -0.495499
     16          8           0        1.139411   -1.495196   -0.805829
     17          7           0        2.067193    0.246908    0.280141
     18          1           0        2.018237    1.229701    0.507808
     19          6           0        3.170307   -0.523944    0.817336
     20          1           0        3.086174   -1.559024    0.486197
     21          1           0        4.112753   -0.105426    0.464079
     22          1           0        3.142938   -0.488055    1.906434
 ---------------------------------------------------------------------
 Rotational constants (GHZ):      2.3486095      0.8214392      0.7814978
 Standard basis: 6-31G(d) (6D, 7F)
 There are   174 symmetry adapted basis functions of A   symmetry.
 Integral buffers will be    131072 words long.
 Raffenetti 1 integral format.
 Two-electron integral symmetry is turned on.
   174 basis functions,   328 primitive gaussians,   174 cartesian basis functions
    39 alpha electrons       39 beta electrons
       nuclear repulsion energy       570.3318102557 Hartrees.
 NAtoms=   22 NActive=   22 NUniq=   22 SFac= 7.50D-01 NAtFMM=   80 NAOKFM=F Big=F
 One-electron integrals computed using PRISM.
 NBasis=   174 RedAO= T  NBF=   174
 NBsUse=   174 1.00D-06 NBFU=   174
 Harris functional with IExCor=  205 diagonalized for initial guess.
 ExpMin= 1.61D-01 ExpMax= 5.48D+03 ExpMxC= 8.25D+02 IAcc=1 IRadAn=         1 AccDes= 0.00D+00
 HarFok:  IExCor=  205 AccDes= 0.00D+00 IRadAn=         1 IDoV= 1
 ScaDFX=  1.000000  1.000000  1.000000  1.000000
 FoFCou: FMM=F IPFlag=           0 FMFlag=      100000 FMFlg1=           0
         NFxFlg=           0 DoJE=T BraDBF=F KetDBF=T FulRan=T
         Omega=  0.000000  0.000000  1.000000  0.000000  0.000000 ICntrl=     500 IOpCl=  0
         NMat0=    1 NMatS0=    1 NMatT0=    0 NMatD0=    1 NMtDS0=    0 NMtDT0=    0
         I1Cent=           4 NGrid=           0.
 Petite list used in FoFCou.
 Initial guess orbital symmetries:
       Occupied  (A) (A) (A) (A) (A) (A) (A) (A) (A) (A) (A) (A)
                 (A) (A) (A) (A) (A) (A) (A) (A) (A) (A) (A) (A)
                 (A) (A) (A) (A) (A) (A) (A) (A) (A) (A) (A) (A)
                 (A) (A) (A)
       Virtual   (A) (A) (A) (A) (A) (A) (A) (A) (A) (A) (A) (A)
                 (A) (A) (A) (A) (A) (A) (A) (A) (A) (A) (A) (A)
                 (A) (A) (A) (A) (A) (A) (A) (A) (A) (A) (A) (A)
                 (A) (A) (A) (A) (A) (A) (A) (A) (A) (A) (A) (A)
                 (A) (A) (A) (A) (A) (A) (A) (A) (A) (A) (A) (A)
                 (A) (A) (A) (A) (A) (A) (A) (A) (A) (A) (A) (A)
                 (A) (A) (A) (A) (A) (A) (A) (A) (A) (A) (A) (A)
                 (A) (A) (A) (A) (A) (A) (A) (A) (A) (A) (A) (A)
                 (A) (A) (A) (A) (A) (A) (A) (A) (A) (A) (A) (A)
                 (A) (A) (A) (A) (A) (A) (A) (A) (A) (A) (A) (A)
                 (A) (A) (A) (A) (A) (A) (A) (A) (A) (A) (A) (A)
                 (A) (A) (A)
 The electronic state of the initial guess is 1-A.
 Requested convergence on RMS density matrix=1.00D-08 within 128 cycles.
 Requested convergence on MAX density matrix=1.00D-06.
 Requested convergence on             energy=1.00D-06.
 No special actions if energy rises.
 Integral accuracy reduced to 1.0D-05 until final iterations.
 Initial convergence to 1.0D-05 achieved.  Increase integral accuracy.
 SCF Done:  E(RHF) =  -492.829406974     A.U. after   15 cycles
             Convg  =    0.4246D-08             -V/T =  2.0018

 **********************************************************************

            Population analysis using the SCF density.

 **********************************************************************

 Orbital symmetries:
       Occupied  (A) (A) (A) (A) (A) (A) (A) (A) (A) (A) (A) (A)
                 (A) (A) (A) (A) (A) (A) (A) (A) (A) (A) (A) (A)
                 (A) (A) (A) (A) (A) (A) (A) (A) (A) (A) (A) (A)
                 (A) (A) (A)
       Virtual   (A) (A) (A) (A) (A) (A) (A) (A) (A) (A) (A) (A)
                 (A) (A) (A) (A) (A) (A) (A) (A) (A) (A) (A) (A)
                 (A) (A) (A) (A) (A) (A) (A) (A) (A) (A) (A) (A)
                 (A) (A) (A) (A) (A) (A) (A) (A) (A) (A) (A) (A)
                 (A) (A) (A) (A) (A) (A) (A) (A) (A) (A) (A) (A)
                 (A) (A) (A) (A) (A) (A) (A) (A) (A) (A) (A) (A)
                 (A) (A) (A) (A) (A) (A) (A) (A) (A) (A) (A) (A)
                 (A) (A) (A) (A) (A) (A) (A) (A) (A) (A) (A) (A)
                 (A) (A) (A) (A) (A) (A) (A) (A) (A) (A) (A) (A)
                 (A) (A) (A) (A) (A) (A) (A) (A) (A) (A) (A) (A)
                 (A) (A) (A) (A) (A) (A) (A) (A) (A) (A) (A) (A)
                 (A) (A) (A)
 The electronic state is 1-A.
 Alpha  occ. eigenvalues --  -20.51826 -20.50624 -15.59661 -15.58411 -11.35286
 Alpha  occ. eigenvalues --  -11.33831 -11.28612 -11.25274 -11.23619 -11.21656
 Alpha  occ. eigenvalues --   -1.38057  -1.36321  -1.24259  -1.22850  -1.06212
 Alpha  occ. eigenvalues --   -0.99078  -0.94440  -0.89104  -0.80697  -0.77267
 Alpha  occ. eigenvalues --   -0.72435  -0.70525  -0.64503  -0.63412  -0.61679
 Alpha  occ. eigenvalues --   -0.61567  -0.58952  -0.57471  -0.56361  -0.55611
 Alpha  occ. eigenvalues --   -0.54929  -0.54120  -0.52352  -0.51076  -0.49883
 Alpha  occ. eigenvalues --   -0.41688  -0.40595  -0.38718  -0.37603
 Alpha virt. eigenvalues --    0.18826   0.20005   0.22827   0.23823   0.26283
 Alpha virt. eigenvalues --    0.27326   0.28479   0.30738   0.31537   0.31900
 Alpha virt. eigenvalues --    0.32679   0.33542   0.34863   0.35442   0.37787
 Alpha virt. eigenvalues --    0.38576   0.41207   0.44716   0.47789   0.50254
 Alpha virt. eigenvalues --    0.55055   0.59110   0.62942   0.70264   0.71711
 Alpha virt. eigenvalues --    0.73942   0.75251   0.77039   0.77188   0.79220
 Alpha virt. eigenvalues --    0.81331   0.82289   0.82718   0.90040   0.92063
 Alpha virt. eigenvalues --    0.92458   0.95309   0.95581   0.97902   0.99290
 Alpha virt. eigenvalues --    1.00386   1.02252   1.04317   1.06090   1.08548
 Alpha virt. eigenvalues --    1.12343   1.12784   1.14018   1.14379   1.15998
 Alpha virt. eigenvalues --    1.16664   1.17717   1.18050   1.19096   1.21043
 Alpha virt. eigenvalues --    1.22908   1.23080   1.25689   1.26627   1.30542
 Alpha virt. eigenvalues --    1.33361   1.35038   1.39175   1.40240   1.43332
 Alpha virt. eigenvalues --    1.48222   1.50568   1.57648   1.59519   1.62031
 Alpha virt. eigenvalues --    1.64396   1.66296   1.68736   1.72400   1.78665
 Alpha virt. eigenvalues --    1.79675   1.83024   1.89624   1.95537   1.98569
 Alpha virt. eigenvalues --    2.02972   2.07760   2.10070   2.12048   2.12776
 Alpha virt. eigenvalues --    2.14938   2.15450   2.17219   2.18681   2.19866
 Alpha virt. eigenvalues --    2.25474   2.26643   2.31152   2.36049   2.36752
 Alpha virt. eigenvalues --    2.37347   2.39398   2.43367   2.45308   2.49235
 Alpha virt. eigenvalues --    2.52780   2.55930   2.60098   2.62684   2.63807
 Alpha virt. eigenvalues --    2.65628   2.65708   2.70484   2.75528   2.76545
 Alpha virt. eigenvalues --    2.80495   2.83128   2.85996   2.93538   2.99750
 Alpha virt. eigenvalues --    3.00803   3.03701   3.08016   3.09819   3.26050
 Alpha virt. eigenvalues --    3.30916   3.36416   3.40020   3.54725   3.58269
 Alpha virt. eigenvalues --    4.37446   4.46479   4.48190   4.60265   4.63042
 Alpha virt. eigenvalues --    4.68441   4.73259   4.80914   4.91533   5.13716
          Condensed to atoms (all electrons):
              1          2          3          4          5          6
     1  H    0.454625   0.385550  -0.018832  -0.017768  -0.030288   0.003560
     2  C    0.385550   5.251792   0.372905   0.375485   0.375160  -0.066306
     3  H   -0.018832   0.372905   0.520421  -0.023897  -0.035625   0.001222
     4  H   -0.017768   0.375485  -0.023897   0.499977  -0.033910   0.001080
     5  C   -0.030288   0.375160  -0.035625  -0.033910   4.178419   0.578304
     6  O    0.003560  -0.066306   0.001222   0.001080   0.578304   8.241773
     7  N    0.003727  -0.118492   0.003656   0.003323   0.258873  -0.103093
     8  H   -0.000015  -0.000731   0.000461   0.000475  -0.017967   0.002440
     9  C   -0.000067   0.003554  -0.000085  -0.000211  -0.036277   0.008093
    10  H    0.000001  -0.000041   0.000003  -0.000004   0.003095   0.000134
    11  C    0.000006  -0.000463   0.000004   0.000009  -0.003809  -0.030230
    12  H    0.000005   0.000332  -0.000012  -0.000010  -0.001940   0.006596
    13  H    0.000000   0.000013  -0.000001   0.000000   0.000471   0.001182
    14  H    0.000000  -0.000059   0.000006   0.000000  -0.000114  -0.000255
    15  C    0.000000  -0.000088   0.000006   0.000014   0.000312   0.004083
    16  O    0.000000  -0.000053   0.000000   0.000027   0.001898  -0.000324
    17  N    0.000000  -0.000004   0.000000   0.000001   0.000374  -0.000877
    18  H    0.000000  -0.000001   0.000000   0.000000  -0.000053  -0.000189
    19  C    0.000000   0.000000   0.000000   0.000000  -0.000011  -0.000006
    20  H    0.000000   0.000000   0.000000   0.000000  -0.000004   0.000000
    21  H    0.000000   0.000000   0.000000   0.000000   0.000000   0.000000
    22  H    0.000000   0.000000   0.000000   0.000000   0.000001   0.000006
              7          8          9         10         11         12
     1  H    0.003727  -0.000015  -0.000067   0.000001   0.000006   0.000005
     2  C   -0.118492  -0.000731   0.003554  -0.000041  -0.000463   0.000332
     3  H    0.003656   0.000461  -0.000085   0.000003   0.000004  -0.000012
     4  H    0.003323   0.000475  -0.000211  -0.000004   0.000009  -0.000010
     5  C    0.258873  -0.017967  -0.036277   0.003095  -0.003809  -0.001940
     6  O   -0.103093   0.002440   0.008093   0.000134  -0.030230   0.006596
     7  N    7.336206   0.328742   0.214408  -0.035685  -0.058238  -0.003092
     8  H    0.328742   0.312482  -0.023934  -0.003382   0.002810  -0.000146
     9  C    0.214408  -0.023934   5.060023   0.408592   0.326187  -0.030919
    10  H   -0.035685  -0.003382   0.408592   0.482172  -0.034719   0.003127
    11  C   -0.058238   0.002810   0.326187  -0.034719   5.296081   0.389044
    12  H   -0.003092  -0.000146  -0.030919   0.003127   0.389044   0.414158
    13  H    0.004606  -0.000071  -0.043322  -0.003612   0.376260  -0.029412
    14  H    0.000588  -0.000036  -0.034157  -0.002268   0.385844  -0.015522
    15  C   -0.069139   0.001610   0.365731  -0.031937  -0.079051  -0.002331
    16  O    0.004268   0.000361  -0.079444   0.000286   0.002865  -0.000049
    17  N    0.001471  -0.000045  -0.100760   0.000826  -0.013879  -0.001077
    18  H    0.000140  -0.000004  -0.002915   0.000107   0.000035   0.000059
    19  C   -0.000097   0.000002   0.004083  -0.000149   0.000195  -0.000161
    20  H   -0.000011   0.000000   0.000547  -0.000012  -0.000067  -0.000009
    21  H   -0.000001   0.000000  -0.000137   0.000017   0.000042   0.000006
    22  H    0.000007   0.000000  -0.000031  -0.000002  -0.000065   0.000011
             13         14         15         16         17         18
     1  H    0.000000   0.000000   0.000000   0.000000   0.000000   0.000000
     2  C    0.000013  -0.000059  -0.000088  -0.000053  -0.000004  -0.000001
     3  H   -0.000001   0.000006   0.000006   0.000000   0.000000   0.000000
     4  H    0.000000   0.000000   0.000014   0.000027   0.000001   0.000000
     5  C    0.000471  -0.000114   0.000312   0.001898   0.000374  -0.000053
     6  O    0.001182  -0.000255   0.004083  -0.000324  -0.000877  -0.000189
     7  N    0.004606   0.000588  -0.069139   0.004268   0.001471   0.000140
     8  H   -0.000071  -0.000036   0.001610   0.000361  -0.000045  -0.000004
     9  C   -0.043322  -0.034157   0.365731  -0.079444  -0.100760  -0.002915
    10  H   -0.003612  -0.002268  -0.031937   0.000286   0.000826   0.000107
    11  C    0.376260   0.385844  -0.079051   0.002865  -0.013879   0.000035
    12  H   -0.029412  -0.015522  -0.002331  -0.000049  -0.001077   0.000059
    13  H    0.582305  -0.021020  -0.000956  -0.000073  -0.008717   0.001012
    14  H   -0.021020   0.506528   0.004137  -0.000059   0.000507   0.000331
    15  C   -0.000956   0.004137   4.150578   0.592959   0.293886  -0.013608
    16  O   -0.000073  -0.000059   0.592959   8.222481  -0.097237   0.002544
    17  N   -0.008717   0.000507   0.293886  -0.097237   7.352099   0.316186
    18  H    0.001012   0.000331  -0.013608   0.002544   0.316186   0.310893
    19  C    0.000408   0.000003  -0.026392  -0.005094   0.189871  -0.021932
    20  H   -0.000019   0.000001  -0.001933   0.011046  -0.032219   0.002291
    21  H   -0.000060   0.000000   0.000889   0.000390  -0.048237  -0.000903
    22  H    0.000042  -0.000001   0.001052   0.000387  -0.047500  -0.001062
             19         20         21         22
     1  H    0.000000   0.000000   0.000000   0.000000
     2  C    0.000000   0.000000   0.000000   0.000000
     3  H    0.000000   0.000000   0.000000   0.000000
     4  H    0.000000   0.000000   0.000000   0.000000
     5  C   -0.000011  -0.000004   0.000000   0.000001
     6  O   -0.000006   0.000000   0.000000   0.000006
     7  N   -0.000097  -0.000011  -0.000001   0.000007
     8  H    0.000002   0.000000   0.000000   0.000000
     9  C    0.004083   0.000547  -0.000137  -0.000031
    10  H   -0.000149  -0.000012   0.000017  -0.000002
    11  C    0.000195  -0.000067   0.000042  -0.000065
    12  H   -0.000161  -0.000009   0.000006   0.000011
    13  H    0.000408  -0.000019  -0.000060   0.000042
    14  H    0.000003   0.000001   0.000000  -0.000001
    15  C   -0.026392  -0.001933   0.000889   0.001052
    16  O   -0.005094   0.011046   0.000390   0.000387
    17  N    0.189871  -0.032219  -0.048237  -0.047500
    18  H   -0.021932   0.002291  -0.000903  -0.001062
    19  C    4.946182   0.396724   0.401628   0.403383
    20  H    0.396724   0.434199  -0.023008  -0.022120
    21  H    0.401628  -0.023008   0.542738  -0.037027
    22  H    0.403383  -0.022120  -0.037027   0.528226
 Mulliken atomic charges:
              1
     1  H    0.219496
     2  C   -0.578554
     3  H    0.179768
     4  H    0.195409
     5  C    0.763090
     6  O   -0.647192
     7  N   -0.772166
     8  H    0.396948
     9  C   -0.038960
    10  H    0.213453
    11  C   -0.558859
    12  H    0.271342
    13  H    0.140965
    14  H    0.175548
    15  C    0.810181
    16  O   -0.657178
    17  N   -0.804668
    18  H    0.407067
    19  C   -0.288636
    20  H    0.234592
    21  H    0.163661
    22  H    0.174693
 Sum of Mulliken atomic charges =   0.00000
 Mulliken charges with hydrogens summed into heavy atoms:
              1
     2  C    0.016118
     5  C    0.763090
     6  O   -0.647192
     7  N   -0.375218
     9  C    0.174493
    11  C    0.028996
    15  C    0.810181
    16  O   -0.657178
    17  N   -0.397601
    19  C    0.284310
 Sum of Mulliken charges with hydrogens summed into heavy atoms =   0.00000
 Electronic spatial extent (au):  <R**2>=           1665.0815
 Charge=              0.0000 electrons
 Dipole moment (field-independent basis, Debye):
    X=             -0.5804    Y=              2.5240    Z=             -2.0601  Tot=              3.3093
 Quadrupole moment (field-independent basis, Debye-Ang):
   XX=            -48.4603   YY=            -63.8650   ZZ=            -61.6989
   XY=              6.9666   XZ=              8.3903   YZ=             -3.7531
 Traceless Quadrupole moment (field-independent basis, Debye-Ang):
   XX=              9.5478   YY=             -5.8569   ZZ=             -3.6908
   XY=              6.9666   XZ=              8.3903   YZ=             -3.7531
 Octapole moment (field-independent basis, Debye-Ang**2):
  XXX=             -3.1752  YYY=              4.2364  ZZZ=            -12.9020  XYY=             -2.9507
  XXY=             -5.1499  XXZ=              3.4131  XZZ=              0.8954  YZZ=             -0.1683
  YYZ=              6.6171  XYZ=             -1.9445
 Hexadecapole moment (field-independent basis, Debye-Ang**3):
 XXXX=          -1361.8300 YYYY=           -413.2413 ZZZZ=           -278.9012 XXXY=              5.9919
 XXXZ=             16.9582 YYYX=              8.4242 YYYZ=             -0.8945 ZZZX=             18.2367
 ZZZY=              0.5478 XXYY=           -303.1189 XXZZ=           -286.9939 YYZZ=           -119.0412
 XXYZ=             -6.6289 YYXZ=              8.9841 ZZXY=              8.6888
 N-N= 5.703318102557D+02 E-N=-2.296243849008D+03  KE= 4.919327038843D+02
 Calling FoFJK, ICntrl=      2127 FMM=F ISym2X=0 I1Cent= 0 IOpClX= 0 NMat=1 NMatS=1 NMatT=0.
 ***** Axes restored to original set *****
 -------------------------------------------------------------------
 Center     Atomic                   Forces (Hartrees/Bohr)
 Number     Number              X              Y              Z
 -------------------------------------------------------------------
      1        1           0.007493998    0.001953420    0.005610672
      2        6           0.008427947    0.002498179    0.004332215
      3        1          -0.004372892    0.002519000    0.000583496
      4        1          -0.000102419   -0.004537103   -0.001902381
      5        6          -0.014022070    0.012136865   -0.050824045
      6        8          -0.021508268   -0.013353540    0.035292731
      7        7           0.007850893   -0.010060708    0.023973429
      8        1           0.002517569    0.009540741   -0.013768523
      9        6           0.010496166    0.003048117   -0.018247519
     10        1          -0.007919736    0.002628734   -0.001032965
     11        6           0.009175663   -0.016266769   -0.007027324
     12        1           0.012028103   -0.006694799    0.008885587
     13        1           0.000675114   -0.015281960    0.002340103
     14        1           0.002319787    0.004245819   -0.002505462
     15        6          -0.039188063    0.023265343    0.035772418
     16        8           0.025963419   -0.019226971   -0.022763077
     17        7           0.013453123    0.005902362   -0.006322157
     18        1          -0.016979444    0.017623805    0.011061317
     19        6           0.000065260    0.002679171   -0.000291672
     20        1           0.006473916   -0.005069735   -0.006106000
     21        1          -0.004289538    0.001278636   -0.001620628
     22        1           0.001441475    0.001171394    0.004559785
 -------------------------------------------------------------------
 Cartesian Forces:  Max     0.050824045 RMS     0.014349086

 GradGradGradGradGradGradGradGradGradGradGradGradGradGradGradGradGradGrad
 Berny optimization.
 Internal  Forces:  Max     0.046003993 RMS     0.014116213
 Search for a local minimum.
 Step number   1 out of a maximum of  108
 All quantities printed in internal units (Hartrees-Bohrs-Radians)
 Mixed Optimization -- RFO/linear search
 Second derivative matrix not updated -- first step.
     Eigenvalues ---    0.00368   0.00435   0.00999   0.01043   0.01269
     Eigenvalues ---    0.01422   0.01660   0.02551   0.02552   0.03503
     Eigenvalues ---    0.05232   0.05841   0.05844   0.05844   0.07165
     Eigenvalues ---    0.07463   0.07685   0.07686   0.15421   0.16000
     Eigenvalues ---    0.16000   0.16000   0.16000   0.16000   0.16000
     Eigenvalues ---    0.16000   0.16000   0.16000   0.16000   0.16000
     Eigenvalues ---    0.16180   0.22000   0.22000   0.25000   0.25000
     Eigenvalues ---    0.25000   0.25000   0.29418   0.29887   0.30174
     Eigenvalues ---    0.34808   0.34809   0.34810   0.34810   0.34811
     Eigenvalues ---    0.34812   0.34816   0.34818   0.34818   0.34821
     Eigenvalues ---    0.38374   0.38379   0.45968   0.45972   0.58335
     Eigenvalues ---    0.58339   0.91488   0.915191000.000001000.00000
     Eigenvalues --- 1000.000001000.000001000.000001000.000001000.00000
     Eigenvalues --- 1000.000001000.000001000.000001000.000001000.00000
     Eigenvalues --- 1000.000001000.000001000.000001000.000001000.00000
     Eigenvalues --- 1000.000001000.000001000.000001000.000001000.00000
     Eigenvalues --- 1000.000001000.000001000.000001000.000001000.00000
     Eigenvalues --- 1000.000001000.000001000.000001000.000001000.00000
     Eigenvalues --- 1000.000001000.000001000.000001000.000001000.00000
     Eigenvalues --- 1000.000001000.000001000.00000
 RFO step:  Lambda=-6.70166160D-02 EMin= 3.68308990D-03
 Linear search not attempted -- first point.
 Maximum step size (   0.300) exceeded in Quadratic search.
    -- Step size scaled by   0.506
 Iteration  1 RMS(Cart)=  0.14378088 RMS(Int)=  0.00459707
 Iteration  2 RMS(Cart)=  0.00913207 RMS(Int)=  0.00051626
 Iteration  3 RMS(Cart)=  0.00002124 RMS(Int)=  0.00051604
 Iteration  4 RMS(Cart)=  0.00000002 RMS(Int)=  0.00051604
 Iteration  1 RMS(Cart)=  0.00028282 RMS(Int)=  0.00010068
 Iteration  2 RMS(Cart)=  0.00015086 RMS(Int)=  0.00011249
 Iteration  3 RMS(Cart)=  0.00008059 RMS(Int)=  0.00012679
 Iteration  4 RMS(Cart)=  0.00004316 RMS(Int)=  0.00013608
 Iteration  5 RMS(Cart)=  0.00002322 RMS(Int)=  0.00014145
 Iteration  6 RMS(Cart)=  0.00001258 RMS(Int)=  0.00014445
 Iteration  7 RMS(Cart)=  0.00000689 RMS(Int)=  0.00014611
 Iteration  8 RMS(Cart)=  0.00000383 RMS(Int)=  0.00014702
 Iteration  9 RMS(Cart)=  0.00000218 RMS(Int)=  0.00014753
 Iteration 10 RMS(Cart)=  0.00000128 RMS(Int)=  0.00014781
 Iteration 11 RMS(Cart)=  0.00000077 RMS(Int)=  0.00014796
 Variable       Old X    -DE/DX   Delta X   Delta X   Delta X     New X
                                 (Linear)    (Quad)   (Total)
    R1        2.05981  -0.00859   0.00000  -0.01047  -0.01047   2.04934
    R2        2.05988  -0.00294   0.00000  -0.00358  -0.00358   2.05630
    R3        2.05971  -0.00340   0.00000  -0.00414  -0.00414   2.05557
    R4        2.89139  -0.01045   0.00000  -0.01463  -0.01463   2.87677
    R5        2.32241  -0.04214   0.00000  -0.02170  -0.02170   2.30071
    R6        2.52283   0.01937   0.00000   0.01506   0.01506   2.53789
    R7        1.90868  -0.01649   0.00000  -0.01583  -0.01583   1.89285
    R8        2.73817   0.01198   0.00000   0.01343   0.01343   2.75161
    R9        2.05975  -0.00559   0.00000  -0.00681  -0.00681   2.05294
   R10        2.88188   0.02022   0.00000   0.02794   0.02794   2.90983
   R11        2.87618   0.02871   0.00000   0.03938   0.03938   2.91555
   R12        2.05972  -0.01511   0.00000  -0.01841  -0.01841   2.04131
   R13        2.05984  -0.00633   0.00000  -0.00771  -0.00771   2.05214
   R14        2.05966  -0.00387   0.00000  -0.00472  -0.00472   2.05494
   R15        2.32255  -0.03947   0.00000  -0.02033  -0.02033   2.30222
   R16        2.52280   0.01118   0.00000   0.00869   0.00869   2.53149
   R17        1.90863  -0.02607   0.00000  -0.02503  -0.02503   1.88360
   R18        2.73825   0.00019   0.00000   0.00021   0.00021   2.73845
   R19        2.05982  -0.01012   0.00000  -0.01233  -0.01233   2.04749
   R20        2.05985  -0.00375   0.00000  -0.00456  -0.00456   2.05528
   R21        2.05986  -0.00429   0.00000  -0.00523  -0.00523   2.05464
    A1        1.91105   0.00043   0.00000   0.00053   0.00059   1.91164
    A2        1.91121   0.00073   0.00000   0.00092   0.00097   1.91218
    A3        1.93898  -0.00807   0.00000  -0.01854  -0.01849   1.92049
    A4        1.91021  -0.00430   0.00000  -0.00840  -0.00850   1.90170
    A5        1.89602   0.00616   0.00000   0.01407   0.01405   1.91007
    A6        1.89610   0.00510   0.00000   0.01155   0.01152   1.90762
    A7        2.10316  -0.00133   0.00000  -0.00212  -0.00216   2.10099
    A8        2.03501  -0.01598   0.00000  -0.02549  -0.02553   2.00949
    A9        2.14502   0.01731   0.00000   0.02761   0.02757   2.17258
   A10        2.09437  -0.02270   0.00000  -0.04064  -0.04084   2.05353
   A11        2.12757   0.04266   0.00000   0.07517   0.07495   2.20252
   A12        2.06124  -0.01996   0.00000  -0.03453  -0.03476   2.02648
   A13        1.91114  -0.00011   0.00000  -0.01973  -0.02090   1.89024
   A14        1.93905   0.00833   0.00000   0.02009   0.02044   1.95948
   A15        1.93900  -0.03016   0.00000  -0.04823  -0.05145   1.88755
   A16        1.89609  -0.01827   0.00000  -0.04456  -0.04415   1.85194
   A17        1.89608  -0.00550   0.00000  -0.01416  -0.01472   1.88135
   A18        1.88137   0.04600   0.00000   0.10710   0.10798   1.98935
   A19        1.91115   0.00956   0.00000   0.02525   0.02504   1.93618
   A20        1.91106   0.00470   0.00000   0.01020   0.01001   1.92107
   A21        1.91110   0.00094   0.00000  -0.00158  -0.00159   1.90951
   A22        1.91011  -0.00204   0.00000   0.00282   0.00243   1.91254
   A23        1.91023  -0.00489   0.00000  -0.01036  -0.01039   1.89984
   A24        1.91015  -0.00829   0.00000  -0.02637  -0.02635   1.88380
   A25        2.10317  -0.02186   0.00000  -0.03487  -0.03495   2.06822
   A26        2.03507   0.03965   0.00000   0.06325   0.06318   2.09825
   A27        2.14494  -0.01779   0.00000  -0.02838  -0.02846   2.11648
   A28        2.09441   0.00542   0.00000   0.01208   0.01207   2.10648
   A29        2.12758   0.00006   0.00000   0.00011   0.00010   2.12768
   A30        2.06120  -0.00548   0.00000  -0.01219  -0.01220   2.04901
   A31        1.91112  -0.00372   0.00000  -0.00882  -0.00880   1.90231
   A32        1.91114   0.00430   0.00000   0.00994   0.00992   1.92106
   A33        1.91111   0.00331   0.00000   0.00754   0.00752   1.91863
   A34        1.91016  -0.00061   0.00000  -0.00170  -0.00168   1.90848
   A35        1.91013  -0.00049   0.00000  -0.00180  -0.00178   1.90835
   A36        1.91014  -0.00279   0.00000  -0.00517  -0.00522   1.90492
    D1        0.00019   0.00121   0.00000   0.00802   0.00796   0.00815
    D2        3.14159  -0.00131   0.00000  -0.00798  -0.00791   3.13368
    D3        2.10335   0.00073   0.00000   0.00630   0.00617   2.10952
    D4       -1.03844  -0.00179   0.00000  -0.00970  -0.00970  -1.04813
    D5       -2.10322   0.00201   0.00000   0.01088   0.01087  -2.09235
    D6        1.03818  -0.00051   0.00000  -0.00512  -0.00500   1.03319
    D7        0.00016  -0.00482   0.00000  -0.03114  -0.03074  -0.03058
    D8       -3.14159   0.00055   0.00000   0.01005   0.00984  -3.13175
    D9        3.14155  -0.00741   0.00000  -0.04756  -0.04735   3.09420
   D10       -0.00019  -0.00204   0.00000  -0.00637  -0.00677  -0.00696
   D11       -2.87969  -0.01020   0.00000  -0.06090  -0.06002  -2.93972
   D12       -0.78525  -0.02775   0.00000  -0.11648  -0.11550  -0.90075
   D13        1.30910   0.01577   0.00000   0.00000   0.00000   1.30910
   D14        0.26175  -0.00493   0.00000  -0.02046  -0.02000   0.24175
   D15        2.35619  -0.02248   0.00000  -0.07604  -0.07548   2.28072
   D16       -1.83264   0.02104   0.00000   0.04044   0.04002  -1.79262
   D17        1.04724   0.00223   0.00000   0.03170   0.03277   1.08001
   D18        3.14157   0.00848   0.00000   0.05690   0.05817  -3.08345
   D19       -1.04726   0.00177   0.00000   0.02988   0.03103  -1.01623
   D20       -3.13259  -0.00457   0.00000  -0.00910  -0.00882  -3.14141
   D21       -1.03826   0.00168   0.00000   0.01610   0.01658  -1.02168
   D22        1.05609  -0.00502   0.00000  -0.01092  -0.01055   1.04554
   D23       -1.08102   0.00428   0.00000   0.00883   0.00719  -1.07383
   D24        1.01331   0.01053   0.00000   0.03403   0.03259   1.04590
   D25        3.10766   0.00383   0.00000   0.00701   0.00545   3.11311
   D26        0.78542  -0.01383   0.00000  -0.02279  -0.02246   0.76296
   D27       -2.35615  -0.01527   0.00000   0.00000   0.00000  -2.35615
   D28       -1.31790   0.00853   0.00000   0.04063   0.04074  -1.27716
   D29        1.82372   0.00709   0.00000   0.06342   0.06320   1.88691
   D30        2.91371   0.00794   0.00000   0.04236   0.04161   2.95532
   D31       -0.22786   0.00650   0.00000   0.06515   0.06407  -0.16379
   D32       -0.00011   0.00241   0.00000  -0.00222  -0.00204  -0.00216
   D33       -3.14154   0.00130   0.00000  -0.00897  -0.00885   3.13280
   D34        3.14150   0.00094   0.00000   0.02117   0.02105  -3.12063
   D35        0.00008  -0.00018   0.00000   0.01442   0.01424   0.01432
   D36       -0.00006   0.00041   0.00000   0.00286   0.00285   0.00279
   D37        2.09436   0.00001   0.00000   0.00147   0.00142   2.09578
   D38       -2.09443   0.00126   0.00000   0.00585   0.00586  -2.08857
   D39       -3.14148  -0.00069   0.00000  -0.00377  -0.00375   3.13796
   D40       -1.04706  -0.00108   0.00000  -0.00516  -0.00517  -1.05224
   D41        1.04733   0.00016   0.00000  -0.00078  -0.00073   1.04660
         Item               Value     Threshold  Converged?
 Maximum Force            0.042662     0.000450     NO 
 RMS     Force            0.013891     0.000300     NO 
 Maximum Displacement     0.486483     0.001800     NO 
 RMS     Displacement     0.143943     0.001200     NO 
 Predicted change in Energy=-2.831395D-02
 GradGradGradGradGradGradGradGradGradGradGradGradGradGradGradGradGradGrad

                          Input orientation:                          
 ---------------------------------------------------------------------
 Center     Atomic      Atomic             Coordinates (Angstroms)
 Number     Number       Type             X           Y           Z
 ---------------------------------------------------------------------
      1          1           0        0.804780    3.276034   -1.805423
      2          6           0        1.404873    3.268669   -0.902152
      3          1           0        1.567322    2.241533   -0.581736
      4          1           0        0.882899    3.806461   -0.113767
      5          6           0        2.747840    3.936502   -1.162723
      6          8           0        3.006945    4.389781   -2.262574
      7          7           0        3.572306    3.991948   -0.104038
      8          1           0        3.238471    3.622595    0.765121
      9          6           0        4.902239    4.584308   -0.079974
     10          1           0        5.389164    4.292075    0.846145
     11          6           0        5.796388    4.057452   -1.217492
     12          1           0        5.380736    4.307730   -2.182614
     13          1           0        6.794541    4.476441   -1.131389
     14          1           0        5.879428    2.975941   -1.140415
     15          6           0        4.744575    6.119011   -0.065870
     16          8           0        3.905530    6.610475    0.668076
     17          7           0        5.500740    6.881903   -0.866342
     18          1           0        6.172408    6.469389   -1.476442
     19          6           0        5.375627    8.325416   -0.890587
     20          1           0        4.610864    8.625019   -0.183967
     21          1           0        6.321296    8.786667   -0.615177
     22          1           0        5.094427    8.656348   -1.887361
 ---------------------------------------------------------------------
                    Distance matrix (angstroms):
                    1          2          3          4          5
     1  H    0.000000
     2  C    1.084465   0.000000
     3  H    1.774563   1.088147   0.000000
     4  H    1.774586   1.087763   1.770997   0.000000
     5  C    2.150526   1.522320   2.145714   2.143647   0.000000
     6  O    2.509771   2.382074   3.084267   3.077208   1.217485
     7  N    3.326627   2.420307   2.704092   2.695814   1.342994
     8  H    3.556775   2.503427   2.552273   2.520907   2.013911
     9  C    4.634428   3.826023   4.106341   4.094055   2.496685
    10  H    5.392562   4.469729   4.566185   4.632891   3.337451
    11  C    5.086495   4.472921   4.646155   5.042181   3.051439
    12  H    4.705957   4.304267   4.623214   4.976136   2.847829
    13  H    6.145936   5.528091   5.711459   6.035888   4.082684
    14  H    5.126826   4.490446   4.409732   5.168082   3.275671
    15  C    5.160479   4.469611   5.039434   4.501414   3.154898
    16  O    5.181828   4.459436   5.110470   4.196436   3.441250
    17  N    5.994681   5.461948   6.089813   5.599033   4.042486
    18  H    6.254372   5.770945   6.315227   6.076757   4.271019
    19  C    6.872104   6.429441   7.184164   6.419424   5.122684
    20  H    6.762176   6.283681   7.083097   6.092713   5.139164
    21  H    7.887692   7.396071   8.089509   7.391212   6.049255
    22  H    6.881538   6.603827   7.436060   6.663634   5.320575
                    6          7          8          9         10
     6  O    0.000000
     7  N    2.266536   0.000000
     8  H    3.131951   1.001651   0.000000
     9  C    2.897192   1.456087   2.099334   0.000000
    10  H    3.917735   2.072172   2.253941   1.086367   0.000000
    11  C    2.997271   2.488094   3.265394   1.539814   2.116478
    12  H    2.376554   2.773196   3.707809   2.174063   3.028812
    13  H    3.953856   3.416575   4.119641   2.167468   2.433047
    14  H    3.392543   2.725648   3.320223   2.160156   2.432897
    15  C    3.291672   2.429005   3.031664   1.542845   2.141252
    16  O    3.785187   2.750251   3.062975   2.378731   2.758234
    17  N    3.791985   3.556938   4.289828   2.501104   3.106811
    18  H    3.868194   3.844702   4.662277   2.667768   3.278503
    19  C    4.793978   4.759156   5.424512   3.857082   4.391385
    20  H    4.983011   4.748719   5.273374   4.052538   4.521204
    21  H    5.747298   5.550453   6.170629   4.467660   4.817228
    22  H    4.764657   5.220510   5.984890   4.459271   5.158082
                   11         12         13         14         15
    11  C    0.000000
    12  H    1.080216   0.000000
    13  H    1.085944   1.769854   0.000000
    14  H    1.087429   1.763104   1.757559   0.000000
    15  C    2.585067   2.857630   2.834736   3.510189   0.000000
    16  O    3.694406   3.950354   4.017282   4.514061   1.218281
    17  N    2.861510   2.893673   2.744161   3.933835   1.339607
    18  H    2.454768   2.407945   2.116118   3.521779   2.037446
    19  C    4.301096   4.220328   4.109247   5.378951   2.438567
    20  H    4.830767   4.819365   4.782965   5.868230   2.512350
    21  H    4.796226   4.837602   4.366747   5.851124   3.147090
    22  H    4.700140   4.368024   4.575315   5.782835   3.142978
                   16         17         18         19         20
    16  O    0.000000
    17  N    2.229978   0.000000
    18  H    3.123715   0.996759   0.000000
    19  C    2.744382   1.449128   2.103075   0.000000
    20  H    2.298230   2.072672   2.958995   1.083483   0.000000
    21  H    3.495493   2.089143   2.476635   1.087608   1.771341
    22  H    3.482719   2.087158   2.472587   1.087267   1.770979
                   21         22
    21  H    0.000000
    22  H    1.772186   0.000000
 Stoichiometry    C6H12N2O2
 Framework group  C1[X(C6H12N2O2)]
 Deg. of freedom    60
 Full point group                 C1      NOp   1
 Largest Abelian subgroup         C1      NOp   1
 Largest concise Abelian subgroup C1      NOp   1
                         Standard orientation:                         
 ---------------------------------------------------------------------
 Center     Atomic      Atomic             Coordinates (Angstroms)
 Number     Number       Type             X           Y           Z
 ---------------------------------------------------------------------
      1          1           0       -3.656438   -1.218585    1.043719
      2          6           0       -3.210189   -0.935715    0.096665
      3          1           0       -3.887382   -0.275807   -0.441847
      4          1           0       -3.033106   -1.825945   -0.502801
      5          6           0       -1.888487   -0.219338    0.336177
      6          8           0       -1.477302   -0.048463    1.469313
      7          7           0       -1.241023    0.169584   -0.774302
      8          1           0       -1.653693   -0.060010   -1.657645
      9          6           0        0.040173    0.859584   -0.825560
     10          1           0        0.195599    1.215557   -1.840113
     11          6           0        0.066587    2.108831    0.074279
     12          1           0       -0.081847    1.841464    1.110304
     13          1           0        1.014454    2.627245   -0.035582
     14          1           0       -0.724760    2.789901   -0.229720
     15          6           0        1.150358   -0.164229   -0.509855
     16          8           0        1.091943   -1.264131   -1.030441
     17          7           0        2.136958    0.151430    0.339572
     18          1           0        2.166607    1.047861    0.774382
     19          6           0        3.191836   -0.785448    0.670425
     20          1           0        3.025619   -1.709209    0.129155
     21          1           0        4.158570   -0.372950    0.390849
     22          1           0        3.186037   -0.987979    1.738646
 ---------------------------------------------------------------------
 Rotational constants (GHZ):      2.2030914      0.8142665      0.7592618
 Standard basis: 6-31G(d) (6D, 7F)
 There are   174 symmetry adapted basis functions of A   symmetry.
 Integral buffers will be    131072 words long.
 Raffenetti 1 integral format.
 Two-electron integral symmetry is turned on.
   174 basis functions,   328 primitive gaussians,   174 cartesian basis functions
    39 alpha electrons       39 beta electrons
       nuclear repulsion energy       564.4043836189 Hartrees.
 NAtoms=   22 NActive=   22 NUniq=   22 SFac= 7.50D-01 NAtFMM=   80 NAOKFM=F Big=F
 One-electron integrals computed using PRISM.
 NBasis=   174 RedAO= T  NBF=   174
 NBsUse=   174 1.00D-06 NBFU=   174
 Initial guess read from the read-write file.
 B after Tr=     0.000000    0.000000    0.000000
         Rot=    1.000000    0.000000    0.000000    0.000000 Ang=   0.00 deg.
 Initial guess orbital symmetries:
       Occupied  (A) (A) (A) (A) (A) (A) (A) (A) (A) (A) (A) (A)
                 (A) (A) (A) (A) (A) (A) (A) (A) (A) (A) (A) (A)
                 (A) (A) (A) (A) (A) (A) (A) (A) (A) (A) (A) (A)
                 (A) (A) (A)
       Virtual   (A) (A) (A) (A) (A) (A) (A) (A) (A) (A) (A) (A)
                 (A) (A) (A) (A) (A) (A) (A) (A) (A) (A) (A) (A)
                 (A) (A) (A) (A) (A) (A) (A) (A) (A) (A) (A) (A)
                 (A) (A) (A) (A) (A) (A) (A) (A) (A) (A) (A) (A)
                 (A) (A) (A) (A) (A) (A) (A) (A) (A) (A) (A) (A)
                 (A) (A) (A) (A) (A) (A) (A) (A) (A) (A) (A) (A)
                 (A) (A) (A) (A) (A) (A) (A) (A) (A) (A) (A) (A)
                 (A) (A) (A) (A) (A) (A) (A) (A) (A) (A) (A) (A)
                 (A) (A) (A) (A) (A) (A) (A) (A) (A) (A) (A) (A)
                 (A) (A) (A) (A) (A) (A) (A) (A) (A) (A) (A) (A)
                 (A) (A) (A) (A) (A) (A) (A) (A) (A) (A) (A) (A)
                 (A) (A) (A)
 Harris functional with IExCor=  205 diagonalized for initial guess.
 ExpMin= 1.61D-01 ExpMax= 5.48D+03 ExpMxC= 8.25D+02 IAcc=1 IRadAn=         1 AccDes= 0.00D+00
 HarFok:  IExCor=  205 AccDes= 0.00D+00 IRadAn=         1 IDoV= 1
 ScaDFX=  1.000000  1.000000  1.000000  1.000000
 FoFCou: FMM=F IPFlag=           0 FMFlag=      100000 FMFlg1=           0
         NFxFlg=           0 DoJE=T BraDBF=F KetDBF=T FulRan=T
         Omega=  0.000000  0.000000  1.000000  0.000000  0.000000 ICntrl=     500 IOpCl=  0
         NMat0=    1 NMatS0=    1 NMatT0=    0 NMatD0=    1 NMtDS0=    0 NMtDT0=    0
         I1Cent=           4 NGrid=           0.
 Petite list used in FoFCou.
 Requested convergence on RMS density matrix=1.00D-08 within 128 cycles.
 Requested convergence on MAX density matrix=1.00D-06.
 Requested convergence on             energy=1.00D-06.
 No special actions if energy rises.
 Integral accuracy reduced to 1.0D-05 until final iterations.
 Initial convergence to 1.0D-05 achieved.  Increase integral accuracy.
 SCF Done:  E(RHF) =  -492.845493065     A.U. after   15 cycles
             Convg  =    0.4828D-08             -V/T =  2.0019
 Calling FoFJK, ICntrl=      2127 FMM=F ISym2X=0 I1Cent= 0 IOpClX= 0 NMat=1 NMatS=1 NMatT=0.
 ***** Axes restored to original set *****
 -------------------------------------------------------------------
 Center     Atomic                   Forces (Hartrees/Bohr)
 Number     Number              X              Y              Z
 -------------------------------------------------------------------
      1        1           0.004145586    0.001027199    0.002478608
      2        6           0.005330722    0.000290229    0.003701315
      3        1          -0.002953174    0.001412088    0.000573160
      4        1          -0.000601624   -0.002768518   -0.000985419
      5        6          -0.010924190    0.011807163   -0.033548812
      6        8           0.000930903   -0.007465585    0.025355565
      7        7           0.011761678   -0.013153444    0.017655290
      8        1           0.000881303    0.005725929   -0.006906990
      9        6           0.005514430    0.004104918   -0.020993583
     10        1          -0.007832106    0.003939983    0.001752876
     11        6          -0.002872691   -0.001893078    0.002724389
     12        1           0.001306020   -0.001388505    0.000402766
     13        1           0.000650525   -0.002033003    0.000804072
     14        1           0.000108912    0.002665170   -0.000797145
     15        6          -0.029641307    0.012860269    0.019664012
     16        8           0.017053508   -0.013340028   -0.009741350
     17        7           0.009872289   -0.002634375   -0.001790812
     18        1          -0.005242960    0.000659736    0.002435379
     19        6           0.000241421    0.001696654   -0.000729024
     20        1           0.003843381   -0.002347956   -0.003643114
     21        1          -0.002252474    0.000370441   -0.000885512
     22        1           0.000679847    0.000464713    0.002474326
 -------------------------------------------------------------------
 Cartesian Forces:  Max     0.033548812 RMS     0.009264048

 GradGradGradGradGradGradGradGradGradGradGradGradGradGradGradGradGradGrad
 Berny optimization.
 Using GEDIIS/GDIIS optimizer.
 Internal  Forces:  Max     0.025487078 RMS     0.004794472
 Search for a local minimum.
 Step number   2 out of a maximum of  108
 All quantities printed in internal units (Hartrees-Bohrs-Radians)
 Mixed Optimization -- RFO/linear search
 Update second derivatives using D2CorX and points    1    2
 DE= -1.61D-02 DEPred=-2.83D-02 R= 5.68D-01
 SS=  1.41D+00  RLast= 3.00D-01 DXNew= 5.0454D-01 8.9955D-01
 Trust test= 5.68D-01 RLast= 3.00D-01 DXMaxT set to 5.05D-01
 Use linear search instead of GDIIS.
     Eigenvalues ---    0.00368   0.00443   0.01000   0.01043   0.01296
     Eigenvalues ---    0.01425   0.01670   0.02551   0.02566   0.03901
     Eigenvalues ---    0.05152   0.05649   0.05907   0.05992   0.07235
     Eigenvalues ---    0.07346   0.07600   0.07707   0.15653   0.15879
     Eigenvalues ---    0.15997   0.16000   0.16000   0.16000   0.16000
     Eigenvalues ---    0.16000   0.16000   0.16000   0.16000   0.16088
     Eigenvalues ---    0.18400   0.21924   0.23078   0.24758   0.24996
     Eigenvalues ---    0.24999   0.29063   0.29420   0.30005   0.34408
     Eigenvalues ---    0.34671   0.34808   0.34809   0.34810   0.34811
     Eigenvalues ---    0.34812   0.34815   0.34818   0.34821   0.37649
     Eigenvalues ---    0.38374   0.44713   0.45824   0.55305   0.58302
     Eigenvalues ---    0.60625   0.86912   0.915061000.000001000.00000
     Eigenvalues --- 1000.000001000.000001000.000001000.000001000.00000
     Eigenvalues --- 1000.000001000.000001000.000001000.000001000.00000
     Eigenvalues --- 1000.000001000.000001000.000001000.000001000.00000
     Eigenvalues --- 1000.000001000.000001000.000001000.000001000.00000
     Eigenvalues --- 1000.000001000.000001000.000001000.000001000.00000
     Eigenvalues --- 1000.000001000.000001000.000001000.000001000.00000
     Eigenvalues --- 1000.000001000.000001000.000001000.000001000.00000
     Eigenvalues --- 1000.000001000.000001000.00000
 RFO step:  Lambda=-1.04461240D-02 EMin= 3.68308013D-03
 Quartic linear search produced a step of  0.14395.
 Iteration  1 RMS(Cart)=  0.06152945 RMS(Int)=  0.00264294
 Iteration  2 RMS(Cart)=  0.00499553 RMS(Int)=  0.00063289
 Iteration  3 RMS(Cart)=  0.00000735 RMS(Int)=  0.00063287
 Iteration  4 RMS(Cart)=  0.00000000 RMS(Int)=  0.00063287
 Iteration  1 RMS(Cart)=  0.00019480 RMS(Int)=  0.00007019
 Iteration  2 RMS(Cart)=  0.00010567 RMS(Int)=  0.00007841
 Iteration  3 RMS(Cart)=  0.00005735 RMS(Int)=  0.00008854
 Iteration  4 RMS(Cart)=  0.00003116 RMS(Int)=  0.00009523
 Iteration  5 RMS(Cart)=  0.00001696 RMS(Int)=  0.00009915
 Iteration  6 RMS(Cart)=  0.00000926 RMS(Int)=  0.00010136
 Iteration  7 RMS(Cart)=  0.00000508 RMS(Int)=  0.00010260
 Iteration  8 RMS(Cart)=  0.00000281 RMS(Int)=  0.00010329
 Iteration  9 RMS(Cart)=  0.00000157 RMS(Int)=  0.00010367
 Iteration 10 RMS(Cart)=  0.00000090 RMS(Int)=  0.00010388
 Variable       Old X    -DE/DX   Delta X   Delta X   Delta X     New X
                                 (Linear)    (Quad)   (Total)
    R1        2.04934  -0.00435  -0.00151  -0.01202  -0.01353   2.03581
    R2        2.05630  -0.00161  -0.00051  -0.00448  -0.00499   2.05131
    R3        2.05557  -0.00179  -0.00060  -0.00498  -0.00558   2.04999
    R4        2.87677  -0.00422  -0.00211  -0.01335  -0.01546   2.86131
    R5        2.30071  -0.02549  -0.00312  -0.02735  -0.03048   2.27024
    R6        2.53789   0.00423   0.00217   0.00556   0.00773   2.54562
    R7        1.89285  -0.00840  -0.00228  -0.01756  -0.01984   1.87301
    R8        2.75161  -0.00669   0.00193  -0.02124  -0.01931   2.73230
    R9        2.05294  -0.00308  -0.00098  -0.00859  -0.00957   2.04337
   R10        2.90983  -0.00188   0.00402  -0.01113  -0.00711   2.90272
   R11        2.91555  -0.00163   0.00567  -0.01194  -0.00627   2.90928
   R12        2.04131  -0.00118  -0.00265  -0.00083  -0.00348   2.03783
   R13        2.05214  -0.00012  -0.00111   0.00082  -0.00029   2.05185
   R14        2.05494  -0.00270  -0.00068  -0.00773  -0.00841   2.04653
   R15        2.30222  -0.02300  -0.00293  -0.02456  -0.02749   2.27473
   R16        2.53149   0.00429   0.00125   0.00671   0.00796   2.53945
   R17        1.88360  -0.00530  -0.00360  -0.00865  -0.01225   1.87135
   R18        2.73845   0.00001   0.00003   0.00000   0.00003   2.73849
   R19        2.04749  -0.00574  -0.00178  -0.01608  -0.01786   2.02963
   R20        2.05528  -0.00203  -0.00066  -0.00565  -0.00630   2.04898
   R21        2.05464  -0.00230  -0.00075  -0.00641  -0.00716   2.04747
    A1        1.91164  -0.00004   0.00008  -0.00174  -0.00142   1.91022
    A2        1.91218   0.00016   0.00014  -0.00196  -0.00166   1.91052
    A3        1.92049  -0.00472  -0.00266  -0.03083  -0.03329   1.88720
    A4        1.90170  -0.00296  -0.00122  -0.01398  -0.01567   1.88603
    A5        1.91007   0.00424   0.00202   0.02750   0.02939   1.93945
    A6        1.90762   0.00335   0.00166   0.02124   0.02272   1.93035
    A7        2.10099   0.00915  -0.00031   0.03991   0.03957   2.14057
    A8        2.00949  -0.00203  -0.00367  -0.00490  -0.00860   2.00089
    A9        2.17258  -0.00711   0.00397  -0.03480  -0.03086   2.14172
   A10        2.05353   0.00163  -0.00588   0.01157   0.00437   2.05790
   A11        2.20252  -0.00492   0.01079  -0.03561  -0.02618   2.17634
   A12        2.02648   0.00319  -0.00500   0.02101   0.01459   2.04107
   A13        1.89024  -0.00304  -0.00301  -0.06382  -0.06761   1.82263
   A14        1.95948  -0.00038   0.00294   0.01540   0.01664   1.97612
   A15        1.88755  -0.00070  -0.00741   0.01928   0.00837   1.89592
   A16        1.85194   0.00187  -0.00636   0.02654   0.02160   1.87354
   A17        1.88135  -0.00398  -0.00212  -0.05648  -0.05978   1.82158
   A18        1.98935   0.00567   0.01554   0.04893   0.06371   2.05306
   A19        1.93618   0.00215   0.00360   0.01497   0.01845   1.95463
   A20        1.92107   0.00038   0.00144   0.00170   0.00300   1.92407
   A21        1.90951   0.00014  -0.00023  -0.00349  -0.00372   1.90579
   A22        1.91254  -0.00033   0.00035   0.00637   0.00647   1.91901
   A23        1.89984  -0.00127  -0.00150  -0.00786  -0.00934   1.89050
   A24        1.88380  -0.00118  -0.00379  -0.01259  -0.01640   1.86740
   A25        2.06822   0.00041  -0.00503   0.00742   0.00150   2.06973
   A26        2.09825  -0.01163   0.00909  -0.05927  -0.05111   2.04714
   A27        2.11648   0.01127  -0.00410   0.05348   0.04838   2.16486
   A28        2.10648  -0.00402   0.00174  -0.02384  -0.02226   2.08422
   A29        2.12768   0.00511   0.00002   0.02490   0.02475   2.15244
   A30        2.04901  -0.00110  -0.00176  -0.00125  -0.00318   2.04583
   A31        1.90231  -0.00184  -0.00127  -0.01229  -0.01352   1.88879
   A32        1.92106   0.00199   0.00143   0.01277   0.01415   1.93521
   A33        1.91863   0.00167   0.00108   0.01039   0.01142   1.93004
   A34        1.90848  -0.00019  -0.00024  -0.00175  -0.00194   1.90654
   A35        1.90835  -0.00027  -0.00026  -0.00349  -0.00371   1.90464
   A36        1.90492  -0.00137  -0.00075  -0.00575  -0.00663   1.89830
    D1        0.00815  -0.00016   0.00115  -0.00256  -0.00150   0.00665
    D2        3.13368   0.00009  -0.00114   0.01097   0.00998  -3.13953
    D3        2.10952  -0.00048   0.00089  -0.00659  -0.00610   2.10342
    D4       -1.04813  -0.00022  -0.00140   0.00694   0.00538  -1.04276
    D5       -2.09235   0.00047   0.00156   0.00561   0.00731  -2.08504
    D6        1.03319   0.00072  -0.00072   0.01914   0.01879   1.05198
    D7       -0.03058  -0.00185  -0.00443  -0.06148  -0.06537  -0.09596
    D8       -3.13175   0.00096   0.00142   0.03192   0.03315  -3.09860
    D9        3.09420  -0.00141  -0.00682  -0.04652  -0.05315   3.04105
   D10       -0.00696   0.00140  -0.00097   0.04688   0.04537   0.03841
   D11       -2.93972  -0.00436  -0.00864  -0.09030  -0.09837  -3.03809
   D12       -0.90075  -0.00420  -0.01663  -0.08885  -0.10492  -1.00567
   D13        1.30910   0.00233   0.00000   0.00000   0.00000   1.30910
   D14        0.24175  -0.00156  -0.00288   0.00199  -0.00051   0.24124
   D15        2.28072  -0.00140  -0.01087   0.00344  -0.00706   2.27365
   D16       -1.79262   0.00513   0.00576   0.09229   0.09786  -1.69476
   D17        1.08001   0.00190   0.00472   0.07004   0.07558   1.15559
   D18       -3.08345   0.00316   0.00837   0.08912   0.09844  -2.98501
   D19       -1.01623   0.00203   0.00447   0.07265   0.07801  -0.93822
   D20       -3.14141  -0.00084  -0.00127   0.01759   0.01595  -3.12545
   D21       -1.02168   0.00042   0.00239   0.03667   0.03881  -0.98287
   D22        1.04554  -0.00071  -0.00152   0.02020   0.01838   1.06392
   D23       -1.07383  -0.00130   0.00104  -0.00664  -0.00625  -1.08008
   D24        1.04590  -0.00003   0.00469   0.01244   0.01661   1.06251
   D25        3.11311  -0.00117   0.00079  -0.00403  -0.00382   3.10929
   D26        0.76296  -0.00121  -0.00323   0.08199   0.07798   0.84093
   D27       -2.35615  -0.00384   0.00000   0.00000   0.00000  -2.35615
   D28       -1.27716   0.00485   0.00586   0.17688   0.18139  -1.09578
   D29        1.88691   0.00222   0.00910   0.09490   0.10341   1.99032
   D30        2.95532   0.00183   0.00599   0.15257   0.15894   3.11426
   D31       -0.16379  -0.00080   0.00922   0.07059   0.08096  -0.08283
   D32       -0.00216   0.00220  -0.00029   0.07529   0.07569   0.07353
   D33        3.13280   0.00140  -0.00127   0.04122   0.04087  -3.10952
   D34       -3.12063  -0.00035   0.00303  -0.00835  -0.00623  -3.12687
   D35        0.01432  -0.00115   0.00205  -0.04241  -0.04106  -0.02673
   D36        0.00279   0.00030   0.00041   0.01572   0.01621   0.01900
   D37        2.09578   0.00014   0.00020   0.01372   0.01393   2.10971
   D38       -2.08857   0.00076   0.00084   0.02127   0.02225  -2.06631
   D39        3.13796  -0.00048  -0.00054  -0.01736  -0.01797   3.11998
   D40       -1.05224  -0.00065  -0.00074  -0.01937  -0.02026  -1.07249
   D41        1.04660  -0.00003  -0.00011  -0.01181  -0.01193   1.03467
         Item               Value     Threshold  Converged?
 Maximum Force            0.025487     0.000450     NO 
 RMS     Force            0.004796     0.000300     NO 
 Maximum Displacement     0.282481     0.001800     NO 
 RMS     Displacement     0.061570     0.001200     NO 
 Predicted change in Energy=-5.019112D-03
 GradGradGradGradGradGradGradGradGradGradGradGradGradGradGradGradGradGrad

                          Input orientation:                          
 ---------------------------------------------------------------------
 Center     Atomic      Atomic             Coordinates (Angstroms)
 Number     Number       Type             X           Y           Z
 ---------------------------------------------------------------------
      1          1           0        0.833724    3.301367   -1.807910
      2          6           0        1.416758    3.268977   -0.902587
      3          1           0        1.555235    2.236134   -0.598648
      4          1           0        0.883548    3.784031   -0.110615
      5          6           0        2.746257    3.940783   -1.174125
      6          8           0        3.027449    4.413171   -2.242321
      7          7           0        3.585672    3.971166   -0.120991
      8          1           0        3.249350    3.638758    0.750086
      9          6           0        4.886629    4.602071   -0.123421
     10          1           0        5.314551    4.340855    0.834631
     11          6           0        5.824259    4.052538   -1.208927
     12          1           0        5.473884    4.286681   -2.201551
     13          1           0        6.828665    4.440673   -1.069409
     14          1           0        5.885247    2.975386   -1.114767
     15          6           0        4.693412    6.127769   -0.052329
     16          8           0        3.940253    6.575111    0.773271
     17          7           0        5.434140    6.882008   -0.881963
     18          1           0        6.022925    6.441087   -1.544958
     19          6           0        5.385735    8.330254   -0.898133
     20          1           0        4.693401    8.651573   -0.142505
     21          1           0        6.362744    8.751913   -0.690032
     22          1           0        5.049563    8.689394   -1.863496
 ---------------------------------------------------------------------
                    Distance matrix (angstroms):
                    1          2          3          4          5
     1  H    0.000000
     2  C    1.077306   0.000000
     3  H    1.765676   1.085504   0.000000
     4  H    1.765293   1.084811   1.756509   0.000000
     5  C    2.113840   1.514141   2.157669   2.150654   0.000000
     6  O    2.497448   2.387130   3.099768   3.088090   1.201358
     7  N    3.296595   2.410010   2.713146   2.708616   1.347083
     8  H    3.534462   2.495287   2.580012   2.521691   2.011693
     9  C    4.577703   3.797926   4.113597   4.085830   2.474363
    10  H    5.304843   4.399958   4.540550   4.564792   3.285010
    11  C    5.082173   4.487079   4.679352   5.068433   3.080227
    12  H    4.759924   4.379874   4.704237   5.069107   2.935165
    13  H    6.146765   5.539804   5.735039   6.057630   4.114232
    14  H    5.109265   4.483147   4.422881   5.165193   3.284626
    15  C    5.095861   4.430811   5.029059   4.473429   3.135721
    16  O    5.199079   4.484088   5.137820   4.232591   3.486785
    17  N    5.902728   5.403126   6.058903   5.558806   3.995107
    18  H    6.070815   5.629538   6.207848   5.960745   4.138308
    19  C    6.843845   6.431899   7.204215   6.446551   5.129374
    20  H    6.804071   6.347161   7.156396   6.181340   5.200688
    21  H    7.843989   7.387188   8.097893   7.418704   6.038237
    22  H    6.841581   6.595569   7.446793   6.670147   5.322571
                    6          7          8          9         10
     6  O    0.000000
     7  N    2.237638   0.000000
     8  H    3.098944   0.991152   0.000000
     9  C    2.825238   1.445869   2.090853   0.000000
    10  H    3.834540   2.009703   2.182920   1.081303   0.000000
    11  C    3.003350   2.490281   3.261764   1.536054   2.125808
    12  H    2.450042   2.827299   3.752401   2.182421   3.040842
    13  H    3.978156   3.411296   4.094524   2.166206   2.434723
    14  H    3.391993   2.695777   3.296314   2.150840   2.447519
    15  C    3.242121   2.425436   2.987367   1.539526   2.089396
    16  O    3.821125   2.775962   3.016630   2.364862   2.623807
    17  N    3.706466   3.531135   4.237399   2.464399   3.068950
    18  H    3.683970   3.750786   4.562125   2.587260   3.251955
    19  C    4.765700   4.779731   5.412107   3.840395   4.350039
    20  H    5.014846   4.809755   5.292477   4.054154   4.463509
    21  H    5.688452   5.558011   6.157233   4.440850   4.783382
    22  H    4.745371   5.238414   5.964939   4.445291   5.124442
                   11         12         13         14         15
    11  C    0.000000
    12  H    1.078373   0.000000
    13  H    1.085792   1.772255   0.000000
    14  H    1.082978   1.752088   1.743319   0.000000
    15  C    2.631182   2.935625   2.905177   3.533662   0.000000
    16  O    3.720480   4.054442   4.036611   4.506186   1.203735
    17  N    2.874891   2.911806   2.817792   3.939466   1.343818
    18  H    2.420238   2.318194   2.208398   3.495011   2.023293
    19  C    4.311352   4.249371   4.152135   5.382477   2.458788
    20  H    4.854609   4.888876   4.811464   5.880892   2.525414
    21  H    4.758503   4.797193   4.352908   5.811770   3.174818
    22  H    4.746478   4.436013   4.674122   5.823131   3.157387
[...]
    12  H    4.750044   4.417807   4.882419   5.036688   2.943480
    13  H    6.120041   5.563261   5.822550   6.094021   4.107639
    14  H    5.022097   4.537650   4.604594   5.294470   3.266715
    15  C    5.156332   4.376347   4.855758   4.386941   3.133988
    16  O    5.301804   4.418601   4.854206   4.158213   3.500753
    17  N    5.963457   5.343083   5.949759   5.384559   3.991050
    18  H    5.955875   5.462273   6.089341   5.669023   4.009817
    19  C    6.840512   6.254816   6.957367   6.089012   5.050736
    20  H    7.371984   6.672195   7.283714   6.406346   5.560361
    21  H    7.636503   7.124648   7.847541   7.033052   5.844023
    22  H    6.462151   5.965479   6.777749   5.685626   4.911074
                    6          7          8          9         10
     6  O    0.000000
     7  N    2.252417   0.000000
     8  H    3.090072   0.994812   0.000000
     9  C    2.818836   1.452896   2.079194   0.000000
    10  H    3.835608   2.024069   2.223302   1.084752   0.000000
    11  C    2.958518   2.493082   3.330711   1.527813   2.115277
    12  H    2.412703   2.849449   3.811827   2.183340   3.038889
    13  H    3.942747   3.409264   4.139158   2.153555   2.404944
    14  H    3.310607   2.680455   3.437211   2.140271   2.445908
    15  C    3.285643   2.436658   2.831454   1.537704   2.073312
    16  O    3.897666   2.792908   2.793180   2.366621   2.609180
    17  N    3.744653   3.550499   4.109138   2.474744   3.064030
    18  H    3.533069   3.716627   4.452696   2.607212   3.321911
    19  C    4.752045   4.744443   5.180128   3.828529   4.338804
    20  H    5.463660   5.065017   5.316704   4.146590   4.423690
    21  H    5.392088   5.576540   6.100154   4.538512   5.041535
    22  H    4.548681   4.860043   5.282889   4.230205   4.884610
                   11         12         13         14         15
    11  C    0.000000
    12  H    1.079385   0.000000
    13  H    1.085328   1.770002   0.000000
    14  H    1.083528   1.748395   1.752223   0.000000
    15  C    2.627181   2.941435   2.895735   3.526832   0.000000
    16  O    3.716597   4.065642   4.021747   4.498432   1.202780
    17  N    2.892822   2.928083   2.838401   3.957319   1.346387
    18  H    2.468959   2.272853   2.355106   3.547224   2.015106
    19  C    4.333467   4.259580   4.210905   5.402831   2.429266
    20  H    4.878473   5.003242   4.694075   5.904053   2.668238
    21  H    4.738323   4.577050   4.433880   5.818571   3.300001
    22  H    4.817859   4.578640   4.899208   5.863859   2.827035
                   16         17         18         19         20
    16  O    0.000000
    17  N    2.240595   0.000000
    18  H    3.096213   0.992857   0.000000
    19  C    2.752614   1.448477   2.101594   0.000000
    20  H    2.616772   2.076436   2.920142   1.079764   0.000000
    21  H    3.784673   2.067407   2.319396   1.082027   1.760534
    22  H    2.950241   2.108344   2.664160   1.084614   1.756157
                   21         22
    21  H    0.000000
    22  H    1.765386   0.000000
 Stoichiometry    C6H12N2O2
 Framework group  C1[X(C6H12N2O2)]
 Deg. of freedom    60
 Full point group                 C1      NOp   1
 Largest Abelian subgroup         C1      NOp   1
 Largest concise Abelian subgroup C1      NOp   1
                         Standard orientation:                         
 ---------------------------------------------------------------------
 Center     Atomic      Atomic             Coordinates (Angstroms)
 Number     Number       Type             X           Y           Z
 ---------------------------------------------------------------------
      1          1           0       -3.713759   -1.035358    1.024763
      2          6           0       -3.102651   -1.067113    0.134573
      3          1           0       -3.683409   -0.746221   -0.722473
      4          1           0       -2.785786   -2.092322   -0.032485
      5          6           0       -1.879945   -0.201456    0.347253
      6          8           0       -1.492722    0.097757    1.443857
      7          7           0       -1.255598    0.194483   -0.793954
      8          1           0       -1.466888   -0.322105   -1.617449
      9          6           0        0.038085    0.855748   -0.798445
     10          1           0        0.213891    1.116659   -1.836570
     11          6           0        0.058361    2.160081   -0.003136
     12          1           0       -0.061051    2.001014    1.057764
     13          1           0        0.985554    2.691910   -0.191310
     14          1           0       -0.757746    2.788712   -0.339030
     15          6           0        1.134782   -0.182489   -0.508867
     16          8           0        1.131391   -1.218418   -1.120030
     17          7           0        2.096180    0.142177    0.376041
     18          1           0        1.921805    0.891408    1.003744
     19          6           0        3.117469   -0.817148    0.743129
     20          1           0        3.561457   -1.232031   -0.149416
     21          1           0        3.882513   -0.308062    1.314375
     22          1           0        2.713390   -1.630666    1.335831
 ---------------------------------------------------------------------
 Rotational constants (GHZ):      2.1049315      0.8357038      0.7748528

 **********************************************************************

            Population analysis using the SCF density.

 **********************************************************************

 Orbital symmetries:
       Occupied  (A) (A) (A) (A) (A) (A) (A) (A) (A) (A) (A) (A)
                 (A) (A) (A) (A) (A) (A) (A) (A) (A) (A) (A) (A)
                 (A) (A) (A) (A) (A) (A) (A) (A) (A) (A) (A) (A)
                 (A) (A) (A)
       Virtual   (A) (A) (A) (A) (A) (A) (A) (A) (A) (A) (A) (A)
                 (A) (A) (A) (A) (A) (A) (A) (A) (A) (A) (A) (A)
                 (A) (A) (A) (A) (A) (A) (A) (A) (A) (A) (A) (A)
                 (A) (A) (A) (A) (A) (A) (A) (A) (A) (A) (A) (A)
                 (A) (A) (A) (A) (A) (A) (A) (A) (A) (A) (A) (A)
                 (A) (A) (A) (A) (A) (A) (A) (A) (A) (A) (A) (A)
                 (A) (A) (A) (A) (A) (A) (A) (A) (A) (A) (A) (A)
                 (A) (A) (A) (A) (A) (A) (A) (A) (A) (A) (A) (A)
                 (A) (A) (A) (A) (A) (A) (A) (A) (A) (A) (A) (A)
                 (A) (A) (A) (A) (A) (A) (A) (A) (A) (A) (A) (A)
                 (A) (A) (A) (A) (A) (A) (A) (A) (A) (A) (A) (A)
                 (A) (A) (A)
 The electronic state is 1-A.
 Alpha  occ. eigenvalues --  -20.52583 -20.51947 -15.58445 -15.58383 -11.34911
 Alpha  occ. eigenvalues --  -11.34194 -11.28265 -11.25457 -11.23046 -11.22316
 Alpha  occ. eigenvalues --   -1.39619  -1.38666  -1.23773  -1.23136  -1.05551
 Alpha  occ. eigenvalues --   -0.99216  -0.95265  -0.89002  -0.79969  -0.76923
 Alpha  occ. eigenvalues --   -0.72025  -0.70024  -0.65160  -0.64207  -0.61958
 Alpha  occ. eigenvalues --   -0.61625  -0.59686  -0.58640  -0.56579  -0.55587
 Alpha  occ. eigenvalues --   -0.55269  -0.54714  -0.52942  -0.51268  -0.50337
 Alpha  occ. eigenvalues --   -0.42635  -0.41683  -0.39467  -0.38291
 Alpha virt. eigenvalues --    0.19268   0.20244   0.22350   0.23737   0.26063
 Alpha virt. eigenvalues --    0.27238   0.29522   0.30500   0.31321   0.31919
 Alpha virt. eigenvalues --    0.32677   0.33995   0.34457   0.34583   0.37906
 Alpha virt. eigenvalues --    0.38730   0.40845   0.45115   0.47782   0.50204
 Alpha virt. eigenvalues --    0.51907   0.59546   0.63384   0.69573   0.71458
 Alpha virt. eigenvalues --    0.73956   0.75745   0.76243   0.77202   0.78682
 Alpha virt. eigenvalues --    0.80866   0.82463   0.84177   0.90256   0.92242
 Alpha virt. eigenvalues --    0.94374   0.94824   0.95332   0.97125   1.00140
 Alpha virt. eigenvalues --    1.01764   1.02383   1.04882   1.05681   1.09854
 Alpha virt. eigenvalues --    1.10804   1.12122   1.14142   1.14750   1.15718
 Alpha virt. eigenvalues --    1.16350   1.18703   1.19855   1.20423   1.21398
 Alpha virt. eigenvalues --    1.22452   1.23318   1.24400   1.25708   1.27808
 Alpha virt. eigenvalues --    1.28685   1.32940   1.35985   1.38303   1.43353
 Alpha virt. eigenvalues --    1.44169   1.47212   1.53205   1.56237   1.59335
 Alpha virt. eigenvalues --    1.62979   1.70039   1.70938   1.72147   1.76779
 Alpha virt. eigenvalues --    1.78844   1.83431   1.86271   1.91811   1.97615
 Alpha virt. eigenvalues --    1.99080   2.07198   2.09135   2.11162   2.13362
 Alpha virt. eigenvalues --    2.15656   2.16595   2.18739   2.19398   2.22827
 Alpha virt. eigenvalues --    2.25987   2.28609   2.31877   2.33392   2.34884
 Alpha virt. eigenvalues --    2.35784   2.39018   2.42478   2.44669   2.47054
 Alpha virt. eigenvalues --    2.53089   2.55258   2.57495   2.61976   2.63664
 Alpha virt. eigenvalues --    2.68485   2.69638   2.72410   2.74096   2.77962
 Alpha virt. eigenvalues --    2.82008   2.83874   2.86993   2.92888   3.00029
 Alpha virt. eigenvalues --    3.02017   3.04649   3.05605   3.08589   3.27447
 Alpha virt. eigenvalues --    3.32982   3.38807   3.40736   3.54044   3.56603
 Alpha virt. eigenvalues --    4.36722   4.45841   4.47396   4.58099   4.63228
 Alpha virt. eigenvalues --    4.69023   4.73450   4.78067   4.91954   5.11697
          Condensed to atoms (all electrons):
              1          2          3          4          5          6
     1  H    0.465242   0.384349  -0.020560  -0.017262  -0.032243   0.003276
     2  C    0.384349   5.269485   0.376089   0.375232   0.374336  -0.070976
     3  H   -0.020560   0.376089   0.515855  -0.024022  -0.036335   0.002009
     4  H   -0.017262   0.375232  -0.024022   0.487403  -0.026601   0.000351
     5  C   -0.032243   0.374336  -0.036335  -0.026601   4.146677   0.606253
     6  O    0.003276  -0.070976   0.002009   0.000351   0.606253   8.164214
     7  N    0.004208  -0.120745   0.005335   0.000566   0.266826  -0.105725
     8  H    0.000061  -0.000733  -0.000062   0.000166  -0.019065   0.002519
     9  C   -0.000093   0.004482   0.000086  -0.000325  -0.031345   0.009092
    10  H    0.000002  -0.000047  -0.000013  -0.000001   0.003545   0.000100
    11  C    0.000009  -0.000179  -0.000021  -0.000002  -0.003731  -0.007001
    12  H    0.000000   0.000132  -0.000006  -0.000002   0.000817   0.006059
    13  H    0.000000   0.000008   0.000000   0.000000   0.000201   0.000367
    14  H    0.000000  -0.000053   0.000004   0.000001  -0.000118  -0.000247
    15  C   -0.000004  -0.000303   0.000018   0.000092  -0.000252   0.002633
    16  O    0.000000  -0.000148   0.000000   0.000060   0.001581  -0.000103
    17  N    0.000000  -0.000006   0.000000   0.000001   0.000298  -0.000712
    18  H    0.000000   0.000002   0.000000   0.000000   0.000054   0.000129
    19  C    0.000000   0.000000   0.000000   0.000000  -0.000025  -0.000006
    20  H    0.000000   0.000000   0.000000   0.000000   0.000000   0.000000
    21  H    0.000000   0.000000   0.000000   0.000000   0.000000   0.000000
    22  H    0.000000   0.000000   0.000000   0.000000   0.000002   0.000010
              7          8          9         10         11         12
     1  H    0.004208   0.000061  -0.000093   0.000002   0.000009   0.000000
     2  C   -0.120745  -0.000733   0.004482  -0.000047  -0.000179   0.000132
     3  H    0.005335  -0.000062   0.000086  -0.000013  -0.000021  -0.000006
     4  H    0.000566   0.000166  -0.000325  -0.000001  -0.000002  -0.000002
     5  C    0.266826  -0.019065  -0.031345   0.003545  -0.003731   0.000817
     6  O   -0.105725   0.002519   0.009092   0.000100  -0.007001   0.006059
     7  N    7.339070   0.328764   0.222814  -0.043462  -0.051080  -0.002248
     8  H    0.328764   0.319709  -0.028844  -0.004295   0.003683  -0.000117
     9  C    0.222814  -0.028844   5.034282   0.418987   0.322497  -0.031222
    10  H   -0.043462  -0.004295   0.418987   0.499436  -0.036301   0.003524
    11  C   -0.051080   0.003683   0.322497  -0.036301   5.176380   0.388394
    12  H   -0.002248  -0.000117  -0.031222   0.003524   0.388394   0.464716
    13  H    0.003822  -0.000070  -0.040888  -0.003836   0.384099  -0.026100
    14  H    0.000415  -0.000092  -0.032472  -0.003283   0.390566  -0.021132
    15  C   -0.072639   0.000712   0.378445  -0.045976  -0.050046  -0.002428
    16  O   -0.000457   0.004029  -0.079512   0.000614   0.002665  -0.000026
    17  N    0.002214   0.000103  -0.101014   0.002061   0.000770   0.000054
    18  H   -0.000112  -0.000015  -0.002832   0.000246   0.001488   0.002103
    19  C   -0.000140   0.000000   0.004347  -0.000170  -0.000162  -0.000075
    20  H   -0.000008  -0.000001   0.000066   0.000018  -0.000007   0.000001
    21  H    0.000000   0.000000   0.000027   0.000004  -0.000019   0.000008
    22  H    0.000019   0.000000  -0.000219  -0.000008   0.000004  -0.000008
             13         14         15         16         17         18
     1  H    0.000000   0.000000  -0.000004   0.000000   0.000000   0.000000
     2  C    0.000008  -0.000053  -0.000303  -0.000148  -0.000006   0.000002
     3  H    0.000000   0.000004   0.000018   0.000000   0.000000   0.000000
     4  H    0.000000   0.000001   0.000092   0.000060   0.000001   0.000000
     5  C    0.000201  -0.000118  -0.000252   0.001581   0.000298   0.000054
     6  O    0.000367  -0.000247   0.002633  -0.000103  -0.000712   0.000129
     7  N    0.003822   0.000415  -0.072639  -0.000457   0.002214  -0.000112
     8  H   -0.000070  -0.000092   0.000712   0.004029   0.000103  -0.000015
     9  C   -0.040888  -0.032472   0.378445  -0.079512  -0.101014  -0.002832
    10  H   -0.003836  -0.003283  -0.045976   0.000614   0.002061   0.000246
    11  C    0.384099   0.390566  -0.050046   0.002665   0.000770   0.001488
    12  H   -0.026100  -0.021132  -0.002428  -0.000026   0.000054   0.002103
    13  H    0.541806  -0.023418   0.000002  -0.000030   0.000502  -0.000924
    14  H   -0.023418   0.498862   0.003349  -0.000052  -0.000020   0.000080
    15  C    0.000002   0.003349   4.169735   0.599521   0.286476  -0.015363
    16  O   -0.000030  -0.000052   0.599521   8.191512  -0.105442   0.002509
    17  N    0.000502  -0.000020   0.286476  -0.105442   7.312291   0.321087
    18  H   -0.000924   0.000080  -0.015363   0.002509   0.321087   0.316168
    19  C   -0.000011   0.000004  -0.031281   0.007502   0.201838  -0.023911
    20  H   -0.000010   0.000000  -0.003560   0.003771  -0.038473   0.002800
    21  H   -0.000002   0.000000   0.004398   0.000378  -0.038761  -0.003813
    22  H    0.000006   0.000000  -0.002721   0.001384  -0.046906   0.000700
             19         20         21         22
     1  H    0.000000   0.000000   0.000000   0.000000
     2  C    0.000000   0.000000   0.000000   0.000000
     3  H    0.000000   0.000000   0.000000   0.000000
     4  H    0.000000   0.000000   0.000000   0.000000
     5  C   -0.000025   0.000000   0.000000   0.000002
     6  O   -0.000006   0.000000   0.000000   0.000010
     7  N   -0.000140  -0.000008   0.000000   0.000019
     8  H    0.000000  -0.000001   0.000000   0.000000
     9  C    0.004347   0.000066   0.000027  -0.000219
    10  H   -0.000170   0.000018   0.000004  -0.000008
    11  C   -0.000162  -0.000007  -0.000019   0.000004
    12  H   -0.000075   0.000001   0.000008  -0.000008
    13  H   -0.000011  -0.000010  -0.000002   0.000006
    14  H    0.000004   0.000000   0.000000   0.000000
    15  C   -0.031281  -0.003560   0.004398  -0.002721
    16  O    0.007502   0.003771   0.000378   0.001384
    17  N    0.201838  -0.038473  -0.038761  -0.046906
    18  H   -0.023911   0.002800  -0.003813   0.000700
    19  C    4.911342   0.403323   0.398140   0.405660
    20  H    0.403323   0.486467  -0.024835  -0.031930
    21  H    0.398140  -0.024835   0.528420  -0.032206
    22  H    0.405660  -0.031930  -0.032206   0.524338
 Mulliken atomic charges:
              1
     1  H    0.213016
     2  C   -0.590927
     3  H    0.181623
     4  H    0.204344
     5  C    0.749123
     6  O   -0.612240
     7  N   -0.777436
     8  H    0.393546
     9  C   -0.046356
    10  H    0.208855
    11  C   -0.522008
    12  H    0.217557
    13  H    0.164476
    14  H    0.187606
    15  C    0.779193
    16  O   -0.629755
    17  N   -0.796363
    18  H    0.399606
    19  C   -0.276376
    20  H    0.202378
    21  H    0.168262
    22  H    0.181875
 Sum of Mulliken atomic charges =   0.00000
 Mulliken charges with hydrogens summed into heavy atoms:
              1
     2  C    0.008056
     5  C    0.749123
     6  O   -0.612240
     7  N   -0.383890
     9  C    0.162499
    11  C    0.047632
    15  C    0.779193
    16  O   -0.629755
    17  N   -0.396757
    19  C    0.276139
 Sum of Mulliken charges with hydrogens summed into heavy atoms =   0.00000
 Electronic spatial extent (au):  <R**2>=           1684.4383
 Charge=              0.0000 electrons
 Dipole moment (field-independent basis, Debye):
    X=              0.0254    Y=              1.6696    Z=             -0.8738  Tot=              1.8846
 Quadrupole moment (field-independent basis, Debye-Ang):
   XX=            -51.6625   YY=            -60.8065   ZZ=            -63.4382
   XY=              5.5010   XZ=              9.4278   YZ=             -2.9050
 Traceless Quadrupole moment (field-independent basis, Debye-Ang):
   XX=              6.9732   YY=             -2.1708   ZZ=             -4.8024
   XY=              5.5010   XZ=              9.4278   YZ=             -2.9050
 Octapole moment (field-independent basis, Debye-Ang**2):
  XXX=              1.2397  YYY=              1.1539  ZZZ=             -9.4935  XYY=             -3.5851
  XXY=            -11.0272  XXZ=              5.3253  XZZ=              5.0086  YZZ=              3.2401
  YYZ=              6.2779  XYZ=             -3.1653
 Hexadecapole moment (field-independent basis, Debye-Ang**3):
 XXXX=          -1321.0027 YYYY=           -470.0032 ZZZZ=           -294.7517 XXXY=             -2.2614
 XXXZ=             19.8959 YYYX=              4.1295 YYYZ=             -2.5033 ZZZX=             20.4578
 ZZZY=              1.6879 XXYY=           -308.5824 XXZZ=           -281.9345 YYZZ=           -129.3999
 XXYZ=             -0.2755 YYXZ=              6.1137 ZZXY=             10.3556
 N-N= 5.661258504674D+02 E-N=-2.287827250347D+03  KE= 4.921258460654D+02
 1\1\GINC-RODAN\FOpt\RHF\6-31G(d)\C6H12N2O2\STEBOSS\09-Feb-2017\0\\# HF
 /6-31G* Opt=(ModRedundant) geom=nocrowd\\Phi Psi fixed scan\\0,1\H,0.9
 855373399,3.0848281245,-1.929613671\C,1.4211502588,3.3744750563,-0.984
 4969268\H,1.418713852,2.530924256,-0.3039131889\H,0.8153806765,4.16458
 71332,-0.5507569493\C,2.8182014799,3.9018699441,-1.2288495395\O,3.1712
 060248,4.2988906882,-2.3057762874\N,3.6277518969,3.9007308785,-0.13634
 8638\H,3.1787126611,3.8303576951,0.7485592673\C,4.9282393334,4.5481975
 807,-0.115681031\H,5.350880772,4.2933971255,0.8503095236\C,5.890804369
 7,4.0157812816,-1.1759699937\H,5.5803483387,4.2629895663,-2.1797509387
 \H,6.8884538879,4.4032310886,-0.9956488746\H,5.9361285178,2.9359856385
 ,-1.0983780371\C,4.7310124408,6.0701945628,-0.0199644449\O,3.971966344
 3,6.5079556168,0.8039854937\N,5.4708199118,6.8563068337,-0.8246199594\
 H,5.8940965076,6.4440220778,-1.6225066308\C,5.2827767129,8.2925110043,
 -0.8312588908\H,5.314496719,8.6660602179,0.1813343593\H,6.0845390998,8
 .7448431556,-1.3999021688\H,4.3321828544,8.573560474,-1.271452473\\Ver
 sion=EM64L-G09RevA.02\State=1-A\HF=-492.852516\RMSD=4.148e-09\RMSF=9.6
 72e-04\Dipole=0.5636855,-0.4448596,0.1847409\Quadrupole=4.1672307,2.07
 49181,-6.2421488,4.3198016,-2.365717,-6.0879179\PG=C01 [X(C6H12N2O2)]\
 \@


 BREAD HAS TO MOLD IN ORDER TO GET PENICILLIN.
          -- JERRY BOATZ
 Job cpu time:  0 days  0 hours 22 minutes 14.4 seconds.
 File lengths (MBytes):  RWF=     25 Int=      0 D2E=      0 Chk=      3 Scr=      1
 Normal termination of Gaussian 09 at Thu Feb  9 20:06:29 2017.
