 Entering Gaussian System, Link 0=g09
 Initial command:
 /home/steboss/Software/g09/l1.exe /home/steboss/projects/phi_psi_scan/alanine/MP2/165/5307/Gau-28530.inp -scrdir=/home/steboss/projects/phi_psi_scan/alanine/MP2/165/5307/
 Entering Link 1 = /home/steboss/Software/g09/l1.exe PID=     28532.
  
 Copyright (c) 1988,1990,1992,1993,1995,1998,2003,2009, Gaussian, Inc.
                  All Rights Reserved.
  
 This is part of the Gaussian(R) 09 program.  It is based on
 the Gaussian(R) 03 system (copyright 2003, Gaussian, Inc.),
 the Gaussian(R) 98 system (copyright 1998, Gaussian, Inc.),
 the Gaussian(R) 94 system (copyright 1995, Gaussian, Inc.),
 the Gaussian 92(TM) system (copyright 1992, Gaussian, Inc.),
 the Gaussian 90(TM) system (copyright 1990, Gaussian, Inc.),
 the Gaussian 88(TM) system (copyright 1988, Gaussian, Inc.),
 the Gaussian 86(TM) system (copyright 1986, Carnegie Mellon
 University), and the Gaussian 82(TM) system (copyright 1983,
 Carnegie Mellon University). Gaussian is a federally registered
 trademark of Gaussian, Inc.
  
 This software contains proprietary and confidential information,
 including trade secrets, belonging to Gaussian, Inc.
  
 This software is provided under written license and may be
 used, copied, transmitted, or stored only in accord with that
 written license.
  
 The following legend is applicable only to US Government
 contracts under FAR:
  
                    RESTRICTED RIGHTS LEGEND
  
 Use, reproduction and disclosure by the US Government is
 subject to restrictions as set forth in subparagraphs (a)
 and (c) of the Commercial Computer Software - Restricted
 Rights clause in FAR 52.227-19.
  
 Gaussian, Inc.
 340 Quinnipiac St., Bldg. 40, Wallingford CT 06492
  
  
 ---------------------------------------------------------------
 Warning -- This program may not be used in any manner that
 competes with the business of Gaussian, Inc. or will provide
 assistance to any competitor of Gaussian, Inc.  The licensee
 of this program is prohibited from giving any competitor of
 Gaussian, Inc. access to this program.  By using this program,
 the user acknowledges that Gaussian, Inc. is engaged in the
 business of creating and licensing software in the field of
 computational chemistry and represents and warrants to the
 licensee that it is not a competitor of Gaussian, Inc. and that
 it will not use this program in any manner prohibited above.
 ---------------------------------------------------------------
  

 Cite this work as:
 Gaussian 09, Revision A.02,
 M. J. Frisch, G. W. Trucks, H. B. Schlegel, G. E. Scuseria, 
 M. A. Robb, J. R. Cheeseman, G. Scalmani, V. Barone, B. Mennucci, 
 G. A. Petersson, H. Nakatsuji, M. Caricato, X. Li, H. P. Hratchian, 
 A. F. Izmaylov, J. Bloino, G. Zheng, J. L. Sonnenberg, M. Hada, 
 M. Ehara, K. Toyota, R. Fukuda, J. Hasegawa, M. Ishida, T. Nakajima, 
 Y. Honda, O. Kitao, H. Nakai, T. Vreven, J. A. Montgomery, Jr., 
 J. E. Peralta, F. Ogliaro, M. Bearpark, J. J. Heyd, E. Brothers, 
 K. N. Kudin, V. N. Staroverov, R. Kobayashi, J. Normand, 
 K. Raghavachari, A. Rendell, J. C. Burant, S. S. Iyengar, J. Tomasi, 
 M. Cossi, N. Rega, J. M. Millam, M. Klene, J. E. Knox, J. B. Cross, 
 V. Bakken, C. Adamo, J. Jaramillo, R. Gomperts, R. E. Stratmann, 
 O. Yazyev, A. J. Austin, R. Cammi, C. Pomelli, J. W. Ochterski, 
 R. L. Martin, K. Morokuma, V. G. Zakrzewski, G. A. Voth, 
 P. Salvador, J. J. Dannenberg, S. Dapprich, A. D. Daniels, 
 O. Farkas, J. B. Foresman, J. V. Ortiz, J. Cioslowski, 
 and D. J. Fox, Gaussian, Inc., Wallingford CT, 2009.
 
 ******************************************
 Gaussian 09:  EM64L-G09RevA.02 11-Jun-2009
                12-Feb-2017 
 ******************************************
 %chk=structure_180.chk
 %NProcShared=8
 Will use up to    8 processors via shared memory.
 -------------------
 #SP MP2/aug-cc-pVDZ
 -------------------
 1/38=1/1;
 2/12=2,17=6,18=5,40=1/2;
 3/5=16,7=10,11=9,16=1,25=1,30=1/1,2,3;
 4//1;
 5/5=2,38=5/2;
 8/10=1/1;
 9/16=-3/6;
 6/7=2,8=2,9=2,10=2/1;
 99/5=1,9=1/99;
 -------------------------------
 Single Point calculation at MP2
 -------------------------------
 Symbolic Z-matrix:
 Charge =  0 Multiplicity = 1
 H                    -4.1348   -1.1847   -0.4313 
 C                    -3.2798   -1.1995    0.2501 
 H                    -2.8042   -2.1842    0.2108 
 H                    -3.6656   -1.0351    1.2622 
 C                    -2.3464   -0.0506   -0.1131 
 O                    -2.7712    1.0872   -0.2919 
 N                    -1.0339   -0.4014   -0.2407 
 H                    -0.7367   -1.3422   -0.0007 
 C                     0.0825    0.5207   -0.3741 
 H                     0.1304    0.9022   -1.405 
 C                    -0.0012    1.7196    0.5939 
 H                     0.05      1.3757    1.6326 
 H                     0.8195    2.4255    0.4241 
 H                    -0.9463    2.2403    0.44 
 C                     1.3534   -0.3179   -0.0999 
 O                     1.2877   -1.5135    0.1787 
 N                     2.5266    0.3626   -0.175 
 H                     2.5021    1.3401   -0.426 
 C                     3.8198   -0.2641    0.0434 
 H                     3.6386   -1.3019    0.3241 
 H                     4.4304   -0.2406   -0.8669 
 H                     4.3658    0.2378    0.85 
 
                          Input orientation:                          
 ---------------------------------------------------------------------
 Center     Atomic      Atomic             Coordinates (Angstroms)
 Number     Number       Type             X           Y           Z
 ---------------------------------------------------------------------
      1          1           0       -4.134800   -1.184700   -0.431300
      2          6           0       -3.279800   -1.199500    0.250100
      3          1           0       -2.804200   -2.184200    0.210800
      4          1           0       -3.665600   -1.035100    1.262200
      5          6           0       -2.346400   -0.050600   -0.113100
      6          8           0       -2.771200    1.087200   -0.291900
      7          7           0       -1.033900   -0.401400   -0.240700
      8          1           0       -0.736700   -1.342200   -0.000700
      9          6           0        0.082500    0.520700   -0.374100
     10          1           0        0.130400    0.902200   -1.405000
     11          6           0       -0.001200    1.719600    0.593900
     12          1           0        0.050000    1.375700    1.632600
     13          1           0        0.819500    2.425500    0.424100
     14          1           0       -0.946300    2.240300    0.440000
     15          6           0        1.353400   -0.317900   -0.099900
     16          8           0        1.287700   -1.513500    0.178700
     17          7           0        2.526600    0.362600   -0.175000
     18          1           0        2.502100    1.340100   -0.426000
     19          6           0        3.819800   -0.264100    0.043400
     20          1           0        3.638600   -1.301900    0.324100
     21          1           0        4.430400   -0.240600   -0.866900
     22          1           0        4.365800    0.237800    0.850000
 ---------------------------------------------------------------------
                    Distance matrix (angstroms):
                    1          2          3          4          5
     1  H    0.000000
     2  C    1.093412   0.000000
     3  H    1.783757   1.094246   0.000000
     4  H    1.763653   1.095543   1.779855   0.000000
     5  C    2.141450   1.524179   2.206069   2.144989   0.000000
     6  O    2.653369   2.404461   3.309963   2.778369   1.227605
     7  N    3.203977   2.433499   2.552683   3.096147   1.364551
     8  H    3.428893   2.559418   2.242377   3.204322   2.066881
     9  C    4.549426   3.828025   3.998953   4.375642   2.508797
    10  H    4.847182   4.334278   4.555058   5.027594   2.951503
    11  C    5.154866   4.403244   4.821123   4.632799   3.022155
    12  H    5.322394   4.430635   4.779211   4.444641   3.290066
    13  H    6.189535   5.474958   5.867370   5.726630   4.054945
    14  H    4.759866   4.160950   4.804220   4.335764   2.741245
    15  C    5.566103   4.729298   4.567849   5.249767   3.709467
    16  O    5.466600   4.578837   4.146627   5.092938   3.928347
    17  N    6.843543   6.027864   5.920512   6.508644   4.890879
    18  H    7.100921   6.351145   6.401799   6.821445   5.053702
    19  C    8.021752   7.163939   6.898709   7.623065   6.171880
    20  H    7.810897   6.919553   6.503919   7.369026   6.130018
    21  H    8.628078   7.849482   7.568253   8.408895   6.821241
    22  H    8.713520   7.802622   7.594969   8.142086   6.787073
                    6          7          8          9         10
     6  O    0.000000
     7  N    2.288397   0.000000
     8  H    3.182133   1.015398   0.000000
     9  C    2.910547   1.454102   2.069037   0.000000
    10  H    3.113278   2.100134   2.785902   1.100269   0.000000
    11  C    2.976150   2.502332   3.204548   1.543176   2.163576
    12  H    3.427259   2.800389   3.267039   2.181496   3.075334
    13  H    3.898311   3.445056   4.098509   2.192842   2.478086
    14  H    2.279381   2.729396   3.615585   2.162918   2.520678
    15  C    4.361593   2.392906   2.329710   1.547134   2.165100
    16  O    4.843529   2.608158   2.039540   2.428181   3.111761
    17  N    5.348401   3.642138   3.685899   2.457287   2.746970
    18  H    5.281064   3.945942   4.226753   2.555107   2.602913
    19  C    6.736447   4.863946   4.682514   3.841566   4.131560
    20  H    6.868245   4.791884   4.387524   4.056501   4.489467
    21  H    7.345524   5.502414   5.353760   4.441471   4.481690
    22  H    7.277512   5.545716   5.408844   4.463755   4.844075
                   11         12         13         14         15
    11  C    0.000000
    12  H    1.095348   0.000000
    13  H    1.095753   1.776143   0.000000
    14  H    1.089967   1.778326   1.775557   0.000000
    15  C    2.543168   2.751125   2.843566   3.482025   0.000000
    16  O    3.505223   3.463120   3.974312   4.376077   1.229388
    17  N    2.970257   3.229139   2.743842   3.995625   1.358351
    18  H    2.729602   3.201858   2.175294   3.667667   2.043237
    19  C    4.340295   4.407481   4.047305   5.398613   2.471145
    20  H    4.738185   4.664736   4.674488   5.794991   2.523920
    21  H    5.061166   5.296020   4.670478   6.063972   3.172096
    22  H    4.618659   4.531380   4.188516   5.691793   3.207127
                   16         17         18         19         20
    16  O    0.000000
    17  N    2.275902   0.000000
    18  H    3.159662   1.009509   0.000000
    19  C    2.826807   1.453553   2.128410   0.000000
    20  H    2.364878   2.063057   2.972280   1.090254   0.000000
    21  H    3.548255   2.113535   2.532064   1.096372   1.780951
    22  H    3.604496   2.109231   2.513288   1.095730   1.782152
                   21         22
    21  H    0.000000
    22  H    1.783476   0.000000
 Stoichiometry    C6H12N2O2
 Framework group  C1[X(C6H12N2O2)]
 Deg. of freedom    60
 Full point group                 C1      NOp   1
 Largest Abelian subgroup         C1      NOp   1
 Largest concise Abelian subgroup C1      NOp   1
                         Standard orientation:                         
 ---------------------------------------------------------------------
 Center     Atomic      Atomic             Coordinates (Angstroms)
 Number     Number       Type             X           Y           Z
 ---------------------------------------------------------------------
      1          1           0       -4.134801   -1.184692   -0.431303
      2          6           0       -3.279801   -1.199494    0.250097
      3          1           0       -2.804204   -2.184195    0.210797
      4          1           0       -3.665601   -1.035093    1.262197
      5          6           0       -2.346399   -0.050596   -0.113103
      6          8           0       -2.771196    1.087205   -0.291903
      7          7           0       -1.033900   -0.401399   -0.240703
      8          1           0       -0.736702   -1.342200   -0.000703
      9          6           0        0.082502    0.520699   -0.374103
     10          1           0        0.130403    0.902198   -1.405003
     11          6           0       -0.001195    1.719599    0.593897
     12          1           0        0.050004    1.375699    1.632597
     13          1           0        0.819507    2.425497    0.424097
     14          1           0       -0.946294    2.240301    0.439997
     15          6           0        1.353401   -0.317904   -0.099903
     16          8           0        1.287698   -1.513504    0.178697
     17          7           0        2.526602    0.362593   -0.175003
     18          1           0        2.502104    1.340093   -0.426003
     19          6           0        3.819801   -0.264110    0.043397
     20          1           0        3.638598   -1.301909    0.324097
     21          1           0        4.430401   -0.240611   -0.866903
     22          1           0        4.365802    0.237789    0.849997
 ---------------------------------------------------------------------
 Rotational constants (GHZ):      3.1094075      0.6610940      0.5680798
 Standard basis: Aug-CC-pVDZ (5D, 7F)
 There are   338 symmetry adapted basis functions of A   symmetry.
 Integral buffers will be    131072 words long.
 Raffenetti 1 integral format.
 Two-electron integral symmetry is turned on.
   338 basis functions,   562 primitive gaussians,   358 cartesian basis functions
    39 alpha electrons       39 beta electrons
       nuclear repulsion energy       549.9094732062 Hartrees.
 NAtoms=   22 NActive=   22 NUniq=   22 SFac= 7.50D-01 NAtFMM=   80 NAOKFM=F Big=F
 One-electron integrals computed using PRISM.
 NBasis=   338 RedAO= T  NBF=   338
 NBsUse=   338 1.00D-06 NBFU=   338
 Harris functional with IExCor=  205 diagonalized for initial guess.
 ExpMin= 2.97D-02 ExpMax= 1.17D+04 ExpMxC= 4.01D+02 IAcc=3 IRadAn=         0 AccDes= 0.00D+00
 HarFok:  IExCor=  205 AccDes= 0.00D+00 IRadAn=         0 IDoV= 1
 ScaDFX=  1.000000  1.000000  1.000000  1.000000
 FoFCou: FMM=F IPFlag=           0 FMFlag=      100000 FMFlg1=           0
         NFxFlg=           0 DoJE=T BraDBF=F KetDBF=T FulRan=T
         Omega=  0.000000  0.000000  1.000000  0.000000  0.000000 ICntrl=     500 IOpCl=  0
         NMat0=    1 NMatS0=    1 NMatT0=    0 NMatD0=    1 NMtDS0=    0 NMtDT0=    0
         I1Cent=           4 NGrid=           0.
 Petite list used in FoFCou.
 Initial guess orbital symmetries:
       Occupied  (A) (A) (A) (A) (A) (A) (A) (A) (A) (A) (A) (A)
                 (A) (A) (A) (A) (A) (A) (A) (A) (A) (A) (A) (A)
                 (A) (A) (A) (A) (A) (A) (A) (A) (A) (A) (A) (A)
                 (A) (A) (A)
       Virtual   (A) (A) (A) (A) (A) (A) (A) (A) (A) (A) (A) (A)
                 (A) (A) (A) (A) (A) (A) (A) (A) (A) (A) (A) (A)
                 (A) (A) (A) (A) (A) (A) (A) (A) (A) (A) (A) (A)
                 (A) (A) (A) (A) (A) (A) (A) (A) (A) (A) (A) (A)
                 (A) (A) (A) (A) (A) (A) (A) (A) (A) (A) (A) (A)
                 (A) (A) (A) (A) (A) (A) (A) (A) (A) (A) (A) (A)
                 (A) (A) (A) (A) (A) (A) (A) (A) (A) (A) (A) (A)
                 (A) (A) (A) (A) (A) (A) (A) (A) (A) (A) (A) (A)
                 (A) (A) (A) (A) (A) (A) (A) (A) (A) (A) (A) (A)
                 (A) (A) (A) (A) (A) (A) (A) (A) (A) (A) (A) (A)
                 (A) (A) (A) (A) (A) (A) (A) (A) (A) (A) (A) (A)
                 (A) (A) (A) (A) (A) (A) (A) (A) (A) (A) (A) (A)
                 (A) (A) (A) (A) (A) (A) (A) (A) (A) (A) (A) (A)
                 (A) (A) (A) (A) (A) (A) (A) (A) (A) (A) (A) (A)
                 (A) (A) (A) (A) (A) (A) (A) (A) (A) (A) (A) (A)
                 (A) (A) (A) (A) (A) (A) (A) (A) (A) (A) (A) (A)
                 (A) (A) (A) (A) (A) (A) (A) (A) (A) (A) (A) (A)
                 (A) (A) (A) (A) (A) (A) (A) (A) (A) (A) (A) (A)
                 (A) (A) (A) (A) (A) (A) (A) (A) (A) (A) (A) (A)
                 (A) (A) (A) (A) (A) (A) (A) (A) (A) (A) (A) (A)
                 (A) (A) (A) (A) (A) (A) (A) (A) (A) (A) (A) (A)
                 (A) (A) (A) (A) (A) (A) (A) (A) (A) (A) (A) (A)
                 (A) (A) (A) (A) (A) (A) (A) (A) (A) (A) (A) (A)
                 (A) (A) (A) (A) (A) (A) (A) (A) (A) (A) (A) (A)
                 (A) (A) (A) (A) (A) (A) (A) (A) (A) (A) (A)
 The electronic state of the initial guess is 1-A.
 Requested convergence on RMS density matrix=1.00D-08 within 128 cycles.
 Requested convergence on MAX density matrix=1.00D-06.
 Requested convergence on             energy=1.00D-06.
 No special actions if energy rises.
 Initial convergence to 1.0D-05 achieved.  Increase integral accuracy.
 SCF Done:  E(RHF) =  -492.923357748     A.U. after   14 cycles
             Convg  =    0.4808D-08             -V/T =  2.0017
 ExpMin= 2.97D-02 ExpMax= 1.17D+04 ExpMxC= 4.01D+02 IAcc=3 IRadAn=         5 AccDes= 0.00D+00
 HarFok:  IExCor=  205 AccDes= 0.00D+00 IRadAn=         5 IDoV=-2
 ScaDFX=  1.000000  1.000000  1.000000  1.000000
 Range of M.O.s used for correlation:    11   338
 NBasis=   338 NAE=    39 NBE=    39 NFC=    10 NFV=     0
 NROrb=    328 NOA=    29 NOB=    29 NVA=   299 NVB=   299

 **** Warning!!: The largest alpha MO coefficient is  0.93126258D+02

 Disk-based method using OVN memory for 29 occupieds at a time.
 Estimated scratch disk usage=  1371488677 words.
 Actual    scratch disk usage=  1358645287 words.
 JobTyp=1 Pass  1:  I=   1 to  29 NPSUse=  8 ParTrn=T ParDer=T DoDerP=F.
 Spin components of T(2) and E(2):
     alpha-alpha T2 =       0.6795746781D-01 E2=     -0.2060352154D+00
     alpha-beta  T2 =       0.3758931121D+00 E2=     -0.1189495030D+01
     beta-beta   T2 =       0.6795746781D-01 E2=     -0.2060352154D+00
 ANorm=    0.1229556037D+01
 E2 =    -0.1601565461D+01 EUMP2 =    -0.49452492320908D+03

 **********************************************************************

            Population analysis using the SCF density.

 **********************************************************************

 Orbital symmetries:
       Occupied  (A) (A) (A) (A) (A) (A) (A) (A) (A) (A) (A) (A)
                 (A) (A) (A) (A) (A) (A) (A) (A) (A) (A) (A) (A)
                 (A) (A) (A) (A) (A) (A) (A) (A) (A) (A) (A) (A)
                 (A) (A) (A)
       Virtual   (A) (A) (A) (A) (A) (A) (A) (A) (A) (A) (A) (A)
                 (A) (A) (A) (A) (A) (A) (A) (A) (A) (A) (A) (A)
                 (A) (A) (A) (A) (A) (A) (A) (A) (A) (A) (A) (A)
                 (A) (A) (A) (A) (A) (A) (A) (A) (A) (A) (A) (A)
                 (A) (A) (A) (A) (A) (A) (A) (A) (A) (A) (A) (A)
                 (A) (A) (A) (A) (A) (A) (A) (A) (A) (A) (A) (A)
                 (A) (A) (A) (A) (A) (A) (A) (A) (A) (A) (A) (A)
                 (A) (A) (A) (A) (A) (A) (A) (A) (A) (A) (A) (A)
                 (A) (A) (A) (A) (A) (A) (A) (A) (A) (A) (A) (A)
                 (A) (A) (A) (A) (A) (A) (A) (A) (A) (A) (A) (A)
                 (A) (A) (A) (A) (A) (A) (A) (A) (A) (A) (A) (A)
                 (A) (A) (A) (A) (A) (A) (A) (A) (A) (A) (A) (A)
                 (A) (A) (A) (A) (A) (A) (A) (A) (A) (A) (A) (A)
                 (A) (A) (A) (A) (A) (A) (A) (A) (A) (A) (A) (A)
                 (A) (A) (A) (A) (A) (A) (A) (A) (A) (A) (A) (A)
                 (A) (A) (A) (A) (A) (A) (A) (A) (A) (A) (A) (A)
                 (A) (A) (A) (A) (A) (A) (A) (A) (A) (A) (A) (A)
                 (A) (A) (A) (A) (A) (A) (A) (A) (A) (A) (A) (A)
                 (A) (A) (A) (A) (A) (A) (A) (A) (A) (A) (A) (A)
                 (A) (A) (A) (A) (A) (A) (A) (A) (A) (A) (A) (A)
                 (A) (A) (A) (A) (A) (A) (A) (A) (A) (A) (A) (A)
                 (A) (A) (A) (A) (A) (A) (A) (A) (A) (A) (A) (A)
                 (A) (A) (A) (A) (A) (A) (A) (A) (A) (A) (A) (A)
                 (A) (A) (A) (A) (A) (A) (A) (A) (A) (A) (A) (A)
                 (A) (A) (A) (A) (A) (A) (A) (A) (A) (A) (A)
 The electronic state is 1-A.
 Alpha  occ. eigenvalues --  -20.54686 -20.52218 -15.60838 -15.58670 -11.37476
 Alpha  occ. eigenvalues --  -11.35731 -11.29984 -11.27832 -11.23983 -11.23525
 Alpha  occ. eigenvalues --   -1.40203  -1.37521  -1.24734  -1.23328  -1.05635
 Alpha  occ. eigenvalues --   -0.98832  -0.96138  -0.89111  -0.80868  -0.77252
 Alpha  occ. eigenvalues --   -0.73146  -0.67828  -0.66246  -0.65097  -0.63125
 Alpha  occ. eigenvalues --   -0.61777  -0.59877  -0.58524  -0.56562  -0.56135
 Alpha  occ. eigenvalues --   -0.55617  -0.54818  -0.52924  -0.52222  -0.49532
 Alpha  occ. eigenvalues --   -0.43864  -0.41554  -0.40995  -0.38662
 Alpha virt. eigenvalues --    0.02701   0.04069   0.04186   0.04420   0.05815
 Alpha virt. eigenvalues --    0.05990   0.06559   0.06694   0.07547   0.07956
 Alpha virt. eigenvalues --    0.09467   0.09643   0.11064   0.12299   0.13098
 Alpha virt. eigenvalues --    0.13861   0.14040   0.14276   0.14811   0.14974
 Alpha virt. eigenvalues --    0.15180   0.15562   0.16284   0.16829   0.17216
 Alpha virt. eigenvalues --    0.17659   0.18323   0.18772   0.19066   0.19272
 Alpha virt. eigenvalues --    0.19609   0.20235   0.21286   0.21687   0.22623
 Alpha virt. eigenvalues --    0.23331   0.24121   0.24684   0.25423   0.26581
 Alpha virt. eigenvalues --    0.27340   0.28094   0.28670   0.30030   0.30480
 Alpha virt. eigenvalues --    0.31097   0.31680   0.32598   0.33072   0.33576
 Alpha virt. eigenvalues --    0.34261   0.34633   0.35590   0.35998   0.36116
 Alpha virt. eigenvalues --    0.37102   0.38328   0.38407   0.38972   0.39797
 Alpha virt. eigenvalues --    0.40289   0.41155   0.42067   0.42315   0.42917
 Alpha virt. eigenvalues --    0.43635   0.44570   0.44897   0.45179   0.45564
 Alpha virt. eigenvalues --    0.46094   0.46931   0.47561   0.47998   0.49094
 Alpha virt. eigenvalues --    0.49952   0.50265   0.51034   0.51145   0.52141
 Alpha virt. eigenvalues --    0.52450   0.53486   0.54350   0.54638   0.55477
 Alpha virt. eigenvalues --    0.56299   0.56638   0.57396   0.58235   0.58795
 Alpha virt. eigenvalues --    0.59740   0.60159   0.61589   0.62090   0.62459
 Alpha virt. eigenvalues --    0.62758   0.63701   0.64277   0.64594   0.65038
 Alpha virt. eigenvalues --    0.65535   0.67081   0.67738   0.68275   0.69094
 Alpha virt. eigenvalues --    0.69281   0.69914   0.71228   0.71358   0.71793
 Alpha virt. eigenvalues --    0.72054   0.72493   0.73650   0.74051   0.75119
 Alpha virt. eigenvalues --    0.75502   0.77296   0.77679   0.79607   0.79771
 Alpha virt. eigenvalues --    0.80263   0.81762   0.82755   0.82924   0.83599
 Alpha virt. eigenvalues --    0.84550   0.85021   0.85377   0.87313   0.88788
 Alpha virt. eigenvalues --    0.89675   0.90743   0.91142   0.92714   0.93603
 Alpha virt. eigenvalues --    0.93847   0.95627   0.96154   0.97258   0.98711
 Alpha virt. eigenvalues --    0.99132   1.01139   1.02395   1.03688   1.04390
 Alpha virt. eigenvalues --    1.06673   1.07905   1.08738   1.10712   1.11258
 Alpha virt. eigenvalues --    1.12025   1.13661   1.14468   1.14536   1.15629
 Alpha virt. eigenvalues --    1.15814   1.18088   1.19360   1.20782   1.21610
 Alpha virt. eigenvalues --    1.22585   1.24288   1.26812   1.28047   1.31340
 Alpha virt. eigenvalues --    1.32397   1.33579   1.34284   1.35706   1.37439
 Alpha virt. eigenvalues --    1.38008   1.40594   1.41728   1.44820   1.47176
 Alpha virt. eigenvalues --    1.48746   1.51406   1.51587   1.52946   1.54866
 Alpha virt. eigenvalues --    1.55721   1.56508   1.61007   1.61723   1.63446
 Alpha virt. eigenvalues --    1.67442   1.68788   1.70891   1.71771   1.72492
 Alpha virt. eigenvalues --    1.73847   1.75826   1.77451   1.78959   1.79501
 Alpha virt. eigenvalues --    1.82589   1.83940   1.86978   1.87482   1.88136
 Alpha virt. eigenvalues --    1.88908   1.89165   1.89484   1.90853   1.92959
 Alpha virt. eigenvalues --    1.94574   1.97181   1.97265   1.99796   2.00269
 Alpha virt. eigenvalues --    2.03231   2.03855   2.06025   2.06944   2.07947
 Alpha virt. eigenvalues --    2.09757   2.10088   2.11338   2.12250   2.15222
 Alpha virt. eigenvalues --    2.18053   2.18588   2.19035   2.21137   2.22348
 Alpha virt. eigenvalues --    2.23373   2.25842   2.28619   2.29153   2.29992
 Alpha virt. eigenvalues --    2.30598   2.31344   2.34245   2.34379   2.35716
 Alpha virt. eigenvalues --    2.38161   2.39267   2.41203   2.42466   2.42605
 Alpha virt. eigenvalues --    2.44876   2.46214   2.48952   2.50826   2.51821
 Alpha virt. eigenvalues --    2.52580   2.54775   2.57817   2.59008   2.60841
 Alpha virt. eigenvalues --    2.62565   2.63863   2.64461   2.66340   2.68223
 Alpha virt. eigenvalues --    2.71274   2.73698   2.75094   2.78404   2.79342
 Alpha virt. eigenvalues --    2.81250   2.82343   2.84652   2.86526   2.88041
 Alpha virt. eigenvalues --    2.88788   2.90692   2.93595   2.95291   2.98044
 Alpha virt. eigenvalues --    2.99880   3.00888   3.03528   3.05221   3.07104
 Alpha virt. eigenvalues --    3.09379   3.13939   3.16868   3.20072   3.24898
 Alpha virt. eigenvalues --    3.26802   3.35995   3.45010   3.48209   3.57672
 Alpha virt. eigenvalues --    3.60986   3.67191   3.77080   3.81321   3.83156
 Alpha virt. eigenvalues --    3.85030   3.86799   3.95799   4.01817   4.06598
 Alpha virt. eigenvalues --    4.08867   4.13118   4.20494   4.21915
          Condensed to atoms (all electrons):
              1          2          3          4          5          6
     1  H    0.740515   0.390899  -0.089478  -0.048604  -0.089220   0.023142
     2  C    0.390899   4.522202   0.346730   0.341925   0.169885  -0.028804
     3  H   -0.089478   0.346730   1.064192  -0.062156   0.120087  -0.009069
     4  H   -0.048604   0.341925  -0.062156   0.739703  -0.084927   0.014448
     5  C   -0.089220   0.169885   0.120087  -0.084927   5.469078   0.211790
     6  O    0.023142  -0.028804  -0.009069   0.014448   0.211790   8.748279
     7  N    0.060076  -0.066138  -0.197778   0.042815   0.060784  -0.141514
     8  H   -0.004696  -0.064895   0.008846  -0.008696  -0.089240  -0.005862
     9  C   -0.021377   0.042326   0.008884   0.010604  -0.197308   0.102055
    10  H   -0.003355   0.004011   0.003673   0.000264   0.055424   0.010022
    11  C    0.006896  -0.022476  -0.009003  -0.002513  -0.047415  -0.033486
    12  H    0.000069   0.003895   0.001162  -0.000537   0.034676   0.002148
    13  H    0.000152  -0.003197  -0.001941   0.000284  -0.062508   0.009502
    14  H   -0.000559   0.007927   0.003603  -0.000855   0.030946  -0.006929
    15  C    0.004693  -0.018391  -0.032016   0.006240  -0.112545  -0.022731
    16  O   -0.000086   0.003556   0.002839   0.000321  -0.007545   0.000858
    17  N    0.000056   0.003935   0.002325   0.000027   0.009942  -0.000146
    18  H   -0.000120  -0.002094  -0.000275  -0.000094   0.002575  -0.000096
    19  C    0.000051   0.002060   0.000184   0.000141  -0.002886   0.000160
    20  H    0.000028   0.000412   0.000005   0.000055  -0.000685  -0.000013
    21  H    0.000003   0.000085   0.000009   0.000002  -0.000066   0.000031
    22  H    0.000003   0.000064  -0.000016   0.000003   0.000129  -0.000033
              7          8          9         10         11         12
     1  H    0.060076  -0.004696  -0.021377  -0.003355   0.006896   0.000069
     2  C   -0.066138  -0.064895   0.042326   0.004011  -0.022476   0.003895
     3  H   -0.197778   0.008846   0.008884   0.003673  -0.009003   0.001162
     4  H    0.042815  -0.008696   0.010604   0.000264  -0.002513  -0.000537
     5  C    0.060784  -0.089240  -0.197308   0.055424  -0.047415   0.034676
     6  O   -0.141514  -0.005862   0.102055   0.010022  -0.033486   0.002148
     7  N    7.740892   0.300865  -0.760419  -0.216509   0.151049  -0.088697
     8  H    0.300865   0.925952  -0.006442   0.016098   0.023441   0.002126
     9  C   -0.760419  -0.006442   7.761968   0.310049  -0.086049   0.145511
    10  H   -0.216509   0.016098   0.310049   1.166979   0.016249   0.076693
    11  C    0.151049   0.023441  -0.086049   0.016249   4.305806   0.247313
    12  H   -0.088697   0.002126   0.145511   0.076693   0.247313   1.086091
    13  H    0.063243   0.009234  -0.218841  -0.072843   0.329655  -0.122206
    14  H   -0.001371  -0.013923  -0.021920  -0.013568   0.375064  -0.167613
    15  C    0.408619  -0.121740  -0.998298  -0.227288   0.060481  -0.192927
    16  O   -0.059234   0.067816   0.062313  -0.003958   0.009499   0.005040
    17  N   -0.027131   0.000978   0.076512  -0.018783  -0.005760  -0.003695
    18  H    0.010119   0.006315  -0.117054   0.021190  -0.004810   0.007735
    19  C   -0.003236  -0.011363   0.000834  -0.008254  -0.002948  -0.016694
    20  H   -0.003835  -0.001872   0.028610   0.001905  -0.010678  -0.002612
    21  H    0.000306  -0.000222   0.009851  -0.001143  -0.005982   0.000131
    22  H    0.003012   0.000074  -0.042755  -0.003384   0.021901  -0.000955
             13         14         15         16         17         18
     1  H    0.000152  -0.000559   0.004693  -0.000086   0.000056  -0.000120
     2  C   -0.003197   0.007927  -0.018391   0.003556   0.003935  -0.002094
     3  H   -0.001941   0.003603  -0.032016   0.002839   0.002325  -0.000275
     4  H    0.000284  -0.000855   0.006240   0.000321   0.000027  -0.000094
     5  C   -0.062508   0.030946  -0.112545  -0.007545   0.009942   0.002575
     6  O    0.009502  -0.006929  -0.022731   0.000858  -0.000146  -0.000096
     7  N    0.063243  -0.001371   0.408619  -0.059234  -0.027131   0.010119
     8  H    0.009234  -0.013923  -0.121740   0.067816   0.000978   0.006315
     9  C   -0.218841  -0.021920  -0.998298   0.062313   0.076512  -0.117054
    10  H   -0.072843  -0.013568  -0.227288  -0.003958  -0.018783   0.021190
    11  C    0.329655   0.375064   0.060481   0.009499  -0.005760  -0.004810
    12  H   -0.122206  -0.167613  -0.192927   0.005040  -0.003695   0.007735
    13  H    1.311301  -0.230922   0.191798  -0.005658  -0.080155   0.010943
    14  H   -0.230922   0.988368   0.026205   0.000546   0.033348  -0.002891
    15  C    0.191798   0.026205   5.676061   0.249653   0.027309   0.066233
    16  O   -0.005658   0.000546   0.249653   8.727846  -0.203171   0.006525
    17  N   -0.080155   0.033348   0.027309  -0.203171   7.283145   0.207769
    18  H    0.010943  -0.002891   0.066233   0.006525   0.207769   1.041260
    19  C   -0.004899   0.008788  -0.158500   0.003305   0.336812  -0.144540
    20  H    0.002463  -0.000193  -0.030354  -0.001647  -0.021674  -0.004307
    21  H   -0.001190  -0.000328  -0.006468   0.007376  -0.033186   0.007674
    22  H    0.000179   0.001882   0.005147   0.012696  -0.065149   0.008631
             19         20         21         22
     1  H    0.000051   0.000028   0.000003   0.000003
     2  C    0.002060   0.000412   0.000085   0.000064
     3  H    0.000184   0.000005   0.000009  -0.000016
     4  H    0.000141   0.000055   0.000002   0.000003
     5  C   -0.002886  -0.000685  -0.000066   0.000129
     6  O    0.000160  -0.000013   0.000031  -0.000033
     7  N   -0.003236  -0.003835   0.000306   0.003012
     8  H   -0.011363  -0.001872  -0.000222   0.000074
     9  C    0.000834   0.028610   0.009851  -0.042755
    10  H   -0.008254   0.001905  -0.001143  -0.003384
    11  C   -0.002948  -0.010678  -0.005982   0.021901
    12  H   -0.016694  -0.002612   0.000131  -0.000955
    13  H   -0.004899   0.002463  -0.001190   0.000179
    14  H    0.008788  -0.000193  -0.000328   0.001882
    15  C   -0.158500  -0.030354  -0.006468   0.005147
    16  O    0.003305  -0.001647   0.007376   0.012696
    17  N    0.336812  -0.021674  -0.033186  -0.065149
    18  H   -0.144540  -0.004307   0.007674   0.008631
    19  C    4.146024   0.474493   0.327409   0.350518
    20  H    0.474493   0.959814  -0.114322  -0.133072
    21  H    0.327409  -0.114322   1.037800  -0.138879
    22  H    0.350518  -0.133072  -0.138879   1.085958
 Mulliken atomic charges:
              1
     1  H    0.030910
     2  C    0.366085
     3  H   -0.160806
     4  H    0.051551
     5  C    0.529028
     6  O   -0.873752
     7  N   -0.275917
     8  H   -0.032794
     9  C   -0.089054
    10  H   -0.113471
    11  C    0.683767
    12  H   -0.016655
    13  H   -0.124393
    14  H   -0.015605
    15  C    1.198820
    16  O   -0.878891
    17  N   -0.523307
    18  H   -0.120690
    19  C    0.702541
    20  H   -0.142521
    21  H   -0.088893
    22  H   -0.105954
 Sum of Mulliken atomic charges =   0.00000
 Mulliken charges with hydrogens summed into heavy atoms:
              1
     2  C    0.287740
     5  C    0.529028
     6  O   -0.873752
     7  N   -0.308712
     9  C   -0.202524
    11  C    0.527114
    15  C    1.198820
    16  O   -0.878891
    17  N   -0.643997
    19  C    0.365173
 Sum of Mulliken charges with hydrogens summed into heavy atoms =   0.00000
 Electronic spatial extent (au):  <R**2>=           1995.2159
 Charge=              0.0000 electrons
 Dipole moment (field-independent basis, Debye):
    X=              3.5242    Y=              0.3804    Z=              0.0826  Tot=              3.5456
 Quadrupole moment (field-independent basis, Debye-Ang):
   XX=            -57.8147   YY=            -64.7220   ZZ=            -61.0139
   XY=             14.8214   XZ=             -3.7413   YZ=              0.3492
 Traceless Quadrupole moment (field-independent basis, Debye-Ang):
   XX=              3.3688   YY=             -3.5385   ZZ=              0.1696
   XY=             14.8214   XZ=             -3.7413   YZ=              0.3492
 Octapole moment (field-independent basis, Debye-Ang**2):
  XXX=             54.2282  YYY=              4.3064  ZZZ=             -0.2641  XYY=              4.7915
  XXY=            -23.5125  XXZ=              4.5761  XZZ=             -0.3683  YZZ=              0.3990
  YYZ=             -1.2399  XYZ=             -3.0415
 Hexadecapole moment (field-independent basis, Debye-Ang**3):
 XXXX=          -1934.1207 YYYY=           -456.3477 ZZZZ=           -119.5855 XXXY=             89.2556
 XXXZ=            -16.2260 YYYX=             22.9823 YYYZ=             -3.2261 ZZZX=             -2.6220
 ZZZY=             -3.1164 XXYY=           -430.4367 XXZZ=           -353.6110 YYZZ=            -99.4518
 XXYZ=              3.9358 YYXZ=             -6.2997 ZZXY=             -0.3117
 N-N= 5.499094732062D+02 E-N=-2.255007903203D+03  KE= 4.920836912782D+02
 1\1\GINC-NODE010\SP\RMP2-FC\Aug-CC-pVDZ\C6H12N2O2\MANAGER\12-Feb-2017\
 0\\#SP MP2/aug-cc-pVDZ\\Single Point calculation at MP2\\0,1\H,0,-4.13
 48,-1.1847,-0.4313\C,0,-3.2798,-1.1995,0.2501\H,0,-2.8042,-2.1842,0.21
 08\H,0,-3.6656,-1.0351,1.2622\C,0,-2.3464,-0.0506,-0.1131\O,0,-2.7712,
 1.0872,-0.2919\N,0,-1.0339,-0.4014,-0.2407\H,0,-0.7367,-1.3422,-0.0007
 \C,0,0.0825,0.5207,-0.3741\H,0,0.1304,0.9022,-1.405\C,0,-0.0012,1.7196
 ,0.5939\H,0,0.05,1.3757,1.6326\H,0,0.8195,2.4255,0.4241\H,0,-0.9463,2.
 2403,0.44\C,0,1.3534,-0.3179,-0.0999\O,0,1.2877,-1.5135,0.1787\N,0,2.5
 266,0.3626,-0.175\H,0,2.5021,1.3401,-0.426\C,0,3.8198,-0.2641,0.0434\H
 ,0,3.6386,-1.3019,0.3241\H,0,4.4304,-0.2406,-0.8669\H,0,4.3658,0.2378,
 0.85\\Version=EM64L-G09RevA.02\State=1-A\HF=-492.9233577\MP2=-494.5249
 232\RMSD=4.808e-09\PG=C01 [X(C6H12N2O2)]\\@


 The number of Unix installations has grown to 10,
  with more expected.
                  -- The Unix Programmer's Manual,
                     2nd Edition, June, 1972.
 Job cpu time:  0 days 14 hours  0 minutes 40.1 seconds.
 File lengths (MBytes):  RWF=  10482 Int=      0 D2E=      0 Chk=      7 Scr=      2
 Normal termination of Gaussian 09 at Sun Feb 12 23:32:14 2017.
