 Entering Gaussian System, Link 0=g09
 Initial command:
 /home/steboss/Software/g09/l1.exe /home/steboss/projects/phi_psi_scan/alanine/MP2/165/5317/Gau-20295.inp -scrdir=/home/steboss/projects/phi_psi_scan/alanine/MP2/165/5317/
 Entering Link 1 = /home/steboss/Software/g09/l1.exe PID=     20307.
  
 Copyright (c) 1988,1990,1992,1993,1995,1998,2003,2009, Gaussian, Inc.
                  All Rights Reserved.
  
 This is part of the Gaussian(R) 09 program.  It is based on
 the Gaussian(R) 03 system (copyright 2003, Gaussian, Inc.),
 the Gaussian(R) 98 system (copyright 1998, Gaussian, Inc.),
 the Gaussian(R) 94 system (copyright 1995, Gaussian, Inc.),
 the Gaussian 92(TM) system (copyright 1992, Gaussian, Inc.),
 the Gaussian 90(TM) system (copyright 1990, Gaussian, Inc.),
 the Gaussian 88(TM) system (copyright 1988, Gaussian, Inc.),
 the Gaussian 86(TM) system (copyright 1986, Carnegie Mellon
 University), and the Gaussian 82(TM) system (copyright 1983,
 Carnegie Mellon University). Gaussian is a federally registered
 trademark of Gaussian, Inc.
  
 This software contains proprietary and confidential information,
 including trade secrets, belonging to Gaussian, Inc.
  
 This software is provided under written license and may be
 used, copied, transmitted, or stored only in accord with that
 written license.
  
 The following legend is applicable only to US Government
 contracts under FAR:
  
                    RESTRICTED RIGHTS LEGEND
  
 Use, reproduction and disclosure by the US Government is
 subject to restrictions as set forth in subparagraphs (a)
 and (c) of the Commercial Computer Software - Restricted
 Rights clause in FAR 52.227-19.
  
 Gaussian, Inc.
 340 Quinnipiac St., Bldg. 40, Wallingford CT 06492
  
  
 ---------------------------------------------------------------
 Warning -- This program may not be used in any manner that
 competes with the business of Gaussian, Inc. or will provide
 assistance to any competitor of Gaussian, Inc.  The licensee
 of this program is prohibited from giving any competitor of
 Gaussian, Inc. access to this program.  By using this program,
 the user acknowledges that Gaussian, Inc. is engaged in the
 business of creating and licensing software in the field of
 computational chemistry and represents and warrants to the
 licensee that it is not a competitor of Gaussian, Inc. and that
 it will not use this program in any manner prohibited above.
 ---------------------------------------------------------------
  

 Cite this work as:
 Gaussian 09, Revision A.02,
 M. J. Frisch, G. W. Trucks, H. B. Schlegel, G. E. Scuseria, 
 M. A. Robb, J. R. Cheeseman, G. Scalmani, V. Barone, B. Mennucci, 
 G. A. Petersson, H. Nakatsuji, M. Caricato, X. Li, H. P. Hratchian, 
 A. F. Izmaylov, J. Bloino, G. Zheng, J. L. Sonnenberg, M. Hada, 
 M. Ehara, K. Toyota, R. Fukuda, J. Hasegawa, M. Ishida, T. Nakajima, 
 Y. Honda, O. Kitao, H. Nakai, T. Vreven, J. A. Montgomery, Jr., 
 J. E. Peralta, F. Ogliaro, M. Bearpark, J. J. Heyd, E. Brothers, 
 K. N. Kudin, V. N. Staroverov, R. Kobayashi, J. Normand, 
 K. Raghavachari, A. Rendell, J. C. Burant, S. S. Iyengar, J. Tomasi, 
 M. Cossi, N. Rega, J. M. Millam, M. Klene, J. E. Knox, J. B. Cross, 
 V. Bakken, C. Adamo, J. Jaramillo, R. Gomperts, R. E. Stratmann, 
 O. Yazyev, A. J. Austin, R. Cammi, C. Pomelli, J. W. Ochterski, 
 R. L. Martin, K. Morokuma, V. G. Zakrzewski, G. A. Voth, 
 P. Salvador, J. J. Dannenberg, S. Dapprich, A. D. Daniels, 
 O. Farkas, J. B. Foresman, J. V. Ortiz, J. Cioslowski, 
 and D. J. Fox, Gaussian, Inc., Wallingford CT, 2009.
 
 ******************************************
 Gaussian 09:  EM64L-G09RevA.02 11-Jun-2009
                12-Feb-2017 
 ******************************************
 %chk=structure_315.chk
 %NProcShared=8
 Will use up to    8 processors via shared memory.
 -------------------
 #SP MP2/aug-cc-pVDZ
 -------------------
 1/38=1/1;
 2/12=2,17=6,18=5,40=1/2;
 3/5=16,7=10,11=9,16=1,25=1,30=1/1,2,3;
 4//1;
 5/5=2,38=5/2;
 8/10=1/1;
 9/16=-3/6;
 6/7=2,8=2,9=2,10=2/1;
 99/5=1,9=1/99;
 -------------------------------
 Single Point calculation at MP2
 -------------------------------
 Symbolic Z-matrix:
 Charge =  0 Multiplicity = 1
 H                    -3.6267   -1.6954    0.6145 
 C                    -2.9853   -1.5181   -0.2526 
 H                    -3.6386   -1.3979   -1.1238 
 H                    -2.346    -2.3925   -0.4117 
 C                    -2.2167   -0.2195   -0.0276 
 O                    -2.7705    0.7809    0.4042 
 N                    -0.8814   -0.2857   -0.3548 
 H                    -0.5923   -1.1054   -0.8723 
 C                     0.0696    0.8354   -0.3818 
 H                    -0.0504    1.412    -1.3067 
 C                    -0.0571    1.7889    0.8188 
 H                     0.0424    1.2452    1.7646 
 H                     0.7461    2.5304    0.7578 
 H                    -1.0232    2.2909    0.8139 
 C                     1.5078    0.2843   -0.4268 
 O                     2.3563    0.7798   -1.1565 
 N                     1.7566   -0.7412    0.4409 
 H                     1.0012   -1.0418    1.0416 
 C                     3.0813   -1.3061    0.6274 
 H                     3.7239   -0.894    -0.1519 
 H                     3.4972   -1.0404    1.6071 
 H                     3.057    -2.3979    0.5385 
 
                          Input orientation:                          
 ---------------------------------------------------------------------
 Center     Atomic      Atomic             Coordinates (Angstroms)
 Number     Number       Type             X           Y           Z
 ---------------------------------------------------------------------
      1          1           0       -3.626700   -1.695400    0.614500
      2          6           0       -2.985300   -1.518100   -0.252600
      3          1           0       -3.638600   -1.397900   -1.123800
      4          1           0       -2.346000   -2.392500   -0.411700
      5          6           0       -2.216700   -0.219500   -0.027600
      6          8           0       -2.770500    0.780900    0.404200
      7          7           0       -0.881400   -0.285700   -0.354800
      8          1           0       -0.592300   -1.105400   -0.872300
      9          6           0        0.069600    0.835400   -0.381800
     10          1           0       -0.050400    1.412000   -1.306700
     11          6           0       -0.057100    1.788900    0.818800
     12          1           0        0.042400    1.245200    1.764600
     13          1           0        0.746100    2.530400    0.757800
     14          1           0       -1.023200    2.290900    0.813900
     15          6           0        1.507800    0.284300   -0.426800
     16          8           0        2.356300    0.779800   -1.156500
     17          7           0        1.756600   -0.741200    0.440900
     18          1           0        1.001200   -1.041800    1.041600
     19          6           0        3.081300   -1.306100    0.627400
     20          1           0        3.723900   -0.894000   -0.151900
     21          1           0        3.497200   -1.040400    1.607100
     22          1           0        3.057000   -2.397900    0.538500
 ---------------------------------------------------------------------
                    Distance matrix (angstroms):
                    1          2          3          4          5
     1  H    0.000000
     2  C    1.093020   0.000000
     3  H    1.763614   1.095554   0.000000
     4  H    1.783039   1.094803   1.779643   0.000000
     5  C    2.139783   1.525691   2.147576   2.210471   0.000000
     6  O    2.628567   2.400610   2.799205   3.303992   1.222271
     7  N    3.234729   2.440420   3.070912   2.566495   1.376397
     8  H    3.430198   2.506152   3.070627   2.223565   2.033965
     9  C    4.589139   3.858506   4.391918   4.031793   2.542723
    10  H    5.112423   4.279048   4.561159   4.532662   2.998457
    11  C    4.992407   4.545163   5.172672   4.923139   3.068214
    12  H    4.840677   4.568576   5.373881   4.865552   3.234325
    13  H    6.082705   5.597732   6.180417   5.929904   4.117886
    14  H    4.765350   4.415398   4.919578   5.018579   2.904251
    15  C    5.600590   4.844269   5.459033   4.692255   3.779560
    16  O    6.712626   5.884732   6.378266   5.721000   4.815116
    17  N    5.469968   4.854908   5.655769   4.503892   4.034697
    18  H    4.693300   4.218293   5.132593   3.891043   3.489161
    19  C    6.719299   6.133757   6.944940   5.631659   5.447800
    20  H    7.433770   6.738917   7.443448   6.257530   5.980061
    21  H    7.222481   6.760879   7.648873   6.328247   5.999564
    22  H    6.720947   6.157051   6.970961   5.485920   5.733917
                    6          7          8          9         10
     6  O    0.000000
     7  N    2.298351   0.000000
     8  H    3.151529   1.011580   0.000000
     9  C    2.947361   1.470372   2.108413   0.000000
    10  H    3.274815   2.116332   2.611448   1.096498   0.000000
    11  C    2.924123   2.522057   3.394588   1.538394   2.158668
    12  H    3.158903   2.772890   3.589068   2.185340   3.077226
    13  H    3.943635   3.437594   4.203282   2.151596   2.479393
    14  H    2.345423   2.832814   3.816255   2.177703   2.493140
    15  C    4.386459   2.457308   2.557373   1.540829   2.115164
    16  O    5.359092   3.501530   3.511266   2.415005   2.492878
    17  N    4.776272   2.792788   2.715597   2.451218   3.309928
    18  H    4.237244   2.462885   2.491245   2.533343   3.555490
    19  C    6.216828   4.208197   3.972999   3.830776   4.575626
    20  H    6.729916   4.649730   4.381010   4.049393   4.571273
    21  H    6.636879   4.857032   4.782851   4.384380   5.204802
    22  H    6.639470   4.557452   4.120474   4.497304   5.251289
                   11         12         13         14         15
    11  C    0.000000
    12  H    1.095467   0.000000
    13  H    1.094839   1.777802   0.000000
    14  H    1.088750   1.769978   1.786317   0.000000
    15  C    2.502849   2.805880   2.651118   3.460020   0.000000
    16  O    3.277895   3.755470   3.053177   4.193676   1.223901
    17  N    3.135877   2.938783   3.438736   4.130381   1.366183
    18  H    3.030264   2.583098   3.592524   3.906012   2.042396
    19  C    4.411940   4.127623   4.493205   5.460779   2.473179
    20  H    4.736684   4.669324   4.628322   5.797527   2.524888
    21  H    4.610792   4.145409   4.586990   5.671044   3.138358
    22  H    5.225465   4.885009   5.447613   6.221633   3.244383
                   16         17         18         19         20
    16  O    0.000000
    17  N    2.285775   0.000000
    18  H    3.160090   1.010856   0.000000
    19  C    2.838821   1.452145   2.137342   0.000000
    20  H    2.383518   2.060347   2.976471   1.090903   0.000000
    21  H    3.500324   2.116419   2.559259   1.096987   1.779581
    22  H    3.669030   2.108369   2.513649   1.095683   1.784131
                   21         22
    21  H    0.000000
    22  H    1.782832   0.000000
 Stoichiometry    C6H12N2O2
 Framework group  C1[X(C6H12N2O2)]
 Deg. of freedom    60
 Full point group                 C1      NOp   1
 Largest Abelian subgroup         C1      NOp   1
 Largest concise Abelian subgroup C1      NOp   1
                         Standard orientation:                         
 ---------------------------------------------------------------------
 Center     Atomic      Atomic             Coordinates (Angstroms)
 Number     Number       Type             X           Y           Z
 ---------------------------------------------------------------------
      1          1           0       -3.626712   -1.695400    0.614496
      2          6           0       -2.985312   -1.518100   -0.252604
      3          1           0       -3.638612   -1.397900   -1.123804
      4          1           0       -2.346012   -2.392500   -0.411704
      5          6           0       -2.216713   -0.219500   -0.027604
      6          8           0       -2.770513    0.780900    0.404196
      7          7           0       -0.881413   -0.285699   -0.354804
      8          1           0       -0.592312   -1.105399   -0.872304
      9          6           0        0.069587    0.835401   -0.381804
     10          1           0       -0.050413    1.412001   -1.306704
     11          6           0       -0.057114    1.788901    0.818796
     12          1           0        0.042387    1.245201    1.764596
     13          1           0        0.746086    2.530402    0.757796
     14          1           0       -1.023214    2.290901    0.813896
     15          6           0        1.507787    0.284302   -0.426804
     16          8           0        2.356287    0.779802   -1.156504
     17          7           0        1.756588   -0.741198    0.440896
     18          1           0        1.001188   -1.041798    1.041596
     19          6           0        3.081288   -1.306097    0.627396
     20          1           0        3.723888   -0.893997   -0.151904
     21          1           0        3.497188   -1.040397    1.607096
     22          1           0        3.056988   -2.397897    0.538496
 ---------------------------------------------------------------------
 Rotational constants (GHZ):      2.3077237      0.7196300      0.6281147
 Standard basis: Aug-CC-pVDZ (5D, 7F)
 There are   338 symmetry adapted basis functions of A   symmetry.
 Integral buffers will be    131072 words long.
 Raffenetti 1 integral format.
 Two-electron integral symmetry is turned on.
   338 basis functions,   562 primitive gaussians,   358 cartesian basis functions
    39 alpha electrons       39 beta electrons
       nuclear repulsion energy       550.9936480851 Hartrees.
 NAtoms=   22 NActive=   22 NUniq=   22 SFac= 7.50D-01 NAtFMM=   80 NAOKFM=F Big=F
 One-electron integrals computed using PRISM.
 NBasis=   338 RedAO= T  NBF=   338
 NBsUse=   338 1.00D-06 NBFU=   338
 Harris functional with IExCor=  205 diagonalized for initial guess.
 ExpMin= 2.97D-02 ExpMax= 1.17D+04 ExpMxC= 4.01D+02 IAcc=3 IRadAn=         0 AccDes= 0.00D+00
 HarFok:  IExCor=  205 AccDes= 0.00D+00 IRadAn=         0 IDoV= 1
 ScaDFX=  1.000000  1.000000  1.000000  1.000000
 FoFCou: FMM=F IPFlag=           0 FMFlag=      100000 FMFlg1=           0
         NFxFlg=           0 DoJE=T BraDBF=F KetDBF=T FulRan=T
         Omega=  0.000000  0.000000  1.000000  0.000000  0.000000 ICntrl=     500 IOpCl=  0
         NMat0=    1 NMatS0=    1 NMatT0=    0 NMatD0=    1 NMtDS0=    0 NMtDT0=    0
         I1Cent=           4 NGrid=           0.
 Petite list used in FoFCou.
 Initial guess orbital symmetries:
       Occupied  (A) (A) (A) (A) (A) (A) (A) (A) (A) (A) (A) (A)
                 (A) (A) (A) (A) (A) (A) (A) (A) (A) (A) (A) (A)
                 (A) (A) (A) (A) (A) (A) (A) (A) (A) (A) (A) (A)
                 (A) (A) (A)
       Virtual   (A) (A) (A) (A) (A) (A) (A) (A) (A) (A) (A) (A)
                 (A) (A) (A) (A) (A) (A) (A) (A) (A) (A) (A) (A)
                 (A) (A) (A) (A) (A) (A) (A) (A) (A) (A) (A) (A)
                 (A) (A) (A) (A) (A) (A) (A) (A) (A) (A) (A) (A)
                 (A) (A) (A) (A) (A) (A) (A) (A) (A) (A) (A) (A)
                 (A) (A) (A) (A) (A) (A) (A) (A) (A) (A) (A) (A)
                 (A) (A) (A) (A) (A) (A) (A) (A) (A) (A) (A) (A)
                 (A) (A) (A) (A) (A) (A) (A) (A) (A) (A) (A) (A)
                 (A) (A) (A) (A) (A) (A) (A) (A) (A) (A) (A) (A)
                 (A) (A) (A) (A) (A) (A) (A) (A) (A) (A) (A) (A)
                 (A) (A) (A) (A) (A) (A) (A) (A) (A) (A) (A) (A)
                 (A) (A) (A) (A) (A) (A) (A) (A) (A) (A) (A) (A)
                 (A) (A) (A) (A) (A) (A) (A) (A) (A) (A) (A) (A)
                 (A) (A) (A) (A) (A) (A) (A) (A) (A) (A) (A) (A)
                 (A) (A) (A) (A) (A) (A) (A) (A) (A) (A) (A) (A)
                 (A) (A) (A) (A) (A) (A) (A) (A) (A) (A) (A) (A)
                 (A) (A) (A) (A) (A) (A) (A) (A) (A) (A) (A) (A)
                 (A) (A) (A) (A) (A) (A) (A) (A) (A) (A) (A) (A)
                 (A) (A) (A) (A) (A) (A) (A) (A) (A) (A) (A) (A)
                 (A) (A) (A) (A) (A) (A) (A) (A) (A) (A) (A) (A)
                 (A) (A) (A) (A) (A) (A) (A) (A) (A) (A) (A) (A)
                 (A) (A) (A) (A) (A) (A) (A) (A) (A) (A) (A) (A)
                 (A) (A) (A) (A) (A) (A) (A) (A) (A) (A) (A) (A)
                 (A) (A) (A) (A) (A) (A) (A) (A) (A) (A) (A) (A)
                 (A) (A) (A) (A) (A) (A) (A) (A) (A) (A) (A)
 The electronic state of the initial guess is 1-A.
 Requested convergence on RMS density matrix=1.00D-08 within 128 cycles.
 Requested convergence on MAX density matrix=1.00D-06.
 Requested convergence on             energy=1.00D-06.
 No special actions if energy rises.
 Initial convergence to 1.0D-05 achieved.  Increase integral accuracy.
 SCF Done:  E(RHF) =  -492.917425058     A.U. after   14 cycles
             Convg  =    0.6563D-08             -V/T =  2.0017
 ExpMin= 2.97D-02 ExpMax= 1.17D+04 ExpMxC= 4.01D+02 IAcc=3 IRadAn=         5 AccDes= 0.00D+00
 HarFok:  IExCor=  205 AccDes= 0.00D+00 IRadAn=         5 IDoV=-2
 ScaDFX=  1.000000  1.000000  1.000000  1.000000
 Range of M.O.s used for correlation:    11   338
 NBasis=   338 NAE=    39 NBE=    39 NFC=    10 NFV=     0
 NROrb=    328 NOA=    29 NOB=    29 NVA=   299 NVB=   299

 **** Warning!!: The largest alpha MO coefficient is  0.74332566D+02

 Disk-based method using OVN memory for 29 occupieds at a time.
 Estimated scratch disk usage=  1380020421 words.
 Actual    scratch disk usage=  1367304541 words.
 JobTyp=1 Pass  1:  I=   1 to  29 NPSUse=  8 ParTrn=T ParDer=T DoDerP=F.
 Spin components of T(2) and E(2):
     alpha-alpha T2 =       0.6797984992D-01 E2=     -0.2058282763D+00
     alpha-beta  T2 =       0.3768280075D+00 E2=     -0.1190371368D+01
     beta-beta   T2 =       0.6797984992D-01 E2=     -0.2058282763D+00
 ANorm=    0.1229954352D+01
 E2 =    -0.1602027920D+01 EUMP2 =    -0.49451945297797D+03

 **********************************************************************

            Population analysis using the SCF density.

 **********************************************************************

 Orbital symmetries:
       Occupied  (A) (A) (A) (A) (A) (A) (A) (A) (A) (A) (A) (A)
                 (A) (A) (A) (A) (A) (A) (A) (A) (A) (A) (A) (A)
                 (A) (A) (A) (A) (A) (A) (A) (A) (A) (A) (A) (A)
                 (A) (A) (A)
       Virtual   (A) (A) (A) (A) (A) (A) (A) (A) (A) (A) (A) (A)
                 (A) (A) (A) (A) (A) (A) (A) (A) (A) (A) (A) (A)
                 (A) (A) (A) (A) (A) (A) (A) (A) (A) (A) (A) (A)
                 (A) (A) (A) (A) (A) (A) (A) (A) (A) (A) (A) (A)
                 (A) (A) (A) (A) (A) (A) (A) (A) (A) (A) (A) (A)
                 (A) (A) (A) (A) (A) (A) (A) (A) (A) (A) (A) (A)
                 (A) (A) (A) (A) (A) (A) (A) (A) (A) (A) (A) (A)
                 (A) (A) (A) (A) (A) (A) (A) (A) (A) (A) (A) (A)
                 (A) (A) (A) (A) (A) (A) (A) (A) (A) (A) (A) (A)
                 (A) (A) (A) (A) (A) (A) (A) (A) (A) (A) (A) (A)
                 (A) (A) (A) (A) (A) (A) (A) (A) (A) (A) (A) (A)
                 (A) (A) (A) (A) (A) (A) (A) (A) (A) (A) (A) (A)
                 (A) (A) (A) (A) (A) (A) (A) (A) (A) (A) (A) (A)
                 (A) (A) (A) (A) (A) (A) (A) (A) (A) (A) (A) (A)
                 (A) (A) (A) (A) (A) (A) (A) (A) (A) (A) (A) (A)
                 (A) (A) (A) (A) (A) (A) (A) (A) (A) (A) (A) (A)
                 (A) (A) (A) (A) (A) (A) (A) (A) (A) (A) (A) (A)
                 (A) (A) (A) (A) (A) (A) (A) (A) (A) (A) (A) (A)
                 (A) (A) (A) (A) (A) (A) (A) (A) (A) (A) (A) (A)
                 (A) (A) (A) (A) (A) (A) (A) (A) (A) (A) (A) (A)
                 (A) (A) (A) (A) (A) (A) (A) (A) (A) (A) (A) (A)
                 (A) (A) (A) (A) (A) (A) (A) (A) (A) (A) (A) (A)
                 (A) (A) (A) (A) (A) (A) (A) (A) (A) (A) (A) (A)
                 (A) (A) (A) (A) (A) (A) (A) (A) (A) (A) (A) (A)
                 (A) (A) (A) (A) (A) (A) (A) (A) (A) (A) (A)
 The electronic state is 1-A.
 Alpha  occ. eigenvalues --  -20.53824 -20.53723 -15.60879 -15.60183 -11.37347
 Alpha  occ. eigenvalues --  -11.36547 -11.29735 -11.27444 -11.25519 -11.23149
 Alpha  occ. eigenvalues --   -1.39421  -1.38905  -1.25563  -1.23054  -1.06052
 Alpha  occ. eigenvalues --   -0.99702  -0.96211  -0.88740  -0.79983  -0.78215
 Alpha  occ. eigenvalues --   -0.73386  -0.68799  -0.67525  -0.63774  -0.63010
 Alpha  occ. eigenvalues --   -0.62299  -0.59839  -0.59769  -0.57188  -0.56435
 Alpha  occ. eigenvalues --   -0.55361  -0.54396  -0.53262  -0.51842  -0.50585
 Alpha  occ. eigenvalues --   -0.44132  -0.41818  -0.40790  -0.39596
 Alpha virt. eigenvalues --    0.02328   0.03715   0.04305   0.04548   0.05568
 Alpha virt. eigenvalues --    0.06062   0.06233   0.06833   0.07020   0.08055
 Alpha virt. eigenvalues --    0.08409   0.08924   0.11022   0.11866   0.12901
 Alpha virt. eigenvalues --    0.13710   0.14058   0.14484   0.14603   0.14869
 Alpha virt. eigenvalues --    0.15333   0.15903   0.16318   0.16792   0.17233
 Alpha virt. eigenvalues --    0.17475   0.17626   0.18234   0.18436   0.18907
 Alpha virt. eigenvalues --    0.19290   0.20094   0.20466   0.20811   0.21655
 Alpha virt. eigenvalues --    0.23050   0.23553   0.24901   0.25406   0.26104
 Alpha virt. eigenvalues --    0.26455   0.28027   0.28097   0.30145   0.30824
 Alpha virt. eigenvalues --    0.30989   0.32080   0.32400   0.32793   0.33178
 Alpha virt. eigenvalues --    0.33978   0.34915   0.35194   0.35549   0.36244
 Alpha virt. eigenvalues --    0.36791   0.37766   0.38397   0.39017   0.39893
 Alpha virt. eigenvalues --    0.40184   0.41344   0.41463   0.42002   0.42477
 Alpha virt. eigenvalues --    0.43278   0.43591   0.43728   0.44866   0.45314
 Alpha virt. eigenvalues --    0.46289   0.46999   0.47233   0.47738   0.48217
 Alpha virt. eigenvalues --    0.49457   0.50057   0.50722   0.50898   0.51447
 Alpha virt. eigenvalues --    0.52375   0.53196   0.54151   0.54354   0.55420
 Alpha virt. eigenvalues --    0.55820   0.55946   0.57476   0.58115   0.59369
 Alpha virt. eigenvalues --    0.59680   0.60791   0.61038   0.61524   0.62904
 Alpha virt. eigenvalues --    0.63213   0.63413   0.63590   0.64428   0.65029
 Alpha virt. eigenvalues --    0.65256   0.65905   0.66210   0.68033   0.68234
 Alpha virt. eigenvalues --    0.69254   0.69379   0.70286   0.70872   0.71102
 Alpha virt. eigenvalues --    0.71643   0.72522   0.73423   0.74277   0.75199
 Alpha virt. eigenvalues --    0.75979   0.76996   0.77809   0.78083   0.78372
 Alpha virt. eigenvalues --    0.79964   0.81036   0.81182   0.82013   0.83685
 Alpha virt. eigenvalues --    0.84426   0.85501   0.85667   0.87284   0.88352
 Alpha virt. eigenvalues --    0.88549   0.90574   0.91472   0.91947   0.93923
 Alpha virt. eigenvalues --    0.94127   0.95559   0.97271   0.97895   0.98678
 Alpha virt. eigenvalues --    0.99674   1.00414   1.00979   1.01725   1.04870
 Alpha virt. eigenvalues --    1.05774   1.06945   1.07203   1.09318   1.11221
 Alpha virt. eigenvalues --    1.12165   1.12742   1.13416   1.15595   1.16468
 Alpha virt. eigenvalues --    1.17192   1.18151   1.19202   1.19906   1.21126
 Alpha virt. eigenvalues --    1.22801   1.23200   1.24671   1.27753   1.28091
 Alpha virt. eigenvalues --    1.30752   1.33066   1.34641   1.36390   1.38964
 Alpha virt. eigenvalues --    1.40738   1.41124   1.42919   1.43724   1.46061
 Alpha virt. eigenvalues --    1.48046   1.48264   1.50818   1.51353   1.52738
 Alpha virt. eigenvalues --    1.54948   1.57468   1.58491   1.60684   1.63300
 Alpha virt. eigenvalues --    1.67277   1.70062   1.70633   1.71463   1.72363
 Alpha virt. eigenvalues --    1.73028   1.74090   1.75304   1.78391   1.80748
 Alpha virt. eigenvalues --    1.83080   1.84249   1.85779   1.87490   1.88043
 Alpha virt. eigenvalues --    1.88828   1.89278   1.89979   1.91965   1.93175
 Alpha virt. eigenvalues --    1.95238   1.96452   1.98947   1.99952   2.00496
 Alpha virt. eigenvalues --    2.02454   2.03697   2.04379   2.07195   2.09659
 Alpha virt. eigenvalues --    2.10259   2.10731   2.12482   2.14302   2.15258
 Alpha virt. eigenvalues --    2.16590   2.17141   2.19834   2.20657   2.22772
 Alpha virt. eigenvalues --    2.23380   2.26042   2.27185   2.28712   2.29929
 Alpha virt. eigenvalues --    2.31158   2.32795   2.33529   2.34699   2.37041
 Alpha virt. eigenvalues --    2.38610   2.38793   2.39645   2.42388   2.44008
 Alpha virt. eigenvalues --    2.45859   2.47463   2.49854   2.51150   2.51374
 Alpha virt. eigenvalues --    2.53772   2.55083   2.56773   2.57383   2.60515
 Alpha virt. eigenvalues --    2.62862   2.63450   2.64512   2.67454   2.68400
 Alpha virt. eigenvalues --    2.71755   2.74460   2.75425   2.78183   2.80396
 Alpha virt. eigenvalues --    2.80922   2.82309   2.84498   2.85660   2.89057
 Alpha virt. eigenvalues --    2.89642   2.92415   2.93610   2.97105   2.98403
 Alpha virt. eigenvalues --    2.99549   3.00594   3.02639   3.04564   3.05863
 Alpha virt. eigenvalues --    3.11082   3.16556   3.17300   3.20729   3.24453
 Alpha virt. eigenvalues --    3.28324   3.32064   3.41303   3.45045   3.55138
 Alpha virt. eigenvalues --    3.63073   3.64637   3.75749   3.81872   3.82869
 Alpha virt. eigenvalues --    3.83544   3.87656   3.93304   3.94523   3.98754
 Alpha virt. eigenvalues --    4.05304   4.06880   4.19325   4.24681
          Condensed to atoms (all electrons):
              1          2          3          4          5          6
     1  H    0.760088   0.375625  -0.052942  -0.095885  -0.083644   0.026365
     2  C    0.375625   4.520424   0.342746   0.351749   0.169927  -0.035549
     3  H   -0.052942   0.342746   0.734483  -0.074076  -0.059019   0.011393
     4  H   -0.095885   0.351749  -0.074076   1.107041   0.092754  -0.007844
     5  C   -0.083644   0.169927  -0.059019   0.092754   5.434328   0.196864
     6  O    0.026365  -0.035549   0.011393  -0.007844   0.196864   8.712822
     7  N    0.050305  -0.056510   0.051363  -0.193027   0.083442  -0.126744
     8  H   -0.004845  -0.070237  -0.007880   0.007961  -0.094046   0.001448
     9  C    0.000721   0.070399  -0.006849  -0.011886  -0.271339   0.111759
    10  H    0.000468   0.000359  -0.003838   0.000308  -0.027482   0.013739
    11  C    0.000658  -0.015632   0.004543  -0.004230  -0.031292  -0.020196
    12  H   -0.000584   0.000895   0.000083   0.000345  -0.015139   0.017700
    13  H    0.000338  -0.002279   0.000141  -0.001480  -0.052007   0.007022
    14  H   -0.000785   0.007840   0.000699   0.002421   0.078697  -0.060284
    15  C    0.001117  -0.025958   0.005042  -0.016506  -0.072956  -0.007341
    16  O   -0.000036  -0.000946  -0.000066  -0.000068   0.004191   0.000045
    17  N    0.000639  -0.003846  -0.000646   0.001084  -0.004127  -0.003972
    18  H    0.000334   0.003947   0.000535  -0.002230  -0.006029  -0.000515
    19  C    0.000124  -0.003699  -0.000132  -0.001236   0.000229  -0.000893
    20  H    0.000032  -0.000125   0.000002  -0.000119  -0.001806  -0.000017
    21  H   -0.000014  -0.000092  -0.000009   0.000173   0.000059  -0.000144
    22  H    0.000025  -0.000168   0.000022  -0.000427   0.001647   0.000085
              7          8          9         10         11         12
     1  H    0.050305  -0.004845   0.000721   0.000468   0.000658  -0.000584
     2  C   -0.056510  -0.070237   0.070399   0.000359  -0.015632   0.000895
     3  H    0.051363  -0.007880  -0.006849  -0.003838   0.004543   0.000083
     4  H   -0.193027   0.007961  -0.011886   0.000308  -0.004230   0.000345
     5  C    0.083442  -0.094046  -0.271339  -0.027482  -0.031292  -0.015139
     6  O   -0.126744   0.001448   0.111759   0.013739  -0.020196   0.017700
     7  N    8.003466   0.276685  -0.980173  -0.093454   0.114613  -0.100128
     8  H    0.276685   1.063196  -0.093214   0.004480  -0.013871  -0.008197
     9  C   -0.980173  -0.093214   8.204821  -0.152944  -0.008958   0.053521
    10  H   -0.093454   0.004480  -0.152944   1.319368   0.036104   0.081427
    11  C    0.114613  -0.013871  -0.008958   0.036104   4.252032   0.262694
    12  H   -0.100128  -0.008197   0.053521   0.081427   0.262694   1.141167
    13  H    0.112345   0.002870  -0.271062  -0.048956   0.413159  -0.161347
    14  H   -0.039168  -0.003546   0.056597  -0.025615   0.285151  -0.169500
    15  C    0.167730   0.006228  -0.602163   0.089776  -0.086464  -0.002887
    16  O   -0.030324   0.002462   0.016297   0.030973   0.032607  -0.006690
    17  N   -0.005224   0.010526  -0.047688   0.023955   0.071104  -0.021724
    18  H    0.001296  -0.010398  -0.020763  -0.004527  -0.026814  -0.002440
    19  C    0.014484   0.005619  -0.116827   0.010096  -0.004915   0.004909
    20  H    0.001638   0.000621   0.002039   0.004196  -0.010847   0.002316
    21  H   -0.002910  -0.002258   0.004306  -0.000452   0.009269   0.000480
    22  H    0.008859   0.001957  -0.018732  -0.001684  -0.000520  -0.002494
             13         14         15         16         17         18
     1  H    0.000338  -0.000785   0.001117  -0.000036   0.000639   0.000334
     2  C   -0.002279   0.007840  -0.025958  -0.000946  -0.003846   0.003947
     3  H    0.000141   0.000699   0.005042  -0.000066  -0.000646   0.000535
     4  H   -0.001480   0.002421  -0.016506  -0.000068   0.001084  -0.002230
     5  C   -0.052007   0.078697  -0.072956   0.004191  -0.004127  -0.006029
     6  O    0.007022  -0.060284  -0.007341   0.000045  -0.003972  -0.000515
     7  N    0.112345  -0.039168   0.167730  -0.030324  -0.005224   0.001296
     8  H    0.002870  -0.003546   0.006228   0.002462   0.010526  -0.010398
     9  C   -0.271062   0.056597  -0.602163   0.016297  -0.047688  -0.020763
    10  H   -0.048956  -0.025615   0.089776   0.030973   0.023955  -0.004527
    11  C    0.413159   0.285151  -0.086464   0.032607   0.071104  -0.026814
    12  H   -0.161347  -0.169500  -0.002887  -0.006690  -0.021724  -0.002440
    13  H    1.187716  -0.232203   0.068123   0.019386   0.004263   0.005714
    14  H   -0.232203   1.086232  -0.001190  -0.000168   0.016730  -0.004942
    15  C    0.068123  -0.001190   5.429389   0.169901   0.122462  -0.081486
    16  O    0.019386  -0.000168   0.169901   8.707645  -0.110007   0.009212
    17  N    0.004263   0.016730   0.122462  -0.110007   7.134872   0.280129
    18  H    0.005714  -0.004942  -0.081486   0.009212   0.280129   1.012095
    19  C    0.001735   0.001983  -0.001479  -0.018223   0.222836  -0.106386
    20  H   -0.001419  -0.000361   0.021329  -0.014138  -0.046696  -0.006284
    21  H   -0.000668   0.000996  -0.038570   0.004630   0.012296  -0.004611
    22  H    0.000541   0.000113  -0.007428   0.008628  -0.057415   0.015565
             19         20         21         22
     1  H    0.000124   0.000032  -0.000014   0.000025
     2  C   -0.003699  -0.000125  -0.000092  -0.000168
     3  H   -0.000132   0.000002  -0.000009   0.000022
     4  H   -0.001236  -0.000119   0.000173  -0.000427
     5  C    0.000229  -0.001806   0.000059   0.001647
     6  O   -0.000893  -0.000017  -0.000144   0.000085
     7  N    0.014484   0.001638  -0.002910   0.008859
     8  H    0.005619   0.000621  -0.002258   0.001957
     9  C   -0.116827   0.002039   0.004306  -0.018732
    10  H    0.010096   0.004196  -0.000452  -0.001684
    11  C   -0.004915  -0.010847   0.009269  -0.000520
    12  H    0.004909   0.002316   0.000480  -0.002494
    13  H    0.001735  -0.001419  -0.000668   0.000541
    14  H    0.001983  -0.000361   0.000996   0.000113
    15  C   -0.001479   0.021329  -0.038570  -0.007428
    16  O   -0.018223  -0.014138   0.004630   0.008628
    17  N    0.222836  -0.046696   0.012296  -0.057415
    18  H   -0.106386  -0.006284  -0.004611   0.015565
    19  C    4.117846   0.464206   0.330937   0.351358
    20  H    0.464206   0.978613  -0.099617  -0.152543
    21  H    0.330937  -0.099617   1.015662  -0.147741
    22  H    0.351358  -0.152543  -0.147741   1.113194
 Mulliken atomic charges:
              1
     1  H    0.021894
     2  C    0.371129
     3  H    0.054407
     4  H   -0.154822
     5  C    0.656747
     6  O   -0.835745
     7  N   -0.258562
     8  H   -0.075562
     9  C    0.082137
    10  H   -0.256298
    11  C    0.741807
    12  H   -0.074407
    13  H   -0.051930
    14  H    0.000302
    15  C    0.863328
    16  O   -0.825312
    17  N   -0.599550
    18  H   -0.051403
    19  C    0.727428
    20  H   -0.141020
    21  H   -0.081725
    22  H   -0.112843
 Sum of Mulliken atomic charges =   0.00000
 Mulliken charges with hydrogens summed into heavy atoms:
              1
     2  C    0.292608
     5  C    0.656747
     6  O   -0.835745
     7  N   -0.334124
     9  C   -0.174161
    11  C    0.615772
    15  C    0.863328
    16  O   -0.825312
    17  N   -0.650953
    19  C    0.391840
 Sum of Mulliken charges with hydrogens summed into heavy atoms =   0.00000
 Electronic spatial extent (au):  <R**2>=           1894.7046
 Charge=              0.0000 electrons
 Dipole moment (field-independent basis, Debye):
    X=             -0.0773    Y=             -4.6126    Z=              1.1821  Tot=              4.7623
 Quadrupole moment (field-independent basis, Debye-Ang):
   XX=            -71.9603   YY=            -58.5784   ZZ=            -62.2134
   XY=              2.1778   XZ=             10.4556   YZ=              1.0317
 Traceless Quadrupole moment (field-independent basis, Debye-Ang):
   XX=             -7.7096   YY=              5.6723   ZZ=              2.0373
   XY=              2.1778   XZ=             10.4556   YZ=              1.0317
 Octapole moment (field-independent basis, Debye-Ang**2):
  XXX=             12.0686  YYY=             -3.0861  ZZZ=              3.1844  XYY=             -0.1967
  XXY=            -41.5191  XXZ=              7.1314  XZZ=             -7.5467  YZZ=             -5.3104
  YYZ=              1.2020  XYZ=              5.4782
 Hexadecapole moment (field-independent basis, Debye-Ang**3):
 XXXX=          -1780.3640 YYYY=           -511.2947 ZZZZ=           -223.4094 XXXY=             26.8181
 XXXZ=             67.1203 YYYX=             -5.8620 YYYZ=              0.0319 ZZZX=              9.4167
 ZZZY=             -1.5726 XXYY=           -377.5291 XXZZ=           -335.9245 YYZZ=           -125.0182
 XXYZ=              2.7371 YYXZ=              6.5778 ZZXY=             -6.3556
 N-N= 5.509936480851D+02 E-N=-2.256933479859D+03  KE= 4.920713493282D+02
 1\1\GINC-NODE011\SP\RMP2-FC\Aug-CC-pVDZ\C6H12N2O2\MANAGER\13-Feb-2017\
 0\\#SP MP2/aug-cc-pVDZ\\Single Point calculation at MP2\\0,1\H,0,-3.62
 67,-1.6954,0.6145\C,0,-2.9853,-1.5181,-0.2526\H,0,-3.6386,-1.3979,-1.1
 238\H,0,-2.346,-2.3925,-0.4117\C,0,-2.2167,-0.2195,-0.0276\O,0,-2.7705
 ,0.7809,0.4042\N,0,-0.8814,-0.2857,-0.3548\H,0,-0.5923,-1.1054,-0.8723
 \C,0,0.0696,0.8354,-0.3818\H,0,-0.0504,1.412,-1.3067\C,0,-0.0571,1.788
 9,0.8188\H,0,0.0424,1.2452,1.7646\H,0,0.7461,2.5304,0.7578\H,0,-1.0232
 ,2.2909,0.8139\C,0,1.5078,0.2843,-0.4268\O,0,2.3563,0.7798,-1.1565\N,0
 ,1.7566,-0.7412,0.4409\H,0,1.0012,-1.0418,1.0416\C,0,3.0813,-1.3061,0.
 6274\H,0,3.7239,-0.894,-0.1519\H,0,3.4972,-1.0404,1.6071\H,0,3.057,-2.
 3979,0.5385\\Version=EM64L-G09RevA.02\State=1-A\HF=-492.9174251\MP2=-4
 94.519453\RMSD=6.563e-09\PG=C01 [X(C6H12N2O2)]\\@


 THERE IS SOMETHING FASCINATING ABOUT SCIENCE.
 ONE GETS SUCH WHOLESALE CONJECTURE OUT OF SUCH TRIFLING INVESTMENTS.

                                                       -- MARK TWAIN
 Job cpu time:  0 days 12 hours 25 minutes 35.6 seconds.
 File lengths (MBytes):  RWF=  10548 Int=      0 D2E=      0 Chk=      7 Scr=      2
 Normal termination of Gaussian 09 at Mon Feb 13 00:07:37 2017.
