 Entering Gaussian System, Link 0=g09
 Initial command:
 /home/steboss/Software/g09/l1.exe /home/steboss/projects/phi_psi_scan/alanine/MP2/165/5300/Gau-19828.inp -scrdir=/home/steboss/projects/phi_psi_scan/alanine/MP2/165/5300/
 Entering Link 1 = /home/steboss/Software/g09/l1.exe PID=     19830.
  
 Copyright (c) 1988,1990,1992,1993,1995,1998,2003,2009, Gaussian, Inc.
                  All Rights Reserved.
  
 This is part of the Gaussian(R) 09 program.  It is based on
 the Gaussian(R) 03 system (copyright 2003, Gaussian, Inc.),
 the Gaussian(R) 98 system (copyright 1998, Gaussian, Inc.),
 the Gaussian(R) 94 system (copyright 1995, Gaussian, Inc.),
 the Gaussian 92(TM) system (copyright 1992, Gaussian, Inc.),
 the Gaussian 90(TM) system (copyright 1990, Gaussian, Inc.),
 the Gaussian 88(TM) system (copyright 1988, Gaussian, Inc.),
 the Gaussian 86(TM) system (copyright 1986, Carnegie Mellon
 University), and the Gaussian 82(TM) system (copyright 1983,
 Carnegie Mellon University). Gaussian is a federally registered
 trademark of Gaussian, Inc.
  
 This software contains proprietary and confidential information,
 including trade secrets, belonging to Gaussian, Inc.
  
 This software is provided under written license and may be
 used, copied, transmitted, or stored only in accord with that
 written license.
  
 The following legend is applicable only to US Government
 contracts under FAR:
  
                    RESTRICTED RIGHTS LEGEND
  
 Use, reproduction and disclosure by the US Government is
 subject to restrictions as set forth in subparagraphs (a)
 and (c) of the Commercial Computer Software - Restricted
 Rights clause in FAR 52.227-19.
  
 Gaussian, Inc.
 340 Quinnipiac St., Bldg. 40, Wallingford CT 06492
  
  
 ---------------------------------------------------------------
 Warning -- This program may not be used in any manner that
 competes with the business of Gaussian, Inc. or will provide
 assistance to any competitor of Gaussian, Inc.  The licensee
 of this program is prohibited from giving any competitor of
 Gaussian, Inc. access to this program.  By using this program,
 the user acknowledges that Gaussian, Inc. is engaged in the
 business of creating and licensing software in the field of
 computational chemistry and represents and warrants to the
 licensee that it is not a competitor of Gaussian, Inc. and that
 it will not use this program in any manner prohibited above.
 ---------------------------------------------------------------
  

 Cite this work as:
 Gaussian 09, Revision A.02,
 M. J. Frisch, G. W. Trucks, H. B. Schlegel, G. E. Scuseria, 
 M. A. Robb, J. R. Cheeseman, G. Scalmani, V. Barone, B. Mennucci, 
 G. A. Petersson, H. Nakatsuji, M. Caricato, X. Li, H. P. Hratchian, 
 A. F. Izmaylov, J. Bloino, G. Zheng, J. L. Sonnenberg, M. Hada, 
 M. Ehara, K. Toyota, R. Fukuda, J. Hasegawa, M. Ishida, T. Nakajima, 
 Y. Honda, O. Kitao, H. Nakai, T. Vreven, J. A. Montgomery, Jr., 
 J. E. Peralta, F. Ogliaro, M. Bearpark, J. J. Heyd, E. Brothers, 
 K. N. Kudin, V. N. Staroverov, R. Kobayashi, J. Normand, 
 K. Raghavachari, A. Rendell, J. C. Burant, S. S. Iyengar, J. Tomasi, 
 M. Cossi, N. Rega, J. M. Millam, M. Klene, J. E. Knox, J. B. Cross, 
 V. Bakken, C. Adamo, J. Jaramillo, R. Gomperts, R. E. Stratmann, 
 O. Yazyev, A. J. Austin, R. Cammi, C. Pomelli, J. W. Ochterski, 
 R. L. Martin, K. Morokuma, V. G. Zakrzewski, G. A. Voth, 
 P. Salvador, J. J. Dannenberg, S. Dapprich, A. D. Daniels, 
 O. Farkas, J. B. Foresman, J. V. Ortiz, J. Cioslowski, 
 and D. J. Fox, Gaussian, Inc., Wallingford CT, 2009.
 
 ******************************************
 Gaussian 09:  EM64L-G09RevA.02 11-Jun-2009
                12-Feb-2017 
 ******************************************
 %chk=structure_0.chk
 %NProcShared=8
 Will use up to    8 processors via shared memory.
 -------------------
 #SP MP2/aug-cc-pVDZ
 -------------------
 1/38=1/1;
 2/12=2,17=6,18=5,40=1/2;
 3/5=16,7=10,11=9,16=1,25=1,30=1/1,2,3;
 4//1;
 5/5=2,38=5/2;
 8/10=1/1;
 9/16=-3/6;
 6/7=2,8=2,9=2,10=2/1;
 99/5=1,9=1/99;
 -------------------------------
 Single Point calculation at MP2
 -------------------------------
 Symbolic Z-matrix:
 Charge =  0 Multiplicity = 1
 H                    -3.7373   -1.6166    0.6522 
 C                    -2.9586   -1.5835   -0.1131 
 H                    -3.4536   -1.6366   -1.0898 
 H                    -2.307    -2.4565   -0.0039 
 C                    -2.2235   -0.251     0.0032 
 O                    -2.8192    0.7827    0.2572 
 N                    -0.8561   -0.3471   -0.1947 
 H                    -0.5818   -1.1891   -0.6884 
 C                     0.0672    0.7774   -0.4181 
 H                    -0.0001    1.1192   -1.4611 
 C                    -0.1902    1.9789    0.506 
 H                    -0.181     1.6646    1.5555 
 H                     0.6159    2.6993    0.3481 
 H                    -1.1545    2.4372    0.2965 
 C                     1.5364    0.3405   -0.2278 
 O                     2.4427    1.1272   -0.4633 
 N                     1.7587   -0.9714    0.1064 
 H                     1.0088   -1.4357    0.6031 
 C                     3.1159   -1.4289    0.3757 
 H                     3.7786   -1.0103   -0.383 
 H                     3.4783   -1.1053    1.3601 
 H                     3.144    -2.5205    0.323 
 
                          Input orientation:                          
 ---------------------------------------------------------------------
 Center     Atomic      Atomic             Coordinates (Angstroms)
 Number     Number       Type             X           Y           Z
 ---------------------------------------------------------------------
      1          1           0       -3.737300   -1.616600    0.652200
      2          6           0       -2.958600   -1.583500   -0.113100
      3          1           0       -3.453600   -1.636600   -1.089800
      4          1           0       -2.307000   -2.456500   -0.003900
      5          6           0       -2.223500   -0.251000    0.003200
      6          8           0       -2.819200    0.782700    0.257200
      7          7           0       -0.856100   -0.347100   -0.194700
      8          1           0       -0.581800   -1.189100   -0.688400
      9          6           0        0.067200    0.777400   -0.418100
     10          1           0       -0.000100    1.119200   -1.461100
     11          6           0       -0.190200    1.978900    0.506000
     12          1           0       -0.181000    1.664600    1.555500
     13          1           0        0.615900    2.699300    0.348100
     14          1           0       -1.154500    2.437200    0.296500
     15          6           0        1.536400    0.340500   -0.227800
     16          8           0        2.442700    1.127200   -0.463300
     17          7           0        1.758700   -0.971400    0.106400
     18          1           0        1.008800   -1.435700    0.603100
     19          6           0        3.115900   -1.428900    0.375700
     20          1           0        3.778600   -1.010300   -0.383000
     21          1           0        3.478300   -1.105300    1.360100
     22          1           0        3.144000   -2.520500    0.323000
 ---------------------------------------------------------------------
                    Distance matrix (angstroms):
                    1          2          3          4          5
     1  H    0.000000
     2  C    1.092316   0.000000
     3  H    1.765064   1.096261   0.000000
     4  H    1.783720   1.094822   1.779356   0.000000
     5  C    2.139545   1.526255   2.151205   2.207092   0.000000
     6  O    2.599149   2.399053   2.840754   3.289824   1.219799
     7  N    3.260396   2.440461   3.034966   2.567311   1.384985
     8  H    3.455017   2.477034   2.934044   2.247478   2.013336
     9  C    4.620714   3.849979   4.321413   4.033174   2.546057
    10  H    5.090904   4.227814   4.433843   4.497872   2.994183
    11  C    5.052812   4.553901   5.125251   4.941013   3.059342
    12  H    4.922346   4.587967   5.348406   4.892348   3.201713
    13  H    6.137574   5.597511   6.117877   5.937131   4.109187
    14  H    4.819821   4.425898   4.878887   5.036546   2.907784
    15  C    5.693554   4.890803   5.436181   4.758683   3.813146
    16  O    6.853115   6.053476   6.541976   5.967713   4.887789
    17  N    5.560593   4.761908   5.389013   4.329850   4.048153
    18  H    4.749800   4.034235   4.776954   3.522075   3.494447
    19  C    6.861343   6.096095   6.734178   5.532441   5.480456
    20  H    7.611044   6.766925   7.293595   6.266557   6.062251
    21  H    7.268248   6.620625   7.371264   6.095567   5.922966
    22  H    6.948215   6.189497   6.804822   5.461168   5.836348
                    6          7          8          9         10
     6  O    0.000000
     7  N    2.309637   0.000000
     8  H    3.128596   1.013876   0.000000
     9  C    2.964349   1.472036   2.088393   0.000000
    10  H    3.318601   2.118146   2.502736   1.099639   0.000000
    11  C    2.899041   2.518865   3.408250   1.537471   2.155158
    12  H    3.069761   2.750618   3.652305   2.178032   3.070841
    13  H    3.934658   3.426656   4.198627   2.140522   2.479794
    14  H    2.347369   2.843000   3.801061   2.181316   2.481717
    15  C    4.404772   2.489567   2.653036   1.544553   2.118545
    16  O    5.322160   3.623229   3.816217   2.401542   2.638738
    17  N    4.904771   2.705105   2.481338   2.488890   3.149769
    18  H    4.437852   2.302040   2.063684   2.612905   3.436032
    19  C    6.334874   4.156011   3.855230   3.846095   4.424489
    20  H    6.866999   4.685695   4.374737   4.119659   4.469412
    21  H    6.666291   4.666829   4.548383   4.282775   5.000684
    22  H    6.817273   4.581755   4.083766   4.570785   5.129892
                   11         12         13         14         15
    11  C    0.000000
    12  H    1.095591   0.000000
    13  H    1.092568   1.778614   0.000000
    14  H    1.088027   1.769094   1.790440   0.000000
    15  C    2.490776   2.807644   2.596713   3.451374   0.000000
    16  O    2.932081   3.353827   2.543043   3.902979   1.223003
    17  N    3.558393   3.579221   3.852071   4.487920   1.371929
    18  H    3.620293   3.454642   4.161445   4.446709   2.030676
    19  C    4.749776   4.672389   4.826261   5.761017   2.447409
    20  H    5.047476   5.156676   4.929332   6.056604   2.622253
    21  H    4.868231   4.593583   4.867490   5.928186   2.895296
    22  H    5.603122   5.485412   5.799848   6.561752   3.327624
                   16         17         18         19         20
    16  O    0.000000
    17  N    2.279591   0.000000
    18  H    3.124377   1.012243   0.000000
    19  C    2.773223   1.457333   2.119346   0.000000
    20  H    2.521901   2.078707   2.970715   1.090882   0.000000
    21  H    3.062893   2.132303   2.603967   1.097768   1.771328
    22  H    3.796815   2.089422   2.411291   1.093233   1.783776
                   21         22
    21  H    0.000000
    22  H    1.786092   0.000000
 Stoichiometry    C6H12N2O2
 Framework group  C1[X(C6H12N2O2)]
 Deg. of freedom    60
 Full point group                 C1      NOp   1
 Largest Abelian subgroup         C1      NOp   1
 Largest concise Abelian subgroup C1      NOp   1
                         Standard orientation:                         
 ---------------------------------------------------------------------
 Center     Atomic      Atomic             Coordinates (Angstroms)
 Number     Number       Type             X           Y           Z
 ---------------------------------------------------------------------
      1          1           0       -3.737293   -1.616604    0.652190
      2          6           0       -2.958593   -1.583503   -0.113110
      3          1           0       -3.453593   -1.636604   -1.089810
      4          1           0       -2.306992   -2.456502   -0.003910
      5          6           0       -2.223496   -0.251001    0.003190
      6          8           0       -2.819198    0.782697    0.257190
      7          7           0       -0.856096   -0.347099   -0.194710
      8          1           0       -0.581794   -1.189098   -0.688410
      9          6           0        0.067202    0.777403   -0.418110
     10          1           0       -0.000098    1.119203   -1.461110
     11          6           0       -0.190200    1.978902    0.505990
     12          1           0       -0.180999    1.664602    1.555490
     13          1           0        0.615899    2.699304    0.348090
     14          1           0       -1.154501    2.437200    0.296490
     15          6           0        1.536403    0.340505   -0.227810
     16          8           0        2.442702    1.127207   -0.463310
     17          7           0        1.758706   -0.971394    0.106390
     18          1           0        1.008806   -1.435696    0.603090
     19          6           0        3.115906   -1.428892    0.375690
     20          1           0        3.778606   -1.010291   -0.383010
     21          1           0        3.478306   -1.105291    1.360090
     22          1           0        3.144008   -2.520492    0.322990
 ---------------------------------------------------------------------
 Rotational constants (GHZ):      2.3084164      0.7441459      0.5919022
 Standard basis: Aug-CC-pVDZ (5D, 7F)
 There are   338 symmetry adapted basis functions of A   symmetry.
 Integral buffers will be    131072 words long.
 Raffenetti 1 integral format.
 Two-electron integral symmetry is turned on.
   338 basis functions,   562 primitive gaussians,   358 cartesian basis functions
    39 alpha electrons       39 beta electrons
       nuclear repulsion energy       550.1483166914 Hartrees.
 NAtoms=   22 NActive=   22 NUniq=   22 SFac= 7.50D-01 NAtFMM=   80 NAOKFM=F Big=F
 One-electron integrals computed using PRISM.
 NBasis=   338 RedAO= T  NBF=   338
 NBsUse=   338 1.00D-06 NBFU=   338
 Harris functional with IExCor=  205 diagonalized for initial guess.
 ExpMin= 2.97D-02 ExpMax= 1.17D+04 ExpMxC= 4.01D+02 IAcc=3 IRadAn=         0 AccDes= 0.00D+00
 HarFok:  IExCor=  205 AccDes= 0.00D+00 IRadAn=         0 IDoV= 1
 ScaDFX=  1.000000  1.000000  1.000000  1.000000
 FoFCou: FMM=F IPFlag=           0 FMFlag=      100000 FMFlg1=           0
         NFxFlg=           0 DoJE=T BraDBF=F KetDBF=T FulRan=T
         Omega=  0.000000  0.000000  1.000000  0.000000  0.000000 ICntrl=     500 IOpCl=  0
         NMat0=    1 NMatS0=    1 NMatT0=    0 NMatD0=    1 NMtDS0=    0 NMtDT0=    0
         I1Cent=           4 NGrid=           0.
 Petite list used in FoFCou.
 Initial guess orbital symmetries:
       Occupied  (A) (A) (A) (A) (A) (A) (A) (A) (A) (A) (A) (A)
                 (A) (A) (A) (A) (A) (A) (A) (A) (A) (A) (A) (A)
                 (A) (A) (A) (A) (A) (A) (A) (A) (A) (A) (A) (A)
                 (A) (A) (A)
       Virtual   (A) (A) (A) (A) (A) (A) (A) (A) (A) (A) (A) (A)
                 (A) (A) (A) (A) (A) (A) (A) (A) (A) (A) (A) (A)
                 (A) (A) (A) (A) (A) (A) (A) (A) (A) (A) (A) (A)
                 (A) (A) (A) (A) (A) (A) (A) (A) (A) (A) (A) (A)
                 (A) (A) (A) (A) (A) (A) (A) (A) (A) (A) (A) (A)
                 (A) (A) (A) (A) (A) (A) (A) (A) (A) (A) (A) (A)
                 (A) (A) (A) (A) (A) (A) (A) (A) (A) (A) (A) (A)
                 (A) (A) (A) (A) (A) (A) (A) (A) (A) (A) (A) (A)
                 (A) (A) (A) (A) (A) (A) (A) (A) (A) (A) (A) (A)
                 (A) (A) (A) (A) (A) (A) (A) (A) (A) (A) (A) (A)
                 (A) (A) (A) (A) (A) (A) (A) (A) (A) (A) (A) (A)
                 (A) (A) (A) (A) (A) (A) (A) (A) (A) (A) (A) (A)
                 (A) (A) (A) (A) (A) (A) (A) (A) (A) (A) (A) (A)
                 (A) (A) (A) (A) (A) (A) (A) (A) (A) (A) (A) (A)
                 (A) (A) (A) (A) (A) (A) (A) (A) (A) (A) (A) (A)
                 (A) (A) (A) (A) (A) (A) (A) (A) (A) (A) (A) (A)
                 (A) (A) (A) (A) (A) (A) (A) (A) (A) (A) (A) (A)
                 (A) (A) (A) (A) (A) (A) (A) (A) (A) (A) (A) (A)
                 (A) (A) (A) (A) (A) (A) (A) (A) (A) (A) (A) (A)
                 (A) (A) (A) (A) (A) (A) (A) (A) (A) (A) (A) (A)
                 (A) (A) (A) (A) (A) (A) (A) (A) (A) (A) (A) (A)
                 (A) (A) (A) (A) (A) (A) (A) (A) (A) (A) (A) (A)
                 (A) (A) (A) (A) (A) (A) (A) (A) (A) (A) (A) (A)
                 (A) (A) (A) (A) (A) (A) (A) (A) (A) (A) (A) (A)
                 (A) (A) (A) (A) (A) (A) (A) (A) (A) (A) (A)
 The electronic state of the initial guess is 1-A.
 Requested convergence on RMS density matrix=1.00D-08 within 128 cycles.
 Requested convergence on MAX density matrix=1.00D-06.
 Requested convergence on             energy=1.00D-06.
 No special actions if energy rises.
 Initial convergence to 1.0D-05 achieved.  Increase integral accuracy.
 SCF Done:  E(RHF) =  -492.914981103     A.U. after   14 cycles
             Convg  =    0.6505D-08             -V/T =  2.0017
 ExpMin= 2.97D-02 ExpMax= 1.17D+04 ExpMxC= 4.01D+02 IAcc=3 IRadAn=         5 AccDes= 0.00D+00
 HarFok:  IExCor=  205 AccDes= 0.00D+00 IRadAn=         5 IDoV=-2
 ScaDFX=  1.000000  1.000000  1.000000  1.000000
 Range of M.O.s used for correlation:    11   338
 NBasis=   338 NAE=    39 NBE=    39 NFC=    10 NFV=     0
 NROrb=    328 NOA=    29 NOB=    29 NVA=   299 NVB=   299

 **** Warning!!: The largest alpha MO coefficient is  0.85828841D+02

 Disk-based method using OVN memory for 29 occupieds at a time.
 Estimated scratch disk usage=  1378527611 words.
 Actual    scratch disk usage=  1365404193 words.
 JobTyp=1 Pass  1:  I=   1 to  29 NPSUse=  8 ParTrn=T ParDer=T DoDerP=F.
 Spin components of T(2) and E(2):
     alpha-alpha T2 =       0.6800780220D-01 E2=     -0.2058009533D+00
     alpha-beta  T2 =       0.3770493983D+00 E2=     -0.1190510031D+01
     beta-beta   T2 =       0.6800780220D-01 E2=     -0.2058009533D+00
 ANorm=    0.1230067072D+01
 E2 =    -0.1602111937D+01 EUMP2 =    -0.49451709304055D+03

 **********************************************************************

            Population analysis using the SCF density.

 **********************************************************************

 Orbital symmetries:
       Occupied  (A) (A) (A) (A) (A) (A) (A) (A) (A) (A) (A) (A)
                 (A) (A) (A) (A) (A) (A) (A) (A) (A) (A) (A) (A)
                 (A) (A) (A) (A) (A) (A) (A) (A) (A) (A) (A) (A)
                 (A) (A) (A)
       Virtual   (A) (A) (A) (A) (A) (A) (A) (A) (A) (A) (A) (A)
                 (A) (A) (A) (A) (A) (A) (A) (A) (A) (A) (A) (A)
                 (A) (A) (A) (A) (A) (A) (A) (A) (A) (A) (A) (A)
                 (A) (A) (A) (A) (A) (A) (A) (A) (A) (A) (A) (A)
                 (A) (A) (A) (A) (A) (A) (A) (A) (A) (A) (A) (A)
                 (A) (A) (A) (A) (A) (A) (A) (A) (A) (A) (A) (A)
                 (A) (A) (A) (A) (A) (A) (A) (A) (A) (A) (A) (A)
                 (A) (A) (A) (A) (A) (A) (A) (A) (A) (A) (A) (A)
                 (A) (A) (A) (A) (A) (A) (A) (A) (A) (A) (A) (A)
                 (A) (A) (A) (A) (A) (A) (A) (A) (A) (A) (A) (A)
                 (A) (A) (A) (A) (A) (A) (A) (A) (A) (A) (A) (A)
                 (A) (A) (A) (A) (A) (A) (A) (A) (A) (A) (A) (A)
                 (A) (A) (A) (A) (A) (A) (A) (A) (A) (A) (A) (A)
                 (A) (A) (A) (A) (A) (A) (A) (A) (A) (A) (A) (A)
                 (A) (A) (A) (A) (A) (A) (A) (A) (A) (A) (A) (A)
                 (A) (A) (A) (A) (A) (A) (A) (A) (A) (A) (A) (A)
                 (A) (A) (A) (A) (A) (A) (A) (A) (A) (A) (A) (A)
                 (A) (A) (A) (A) (A) (A) (A) (A) (A) (A) (A) (A)
                 (A) (A) (A) (A) (A) (A) (A) (A) (A) (A) (A) (A)
                 (A) (A) (A) (A) (A) (A) (A) (A) (A) (A) (A) (A)
                 (A) (A) (A) (A) (A) (A) (A) (A) (A) (A) (A) (A)
                 (A) (A) (A) (A) (A) (A) (A) (A) (A) (A) (A) (A)
                 (A) (A) (A) (A) (A) (A) (A) (A) (A) (A) (A) (A)
                 (A) (A) (A) (A) (A) (A) (A) (A) (A) (A) (A) (A)
                 (A) (A) (A) (A) (A) (A) (A) (A) (A) (A) (A)
 The electronic state is 1-A.
 Alpha  occ. eigenvalues --  -20.54201 -20.53803 -15.60857 -15.60384 -11.37508
 Alpha  occ. eigenvalues --  -11.36579 -11.29848 -11.27436 -11.25633 -11.22254
 Alpha  occ. eigenvalues --   -1.39675  -1.39165  -1.25684  -1.22961  -1.05758
 Alpha  occ. eigenvalues --   -0.99553  -0.96261  -0.88039  -0.80253  -0.77110
 Alpha  occ. eigenvalues --   -0.73542  -0.69125  -0.67653  -0.63891  -0.62866
 Alpha  occ. eigenvalues --   -0.62354  -0.60525  -0.59699  -0.57184  -0.55746
 Alpha  occ. eigenvalues --   -0.55182  -0.53364  -0.52596  -0.51804  -0.50182
 Alpha  occ. eigenvalues --   -0.44184  -0.42984  -0.40376  -0.40342
 Alpha virt. eigenvalues --    0.02204   0.03723   0.04132   0.04680   0.05563
 Alpha virt. eigenvalues --    0.06024   0.06576   0.06669   0.06989   0.08210
 Alpha virt. eigenvalues --    0.08639   0.08839   0.10833   0.12061   0.12884
 Alpha virt. eigenvalues --    0.13659   0.14073   0.14236   0.14932   0.15102
 Alpha virt. eigenvalues --    0.15452   0.16102   0.16354   0.16587   0.16814
 Alpha virt. eigenvalues --    0.17498   0.17937   0.18423   0.18611   0.19163
 Alpha virt. eigenvalues --    0.19411   0.20269   0.20372   0.20702   0.21950
 Alpha virt. eigenvalues --    0.22953   0.24106   0.24770   0.25202   0.25570
 Alpha virt. eigenvalues --    0.26445   0.27694   0.29117   0.29343   0.30649
 Alpha virt. eigenvalues --    0.31507   0.31978   0.32614   0.32633   0.33456
 Alpha virt. eigenvalues --    0.34188   0.34768   0.35213   0.35603   0.36989
 Alpha virt. eigenvalues --    0.37506   0.38060   0.38392   0.38701   0.39520
 Alpha virt. eigenvalues --    0.40021   0.40605   0.41239   0.42042   0.42754
 Alpha virt. eigenvalues --    0.43272   0.43713   0.43953   0.45211   0.45425
 Alpha virt. eigenvalues --    0.46309   0.46607   0.47841   0.48283   0.48665
 Alpha virt. eigenvalues --    0.49647   0.50100   0.50817   0.51009   0.52295
 Alpha virt. eigenvalues --    0.52337   0.53321   0.53722   0.54504   0.54788
 Alpha virt. eigenvalues --    0.55494   0.56469   0.57299   0.58035   0.58665
 Alpha virt. eigenvalues --    0.59597   0.60122   0.60353   0.61390   0.61532
 Alpha virt. eigenvalues --    0.62808   0.63500   0.63827   0.64638   0.65212
 Alpha virt. eigenvalues --    0.65827   0.66131   0.66916   0.67409   0.67792
 Alpha virt. eigenvalues --    0.68971   0.69781   0.70562   0.70751   0.71163
 Alpha virt. eigenvalues --    0.71474   0.72363   0.74373   0.74821   0.75342
 Alpha virt. eigenvalues --    0.75872   0.76495   0.77906   0.78276   0.79632
 Alpha virt. eigenvalues --    0.80675   0.81123   0.81816   0.83617   0.84335
 Alpha virt. eigenvalues --    0.84448   0.84732   0.85419   0.87748   0.88495
 Alpha virt. eigenvalues --    0.89060   0.89417   0.90413   0.91807   0.92706
 Alpha virt. eigenvalues --    0.93563   0.95480   0.96592   0.97848   0.98329
 Alpha virt. eigenvalues --    0.99580   1.00423   1.02047   1.02854   1.05387
 Alpha virt. eigenvalues --    1.05560   1.06438   1.07887   1.09742   1.10317
 Alpha virt. eigenvalues --    1.11425   1.13551   1.13911   1.14906   1.16140
 Alpha virt. eigenvalues --    1.17407   1.18398   1.19422   1.20619   1.22042
 Alpha virt. eigenvalues --    1.22430   1.25615   1.26638   1.29214   1.30436
 Alpha virt. eigenvalues --    1.31214   1.32879   1.33754   1.35982   1.38121
 Alpha virt. eigenvalues --    1.38398   1.39022   1.42774   1.44375   1.45752
 Alpha virt. eigenvalues --    1.46801   1.48279   1.50193   1.52649   1.53201
 Alpha virt. eigenvalues --    1.53898   1.57064   1.59695   1.61690   1.63547
 Alpha virt. eigenvalues --    1.66324   1.68524   1.69047   1.70281   1.71789
 Alpha virt. eigenvalues --    1.73297   1.75035   1.76801   1.77430   1.79645
 Alpha virt. eigenvalues --    1.81599   1.84260   1.85638   1.86402   1.88013
 Alpha virt. eigenvalues --    1.89386   1.89879   1.90813   1.92550   1.92712
 Alpha virt. eigenvalues --    1.93204   1.96535   1.97875   1.99171   2.00128
 Alpha virt. eigenvalues --    2.00680   2.02000   2.04025   2.08291   2.09711
 Alpha virt. eigenvalues --    2.10518   2.12354   2.13364   2.15019   2.15798
 Alpha virt. eigenvalues --    2.17232   2.17899   2.19749   2.20783   2.23369
 Alpha virt. eigenvalues --    2.23613   2.25449   2.28276   2.28996   2.29267
 Alpha virt. eigenvalues --    2.29894   2.32570   2.33296   2.35205   2.37037
 Alpha virt. eigenvalues --    2.37612   2.41070   2.43431   2.44292   2.45183
 Alpha virt. eigenvalues --    2.47445   2.48210   2.49054   2.51443   2.52121
 Alpha virt. eigenvalues --    2.52831   2.53388   2.56655   2.57290   2.59274
 Alpha virt. eigenvalues --    2.62026   2.64088   2.64891   2.66292   2.69421
 Alpha virt. eigenvalues --    2.70401   2.72495   2.75589   2.77706   2.78784
 Alpha virt. eigenvalues --    2.80113   2.82059   2.84505   2.86504   2.88892
 Alpha virt. eigenvalues --    2.90661   2.91714   2.93056   2.97287   2.97503
 Alpha virt. eigenvalues --    2.97957   3.01562   3.03316   3.05037   3.09012
 Alpha virt. eigenvalues --    3.11289   3.15067   3.17354   3.22004   3.24068
 Alpha virt. eigenvalues --    3.25827   3.32335   3.37812   3.45895   3.51151
 Alpha virt. eigenvalues --    3.56753   3.63706   3.71934   3.82658   3.83183
 Alpha virt. eigenvalues --    3.84359   3.85807   3.89640   3.94626   3.96755
 Alpha virt. eigenvalues --    4.02109   4.05433   4.18937   4.25366
          Condensed to atoms (all electrons):
              1          2          3          4          5          6
     1  H    0.777461   0.385431  -0.053836  -0.114474  -0.079411   0.029918
     2  C    0.385431   4.527626   0.337528   0.356185   0.202397  -0.055232
     3  H   -0.053836   0.337528   0.732399  -0.070013  -0.062275   0.012364
     4  H   -0.114474   0.356185  -0.070013   1.085442   0.096218  -0.008499
     5  C   -0.079411   0.202397  -0.062275   0.096218   5.592336   0.192349
     6  O    0.029918  -0.055232   0.012364  -0.008499   0.192349   8.695534
     7  N    0.055686  -0.034878   0.044425  -0.173423   0.188551  -0.132182
     8  H   -0.006729  -0.041240  -0.008716  -0.000234  -0.246103   0.014351
     9  C    0.000836  -0.010985   0.004277  -0.035157  -0.368750   0.108577
    10  H   -0.000109  -0.008432  -0.002208  -0.002158  -0.011659   0.012060
    11  C    0.001256  -0.006869   0.001993  -0.000503  -0.022285  -0.023789
    12  H   -0.000830  -0.008530  -0.000063  -0.000232  -0.016752   0.021478
    13  H    0.000159   0.000023   0.000173  -0.000969  -0.059382   0.008898
    14  H   -0.000171   0.006876   0.000311   0.002197   0.104647  -0.069883
    15  C   -0.001802  -0.002582   0.004527  -0.002164  -0.047462  -0.000611
    16  O   -0.000015  -0.000719  -0.000115   0.000364   0.005795  -0.000480
    17  N    0.000888  -0.007313  -0.000192  -0.004531  -0.067928   0.006687
    18  H    0.001068   0.001925  -0.000286  -0.002105   0.006609  -0.000014
    19  C   -0.000214  -0.003745   0.000167  -0.002275  -0.027291   0.001924
    20  H    0.000005   0.000096   0.000055   0.000142  -0.000710   0.000017
    21  H   -0.000016  -0.000337  -0.000014   0.000061   0.000126  -0.000021
    22  H   -0.000010  -0.000192   0.000043  -0.000918  -0.001450   0.000141
              7          8          9         10         11         12
     1  H    0.055686  -0.006729   0.000836  -0.000109   0.001256  -0.000830
     2  C   -0.034878  -0.041240  -0.010985  -0.008432  -0.006869  -0.008530
     3  H    0.044425  -0.008716   0.004277  -0.002208   0.001993  -0.000063
     4  H   -0.173423  -0.000234  -0.035157  -0.002158  -0.000503  -0.000232
     5  C    0.188551  -0.246103  -0.368750  -0.011659  -0.022285  -0.016752
     6  O   -0.132182   0.014351   0.108577   0.012060  -0.023789   0.021478
     7  N    7.819602   0.203275  -0.669309  -0.012362   0.057328  -0.071198
     8  H    0.203275   1.084213   0.033933  -0.020046  -0.027929  -0.009185
     9  C   -0.669309   0.033933   7.241828   0.145386   0.216931  -0.008069
    10  H   -0.012362  -0.020046   0.145386   1.049437   0.000772   0.070508
    11  C    0.057328  -0.027929   0.216931   0.000772   4.138886   0.325991
    12  H   -0.071198  -0.009185  -0.008069   0.070508   0.325991   1.078720
    13  H    0.100896  -0.001004  -0.247909  -0.038362   0.366747  -0.146835
    14  H   -0.068967   0.001260   0.098629  -0.024203   0.282255  -0.151906
    15  C    0.151821  -0.022901  -0.418062  -0.105225  -0.049513  -0.076434
    16  O   -0.014393   0.005404   0.031727   0.016366  -0.006839   0.010759
    17  N   -0.063764   0.059151   0.116382   0.019616   0.018392   0.015223
    18  H    0.020924  -0.007514  -0.006079  -0.003660  -0.002070  -0.000270
    19  C   -0.024028   0.028918  -0.054133  -0.006480   0.012624   0.001571
    20  H    0.004506   0.000018  -0.027893  -0.000469  -0.003883   0.000384
    21  H   -0.003162  -0.001345   0.053571   0.002235  -0.006315  -0.000210
    22  H    0.001445   0.002329  -0.025685  -0.002481   0.005162  -0.000222
             13         14         15         16         17         18
     1  H    0.000159  -0.000171  -0.001802  -0.000015   0.000888   0.001068
     2  C    0.000023   0.006876  -0.002582  -0.000719  -0.007313   0.001925
     3  H    0.000173   0.000311   0.004527  -0.000115  -0.000192  -0.000286
     4  H   -0.000969   0.002197  -0.002164   0.000364  -0.004531  -0.002105
     5  C   -0.059382   0.104647  -0.047462   0.005795  -0.067928   0.006609
     6  O    0.008898  -0.069883  -0.000611  -0.000480   0.006687  -0.000014
     7  N    0.100896  -0.068967   0.151821  -0.014393  -0.063764   0.020924
     8  H   -0.001004   0.001260  -0.022901   0.005404   0.059151  -0.007514
     9  C   -0.247909   0.098629  -0.418062   0.031727   0.116382  -0.006079
    10  H   -0.038362  -0.024203  -0.105225   0.016366   0.019616  -0.003660
    11  C    0.366747   0.282255  -0.049513  -0.006839   0.018392  -0.002070
    12  H   -0.146835  -0.151906  -0.076434   0.010759   0.015223  -0.000270
    13  H    1.196298  -0.248631   0.145867  -0.023688  -0.008062   0.004656
    14  H   -0.248631   1.096310  -0.032365   0.003115  -0.005833  -0.002069
    15  C    0.145867  -0.032365   5.382368   0.168556   0.080927  -0.051488
    16  O   -0.023688   0.003115   0.168556   8.787409  -0.134823   0.010401
    17  N   -0.008062  -0.005833   0.080927  -0.134823   7.129926   0.268683
    18  H    0.004656  -0.002069  -0.051488   0.010401   0.268683   0.936228
    19  C    0.004953  -0.001121  -0.078970   0.001369   0.211279  -0.126643
    20  H    0.000873  -0.000682   0.079336  -0.021621  -0.062973   0.006640
    21  H   -0.002010   0.000217  -0.041509   0.003474   0.142809  -0.012616
    22  H    0.000772   0.000313  -0.021567   0.009716  -0.152951   0.014303
             19         20         21         22
     1  H   -0.000214   0.000005  -0.000016  -0.000010
     2  C   -0.003745   0.000096  -0.000337  -0.000192
     3  H    0.000167   0.000055  -0.000014   0.000043
     4  H   -0.002275   0.000142   0.000061  -0.000918
     5  C   -0.027291  -0.000710   0.000126  -0.001450
     6  O    0.001924   0.000017  -0.000021   0.000141
     7  N   -0.024028   0.004506  -0.003162   0.001445
     8  H    0.028918   0.000018  -0.001345   0.002329
     9  C   -0.054133  -0.027893   0.053571  -0.025685
    10  H   -0.006480  -0.000469   0.002235  -0.002481
    11  C    0.012624  -0.003883  -0.006315   0.005162
    12  H    0.001571   0.000384  -0.000210  -0.000222
    13  H    0.004953   0.000873  -0.002010   0.000772
    14  H   -0.001121  -0.000682   0.000217   0.000313
    15  C   -0.078970   0.079336  -0.041509  -0.021567
    16  O    0.001369  -0.021621   0.003474   0.009716
    17  N    0.211279  -0.062973   0.142809  -0.152951
    18  H   -0.126643   0.006640  -0.012616   0.014303
    19  C    4.156437   0.421584   0.234035   0.466784
    20  H    0.421584   0.983592  -0.093860  -0.181154
    21  H    0.234035  -0.093860   0.963054  -0.185652
    22  H    0.466784  -0.181154  -0.185652   1.245244
 Mulliken atomic charges:
              1
     1  H    0.004910
     2  C    0.362969
     3  H    0.059456
     4  H   -0.122954
     5  C    0.622431
     6  O   -0.813587
     7  N   -0.380795
     8  H   -0.039905
     9  C   -0.180046
    10  H   -0.078526
    11  C    0.721660
    12  H   -0.033896
    13  H   -0.053463
    14  H    0.009702
    15  C    0.939253
    16  O   -0.851763
    17  N   -0.561592
    18  H   -0.056624
    19  C    0.783256
    20  H   -0.104004
    21  H   -0.052515
    22  H   -0.173970
 Sum of Mulliken atomic charges =   0.00000
 Mulliken charges with hydrogens summed into heavy atoms:
              1
     2  C    0.304382
     5  C    0.622431
     6  O   -0.813587
     7  N   -0.420700
     9  C   -0.258571
    11  C    0.644003
    15  C    0.939253
    16  O   -0.851763
    17  N   -0.618215
    19  C    0.452767
 Sum of Mulliken charges with hydrogens summed into heavy atoms =   0.00000
 Electronic spatial extent (au):  <R**2>=           1921.0197
 Charge=              0.0000 electrons
 Dipole moment (field-independent basis, Debye):
    X=             -0.1957    Y=             -5.3924    Z=              0.0285  Tot=              5.3960
 Quadrupole moment (field-independent basis, Debye-Ang):
   XX=            -72.8307   YY=            -59.5063   ZZ=            -59.9832
   XY=              0.1961   XZ=              5.6851   YZ=             -0.0929
 Traceless Quadrupole moment (field-independent basis, Debye-Ang):
   XX=             -8.7240   YY=              4.6005   ZZ=              4.1235
   XY=              0.1961   XZ=              5.6851   YZ=             -0.0929
 Octapole moment (field-independent basis, Debye-Ang**2):
  XXX=             11.3665  YYY=             -8.2595  ZZZ=             -1.4683  XYY=             -3.8928
  XXY=            -48.7932  XXZ=              2.1203  XZZ=             -1.9652  YZZ=             -0.6001
  YYZ=              2.1241  XYZ=              2.1783
 Hexadecapole moment (field-independent basis, Debye-Ang**3):
 XXXX=          -1827.0403 YYYY=           -604.2584 ZZZZ=           -126.4655 XXXY=             11.3632
 XXXZ=             30.5019 YYYX=            -14.2545 YYYZ=             -3.1050 ZZZX=              1.3832
 ZZZY=             -1.5187 XXYY=           -405.8878 XXZZ=           -308.1800 YYZZ=           -127.1460
 XXYZ=              0.1932 YYXZ=              7.9989 ZZXY=              1.5070
 N-N= 5.501483166914D+02 E-N=-2.255256016038D+03  KE= 4.920606846965D+02
 1\1\GINC-NODE005\SP\RMP2-FC\Aug-CC-pVDZ\C6H12N2O2\MANAGER\12-Feb-2017\
 0\\#SP MP2/aug-cc-pVDZ\\Single Point calculation at MP2\\0,1\H,0,-3.73
 73,-1.6166,0.6522\C,0,-2.9586,-1.5835,-0.1131\H,0,-3.4536,-1.6366,-1.0
 898\H,0,-2.307,-2.4565,-0.0039\C,0,-2.2235,-0.251,0.0032\O,0,-2.8192,0
 .7827,0.2572\N,0,-0.8561,-0.3471,-0.1947\H,0,-0.5818,-1.1891,-0.6884\C
 ,0,0.0672,0.7774,-0.4181\H,0,-0.0001,1.1192,-1.4611\C,0,-0.1902,1.9789
 ,0.506\H,0,-0.181,1.6646,1.5555\H,0,0.6159,2.6993,0.3481\H,0,-1.1545,2
 .4372,0.2965\C,0,1.5364,0.3405,-0.2278\O,0,2.4427,1.1272,-0.4633\N,0,1
 .7587,-0.9714,0.1064\H,0,1.0088,-1.4357,0.6031\C,0,3.1159,-1.4289,0.37
 57\H,0,3.7786,-1.0103,-0.383\H,0,3.4783,-1.1053,1.3601\H,0,3.144,-2.52
 05,0.323\\Version=EM64L-G09RevA.02\State=1-A\HF=-492.9149811\MP2=-494.
 517093\RMSD=6.505e-09\PG=C01 [X(C6H12N2O2)]\\@


 ABOVE ALL I AM AN OPTIMIST FOR NUMBER THEORY,
 AND I HOLD THE HOPE THAT WE MAY NOT BE FAR FROM
 A TIME WHEN IRREFUTABLE ARITHMETIC WILL CELEBRATE
 ITS TRIUMPHS IN PHYSICS AND CHEMISTRY.
   -- HERMANN MINKOWSKI, 1905
 Job cpu time:  0 days 12 hours 52 minutes 29.6 seconds.
 File lengths (MBytes):  RWF=  10534 Int=      0 D2E=      0 Chk=      7 Scr=      2
 Normal termination of Gaussian 09 at Sun Feb 12 22:44:50 2017.
