 Entering Gaussian System, Link 0=g09
 Initial command:
 /home/steboss/Software/g09/l1.exe /home/steboss/projects/phi_psi_scan/alanine/MP2/165/5312/Gau-17651.inp -scrdir=/home/steboss/projects/phi_psi_scan/alanine/MP2/165/5312/
 Entering Link 1 = /home/steboss/Software/g09/l1.exe PID=     17654.
  
 Copyright (c) 1988,1990,1992,1993,1995,1998,2003,2009, Gaussian, Inc.
                  All Rights Reserved.
  
 This is part of the Gaussian(R) 09 program.  It is based on
 the Gaussian(R) 03 system (copyright 2003, Gaussian, Inc.),
 the Gaussian(R) 98 system (copyright 1998, Gaussian, Inc.),
 the Gaussian(R) 94 system (copyright 1995, Gaussian, Inc.),
 the Gaussian 92(TM) system (copyright 1992, Gaussian, Inc.),
 the Gaussian 90(TM) system (copyright 1990, Gaussian, Inc.),
 the Gaussian 88(TM) system (copyright 1988, Gaussian, Inc.),
 the Gaussian 86(TM) system (copyright 1986, Carnegie Mellon
 University), and the Gaussian 82(TM) system (copyright 1983,
 Carnegie Mellon University). Gaussian is a federally registered
 trademark of Gaussian, Inc.
  
 This software contains proprietary and confidential information,
 including trade secrets, belonging to Gaussian, Inc.
  
 This software is provided under written license and may be
 used, copied, transmitted, or stored only in accord with that
 written license.
  
 The following legend is applicable only to US Government
 contracts under FAR:
  
                    RESTRICTED RIGHTS LEGEND
  
 Use, reproduction and disclosure by the US Government is
 subject to restrictions as set forth in subparagraphs (a)
 and (c) of the Commercial Computer Software - Restricted
 Rights clause in FAR 52.227-19.
  
 Gaussian, Inc.
 340 Quinnipiac St., Bldg. 40, Wallingford CT 06492
  
  
 ---------------------------------------------------------------
 Warning -- This program may not be used in any manner that
 competes with the business of Gaussian, Inc. or will provide
 assistance to any competitor of Gaussian, Inc.  The licensee
 of this program is prohibited from giving any competitor of
 Gaussian, Inc. access to this program.  By using this program,
 the user acknowledges that Gaussian, Inc. is engaged in the
 business of creating and licensing software in the field of
 computational chemistry and represents and warrants to the
 licensee that it is not a competitor of Gaussian, Inc. and that
 it will not use this program in any manner prohibited above.
 ---------------------------------------------------------------
  

 Cite this work as:
 Gaussian 09, Revision A.02,
 M. J. Frisch, G. W. Trucks, H. B. Schlegel, G. E. Scuseria, 
 M. A. Robb, J. R. Cheeseman, G. Scalmani, V. Barone, B. Mennucci, 
 G. A. Petersson, H. Nakatsuji, M. Caricato, X. Li, H. P. Hratchian, 
 A. F. Izmaylov, J. Bloino, G. Zheng, J. L. Sonnenberg, M. Hada, 
 M. Ehara, K. Toyota, R. Fukuda, J. Hasegawa, M. Ishida, T. Nakajima, 
 Y. Honda, O. Kitao, H. Nakai, T. Vreven, J. A. Montgomery, Jr., 
 J. E. Peralta, F. Ogliaro, M. Bearpark, J. J. Heyd, E. Brothers, 
 K. N. Kudin, V. N. Staroverov, R. Kobayashi, J. Normand, 
 K. Raghavachari, A. Rendell, J. C. Burant, S. S. Iyengar, J. Tomasi, 
 M. Cossi, N. Rega, J. M. Millam, M. Klene, J. E. Knox, J. B. Cross, 
 V. Bakken, C. Adamo, J. Jaramillo, R. Gomperts, R. E. Stratmann, 
 O. Yazyev, A. J. Austin, R. Cammi, C. Pomelli, J. W. Ochterski, 
 R. L. Martin, K. Morokuma, V. G. Zakrzewski, G. A. Voth, 
 P. Salvador, J. J. Dannenberg, S. Dapprich, A. D. Daniels, 
 O. Farkas, J. B. Foresman, J. V. Ortiz, J. Cioslowski, 
 and D. J. Fox, Gaussian, Inc., Wallingford CT, 2009.
 
 ******************************************
 Gaussian 09:  EM64L-G09RevA.02 11-Jun-2009
                12-Feb-2017 
 ******************************************
 %chk=structure_255.chk
 %NProcShared=8
 Will use up to    8 processors via shared memory.
 -------------------
 #SP MP2/aug-cc-pVDZ
 -------------------
 1/38=1/1;
 2/12=2,17=6,18=5,40=1/2;
 3/5=16,7=10,11=9,16=1,25=1,30=1/1,2,3;
 4//1;
 5/5=2,38=5/2;
 8/10=1/1;
 9/16=-3/6;
 6/7=2,8=2,9=2,10=2/1;
 99/5=1,9=1/99;
 -------------------------------
 Single Point calculation at MP2
 -------------------------------
 Symbolic Z-matrix:
 Charge =  0 Multiplicity = 1
 H                     3.5646   -1.154    -1.4958 
 C                     3.0587   -1.3737   -0.5514 
 H                     3.8347   -1.5516    0.2004 
 H                     2.4628   -2.2841   -0.6688 
 C                     2.249    -0.1479   -0.1401 
 O                     2.7585    0.9653   -0.1024 
 N                     0.9401   -0.4141    0.1659 
 H                     0.6799   -1.3848    0.2878 
 C                    -0.0552    0.5296    0.6949 
 H                     0.0572    0.6116    1.7849 
 C                     0.0417    1.9305    0.0811 
 H                     0.0318    1.8925   -1.0147 
 H                    -0.7992    2.5415    0.4291 
 H                     0.9764    2.4082    0.3692 
 C                    -1.4073   -0.1903    0.4798 
 O                    -1.6738   -1.1797    1.1578 
 N                    -2.1943    0.2559   -0.5341 
 H                    -1.9069    1.0763   -1.0456 
 C                    -3.4617   -0.3685   -0.8736 
 H                    -3.5969   -1.2187   -0.2042 
 H                    -4.2957    0.3307   -0.7417 
 H                    -3.4578   -0.7225   -1.911 
 
                          Input orientation:                          
 ---------------------------------------------------------------------
 Center     Atomic      Atomic             Coordinates (Angstroms)
 Number     Number       Type             X           Y           Z
 ---------------------------------------------------------------------
      1          1           0        3.564600   -1.154000   -1.495800
      2          6           0        3.058700   -1.373700   -0.551400
      3          1           0        3.834700   -1.551600    0.200400
      4          1           0        2.462800   -2.284100   -0.668800
      5          6           0        2.249000   -0.147900   -0.140100
      6          8           0        2.758500    0.965300   -0.102400
      7          7           0        0.940100   -0.414100    0.165900
      8          1           0        0.679900   -1.384800    0.287800
      9          6           0       -0.055200    0.529600    0.694900
     10          1           0        0.057200    0.611600    1.784900
     11          6           0        0.041700    1.930500    0.081100
     12          1           0        0.031800    1.892500   -1.014700
     13          1           0       -0.799200    2.541500    0.429100
     14          1           0        0.976400    2.408200    0.369200
     15          6           0       -1.407300   -0.190300    0.479800
     16          8           0       -1.673800   -1.179700    1.157800
     17          7           0       -2.194300    0.255900   -0.534100
     18          1           0       -1.906900    1.076300   -1.045600
     19          6           0       -3.461700   -0.368500   -0.873600
     20          1           0       -3.596900   -1.218700   -0.204200
     21          1           0       -4.295700    0.330700   -0.741700
     22          1           0       -3.457800   -0.722500   -1.911000
 ---------------------------------------------------------------------
                    Distance matrix (angstroms):
                    1          2          3          4          5
     1  H    0.000000
     2  C    1.093661   0.000000
     3  H    1.762990   1.095001   0.000000
     4  H    1.781858   1.094398   1.781621   0.000000
     5  C    2.140318   1.525571   2.144938   2.211014   0.000000
     6  O    2.661352   2.400550   2.754030   3.311623   1.224837
     7  N    3.193227   2.433889   3.110274   2.551909   1.370298
     8  H    3.399410   2.522512   3.160415   2.214172   2.043305
     9  C    4.553749   3.856448   4.439284   4.014587   2.542748
    10  H    5.116854   4.290538   4.632449   4.493621   3.014374
    11  C    4.940807   4.518859   5.150350   4.918021   3.039877
    12  H    4.689701   4.477146   5.272603   4.844935   3.137536
    13  H    6.033632   5.583329   6.186986   5.927263   4.104678
    14  H    4.781869   4.414323   4.886552   5.030359   2.900439
    15  C    5.436129   4.733811   5.423077   4.547632   3.708720
    16  O    5.872230   5.035430   5.603436   4.654850   4.258816
    17  N    6.006464   5.499991   6.336828   5.306442   4.478974
    18  H    5.925726   5.559129   6.436175   5.525264   4.426071
    19  C    7.097396   6.605290   7.469314   6.229861   5.761838
    20  H    7.277328   6.666452   7.450047   6.170162   5.943506
    21  H    8.034757   7.551715   8.398453   7.247056   6.589695
    22  H    7.047885   6.688598   7.637144   6.247812   6.002818
                    6          7          8          9         10
     6  O    0.000000
     7  N    2.298110   0.000000
     8  H    3.161614   1.012335   0.000000
     9  C    2.956760   1.470045   2.090701   0.000000
    10  H    3.314216   2.110150   2.571901   1.098844   0.000000
    11  C    2.888994   2.512262   3.382490   1.532534   2.154686
    12  H    3.021073   2.745766   3.585699   2.188104   3.078816
    13  H    3.927356   3.439478   4.198039   2.161464   2.509209
    14  H    2.340993   2.829846   3.805442   2.167814   2.465138
    15  C    4.362139   2.378846   2.412488   1.546835   2.119219
    16  O    5.082756   2.898704   2.517711   2.399135   2.568729
    17  N    5.021936   3.280757   3.410050   2.482157   3.251697
    18  H    4.761082   3.434302   3.811365   2.599426   3.476401
    19  C    6.408171   4.523105   4.419793   3.856296   4.517840
    20  H    6.720962   4.622632   4.308210   4.050750   4.545213
    21  H    7.111481   5.365824   5.362780   4.481654   5.040868
    22  H    6.690448   4.873412   4.732222   4.464992   5.272070
                   11         12         13         14         15
    11  C    0.000000
    12  H    1.096503   0.000000
    13  H    1.096147   1.787826   0.000000
    14  H    1.088514   1.753110   1.781604   0.000000
    15  C    2.599299   2.939829   2.799123   3.527954   0.000000
    16  O    3.711545   4.131252   3.891434   4.529732   1.228665
    17  N    2.860499   2.804453   2.845703   3.937218   1.358844
    18  H    2.407520   2.103734   2.355536   3.476929   2.044681
    19  C    4.297751   4.163721   4.153797   5.380646   2.466578
    20  H    4.820609   4.848086   4.729408   5.865003   2.513923
    21  H    4.695679   4.608796   4.299293   5.774525   3.179050
    22  H    4.822175   4.451841   4.816422   5.887506   3.194325
                   16         17         18         19         20
    16  O    0.000000
    17  N    2.279121   0.000000
    18  H    3.162095   1.008607   0.000000
    19  C    2.825105   1.453079   2.129421   0.000000
    20  H    2.356879   2.061690   2.971713   1.090512   0.000000
    21  H    3.572642   2.112954   2.520841   1.096282   1.782658
    22  H    3.578997   2.109396   2.527823   1.096143   1.782899
                   21         22
    21  H    0.000000
    22  H    1.782854   0.000000
 Stoichiometry    C6H12N2O2
 Framework group  C1[X(C6H12N2O2)]
 Deg. of freedom    60
 Full point group                 C1      NOp   1
 Largest Abelian subgroup         C1      NOp   1
 Largest concise Abelian subgroup C1      NOp   1
                         Standard orientation:                         
 ---------------------------------------------------------------------
 Center     Atomic      Atomic             Coordinates (Angstroms)
 Number     Number       Type             X           Y           Z
 ---------------------------------------------------------------------
      1          1           0        3.564599   -1.153999   -1.495795
      2          6           0        3.058700   -1.373700   -0.551395
      3          1           0        3.834701   -1.551598    0.200405
      4          1           0        2.462803   -2.284102   -0.668795
      5          6           0        2.248997   -0.147903   -0.140095
      6          8           0        2.758493    0.965299   -0.102395
      7          7           0        0.940097   -0.414106    0.165905
      8          1           0        0.679900   -1.384807    0.287805
      9          6           0       -0.055205    0.529591    0.694905
     10          1           0        0.057194    0.611591    1.784905
     11          6           0        0.041691    1.930491    0.081105
     12          1           0        0.031791    1.892491   -1.014695
     13          1           0       -0.799211    2.541489    0.429105
     14          1           0        0.976389    2.408194    0.369205
     15          6           0       -1.407303   -0.190313    0.479805
     16          8           0       -1.673801   -1.179714    1.157805
     17          7           0       -2.194305    0.255885   -0.534095
     18          1           0       -1.906907    1.076286   -1.045595
     19          6           0       -3.461703   -0.368519   -0.873595
     20          1           0       -3.596900   -1.218719   -0.204195
     21          1           0       -4.295705    0.330679   -0.741695
     22          1           0       -3.457802   -0.722519   -1.910995
 ---------------------------------------------------------------------
 Rotational constants (GHZ):      2.4761540      0.6918175      0.6205434
 Standard basis: Aug-CC-pVDZ (5D, 7F)
 There are   338 symmetry adapted basis functions of A   symmetry.
 Integral buffers will be    131072 words long.
 Raffenetti 1 integral format.
 Two-electron integral symmetry is turned on.
   338 basis functions,   562 primitive gaussians,   358 cartesian basis functions
    39 alpha electrons       39 beta electrons
       nuclear repulsion energy       550.3613606214 Hartrees.
 NAtoms=   22 NActive=   22 NUniq=   22 SFac= 7.50D-01 NAtFMM=   80 NAOKFM=F Big=F
 One-electron integrals computed using PRISM.
 NBasis=   338 RedAO= T  NBF=   338
 NBsUse=   338 1.00D-06 NBFU=   338
 Harris functional with IExCor=  205 diagonalized for initial guess.
 ExpMin= 2.97D-02 ExpMax= 1.17D+04 ExpMxC= 4.01D+02 IAcc=3 IRadAn=         0 AccDes= 0.00D+00
 HarFok:  IExCor=  205 AccDes= 0.00D+00 IRadAn=         0 IDoV= 1
 ScaDFX=  1.000000  1.000000  1.000000  1.000000
 FoFCou: FMM=F IPFlag=           0 FMFlag=      100000 FMFlg1=           0
         NFxFlg=           0 DoJE=T BraDBF=F KetDBF=T FulRan=T
         Omega=  0.000000  0.000000  1.000000  0.000000  0.000000 ICntrl=     500 IOpCl=  0
         NMat0=    1 NMatS0=    1 NMatT0=    0 NMatD0=    1 NMtDS0=    0 NMtDT0=    0
         I1Cent=           4 NGrid=           0.
 Petite list used in FoFCou.
 Initial guess orbital symmetries:
       Occupied  (A) (A) (A) (A) (A) (A) (A) (A) (A) (A) (A) (A)
                 (A) (A) (A) (A) (A) (A) (A) (A) (A) (A) (A) (A)
                 (A) (A) (A) (A) (A) (A) (A) (A) (A) (A) (A) (A)
                 (A) (A) (A)
       Virtual   (A) (A) (A) (A) (A) (A) (A) (A) (A) (A) (A) (A)
                 (A) (A) (A) (A) (A) (A) (A) (A) (A) (A) (A) (A)
                 (A) (A) (A) (A) (A) (A) (A) (A) (A) (A) (A) (A)
                 (A) (A) (A) (A) (A) (A) (A) (A) (A) (A) (A) (A)
                 (A) (A) (A) (A) (A) (A) (A) (A) (A) (A) (A) (A)
                 (A) (A) (A) (A) (A) (A) (A) (A) (A) (A) (A) (A)
                 (A) (A) (A) (A) (A) (A) (A) (A) (A) (A) (A) (A)
                 (A) (A) (A) (A) (A) (A) (A) (A) (A) (A) (A) (A)
                 (A) (A) (A) (A) (A) (A) (A) (A) (A) (A) (A) (A)
                 (A) (A) (A) (A) (A) (A) (A) (A) (A) (A) (A) (A)
                 (A) (A) (A) (A) (A) (A) (A) (A) (A) (A) (A) (A)
                 (A) (A) (A) (A) (A) (A) (A) (A) (A) (A) (A) (A)
                 (A) (A) (A) (A) (A) (A) (A) (A) (A) (A) (A) (A)
                 (A) (A) (A) (A) (A) (A) (A) (A) (A) (A) (A) (A)
                 (A) (A) (A) (A) (A) (A) (A) (A) (A) (A) (A) (A)
                 (A) (A) (A) (A) (A) (A) (A) (A) (A) (A) (A) (A)
                 (A) (A) (A) (A) (A) (A) (A) (A) (A) (A) (A) (A)
                 (A) (A) (A) (A) (A) (A) (A) (A) (A) (A) (A) (A)
                 (A) (A) (A) (A) (A) (A) (A) (A) (A) (A) (A) (A)
                 (A) (A) (A) (A) (A) (A) (A) (A) (A) (A) (A) (A)
                 (A) (A) (A) (A) (A) (A) (A) (A) (A) (A) (A) (A)
                 (A) (A) (A) (A) (A) (A) (A) (A) (A) (A) (A) (A)
                 (A) (A) (A) (A) (A) (A) (A) (A) (A) (A) (A) (A)
                 (A) (A) (A) (A) (A) (A) (A) (A) (A) (A) (A) (A)
                 (A) (A) (A) (A) (A) (A) (A) (A) (A) (A) (A)
 The electronic state of the initial guess is 1-A.
 Requested convergence on RMS density matrix=1.00D-08 within 128 cycles.
 Requested convergence on MAX density matrix=1.00D-06.
 Requested convergence on             energy=1.00D-06.
 No special actions if energy rises.
 Initial convergence to 1.0D-05 achieved.  Increase integral accuracy.
 SCF Done:  E(RHF) =  -492.916848014     A.U. after   14 cycles
             Convg  =    0.7571D-08             -V/T =  2.0017
 ExpMin= 2.97D-02 ExpMax= 1.17D+04 ExpMxC= 4.01D+02 IAcc=3 IRadAn=         5 AccDes= 0.00D+00
 HarFok:  IExCor=  205 AccDes= 0.00D+00 IRadAn=         5 IDoV=-2
 ScaDFX=  1.000000  1.000000  1.000000  1.000000
 Range of M.O.s used for correlation:    11   338
 NBasis=   338 NAE=    39 NBE=    39 NFC=    10 NFV=     0
 NROrb=    328 NOA=    29 NOB=    29 NVA=   299 NVB=   299

 **** Warning!!: The largest alpha MO coefficient is  0.65698497D+02

 Disk-based method using OVN memory for 29 occupieds at a time.
 Estimated scratch disk usage=  1373253914 words.
 Actual    scratch disk usage=  1360020340 words.
 JobTyp=1 Pass  1:  I=   1 to  29 NPSUse=  8 ParTrn=T ParDer=T DoDerP=F.
 Spin components of T(2) and E(2):
     alpha-alpha T2 =       0.6795162818D-01 E2=     -0.2058627085D+00
     alpha-beta  T2 =       0.3766417198D+00 E2=     -0.1190359570D+01
     beta-beta   T2 =       0.6795162818D-01 E2=     -0.2058627085D+00
 ANorm=    0.1229855673D+01
 E2 =    -0.1602084987D+01 EUMP2 =    -0.49451893300104D+03

 **********************************************************************

            Population analysis using the SCF density.

 **********************************************************************

 Orbital symmetries:
       Occupied  (A) (A) (A) (A) (A) (A) (A) (A) (A) (A) (A) (A)
                 (A) (A) (A) (A) (A) (A) (A) (A) (A) (A) (A) (A)
                 (A) (A) (A) (A) (A) (A) (A) (A) (A) (A) (A) (A)
                 (A) (A) (A)
       Virtual   (A) (A) (A) (A) (A) (A) (A) (A) (A) (A) (A) (A)
                 (A) (A) (A) (A) (A) (A) (A) (A) (A) (A) (A) (A)
                 (A) (A) (A) (A) (A) (A) (A) (A) (A) (A) (A) (A)
                 (A) (A) (A) (A) (A) (A) (A) (A) (A) (A) (A) (A)
                 (A) (A) (A) (A) (A) (A) (A) (A) (A) (A) (A) (A)
                 (A) (A) (A) (A) (A) (A) (A) (A) (A) (A) (A) (A)
                 (A) (A) (A) (A) (A) (A) (A) (A) (A) (A) (A) (A)
                 (A) (A) (A) (A) (A) (A) (A) (A) (A) (A) (A) (A)
                 (A) (A) (A) (A) (A) (A) (A) (A) (A) (A) (A) (A)
                 (A) (A) (A) (A) (A) (A) (A) (A) (A) (A) (A) (A)
                 (A) (A) (A) (A) (A) (A) (A) (A) (A) (A) (A) (A)
                 (A) (A) (A) (A) (A) (A) (A) (A) (A) (A) (A) (A)
                 (A) (A) (A) (A) (A) (A) (A) (A) (A) (A) (A) (A)
                 (A) (A) (A) (A) (A) (A) (A) (A) (A) (A) (A) (A)
                 (A) (A) (A) (A) (A) (A) (A) (A) (A) (A) (A) (A)
                 (A) (A) (A) (A) (A) (A) (A) (A) (A) (A) (A) (A)
                 (A) (A) (A) (A) (A) (A) (A) (A) (A) (A) (A) (A)
                 (A) (A) (A) (A) (A) (A) (A) (A) (A) (A) (A) (A)
                 (A) (A) (A) (A) (A) (A) (A) (A) (A) (A) (A) (A)
                 (A) (A) (A) (A) (A) (A) (A) (A) (A) (A) (A) (A)
                 (A) (A) (A) (A) (A) (A) (A) (A) (A) (A) (A) (A)
                 (A) (A) (A) (A) (A) (A) (A) (A) (A) (A) (A) (A)
                 (A) (A) (A) (A) (A) (A) (A) (A) (A) (A) (A) (A)
                 (A) (A) (A) (A) (A) (A) (A) (A) (A) (A) (A) (A)
                 (A) (A) (A) (A) (A) (A) (A) (A) (A) (A) (A)
 The electronic state is 1-A.
 Alpha  occ. eigenvalues --  -20.53813 -20.52977 -15.60587 -15.60028 -11.36829
 Alpha  occ. eigenvalues --  -11.36570 -11.29945 -11.27526 -11.24658 -11.23627
 Alpha  occ. eigenvalues --   -1.39393  -1.38274  -1.24561  -1.23683  -1.05915
 Alpha  occ. eigenvalues --   -0.99209  -0.95988  -0.89651  -0.80157  -0.77684
 Alpha  occ. eigenvalues --   -0.72909  -0.68636  -0.66749  -0.65224  -0.62534
 Alpha  occ. eigenvalues --   -0.61876  -0.59255  -0.58917  -0.56646  -0.55939
 Alpha  occ. eigenvalues --   -0.55863  -0.54277  -0.53802  -0.52394  -0.50395
 Alpha  occ. eigenvalues --   -0.43714  -0.41962  -0.40169  -0.39302
 Alpha virt. eigenvalues --    0.02842   0.03733   0.04321   0.04688   0.05610
 Alpha virt. eigenvalues --    0.06027   0.06347   0.06904   0.06993   0.07927
 Alpha virt. eigenvalues --    0.09275   0.09817   0.10885   0.11657   0.13053
 Alpha virt. eigenvalues --    0.13358   0.13765   0.14415   0.14645   0.15086
 Alpha virt. eigenvalues --    0.15758   0.15858   0.16587   0.17126   0.17436
 Alpha virt. eigenvalues --    0.17779   0.17844   0.18152   0.18482   0.18829
 Alpha virt. eigenvalues --    0.19224   0.19651   0.20428   0.21037   0.21605
 Alpha virt. eigenvalues --    0.22876   0.23750   0.25268   0.25641   0.25822
 Alpha virt. eigenvalues --    0.27115   0.27920   0.28817   0.29689   0.31123
 Alpha virt. eigenvalues --    0.31457   0.32138   0.32557   0.32921   0.33294
 Alpha virt. eigenvalues --    0.33970   0.34931   0.35466   0.35814   0.35957
 Alpha virt. eigenvalues --    0.37007   0.38000   0.38319   0.38584   0.39128
 Alpha virt. eigenvalues --    0.40156   0.41138   0.41613   0.41949   0.42764
 Alpha virt. eigenvalues --    0.43068   0.43898   0.44379   0.44851   0.44971
 Alpha virt. eigenvalues --    0.46113   0.46822   0.47665   0.47803   0.48485
 Alpha virt. eigenvalues --    0.49544   0.49846   0.51129   0.51501   0.52364
 Alpha virt. eigenvalues --    0.52618   0.53266   0.53948   0.54734   0.55418
 Alpha virt. eigenvalues --    0.56200   0.56693   0.56865   0.58011   0.58757
 Alpha virt. eigenvalues --    0.59487   0.60479   0.60928   0.62357   0.62564
 Alpha virt. eigenvalues --    0.62867   0.63475   0.63976   0.64074   0.64992
 Alpha virt. eigenvalues --    0.65955   0.66464   0.67379   0.67940   0.68244
 Alpha virt. eigenvalues --    0.70175   0.70771   0.71017   0.71544   0.71802
 Alpha virt. eigenvalues --    0.72594   0.73290   0.74216   0.74645   0.75204
 Alpha virt. eigenvalues --    0.75528   0.76778   0.77883   0.78761   0.79532
 Alpha virt. eigenvalues --    0.80526   0.81267   0.82054   0.82218   0.83861
 Alpha virt. eigenvalues --    0.84634   0.85309   0.85809   0.87346   0.87431
 Alpha virt. eigenvalues --    0.88570   0.89546   0.91327   0.91957   0.93197
 Alpha virt. eigenvalues --    0.93771   0.95307   0.96318   0.97594   0.98257
 Alpha virt. eigenvalues --    0.99262   1.00098   1.02155   1.03235   1.05089
 Alpha virt. eigenvalues --    1.05325   1.06458   1.06897   1.10567   1.10748
 Alpha virt. eigenvalues --    1.12484   1.12644   1.13812   1.14405   1.15721
 Alpha virt. eigenvalues --    1.16373   1.18081   1.20149   1.20811   1.21175
 Alpha virt. eigenvalues --    1.21920   1.24323   1.24668   1.27944   1.30652
 Alpha virt. eigenvalues --    1.31921   1.33346   1.35696   1.37167   1.38817
 Alpha virt. eigenvalues --    1.40556   1.41405   1.42563   1.45690   1.47491
 Alpha virt. eigenvalues --    1.49934   1.50060   1.50921   1.52739   1.53897
 Alpha virt. eigenvalues --    1.54740   1.57213   1.58521   1.60992   1.66665
 Alpha virt. eigenvalues --    1.67505   1.67807   1.70014   1.70883   1.71490
 Alpha virt. eigenvalues --    1.74594   1.75953   1.79086   1.79307   1.79972
 Alpha virt. eigenvalues --    1.81376   1.82994   1.86554   1.87510   1.88086
 Alpha virt. eigenvalues --    1.88871   1.89350   1.90101   1.92728   1.95459
 Alpha virt. eigenvalues --    1.96039   1.96949   1.98885   1.99041   2.00624
 Alpha virt. eigenvalues --    2.02508   2.04191   2.04599   2.05695   2.09778
 Alpha virt. eigenvalues --    2.10477   2.13340   2.15291   2.16445   2.17891
 Alpha virt. eigenvalues --    2.17999   2.19138   2.20890   2.22026   2.22671
 Alpha virt. eigenvalues --    2.24689   2.26418   2.27861   2.28841   2.29808
 Alpha virt. eigenvalues --    2.31300   2.32021   2.32975   2.34073   2.35930
 Alpha virt. eigenvalues --    2.36896   2.40003   2.41236   2.43371   2.43951
 Alpha virt. eigenvalues --    2.45249   2.45822   2.47857   2.50709   2.51330
 Alpha virt. eigenvalues --    2.52219   2.55192   2.56951   2.58899   2.60852
 Alpha virt. eigenvalues --    2.62260   2.62614   2.66132   2.67174   2.68497
 Alpha virt. eigenvalues --    2.71771   2.73275   2.76266   2.76997   2.78363
 Alpha virt. eigenvalues --    2.80801   2.83068   2.85080   2.86577   2.88010
 Alpha virt. eigenvalues --    2.89471   2.91871   2.96413   2.97034   2.98155
 Alpha virt. eigenvalues --    3.00235   3.02632   3.04164   3.05648   3.07402
 Alpha virt. eigenvalues --    3.10507   3.11818   3.16508   3.21238   3.24103
 Alpha virt. eigenvalues --    3.30104   3.36386   3.44660   3.47243   3.54664
 Alpha virt. eigenvalues --    3.64299   3.65326   3.73037   3.82968   3.84303
 Alpha virt. eigenvalues --    3.84946   3.86185   3.88620   3.97039   4.02687
 Alpha virt. eigenvalues --    4.06258   4.07227   4.20024   4.23731
          Condensed to atoms (all electrons):
              1          2          3          4          5          6
     1  H    0.754627   0.363124  -0.052849  -0.091356  -0.074833   0.022945
     2  C    0.363124   4.493379   0.351072   0.339340   0.188811  -0.030490
     3  H   -0.052849   0.351072   0.736446  -0.068518  -0.087197   0.015522
     4  H   -0.091356   0.339340  -0.068518   1.124158   0.122934  -0.009573
     5  C   -0.074833   0.188811  -0.087197   0.122934   5.661061   0.151563
     6  O    0.022945  -0.030490   0.015522  -0.009573   0.151563   8.740788
     7  N    0.048889  -0.061405   0.060371  -0.222925   0.042840  -0.121362
     8  H   -0.004898  -0.059238  -0.004299  -0.003665  -0.119357  -0.001045
     9  C    0.008146   0.052119  -0.006350  -0.015497  -0.348510   0.107752
    10  H    0.000822  -0.000914  -0.003755   0.000602  -0.022140   0.016116
    11  C   -0.000077  -0.010975   0.005005  -0.008549  -0.076241   0.011921
    12  H   -0.001011  -0.004272  -0.000018  -0.001422  -0.001644   0.030619
    13  H    0.000189  -0.001321   0.000298  -0.001198  -0.065935   0.008277
    14  H   -0.000683   0.004541   0.000651   0.000940   0.081982  -0.071489
    15  C   -0.001142  -0.019853   0.002624  -0.004844  -0.037925  -0.015450
    16  O    0.000050  -0.000243  -0.000337   0.002083  -0.011482   0.001532
    17  N    0.000588  -0.003495   0.000173  -0.002797   0.015179  -0.001777
    18  H   -0.000067   0.001815   0.000098   0.001026   0.010840  -0.001808
    19  C    0.000033  -0.003078  -0.000060  -0.000769   0.002194  -0.001169
    20  H   -0.000030  -0.000336   0.000005  -0.000353  -0.003361   0.000060
    21  H   -0.000023  -0.000059   0.000006  -0.000044   0.000850  -0.000030
    22  H    0.000076   0.000178  -0.000012   0.000233   0.000919  -0.000066
              7          8          9         10         11         12
     1  H    0.048889  -0.004898   0.008146   0.000822  -0.000077  -0.001011
     2  C   -0.061405  -0.059238   0.052119  -0.000914  -0.010975  -0.004272
     3  H    0.060371  -0.004299  -0.006350  -0.003755   0.005005  -0.000018
     4  H   -0.222925  -0.003665  -0.015497   0.000602  -0.008549  -0.001422
     5  C    0.042840  -0.119357  -0.348510  -0.022140  -0.076241  -0.001644
     6  O   -0.121362  -0.001045   0.107752   0.016116   0.011921   0.030619
     7  N    7.872577   0.328271  -0.780496  -0.005710   0.033404  -0.030188
     8  H    0.328271   0.983979  -0.152014   0.012212  -0.001718  -0.002876
     9  C   -0.780496  -0.152014   7.663132   0.033863   0.102884  -0.037765
    10  H   -0.005710   0.012212   0.033863   1.144332   0.022559   0.064505
    11  C    0.033404  -0.001718   0.102884   0.022559   4.288727   0.308926
    12  H   -0.030188  -0.002876  -0.037765   0.064505   0.308926   1.048069
    13  H    0.077476   0.000926  -0.251991  -0.050445   0.313669  -0.146922
    14  H   -0.028688  -0.000177   0.066633  -0.038318   0.298695  -0.233215
    15  C    0.205058   0.060588  -0.502424  -0.192896  -0.059686  -0.138976
    16  O   -0.024208   0.031259   0.016114   0.035350   0.027841   0.007110
    17  N    0.054364   0.000854  -0.113762   0.081975   0.027219   0.056852
    18  H    0.007536  -0.003715  -0.001064  -0.009139  -0.007864   0.008141
    19  C    0.029245   0.005344  -0.119584   0.007363  -0.002794   0.003871
    20  H   -0.004880   0.001123  -0.026319   0.001750  -0.003273   0.001663
    21  H    0.003981   0.001558  -0.044516  -0.003755   0.015894  -0.002325
    22  H   -0.002068  -0.003038   0.044916   0.001553  -0.007087  -0.002522
             13         14         15         16         17         18
     1  H    0.000189  -0.000683  -0.001142   0.000050   0.000588  -0.000067
     2  C   -0.001321   0.004541  -0.019853  -0.000243  -0.003495   0.001815
     3  H    0.000298   0.000651   0.002624  -0.000337   0.000173   0.000098
     4  H   -0.001198   0.000940  -0.004844   0.002083  -0.002797   0.001026
     5  C   -0.065935   0.081982  -0.037925  -0.011482   0.015179   0.010840
     6  O    0.008277  -0.071489  -0.015450   0.001532  -0.001777  -0.001808
     7  N    0.077476  -0.028688   0.205058  -0.024208   0.054364   0.007536
     8  H    0.000926  -0.000177   0.060588   0.031259   0.000854  -0.003715
     9  C   -0.251991   0.066633  -0.502424   0.016114  -0.113762  -0.001064
    10  H   -0.050445  -0.038318  -0.192896   0.035350   0.081975  -0.009139
    11  C    0.313669   0.298695  -0.059686   0.027841   0.027219  -0.007864
    12  H   -0.146922  -0.233215  -0.138976   0.007110   0.056852   0.008141
    13  H    1.422941  -0.332788   0.104699  -0.004752   0.009015  -0.013897
    14  H   -0.332788   1.302972   0.067237  -0.001541  -0.036436   0.008240
    15  C    0.104699   0.067237   5.514600   0.143426   0.095524  -0.089333
    16  O   -0.004752  -0.001541   0.143426   8.824344  -0.128446   0.019093
    17  N    0.009015  -0.036436   0.095524  -0.128446   7.148222   0.281262
    18  H   -0.013897   0.008240  -0.089333   0.019093   0.281262   1.020545
    19  C    0.013552  -0.001170  -0.051236  -0.022352   0.224264  -0.125431
    20  H    0.000991   0.000062   0.027784  -0.006631  -0.043820  -0.004306
    21  H    0.000692   0.001419   0.024795   0.006457  -0.044623  -0.000530
    22  H   -0.001241   0.000484  -0.054753   0.012060  -0.020807   0.005209
             19         20         21         22
     1  H    0.000033  -0.000030  -0.000023   0.000076
     2  C   -0.003078  -0.000336  -0.000059   0.000178
     3  H   -0.000060   0.000005   0.000006  -0.000012
     4  H   -0.000769  -0.000353  -0.000044   0.000233
     5  C    0.002194  -0.003361   0.000850   0.000919
     6  O   -0.001169   0.000060  -0.000030  -0.000066
     7  N    0.029245  -0.004880   0.003981  -0.002068
     8  H    0.005344   0.001123   0.001558  -0.003038
     9  C   -0.119584  -0.026319  -0.044516   0.044916
    10  H    0.007363   0.001750  -0.003755   0.001553
    11  C   -0.002794  -0.003273   0.015894  -0.007087
    12  H    0.003871   0.001663  -0.002325  -0.002522
    13  H    0.013552   0.000991   0.000692  -0.001241
    14  H   -0.001170   0.000062   0.001419   0.000484
    15  C   -0.051236   0.027784   0.024795  -0.054753
    16  O   -0.022352  -0.006631   0.006457   0.012060
    17  N    0.224264  -0.043820  -0.044623  -0.020807
    18  H   -0.125431  -0.004306  -0.000530   0.005209
    19  C    4.157386   0.499873   0.332546   0.314233
    20  H    0.499873   0.959138  -0.127358  -0.123276
    21  H    0.332546  -0.127358   1.069724  -0.141024
    22  H    0.314233  -0.123276  -0.141024   1.077607
 Mulliken atomic charges:
              1
     1  H    0.027480
     2  C    0.401301
     3  H    0.051125
     4  H   -0.159804
     5  C    0.569452
     6  O   -0.852836
     7  N   -0.482081
     8  H   -0.070072
     9  C    0.304733
    10  H   -0.095930
    11  C    0.721519
    12  H    0.073400
    13  H   -0.082234
    14  H   -0.089352
    15  C    0.922183
    16  O   -0.926728
    17  N   -0.599527
    18  H   -0.106651
    19  C    0.737736
    20  H   -0.148504
    21  H   -0.093636
    22  H   -0.101574
 Sum of Mulliken atomic charges =   0.00000
 Mulliken charges with hydrogens summed into heavy atoms:
              1
     2  C    0.320103
     5  C    0.569452
     6  O   -0.852836
     7  N   -0.552153
     9  C    0.208803
    11  C    0.623333
    15  C    0.922183
    16  O   -0.926728
    17  N   -0.706178
    19  C    0.394022
 Sum of Mulliken charges with hydrogens summed into heavy atoms =   0.00000
 Electronic spatial extent (au):  <R**2>=           1923.4582
 Charge=              0.0000 electrons
 Dipole moment (field-independent basis, Debye):
    X=             -1.9913    Y=             -0.1701    Z=             -2.3182  Tot=              3.0608
 Quadrupole moment (field-independent basis, Debye-Ang):
   XX=            -63.4156   YY=            -61.8953   ZZ=            -61.8968
   XY=            -13.7747   XZ=              5.9775   YZ=              3.4079
 Traceless Quadrupole moment (field-independent basis, Debye-Ang):
   XX=             -1.0130   YY=              0.5072   ZZ=              0.5058
   XY=            -13.7747   XZ=              5.9775   YZ=              3.4079
 Octapole moment (field-independent basis, Debye-Ang**2):
  XXX=            -38.6748  YYY=             -0.8031  ZZZ=             -4.5970  XYY=              0.2681
  XXY=            -22.7910  XXZ=            -15.1419  XZZ=              4.4578  YZZ=              6.1422
  YYZ=             -4.2760  XYZ=             -3.0249
 Hexadecapole moment (field-independent basis, Debye-Ang**3):
 XXXX=          -1792.4683 YYYY=           -465.6480 ZZZZ=           -223.9788 XXXY=            -81.1039
 XXXZ=             29.3078 YYYX=             -8.3590 YYYZ=              1.5598 ZZZX=              7.6587
 ZZZY=              2.6047 XXYY=           -394.9704 XXZZ=           -335.0937 YYZZ=           -120.1228
 XXYZ=             11.2726 YYXZ=             10.9759 ZZXY=             -8.0310
 N-N= 5.503613606214D+02 E-N=-2.255794997499D+03  KE= 4.920713402667D+02
 1\1\GINC-NODE011\SP\RMP2-FC\Aug-CC-pVDZ\C6H12N2O2\MANAGER\12-Feb-2017\
 0\\#SP MP2/aug-cc-pVDZ\\Single Point calculation at MP2\\0,1\H,0,3.564
 6,-1.154,-1.4958\C,0,3.0587,-1.3737,-0.5514\H,0,3.8347,-1.5516,0.2004\
 H,0,2.4628,-2.2841,-0.6688\C,0,2.249,-0.1479,-0.1401\O,0,2.7585,0.9653
 ,-0.1024\N,0,0.9401,-0.4141,0.1659\H,0,0.6799,-1.3848,0.2878\C,0,-0.05
 52,0.5296,0.6949\H,0,0.0572,0.6116,1.7849\C,0,0.0417,1.9305,0.0811\H,0
 ,0.0318,1.8925,-1.0147\H,0,-0.7992,2.5415,0.4291\H,0,0.9764,2.4082,0.3
 692\C,0,-1.4073,-0.1903,0.4798\O,0,-1.6738,-1.1797,1.1578\N,0,-2.1943,
 0.2559,-0.5341\H,0,-1.9069,1.0763,-1.0456\C,0,-3.4617,-0.3685,-0.8736\
 H,0,-3.5969,-1.2187,-0.2042\H,0,-4.2957,0.3307,-0.7417\H,0,-3.4578,-0.
 7225,-1.911\\Version=EM64L-G09RevA.02\State=1-A\HF=-492.916848\MP2=-49
 4.518933\RMSD=7.571e-09\PG=C01 [X(C6H12N2O2)]\\@


 THE ... SCIENTISTS WERE WRONG ... THE MOST PERSISTENT PRINCIPLES 
 OF THE UNIVERSE WERE ACCIDENT AND ERROR.

                          -- FRANK HERBERT IN DUNE
 Job cpu time:  0 days 12 hours 22 minutes 21.9 seconds.
 File lengths (MBytes):  RWF=  10493 Int=      0 D2E=      0 Chk=      7 Scr=      2
 Normal termination of Gaussian 09 at Sun Feb 12 23:44:21 2017.
