 Entering Gaussian System, Link 0=g09
 Initial command:
 /home/steboss/Software/g09/l1.exe /home/steboss/projects/phi_psi_scan/alanine/MP2/165/5311/Gau-8666.inp -scrdir=/home/steboss/projects/phi_psi_scan/alanine/MP2/165/5311/
 Entering Link 1 = /home/steboss/Software/g09/l1.exe PID=      8670.
  
 Copyright (c) 1988,1990,1992,1993,1995,1998,2003,2009, Gaussian, Inc.
                  All Rights Reserved.
  
 This is part of the Gaussian(R) 09 program.  It is based on
 the Gaussian(R) 03 system (copyright 2003, Gaussian, Inc.),
 the Gaussian(R) 98 system (copyright 1998, Gaussian, Inc.),
 the Gaussian(R) 94 system (copyright 1995, Gaussian, Inc.),
 the Gaussian 92(TM) system (copyright 1992, Gaussian, Inc.),
 the Gaussian 90(TM) system (copyright 1990, Gaussian, Inc.),
 the Gaussian 88(TM) system (copyright 1988, Gaussian, Inc.),
 the Gaussian 86(TM) system (copyright 1986, Carnegie Mellon
 University), and the Gaussian 82(TM) system (copyright 1983,
 Carnegie Mellon University). Gaussian is a federally registered
 trademark of Gaussian, Inc.
  
 This software contains proprietary and confidential information,
 including trade secrets, belonging to Gaussian, Inc.
  
 This software is provided under written license and may be
 used, copied, transmitted, or stored only in accord with that
 written license.
  
 The following legend is applicable only to US Government
 contracts under FAR:
  
                    RESTRICTED RIGHTS LEGEND
  
 Use, reproduction and disclosure by the US Government is
 subject to restrictions as set forth in subparagraphs (a)
 and (c) of the Commercial Computer Software - Restricted
 Rights clause in FAR 52.227-19.
  
 Gaussian, Inc.
 340 Quinnipiac St., Bldg. 40, Wallingford CT 06492
  
  
 ---------------------------------------------------------------
 Warning -- This program may not be used in any manner that
 competes with the business of Gaussian, Inc. or will provide
 assistance to any competitor of Gaussian, Inc.  The licensee
 of this program is prohibited from giving any competitor of
 Gaussian, Inc. access to this program.  By using this program,
 the user acknowledges that Gaussian, Inc. is engaged in the
 business of creating and licensing software in the field of
 computational chemistry and represents and warrants to the
 licensee that it is not a competitor of Gaussian, Inc. and that
 it will not use this program in any manner prohibited above.
 ---------------------------------------------------------------
  

 Cite this work as:
 Gaussian 09, Revision A.02,
 M. J. Frisch, G. W. Trucks, H. B. Schlegel, G. E. Scuseria, 
 M. A. Robb, J. R. Cheeseman, G. Scalmani, V. Barone, B. Mennucci, 
 G. A. Petersson, H. Nakatsuji, M. Caricato, X. Li, H. P. Hratchian, 
 A. F. Izmaylov, J. Bloino, G. Zheng, J. L. Sonnenberg, M. Hada, 
 M. Ehara, K. Toyota, R. Fukuda, J. Hasegawa, M. Ishida, T. Nakajima, 
 Y. Honda, O. Kitao, H. Nakai, T. Vreven, J. A. Montgomery, Jr., 
 J. E. Peralta, F. Ogliaro, M. Bearpark, J. J. Heyd, E. Brothers, 
 K. N. Kudin, V. N. Staroverov, R. Kobayashi, J. Normand, 
 K. Raghavachari, A. Rendell, J. C. Burant, S. S. Iyengar, J. Tomasi, 
 M. Cossi, N. Rega, J. M. Millam, M. Klene, J. E. Knox, J. B. Cross, 
 V. Bakken, C. Adamo, J. Jaramillo, R. Gomperts, R. E. Stratmann, 
 O. Yazyev, A. J. Austin, R. Cammi, C. Pomelli, J. W. Ochterski, 
 R. L. Martin, K. Morokuma, V. G. Zakrzewski, G. A. Voth, 
 P. Salvador, J. J. Dannenberg, S. Dapprich, A. D. Daniels, 
 O. Farkas, J. B. Foresman, J. V. Ortiz, J. Cioslowski, 
 and D. J. Fox, Gaussian, Inc., Wallingford CT, 2009.
 
 ******************************************
 Gaussian 09:  EM64L-G09RevA.02 11-Jun-2009
                12-Feb-2017 
 ******************************************
 %chk=structure_240.chk
 %NProcShared=8
 Will use up to    8 processors via shared memory.
 -------------------
 #SP MP2/aug-cc-pVDZ
 -------------------
 1/38=1/1;
 2/12=2,17=6,18=5,40=1/2;
 3/5=16,7=10,11=9,16=1,25=1,30=1/1,2,3;
 4//1;
 5/5=2,38=5/2;
 8/10=1/1;
 9/16=-3/6;
 6/7=2,8=2,9=2,10=2/1;
 99/5=1,9=1/99;
 -------------------------------
 Single Point calculation at MP2
 -------------------------------
 Symbolic Z-matrix:
 Charge =  0 Multiplicity = 1
 H                    -3.5655   -1.0749    1.5321 
 C                    -3.1101   -1.3097    0.5654 
 H                    -3.9249   -1.4574   -0.1506 
 H                    -2.542    -2.2405    0.6567 
 C                    -2.2773   -0.1123    0.1183 
 O                    -2.7727    1.0056    0.0299 
 N                    -0.9706   -0.4081   -0.157 
 H                    -0.7037   -1.3828   -0.2201 
 C                     0.0618    0.5038   -0.6622 
 H                    -0.0258    0.5895   -1.7558 
 C                    -0.0131    1.9084   -0.055 
 H                     0.0535    1.8745    1.0389 
 H                     0.8011    2.5275   -0.4505 
 H                    -0.965     2.3739   -0.3046 
 C                     1.3851   -0.2593   -0.4104 
 O                     1.5232   -1.3845   -0.8866 
 N                     2.3057    0.327     0.3965 
 H                     2.1191    1.2506    0.7557 
 C                     3.5739   -0.3038    0.7226 
 H                     3.5742   -1.2943    0.2666 
 H                     4.4179    0.2747    0.3287 
 H                     3.6895   -0.4046    1.8077 
 
                          Input orientation:                          
 ---------------------------------------------------------------------
 Center     Atomic      Atomic             Coordinates (Angstroms)
 Number     Number       Type             X           Y           Z
 ---------------------------------------------------------------------
      1          1           0       -3.565500   -1.074900    1.532100
      2          6           0       -3.110100   -1.309700    0.565400
      3          1           0       -3.924900   -1.457400   -0.150600
      4          1           0       -2.542000   -2.240500    0.656700
      5          6           0       -2.277300   -0.112300    0.118300
      6          8           0       -2.772700    1.005600    0.029900
      7          7           0       -0.970600   -0.408100   -0.157000
      8          1           0       -0.703700   -1.382800   -0.220100
      9          6           0        0.061800    0.503800   -0.662200
     10          1           0       -0.025800    0.589500   -1.755800
     11          6           0       -0.013100    1.908400   -0.055000
     12          1           0        0.053500    1.874500    1.038900
     13          1           0        0.801100    2.527500   -0.450500
     14          1           0       -0.965000    2.373900   -0.304600
     15          6           0        1.385100   -0.259300   -0.410400
     16          8           0        1.523200   -1.384500   -0.886600
     17          7           0        2.305700    0.327000    0.396500
     18          1           0        2.119100    1.250600    0.755700
     19          6           0        3.573900   -0.303800    0.722600
     20          1           0        3.574200   -1.294300    0.266600
     21          1           0        4.417900    0.274700    0.328700
     22          1           0        3.689500   -0.404600    1.807700
 ---------------------------------------------------------------------
                    Distance matrix (angstroms):
                    1          2          3          4          5
     1  H    0.000000
     2  C    1.094088   0.000000
     3  H    1.762655   1.094701   0.000000
     4  H    1.781152   1.094286   1.782524   0.000000
     5  C    2.141235   1.525523   2.143872   2.211148   0.000000
     6  O    2.685818   2.400253   2.725163   3.314101   1.225943
     7  N    3.167205   2.431503   3.135117   2.547370   1.367755
     8  H    3.369704   2.532413   3.222813   2.209926   2.050586
     9  C    4.523776   3.854443   4.472339   4.006302   2.541682
    10  H    5.109794   4.302074   4.687158   4.490024   3.012312
    11  C    4.902908   4.509154   5.161388   4.910725   3.039714
    12  H    4.694610   4.513502   5.323921   4.880156   3.198047
    13  H    5.997932   5.572579   6.189058   5.927566   4.094951
    14  H    4.693643   4.350547   4.843922   4.970283   2.842915
    15  C    5.380237   4.718299   5.449683   4.526143   3.703283
    16  O    5.642768   4.856065   5.498073   4.431745   4.131842
    17  N    6.142141   5.660230   6.504135   5.491808   4.612404
    18  H    6.190753   5.825451   6.684653   5.824383   4.646731
    19  C    7.226404   6.761095   7.637098   6.415558   5.885439
    20  H    7.254305   6.690993   7.512467   6.201240   5.971530
    21  H    8.185613   7.696566   8.534179   7.407700   6.709675
    22  H    7.291110   6.971160   7.932365   6.597494   6.208238
                    6          7          8          9         10
     6  O    0.000000
     7  N    2.298052   0.000000
     8  H    3.169813   1.012550   0.000000
     9  C    2.960607   1.467187   2.083435   0.000000
    10  H    3.302624   2.108083   2.589959   1.100445   0.000000
    11  C    2.904763   2.508661   3.366925   1.532058   2.152296
    12  H    3.124176   2.772944   3.573295   2.184635   3.076989
    13  H    3.913951   3.441338   4.196183   2.164889   2.478591
    14  H    2.291706   2.785918   3.766724   2.163208   2.484384
    15  C    4.368196   2.373958   2.379402   1.548176   2.126312
    16  O    5.000731   2.775736   2.324502   2.398275   2.655482
    17  N    5.136637   3.403069   3.515693   2.487407   3.183896
    18  H    4.951416   3.623611   3.981856   2.607803   3.368276
    19  C    6.517184   4.630017   4.511185   3.860665   4.460750
    20  H    6.754902   4.649731   4.306407   4.053737   4.538591
    21  H    7.233825   5.453261   5.411033   4.473251   4.918405
    22  H    6.849034   5.057330   4.936502   4.481719   5.243112
                   11         12         13         14         15
    11  C    0.000000
    12  H    1.096450   0.000000
    13  H    1.096643   1.789868   0.000000
    14  H    1.088625   1.758333   1.778761   0.000000
    15  C    2.603881   2.902883   2.847616   3.530992   0.000000
    16  O    3.727595   4.060622   4.001919   4.544825   1.229599
    17  N    2.842800   2.807105   2.797040   3.921584   1.357328
    18  H    2.374071   2.176271   2.196023   3.449306   2.044100
    19  C    4.285447   4.151897   4.132898   5.369062   2.465059
    20  H    4.819692   4.799278   4.776031   5.863983   2.514302
    21  H    4.738139   4.702311   4.331686   5.812342   3.166907
    22  H    4.746458   4.359570   4.694628   5.817752   3.201771
                   16         17         18         19         20
    16  O    0.000000
    17  N    2.277693   0.000000
    18  H    3.161645   1.008405   0.000000
    19  C    2.821845   1.453472   2.129248   0.000000
    20  H    2.354699   2.062663   2.972045   1.090425   0.000000
    21  H    3.550942   2.113935   2.533612   1.096429   1.782540
    22  H    3.593371   2.107517   2.512478   1.095886   1.783213
                   21         22
    21  H    0.000000
    22  H    1.783103   0.000000
 Stoichiometry    C6H12N2O2
 Framework group  C1[X(C6H12N2O2)]
 Deg. of freedom    60
 Full point group                 C1      NOp   1
 Largest Abelian subgroup         C1      NOp   1
 Largest concise Abelian subgroup C1      NOp   1
                         Standard orientation:                         
 ---------------------------------------------------------------------
 Center     Atomic      Atomic             Coordinates (Angstroms)
 Number     Number       Type             X           Y           Z
 ---------------------------------------------------------------------
      1          1           0       -3.565500   -1.074895    1.532101
      2          6           0       -3.110100   -1.309695    0.565401
      3          1           0       -3.924900   -1.457394   -0.150599
      4          1           0       -2.542001   -2.240496    0.656701
      5          6           0       -2.277299   -0.112296    0.118301
      6          8           0       -2.772698    1.005604    0.029901
      7          7           0       -0.970599   -0.408098   -0.156999
      8          1           0       -0.703700   -1.382798   -0.220099
      9          6           0        0.061802    0.503801   -0.662199
     10          1           0       -0.025798    0.589501   -1.755799
     11          6           0       -0.013097    1.908401   -0.054999
     12          1           0        0.053503    1.874501    1.038901
     13          1           0        0.801104    2.527500   -0.450499
     14          1           0       -0.964996    2.373902   -0.304599
     15          6           0        1.385101   -0.259300   -0.410399
     16          8           0        1.523200   -1.384500   -0.886599
     17          7           0        2.305702    0.326999    0.396501
     18          1           0        2.119103    1.250599    0.755701
     19          6           0        3.573901   -0.303803    0.722601
     20          1           0        3.574200   -1.294303    0.266601
     21          1           0        4.417902    0.274696    0.328701
     22          1           0        3.689501   -0.404603    1.807701
 ---------------------------------------------------------------------
 Rotational constants (GHZ):      2.6112470      0.6882266      0.6016173
 Standard basis: Aug-CC-pVDZ (5D, 7F)
 There are   338 symmetry adapted basis functions of A   symmetry.
 Integral buffers will be    131072 words long.
 Raffenetti 1 integral format.
 Two-electron integral symmetry is turned on.
   338 basis functions,   562 primitive gaussians,   358 cartesian basis functions
    39 alpha electrons       39 beta electrons
       nuclear repulsion energy       550.2286513470 Hartrees.
 NAtoms=   22 NActive=   22 NUniq=   22 SFac= 7.50D-01 NAtFMM=   80 NAOKFM=F Big=F
 One-electron integrals computed using PRISM.
 NBasis=   338 RedAO= T  NBF=   338
 NBsUse=   338 1.00D-06 NBFU=   338
 Harris functional with IExCor=  205 diagonalized for initial guess.
 ExpMin= 2.97D-02 ExpMax= 1.17D+04 ExpMxC= 4.01D+02 IAcc=3 IRadAn=         0 AccDes= 0.00D+00
 HarFok:  IExCor=  205 AccDes= 0.00D+00 IRadAn=         0 IDoV= 1
 ScaDFX=  1.000000  1.000000  1.000000  1.000000
 FoFCou: FMM=F IPFlag=           0 FMFlag=      100000 FMFlg1=           0
         NFxFlg=           0 DoJE=T BraDBF=F KetDBF=T FulRan=T
         Omega=  0.000000  0.000000  1.000000  0.000000  0.000000 ICntrl=     500 IOpCl=  0
         NMat0=    1 NMatS0=    1 NMatT0=    0 NMatD0=    1 NMtDS0=    0 NMtDT0=    0
         I1Cent=           4 NGrid=           0.
 Petite list used in FoFCou.
 Initial guess orbital symmetries:
       Occupied  (A) (A) (A) (A) (A) (A) (A) (A) (A) (A) (A) (A)
                 (A) (A) (A) (A) (A) (A) (A) (A) (A) (A) (A) (A)
                 (A) (A) (A) (A) (A) (A) (A) (A) (A) (A) (A) (A)
                 (A) (A) (A)
       Virtual   (A) (A) (A) (A) (A) (A) (A) (A) (A) (A) (A) (A)
                 (A) (A) (A) (A) (A) (A) (A) (A) (A) (A) (A) (A)
                 (A) (A) (A) (A) (A) (A) (A) (A) (A) (A) (A) (A)
                 (A) (A) (A) (A) (A) (A) (A) (A) (A) (A) (A) (A)
                 (A) (A) (A) (A) (A) (A) (A) (A) (A) (A) (A) (A)
                 (A) (A) (A) (A) (A) (A) (A) (A) (A) (A) (A) (A)
                 (A) (A) (A) (A) (A) (A) (A) (A) (A) (A) (A) (A)
                 (A) (A) (A) (A) (A) (A) (A) (A) (A) (A) (A) (A)
                 (A) (A) (A) (A) (A) (A) (A) (A) (A) (A) (A) (A)
                 (A) (A) (A) (A) (A) (A) (A) (A) (A) (A) (A) (A)
                 (A) (A) (A) (A) (A) (A) (A) (A) (A) (A) (A) (A)
                 (A) (A) (A) (A) (A) (A) (A) (A) (A) (A) (A) (A)
                 (A) (A) (A) (A) (A) (A) (A) (A) (A) (A) (A) (A)
                 (A) (A) (A) (A) (A) (A) (A) (A) (A) (A) (A) (A)
                 (A) (A) (A) (A) (A) (A) (A) (A) (A) (A) (A) (A)
                 (A) (A) (A) (A) (A) (A) (A) (A) (A) (A) (A) (A)
                 (A) (A) (A) (A) (A) (A) (A) (A) (A) (A) (A) (A)
                 (A) (A) (A) (A) (A) (A) (A) (A) (A) (A) (A) (A)
                 (A) (A) (A) (A) (A) (A) (A) (A) (A) (A) (A) (A)
                 (A) (A) (A) (A) (A) (A) (A) (A) (A) (A) (A) (A)
                 (A) (A) (A) (A) (A) (A) (A) (A) (A) (A) (A) (A)
                 (A) (A) (A) (A) (A) (A) (A) (A) (A) (A) (A) (A)
                 (A) (A) (A) (A) (A) (A) (A) (A) (A) (A) (A) (A)
                 (A) (A) (A) (A) (A) (A) (A) (A) (A) (A) (A) (A)
                 (A) (A) (A) (A) (A) (A) (A) (A) (A) (A) (A)
 The electronic state of the initial guess is 1-A.
 Requested convergence on RMS density matrix=1.00D-08 within 128 cycles.
 Requested convergence on MAX density matrix=1.00D-06.
 Requested convergence on             energy=1.00D-06.
 No special actions if energy rises.
 Initial convergence to 1.0D-05 achieved.  Increase integral accuracy.
 SCF Done:  E(RHF) =  -492.918022161     A.U. after   14 cycles
             Convg  =    0.7023D-08             -V/T =  2.0017
 ExpMin= 2.97D-02 ExpMax= 1.17D+04 ExpMxC= 4.01D+02 IAcc=3 IRadAn=         5 AccDes= 0.00D+00
 HarFok:  IExCor=  205 AccDes= 0.00D+00 IRadAn=         5 IDoV=-2
 ScaDFX=  1.000000  1.000000  1.000000  1.000000
 Range of M.O.s used for correlation:    11   338
 NBasis=   338 NAE=    39 NBE=    39 NFC=    10 NFV=     0
 NROrb=    328 NOA=    29 NOB=    29 NVA=   299 NVB=   299

 **** Warning!!: The largest alpha MO coefficient is  0.77479839D+02

 Disk-based method using OVN memory for 29 occupieds at a time.
 Estimated scratch disk usage=  1374488066 words.
 Actual    scratch disk usage=  1361143934 words.
 JobTyp=1 Pass  1:  I=   1 to  29 NPSUse=  8 ParTrn=T ParDer=T DoDerP=F.
 Spin components of T(2) and E(2):
     alpha-alpha T2 =       0.6797597231D-01 E2=     -0.2059843901D+00
     alpha-beta  T2 =       0.3764252155D+00 E2=     -0.1190204386D+01
     beta-beta   T2 =       0.6797597231D-01 E2=     -0.2059843901D+00
 ANorm=    0.1229787445D+01
 E2 =    -0.1602173167D+01 EUMP2 =    -0.49452019532742D+03

 **********************************************************************

            Population analysis using the SCF density.

 **********************************************************************

 Orbital symmetries:
       Occupied  (A) (A) (A) (A) (A) (A) (A) (A) (A) (A) (A) (A)
                 (A) (A) (A) (A) (A) (A) (A) (A) (A) (A) (A) (A)
                 (A) (A) (A) (A) (A) (A) (A) (A) (A) (A) (A) (A)
                 (A) (A) (A)
       Virtual   (A) (A) (A) (A) (A) (A) (A) (A) (A) (A) (A) (A)
                 (A) (A) (A) (A) (A) (A) (A) (A) (A) (A) (A) (A)
                 (A) (A) (A) (A) (A) (A) (A) (A) (A) (A) (A) (A)
                 (A) (A) (A) (A) (A) (A) (A) (A) (A) (A) (A) (A)
                 (A) (A) (A) (A) (A) (A) (A) (A) (A) (A) (A) (A)
                 (A) (A) (A) (A) (A) (A) (A) (A) (A) (A) (A) (A)
                 (A) (A) (A) (A) (A) (A) (A) (A) (A) (A) (A) (A)
                 (A) (A) (A) (A) (A) (A) (A) (A) (A) (A) (A) (A)
                 (A) (A) (A) (A) (A) (A) (A) (A) (A) (A) (A) (A)
                 (A) (A) (A) (A) (A) (A) (A) (A) (A) (A) (A) (A)
                 (A) (A) (A) (A) (A) (A) (A) (A) (A) (A) (A) (A)
                 (A) (A) (A) (A) (A) (A) (A) (A) (A) (A) (A) (A)
                 (A) (A) (A) (A) (A) (A) (A) (A) (A) (A) (A) (A)
                 (A) (A) (A) (A) (A) (A) (A) (A) (A) (A) (A) (A)
                 (A) (A) (A) (A) (A) (A) (A) (A) (A) (A) (A) (A)
                 (A) (A) (A) (A) (A) (A) (A) (A) (A) (A) (A) (A)
                 (A) (A) (A) (A) (A) (A) (A) (A) (A) (A) (A) (A)
                 (A) (A) (A) (A) (A) (A) (A) (A) (A) (A) (A) (A)
                 (A) (A) (A) (A) (A) (A) (A) (A) (A) (A) (A) (A)
                 (A) (A) (A) (A) (A) (A) (A) (A) (A) (A) (A) (A)
                 (A) (A) (A) (A) (A) (A) (A) (A) (A) (A) (A) (A)
                 (A) (A) (A) (A) (A) (A) (A) (A) (A) (A) (A) (A)
                 (A) (A) (A) (A) (A) (A) (A) (A) (A) (A) (A) (A)
                 (A) (A) (A) (A) (A) (A) (A) (A) (A) (A) (A) (A)
                 (A) (A) (A) (A) (A) (A) (A) (A) (A) (A) (A)
 The electronic state is 1-A.
 Alpha  occ. eigenvalues --  -20.53848 -20.52684 -15.60805 -15.59669 -11.37022
 Alpha  occ. eigenvalues --  -11.36320 -11.30035 -11.27637 -11.24411 -11.23600
 Alpha  occ. eigenvalues --   -1.39525  -1.37988  -1.24551  -1.23684  -1.05886
 Alpha  occ. eigenvalues --   -0.99061  -0.96038  -0.89696  -0.80443  -0.77435
 Alpha  occ. eigenvalues --   -0.72976  -0.68436  -0.66603  -0.65455  -0.62620
 Alpha  occ. eigenvalues --   -0.61756  -0.59156  -0.58867  -0.56551  -0.55978
 Alpha  occ. eigenvalues --   -0.55787  -0.54436  -0.53614  -0.52547  -0.50142
 Alpha  occ. eigenvalues --   -0.43736  -0.41740  -0.40216  -0.39194
 Alpha virt. eigenvalues --    0.02826   0.03824   0.04287   0.04631   0.05647
 Alpha virt. eigenvalues --    0.06142   0.06333   0.06767   0.07122   0.07998
 Alpha virt. eigenvalues --    0.09486   0.09617   0.10943   0.11663   0.13118
 Alpha virt. eigenvalues --    0.13407   0.13868   0.14536   0.14767   0.15192
 Alpha virt. eigenvalues --    0.15736   0.15901   0.16272   0.16962   0.17212
 Alpha virt. eigenvalues --    0.17805   0.18112   0.18413   0.18777   0.19103
 Alpha virt. eigenvalues --    0.19349   0.19477   0.20362   0.21125   0.22057
 Alpha virt. eigenvalues --    0.22919   0.23612   0.25265   0.25561   0.26099
 Alpha virt. eigenvalues --    0.26917   0.28136   0.28937   0.29286   0.30714
 Alpha virt. eigenvalues --    0.31645   0.32048   0.32288   0.33050   0.33742
 Alpha virt. eigenvalues --    0.34219   0.34849   0.35555   0.35856   0.36450
 Alpha virt. eigenvalues --    0.37561   0.37824   0.38138   0.38564   0.39044
 Alpha virt. eigenvalues --    0.39786   0.41126   0.41768   0.42103   0.42880
 Alpha virt. eigenvalues --    0.43037   0.43689   0.44576   0.44735   0.45465
 Alpha virt. eigenvalues --    0.46299   0.46491   0.47329   0.47928   0.48434
 Alpha virt. eigenvalues --    0.49582   0.50589   0.50917   0.51339   0.52429
 Alpha virt. eigenvalues --    0.52889   0.53101   0.54242   0.54895   0.55005
 Alpha virt. eigenvalues --    0.55908   0.56686   0.57119   0.58296   0.58757
 Alpha virt. eigenvalues --    0.59871   0.60971   0.61323   0.62111   0.62754
 Alpha virt. eigenvalues --    0.62909   0.63626   0.63830   0.64434   0.64999
 Alpha virt. eigenvalues --    0.65776   0.66298   0.67060   0.67935   0.68528
 Alpha virt. eigenvalues --    0.69300   0.70769   0.71375   0.71522   0.72488
 Alpha virt. eigenvalues --    0.72596   0.73232   0.74579   0.75219   0.75735
 Alpha virt. eigenvalues --    0.76556   0.77208   0.78009   0.78919   0.79572
 Alpha virt. eigenvalues --    0.79917   0.81612   0.82198   0.82560   0.82886
 Alpha virt. eigenvalues --    0.84792   0.85699   0.86063   0.86319   0.87256
 Alpha virt. eigenvalues --    0.88547   0.88789   0.91332   0.92590   0.93157
 Alpha virt. eigenvalues --    0.94204   0.95410   0.95892   0.97012   0.98720
 Alpha virt. eigenvalues --    0.99456   1.00240   1.01545   1.03754   1.04898
 Alpha virt. eigenvalues --    1.06054   1.07083   1.07644   1.09602   1.11158
 Alpha virt. eigenvalues --    1.11559   1.13431   1.13786   1.14658   1.15785
 Alpha virt. eigenvalues --    1.16924   1.18516   1.19187   1.20672   1.21608
 Alpha virt. eigenvalues --    1.23097   1.24323   1.24702   1.28348   1.30370
 Alpha virt. eigenvalues --    1.32154   1.33321   1.35163   1.37719   1.39299
 Alpha virt. eigenvalues --    1.40672   1.41686   1.44218   1.46187   1.47955
 Alpha virt. eigenvalues --    1.48629   1.49535   1.51049   1.53558   1.54385
 Alpha virt. eigenvalues --    1.55358   1.56527   1.57758   1.59945   1.66140
 Alpha virt. eigenvalues --    1.67122   1.69039   1.70665   1.71046   1.72791
 Alpha virt. eigenvalues --    1.74431   1.76506   1.78234   1.79510   1.79993
 Alpha virt. eigenvalues --    1.81450   1.83356   1.85270   1.87376   1.88721
 Alpha virt. eigenvalues --    1.88950   1.89400   1.90390   1.92555   1.94711
 Alpha virt. eigenvalues --    1.95599   1.96601   1.97897   1.98913   1.99207
 Alpha virt. eigenvalues --    2.03249   2.04276   2.05353   2.06940   2.09626
 Alpha virt. eigenvalues --    2.11297   2.12726   2.14667   2.16110   2.16520
 Alpha virt. eigenvalues --    2.16988   2.19182   2.20526   2.21770   2.22516
 Alpha virt. eigenvalues --    2.24362   2.25925   2.27373   2.28803   2.29842
 Alpha virt. eigenvalues --    2.30864   2.31962   2.33809   2.34646   2.35776
 Alpha virt. eigenvalues --    2.36902   2.39077   2.40109   2.42801   2.43543
 Alpha virt. eigenvalues --    2.44974   2.45468   2.48287   2.49894   2.52133
 Alpha virt. eigenvalues --    2.52760   2.56432   2.56670   2.60172   2.61200
 Alpha virt. eigenvalues --    2.62305   2.63165   2.66264   2.67642   2.68347
 Alpha virt. eigenvalues --    2.71613   2.72450   2.75612   2.76557   2.78634
 Alpha virt. eigenvalues --    2.80521   2.83219   2.84467   2.86853   2.88826
 Alpha virt. eigenvalues --    2.89406   2.92041   2.94952   2.96887   2.98854
 Alpha virt. eigenvalues --    3.00287   3.02761   3.04504   3.06188   3.06644
 Alpha virt. eigenvalues --    3.10190   3.10877   3.16270   3.21530   3.25444
 Alpha virt. eigenvalues --    3.29463   3.37438   3.43620   3.48081   3.53158
 Alpha virt. eigenvalues --    3.63952   3.67813   3.74776   3.83216   3.84359
 Alpha virt. eigenvalues --    3.85113   3.87597   3.90459   3.97279   4.03170
 Alpha virt. eigenvalues --    4.06803   4.12475   4.20503   4.23522
          Condensed to atoms (all electrons):
              1          2          3          4          5          6
     1  H    0.750955   0.356586  -0.052769  -0.085727  -0.075288   0.020491
     2  C    0.356586   4.476633   0.365238   0.322905   0.180704  -0.028821
     3  H   -0.052769   0.365238   0.741181  -0.070307  -0.103310   0.017508
     4  H   -0.085727   0.322905  -0.070307   1.127562   0.156698  -0.010447
     5  C   -0.075288   0.180704  -0.103310   0.156698   5.705224   0.149727
     6  O    0.020491  -0.028821   0.017508  -0.010447   0.149727   8.758956
     7  N    0.049613  -0.052290   0.061840  -0.224232   0.004884  -0.123482
     8  H   -0.005169  -0.051081  -0.004572  -0.002665  -0.133943  -0.002506
     9  C    0.006648   0.045835  -0.005237  -0.028019  -0.380083   0.121445
    10  H    0.001167   0.003391  -0.003524   0.000151  -0.005709   0.012923
    11  C   -0.000268  -0.014035   0.005278  -0.009650  -0.069006   0.009212
    12  H   -0.001159  -0.005702  -0.000045  -0.001437  -0.000398   0.025025
    13  H    0.000240  -0.002554   0.000337  -0.002214  -0.074041   0.009472
    14  H   -0.000700   0.009302   0.000191   0.002911   0.101521  -0.069198
    15  C    0.001381  -0.007092   0.001602   0.003076  -0.001312  -0.026823
    16  O    0.000109   0.001713  -0.000308   0.000495  -0.020321   0.002308
    17  N    0.000689  -0.002868  -0.000007  -0.002405   0.008608  -0.002002
    18  H   -0.000007  -0.000069   0.000001   0.000550   0.009036  -0.001588
    19  C    0.000034  -0.001819  -0.000054  -0.000214   0.001718  -0.000945
    20  H   -0.000014  -0.000051   0.000020  -0.000301  -0.003341   0.000083
    21  H   -0.000009   0.000002   0.000008  -0.000004   0.001818  -0.000055
    22  H    0.000020  -0.000018  -0.000011   0.000203   0.000224  -0.000069
              7          8          9         10         11         12
     1  H    0.049613  -0.005169   0.006648   0.001167  -0.000268  -0.001159
     2  C   -0.052290  -0.051081   0.045835   0.003391  -0.014035  -0.005702
     3  H    0.061840  -0.004572  -0.005237  -0.003524   0.005278  -0.000045
     4  H   -0.224232  -0.002665  -0.028019   0.000151  -0.009650  -0.001437
     5  C    0.004884  -0.133943  -0.380083  -0.005709  -0.069006  -0.000398
     6  O   -0.123482  -0.002506   0.121445   0.012923   0.009212   0.025025
     7  N    7.771224   0.352783  -0.637636   0.013772   0.039010  -0.019560
     8  H    0.352783   0.974907  -0.154631   0.011454   0.007070  -0.001734
     9  C   -0.637636  -0.154631   7.138607   0.113919   0.217584  -0.012149
    10  H    0.013772   0.011454   0.113919   1.061229   0.010529   0.062949
    11  C    0.039010   0.007070   0.217584   0.010529   4.233534   0.290789
    12  H   -0.019560  -0.001734  -0.012149   0.062949   0.290789   1.082550
    13  H    0.083957   0.007286  -0.173180  -0.069520   0.269024  -0.175553
    14  H   -0.045431  -0.005978   0.036844  -0.027638   0.310294  -0.225576
    15  C    0.082582   0.024886  -0.216063  -0.223069  -0.131770  -0.137366
    16  O   -0.027390   0.034575   0.022365   0.023920   0.023962   0.006663
    17  N    0.086956   0.009339  -0.160692   0.067516   0.047437   0.038780
    18  H    0.006789  -0.001874   0.005188  -0.009048  -0.015078   0.008285
    19  C    0.016274   0.002647  -0.054683   0.004263  -0.010618   0.000337
    20  H   -0.005104   0.000528  -0.020681   0.001525  -0.002487   0.000808
    21  H    0.004623   0.001577  -0.028125  -0.003784   0.008293  -0.002083
    22  H   -0.002499  -0.002688   0.027283   0.001341  -0.001806  -0.001731
             13         14         15         16         17         18
     1  H    0.000240  -0.000700   0.001381   0.000109   0.000689  -0.000007
     2  C   -0.002554   0.009302  -0.007092   0.001713  -0.002868  -0.000069
     3  H    0.000337   0.000191   0.001602  -0.000308  -0.000007   0.000001
     4  H   -0.002214   0.002911   0.003076   0.000495  -0.002405   0.000550
     5  C   -0.074041   0.101521  -0.001312  -0.020321   0.008608   0.009036
     6  O    0.009472  -0.069198  -0.026823   0.002308  -0.002002  -0.001588
     7  N    0.083957  -0.045431   0.082582  -0.027390   0.086956   0.006789
     8  H    0.007286  -0.005978   0.024886   0.034575   0.009339  -0.001874
     9  C   -0.173180   0.036844  -0.216063   0.022365  -0.160692   0.005188
    10  H   -0.069520  -0.027638  -0.223069   0.023920   0.067516  -0.009048
    11  C    0.269024   0.310294  -0.131770   0.023962   0.047437  -0.015078
    12  H   -0.175553  -0.225576  -0.137366   0.006663   0.038780   0.008285
    13  H    1.425654  -0.340237   0.085599   0.001678   0.000558   0.002368
    14  H   -0.340237   1.327333   0.065357  -0.002645  -0.023823   0.005049
    15  C    0.085599   0.065357   5.377500   0.163811   0.126690  -0.079473
    16  O    0.001678  -0.002645   0.163811   8.825550  -0.152098   0.017922
    17  N    0.000558  -0.023823   0.126690  -0.152098   7.135812   0.271010
    18  H    0.002368   0.005049  -0.079473   0.017922   0.271010   1.009810
    19  C    0.005217   0.001716  -0.082726  -0.007995   0.253900  -0.117511
    20  H    0.000719   0.000242   0.019050  -0.003061  -0.038542  -0.004359
    21  H    0.000109   0.001127   0.016208   0.007020  -0.031228   0.001130
    22  H   -0.001776   0.000896  -0.040866   0.009913  -0.040263   0.006573
             19         20         21         22
     1  H    0.000034  -0.000014  -0.000009   0.000020
     2  C   -0.001819  -0.000051   0.000002  -0.000018
     3  H   -0.000054   0.000020   0.000008  -0.000011
     4  H   -0.000214  -0.000301  -0.000004   0.000203
     5  C    0.001718  -0.003341   0.001818   0.000224
     6  O   -0.000945   0.000083  -0.000055  -0.000069
     7  N    0.016274  -0.005104   0.004623  -0.002499
     8  H    0.002647   0.000528   0.001577  -0.002688
     9  C   -0.054683  -0.020681  -0.028125   0.027283
    10  H    0.004263   0.001525  -0.003784   0.001341
    11  C   -0.010618  -0.002487   0.008293  -0.001806
    12  H    0.000337   0.000808  -0.002083  -0.001731
    13  H    0.005217   0.000719   0.000109  -0.001776
    14  H    0.001716   0.000242   0.001127   0.000896
    15  C   -0.082726   0.019050   0.016208  -0.040866
    16  O   -0.007995  -0.003061   0.007020   0.009913
    17  N    0.253900  -0.038542  -0.031228  -0.040263
    18  H   -0.117511  -0.004359   0.001130   0.006573
    19  C    4.107780   0.492074   0.318111   0.334323
    20  H    0.492074   0.952688  -0.115986  -0.125762
    21  H    0.318111  -0.115986   1.057731  -0.146238
    22  H    0.334323  -0.125762  -0.146238   1.085161
 Mulliken atomic charges:
              1
     1  H    0.033176
     2  C    0.404092
     3  H    0.046939
     4  H   -0.176932
     5  C    0.546590
     6  O   -0.861215
     7  N   -0.436682
     8  H   -0.060211
     9  C    0.135462
    10  H   -0.047757
    11  C    0.782700
    12  H    0.068308
    13  H   -0.053142
    14  H   -0.121558
    15  C    0.978819
    16  O   -0.928185
    17  N   -0.593366
    18  H   -0.114706
    19  C    0.738173
    20  H   -0.148047
    21  H   -0.090247
    22  H   -0.102209
 Sum of Mulliken atomic charges =   0.00000
 Mulliken charges with hydrogens summed into heavy atoms:
              1
     2  C    0.307275
     5  C    0.546590
     6  O   -0.861215
     7  N   -0.496894
     9  C    0.087705
    11  C    0.676308
    15  C    0.978819
    16  O   -0.928185
    17  N   -0.708072
    19  C    0.397670
 Sum of Mulliken charges with hydrogens summed into heavy atoms =   0.00000
 Electronic spatial extent (au):  <R**2>=           1943.6150
 Charge=              0.0000 electrons
 Dipole moment (field-independent basis, Debye):
    X=              2.5725    Y=              0.2544    Z=              1.8307  Tot=              3.1677
 Quadrupole moment (field-independent basis, Debye-Ang):
   XX=            -61.5557   YY=            -63.2696   ZZ=            -61.1646
   XY=             14.5695   XZ=              3.8570   YZ=             -3.0091
 Traceless Quadrupole moment (field-independent basis, Debye-Ang):
   XX=              0.4409   YY=             -1.2730   ZZ=              0.8321
   XY=             14.5695   XZ=              3.8570   YZ=             -3.0091
 Octapole moment (field-independent basis, Debye-Ang**2):
  XXX=             45.2724  YYY=              2.2196  ZZZ=              1.4596  XYY=              0.3724
  XXY=            -22.6233  XXZ=             13.6243  XZZ=             -2.6829  YZZ=              4.3107
  YYZ=              5.0220  XYZ=             -2.4039
 Hexadecapole moment (field-independent basis, Debye-Ang**3):
 XXXX=          -1830.7480 YYYY=           -477.9502 ZZZZ=           -181.0193 XXXY=             84.6533
 XXXZ=             20.5603 YYYX=             14.6425 YYYZ=             -3.1616 ZZZX=              3.0253
 ZZZY=             -0.6446 XXYY=           -408.3891 XXZZ=           -334.9962 YYZZ=           -115.8534
 XXYZ=             -6.9723 YYXZ=             10.6510 ZZXY=              4.7749
 N-N= 5.502286513470D+02 E-N=-2.255564301186D+03  KE= 4.920738814911D+02
 1\1\GINC-NODE004\SP\RMP2-FC\Aug-CC-pVDZ\C6H12N2O2\STEBOSS\12-Feb-2017\
 0\\#SP MP2/aug-cc-pVDZ\\Single Point calculation at MP2\\0,1\H,0,-3.56
 55,-1.0749,1.5321\C,0,-3.1101,-1.3097,0.5654\H,0,-3.9249,-1.4574,-0.15
 06\H,0,-2.542,-2.2405,0.6567\C,0,-2.2773,-0.1123,0.1183\O,0,-2.7727,1.
 0056,0.0299\N,0,-0.9706,-0.4081,-0.157\H,0,-0.7037,-1.3828,-0.2201\C,0
 ,0.0618,0.5038,-0.6622\H,0,-0.0258,0.5895,-1.7558\C,0,-0.0131,1.9084,-
 0.055\H,0,0.0535,1.8745,1.0389\H,0,0.8011,2.5275,-0.4505\H,0,-0.965,2.
 3739,-0.3046\C,0,1.3851,-0.2593,-0.4104\O,0,1.5232,-1.3845,-0.8866\N,0
 ,2.3057,0.327,0.3965\H,0,2.1191,1.2506,0.7557\C,0,3.5739,-0.3038,0.722
 6\H,0,3.5742,-1.2943,0.2666\H,0,4.4179,0.2747,0.3287\H,0,3.6895,-0.404
 6,1.8077\\Version=EM64L-G09RevA.02\State=1-A\HF=-492.9180222\MP2=-494.
 5201953\RMSD=7.023e-09\PG=C01 [X(C6H12N2O2)]\\@


 SOME THINGS ARE EASY, THEY ARE ONLY HARD TO DO.
            -- A. EINSTEIN TO J. O. HIRSCHFELDER
 THE ONLY TROUBLE WITH A SURE THING IS THE UNCERTAINTY.
     -- FROM A TEABAG (BELONGING TO W.H.?)
 Job cpu time:  0 days 11 hours 39 minutes 41.5 seconds.
 File lengths (MBytes):  RWF=  10501 Int=      0 D2E=      0 Chk=      7 Scr=      2
 Normal termination of Gaussian 09 at Sun Feb 12 23:38:34 2017.
