 Entering Gaussian System, Link 0=g09
 Initial command:
 /home/steboss/Software/g09/l1.exe /home/steboss/projects/phi_psi_scan/alanine/MP2/165/5320/Gau-21806.inp -scrdir=/home/steboss/projects/phi_psi_scan/alanine/MP2/165/5320/
 Entering Link 1 = /home/steboss/Software/g09/l1.exe PID=     21808.
  
 Copyright (c) 1988,1990,1992,1993,1995,1998,2003,2009, Gaussian, Inc.
                  All Rights Reserved.
  
 This is part of the Gaussian(R) 09 program.  It is based on
 the Gaussian(R) 03 system (copyright 2003, Gaussian, Inc.),
 the Gaussian(R) 98 system (copyright 1998, Gaussian, Inc.),
 the Gaussian(R) 94 system (copyright 1995, Gaussian, Inc.),
 the Gaussian 92(TM) system (copyright 1992, Gaussian, Inc.),
 the Gaussian 90(TM) system (copyright 1990, Gaussian, Inc.),
 the Gaussian 88(TM) system (copyright 1988, Gaussian, Inc.),
 the Gaussian 86(TM) system (copyright 1986, Carnegie Mellon
 University), and the Gaussian 82(TM) system (copyright 1983,
 Carnegie Mellon University). Gaussian is a federally registered
 trademark of Gaussian, Inc.
  
 This software contains proprietary and confidential information,
 including trade secrets, belonging to Gaussian, Inc.
  
 This software is provided under written license and may be
 used, copied, transmitted, or stored only in accord with that
 written license.
  
 The following legend is applicable only to US Government
 contracts under FAR:
  
                    RESTRICTED RIGHTS LEGEND
  
 Use, reproduction and disclosure by the US Government is
 subject to restrictions as set forth in subparagraphs (a)
 and (c) of the Commercial Computer Software - Restricted
 Rights clause in FAR 52.227-19.
  
 Gaussian, Inc.
 340 Quinnipiac St., Bldg. 40, Wallingford CT 06492
  
  
 ---------------------------------------------------------------
 Warning -- This program may not be used in any manner that
 competes with the business of Gaussian, Inc. or will provide
 assistance to any competitor of Gaussian, Inc.  The licensee
 of this program is prohibited from giving any competitor of
 Gaussian, Inc. access to this program.  By using this program,
 the user acknowledges that Gaussian, Inc. is engaged in the
 business of creating and licensing software in the field of
 computational chemistry and represents and warrants to the
 licensee that it is not a competitor of Gaussian, Inc. and that
 it will not use this program in any manner prohibited above.
 ---------------------------------------------------------------
  

 Cite this work as:
 Gaussian 09, Revision A.02,
 M. J. Frisch, G. W. Trucks, H. B. Schlegel, G. E. Scuseria, 
 M. A. Robb, J. R. Cheeseman, G. Scalmani, V. Barone, B. Mennucci, 
 G. A. Petersson, H. Nakatsuji, M. Caricato, X. Li, H. P. Hratchian, 
 A. F. Izmaylov, J. Bloino, G. Zheng, J. L. Sonnenberg, M. Hada, 
 M. Ehara, K. Toyota, R. Fukuda, J. Hasegawa, M. Ishida, T. Nakajima, 
 Y. Honda, O. Kitao, H. Nakai, T. Vreven, J. A. Montgomery, Jr., 
 J. E. Peralta, F. Ogliaro, M. Bearpark, J. J. Heyd, E. Brothers, 
 K. N. Kudin, V. N. Staroverov, R. Kobayashi, J. Normand, 
 K. Raghavachari, A. Rendell, J. C. Burant, S. S. Iyengar, J. Tomasi, 
 M. Cossi, N. Rega, J. M. Millam, M. Klene, J. E. Knox, J. B. Cross, 
 V. Bakken, C. Adamo, J. Jaramillo, R. Gomperts, R. E. Stratmann, 
 O. Yazyev, A. J. Austin, R. Cammi, C. Pomelli, J. W. Ochterski, 
 R. L. Martin, K. Morokuma, V. G. Zakrzewski, G. A. Voth, 
 P. Salvador, J. J. Dannenberg, S. Dapprich, A. D. Daniels, 
 O. Farkas, J. B. Foresman, J. V. Ortiz, J. Cioslowski, 
 and D. J. Fox, Gaussian, Inc., Wallingford CT, 2009.
 
 ******************************************
 Gaussian 09:  EM64L-G09RevA.02 11-Jun-2009
                12-Feb-2017 
 ******************************************
 %chk=structure_45.chk
 %NProcShared=8
 Will use up to    8 processors via shared memory.
 -------------------
 #SP MP2/aug-cc-pVDZ
 -------------------
 1/38=1/1;
 2/12=2,17=6,18=5,40=1/2;
 3/5=16,7=10,11=9,16=1,25=1,30=1/1,2,3;
 4//1;
 5/5=2,38=5/2;
 8/10=1/1;
 9/16=-3/6;
 6/7=2,8=2,9=2,10=2/1;
 99/5=1,9=1/99;
 -------------------------------
 Single Point calculation at MP2
 -------------------------------
 Symbolic Z-matrix:
 Charge =  0 Multiplicity = 1
 H                    -3.8295   -1.7091    0.2062 
 C                    -2.8679   -1.4906    0.6745 
 H                    -2.2693   -2.4064    0.7236 
 H                    -3.0615   -1.1511    1.6994 
 C                    -2.1865   -0.3743   -0.1076 
 O                    -2.8191    0.4867   -0.6997 
 N                    -0.8062   -0.4401   -0.1187 
 H                    -0.4137   -1.065     0.5763 
 C                     0.0494    0.7297   -0.4216 
 H                     0.0524    0.8658   -1.5119 
 C                    -0.4066    2.0324    0.2408 
 H                    -0.4143    1.9272    1.3305 
 H                     0.297     2.8304   -0.0082 
 H                    -1.4051    2.2988   -0.1054 
 C                     1.4909    0.3927    0.0243 
 O                     2.1869    1.1771    0.6513 
 N                     1.9154   -0.858    -0.3423 
 H                     1.3265   -1.3889   -0.9702 
 C                     3.2759   -1.3153   -0.1106 
 H                     3.7119   -0.6796    0.661 
 H                     3.2761   -2.3557    0.2304 
 H                     3.8913   -1.2387   -1.0162 
 
                          Input orientation:                          
 ---------------------------------------------------------------------
 Center     Atomic      Atomic             Coordinates (Angstroms)
 Number     Number       Type             X           Y           Z
 ---------------------------------------------------------------------
      1          1           0       -3.829500   -1.709100    0.206200
      2          6           0       -2.867900   -1.490600    0.674500
      3          1           0       -2.269300   -2.406400    0.723600
      4          1           0       -3.061500   -1.151100    1.699400
      5          6           0       -2.186500   -0.374300   -0.107600
      6          8           0       -2.819100    0.486700   -0.699700
      7          7           0       -0.806200   -0.440100   -0.118700
      8          1           0       -0.413700   -1.065000    0.576300
      9          6           0        0.049400    0.729700   -0.421600
     10          1           0        0.052400    0.865800   -1.511900
     11          6           0       -0.406600    2.032400    0.240800
     12          1           0       -0.414300    1.927200    1.330500
     13          1           0        0.297000    2.830400   -0.008200
     14          1           0       -1.405100    2.298800   -0.105400
     15          6           0        1.490900    0.392700    0.024300
     16          8           0        2.186900    1.177100    0.651300
     17          7           0        1.915400   -0.858000   -0.342300
     18          1           0        1.326500   -1.388900   -0.970200
     19          6           0        3.275900   -1.315300   -0.110600
     20          1           0        3.711900   -0.679600    0.661000
     21          1           0        3.276100   -2.355700    0.230400
     22          1           0        3.891300   -1.238700   -1.016200
 ---------------------------------------------------------------------
                    Distance matrix (angstroms):
                    1          2          3          4          5
     1  H    0.000000
     2  C    1.091660   0.000000
     3  H    1.785540   1.095181   0.000000
     4  H    1.769416   1.096887   1.776385   0.000000
     5  C    2.140002   1.523848   2.197084   2.152741   0.000000
     6  O    2.581298   2.408427   3.270794   2.914932   1.221510
     7  N    3.294885   2.446083   2.591615   2.982849   1.381912
     8  H    3.495644   2.492765   2.294407   2.877431   2.021783
     9  C    4.624688   3.826461   4.064846   4.208770   2.513297
    10  H    4.964990   4.342939   4.592934   4.906802   2.919346
    11  C    5.071121   4.319447   4.837943   4.394392   3.013575
    12  H    5.113738   4.258151   4.752835   4.076725   3.241254
    13  H    6.138488   5.399418   5.877542   5.481584   4.055583
    14  H    4.694473   4.136131   4.855202   4.231167   2.784969
    15  C    5.723400   4.792569   4.739524   5.090543   3.758851
    16  O    6.687700   5.715607   5.718778   5.836500   4.702063
    17  N    5.833447   4.930925   4.587527   5.387391   4.136984
    18  H    5.298187   4.506481   4.102931   5.141776   3.756948
    19  C    7.123352   6.196240   5.712760   6.592852   5.542861
    20  H    7.624921   6.629606   6.225794   6.868736   5.956096
    21  H    7.135000   6.220479   5.567520   6.616207   5.820669
    22  H    7.831110   6.971994   6.507182   7.464823   6.205835
                    6          7          8          9         10
     6  O    0.000000
     7  N    2.290914   0.000000
     8  H    3.133991   1.013697   0.000000
     9  C    2.892176   1.480619   2.105045   0.000000
    10  H    3.008139   2.093699   2.881981   1.098766   0.000000
    11  C    3.015607   2.530252   3.115525   1.530927   2.154900
    12  H    3.461187   2.803190   3.085787   2.172298   3.069791
    13  H    3.959947   3.453322   4.002609   2.155260   2.486080
    14  H    2.374088   2.803646   3.572498   2.162782   2.481136
    15  C    4.371397   2.447585   2.461117   1.546065   2.157085
    16  O    5.230859   3.488106   3.434495   2.433144   3.054903
    17  N    4.934718   2.762561   2.512246   2.451333   2.794677
    18  H    4.558184   2.484690   2.350504   2.533853   2.645835
    19  C    6.383045   4.174875   3.761334   3.832629   4.136640
    20  H    6.772424   4.591135   4.144428   4.070879   4.527880
    21  H    6.789388   4.522894   3.924306   4.511806   4.879130
    22  H    6.935895   4.848688   4.593392   4.357562   4.405882
                   11         12         13         14         15
    11  C    0.000000
    12  H    1.094793   0.000000
    13  H    1.092638   1.764606   0.000000
    14  H    1.089874   1.783698   1.785831   0.000000
    15  C    2.517140   2.773200   2.714560   3.469417   0.000000
    16  O    2.761574   2.791094   2.596163   3.838394   1.221814
    17  N    3.753146   3.997887   4.041675   4.587726   1.370710
    18  H    4.021871   4.395466   4.448349   4.669973   2.046987
    19  C    4.989127   5.119390   5.105993   5.913840   2.474204
    20  H    4.949096   4.926374   4.942618   5.970086   2.547166
    21  H    5.728683   5.759558   5.985616   6.609899   3.283766
    22  H    5.545457   5.836790   5.522013   6.433919   3.083184
                   16         17         18         19         20
    16  O    0.000000
    17  N    2.280918   0.000000
    18  H    3.154981   1.011393   0.000000
    19  C    2.824619   1.453880   2.131781   0.000000
    20  H    2.402718   2.065393   2.975576   1.090677   0.000000
    21  H    3.720778   2.102997   2.485374   1.094858   1.784559
    22  H    3.394352   2.122087   2.569606   1.097586   1.777014
                   21         22
    21  H    0.000000
    22  H    1.783304   0.000000
 Stoichiometry    C6H12N2O2
 Framework group  C1[X(C6H12N2O2)]
 Deg. of freedom    60
 Full point group                 C1      NOp   1
 Largest Abelian subgroup         C1      NOp   1
 Largest concise Abelian subgroup C1      NOp   1
                         Standard orientation:                         
 ---------------------------------------------------------------------
 Center     Atomic      Atomic             Coordinates (Angstroms)
 Number     Number       Type             X           Y           Z
 ---------------------------------------------------------------------
      1          1           0       -3.829499   -1.709083    0.206199
      2          6           0       -2.867899   -1.490584    0.674499
      3          1           0       -2.269300   -2.406385    0.723599
      4          1           0       -3.061499   -1.151084    1.699399
      5          6           0       -2.186498   -0.374285   -0.107601
      6          8           0       -2.819097    0.486716   -0.699701
      7          7           0       -0.806198   -0.440086   -0.118701
      8          1           0       -0.413699   -1.064987    0.576299
      9          6           0        0.049403    0.729713   -0.421601
     10          1           0        0.052403    0.865813   -1.511901
     11          6           0       -0.406595    2.032413    0.240799
     12          1           0       -0.414295    1.927213    1.330499
     13          1           0        0.297005    2.830413   -0.008201
     14          1           0       -1.405095    2.298814   -0.105401
     15          6           0        1.490903    0.392711    0.024299
     16          8           0        2.186904    1.177111    0.651299
     17          7           0        1.915402   -0.857989   -0.342301
     18          1           0        1.326501   -1.388889   -0.970201
     19          6           0        3.275901   -1.315291   -0.110601
     20          1           0        3.711902   -0.679591    0.660999
     21          1           0        3.276100   -2.355691    0.230399
     22          1           0        3.891301   -1.238691   -1.016201
 ---------------------------------------------------------------------
 Rotational constants (GHZ):      2.3005300      0.7360495      0.6046166
 Standard basis: Aug-CC-pVDZ (5D, 7F)
 There are   338 symmetry adapted basis functions of A   symmetry.
 Integral buffers will be    131072 words long.
 Raffenetti 1 integral format.
 Two-electron integral symmetry is turned on.
   338 basis functions,   562 primitive gaussians,   358 cartesian basis functions
    39 alpha electrons       39 beta electrons
       nuclear repulsion energy       550.6734771341 Hartrees.
 NAtoms=   22 NActive=   22 NUniq=   22 SFac= 7.50D-01 NAtFMM=   80 NAOKFM=F Big=F
 One-electron integrals computed using PRISM.
 NBasis=   338 RedAO= T  NBF=   338
 NBsUse=   338 1.00D-06 NBFU=   338
 Harris functional with IExCor=  205 diagonalized for initial guess.
 ExpMin= 2.97D-02 ExpMax= 1.17D+04 ExpMxC= 4.01D+02 IAcc=3 IRadAn=         0 AccDes= 0.00D+00
 HarFok:  IExCor=  205 AccDes= 0.00D+00 IRadAn=         0 IDoV= 1
 ScaDFX=  1.000000  1.000000  1.000000  1.000000
 FoFCou: FMM=F IPFlag=           0 FMFlag=      100000 FMFlg1=           0
         NFxFlg=           0 DoJE=T BraDBF=F KetDBF=T FulRan=T
         Omega=  0.000000  0.000000  1.000000  0.000000  0.000000 ICntrl=     500 IOpCl=  0
         NMat0=    1 NMatS0=    1 NMatT0=    0 NMatD0=    1 NMtDS0=    0 NMtDT0=    0
         I1Cent=           4 NGrid=           0.
 Petite list used in FoFCou.
 Initial guess orbital symmetries:
       Occupied  (A) (A) (A) (A) (A) (A) (A) (A) (A) (A) (A) (A)
                 (A) (A) (A) (A) (A) (A) (A) (A) (A) (A) (A) (A)
                 (A) (A) (A) (A) (A) (A) (A) (A) (A) (A) (A) (A)
                 (A) (A) (A)
       Virtual   (A) (A) (A) (A) (A) (A) (A) (A) (A) (A) (A) (A)
                 (A) (A) (A) (A) (A) (A) (A) (A) (A) (A) (A) (A)
                 (A) (A) (A) (A) (A) (A) (A) (A) (A) (A) (A) (A)
                 (A) (A) (A) (A) (A) (A) (A) (A) (A) (A) (A) (A)
                 (A) (A) (A) (A) (A) (A) (A) (A) (A) (A) (A) (A)
                 (A) (A) (A) (A) (A) (A) (A) (A) (A) (A) (A) (A)
                 (A) (A) (A) (A) (A) (A) (A) (A) (A) (A) (A) (A)
                 (A) (A) (A) (A) (A) (A) (A) (A) (A) (A) (A) (A)
                 (A) (A) (A) (A) (A) (A) (A) (A) (A) (A) (A) (A)
                 (A) (A) (A) (A) (A) (A) (A) (A) (A) (A) (A) (A)
                 (A) (A) (A) (A) (A) (A) (A) (A) (A) (A) (A) (A)
                 (A) (A) (A) (A) (A) (A) (A) (A) (A) (A) (A) (A)
                 (A) (A) (A) (A) (A) (A) (A) (A) (A) (A) (A) (A)
                 (A) (A) (A) (A) (A) (A) (A) (A) (A) (A) (A) (A)
                 (A) (A) (A) (A) (A) (A) (A) (A) (A) (A) (A) (A)
                 (A) (A) (A) (A) (A) (A) (A) (A) (A) (A) (A) (A)
                 (A) (A) (A) (A) (A) (A) (A) (A) (A) (A) (A) (A)
                 (A) (A) (A) (A) (A) (A) (A) (A) (A) (A) (A) (A)
                 (A) (A) (A) (A) (A) (A) (A) (A) (A) (A) (A) (A)
                 (A) (A) (A) (A) (A) (A) (A) (A) (A) (A) (A) (A)
                 (A) (A) (A) (A) (A) (A) (A) (A) (A) (A) (A) (A)
                 (A) (A) (A) (A) (A) (A) (A) (A) (A) (A) (A) (A)
                 (A) (A) (A) (A) (A) (A) (A) (A) (A) (A) (A) (A)
                 (A) (A) (A) (A) (A) (A) (A) (A) (A) (A) (A) (A)
                 (A) (A) (A) (A) (A) (A) (A) (A) (A) (A) (A)
 The electronic state of the initial guess is 1-A.
 Requested convergence on RMS density matrix=1.00D-08 within 128 cycles.
 Requested convergence on MAX density matrix=1.00D-06.
 Requested convergence on             energy=1.00D-06.
 No special actions if energy rises.
 Initial convergence to 1.0D-05 achieved.  Increase integral accuracy.
 SCF Done:  E(RHF) =  -492.916665149     A.U. after   14 cycles
             Convg  =    0.8413D-08             -V/T =  2.0017
 ExpMin= 2.97D-02 ExpMax= 1.17D+04 ExpMxC= 4.01D+02 IAcc=3 IRadAn=         5 AccDes= 0.00D+00
 HarFok:  IExCor=  205 AccDes= 0.00D+00 IRadAn=         5 IDoV=-2
 ScaDFX=  1.000000  1.000000  1.000000  1.000000
 Range of M.O.s used for correlation:    11   338
 NBasis=   338 NAE=    39 NBE=    39 NFC=    10 NFV=     0
 NROrb=    328 NOA=    29 NOB=    29 NVA=   299 NVB=   299

 **** Warning!!: The largest alpha MO coefficient is  0.67660610D+02

 Disk-based method using OVN memory for 29 occupieds at a time.
 Estimated scratch disk usage=  1378126993 words.
 Actual    scratch disk usage=  1365248115 words.
 JobTyp=1 Pass  1:  I=   1 to  29 NPSUse=  8 ParTrn=T ParDer=T DoDerP=F.
 Spin components of T(2) and E(2):
     alpha-alpha T2 =       0.6801883702D-01 E2=     -0.2058658072D+00
     alpha-beta  T2 =       0.3772594844D+00 E2=     -0.1190835502D+01
     beta-beta   T2 =       0.6801883702D-01 E2=     -0.2058658072D+00
 ANorm=    0.1230161436D+01
 E2 =    -0.1602567116D+01 EUMP2 =    -0.49451923226530D+03

 **********************************************************************

            Population analysis using the SCF density.

 **********************************************************************

 Orbital symmetries:
       Occupied  (A) (A) (A) (A) (A) (A) (A) (A) (A) (A) (A) (A)
                 (A) (A) (A) (A) (A) (A) (A) (A) (A) (A) (A) (A)
                 (A) (A) (A) (A) (A) (A) (A) (A) (A) (A) (A) (A)
                 (A) (A) (A)
       Virtual   (A) (A) (A) (A) (A) (A) (A) (A) (A) (A) (A) (A)
                 (A) (A) (A) (A) (A) (A) (A) (A) (A) (A) (A) (A)
                 (A) (A) (A) (A) (A) (A) (A) (A) (A) (A) (A) (A)
                 (A) (A) (A) (A) (A) (A) (A) (A) (A) (A) (A) (A)
                 (A) (A) (A) (A) (A) (A) (A) (A) (A) (A) (A) (A)
                 (A) (A) (A) (A) (A) (A) (A) (A) (A) (A) (A) (A)
                 (A) (A) (A) (A) (A) (A) (A) (A) (A) (A) (A) (A)
                 (A) (A) (A) (A) (A) (A) (A) (A) (A) (A) (A) (A)
                 (A) (A) (A) (A) (A) (A) (A) (A) (A) (A) (A) (A)
                 (A) (A) (A) (A) (A) (A) (A) (A) (A) (A) (A) (A)
                 (A) (A) (A) (A) (A) (A) (A) (A) (A) (A) (A) (A)
                 (A) (A) (A) (A) (A) (A) (A) (A) (A) (A) (A) (A)
                 (A) (A) (A) (A) (A) (A) (A) (A) (A) (A) (A) (A)
                 (A) (A) (A) (A) (A) (A) (A) (A) (A) (A) (A) (A)
                 (A) (A) (A) (A) (A) (A) (A) (A) (A) (A) (A) (A)
                 (A) (A) (A) (A) (A) (A) (A) (A) (A) (A) (A) (A)
                 (A) (A) (A) (A) (A) (A) (A) (A) (A) (A) (A) (A)
                 (A) (A) (A) (A) (A) (A) (A) (A) (A) (A) (A) (A)
                 (A) (A) (A) (A) (A) (A) (A) (A) (A) (A) (A) (A)
                 (A) (A) (A) (A) (A) (A) (A) (A) (A) (A) (A) (A)
                 (A) (A) (A) (A) (A) (A) (A) (A) (A) (A) (A) (A)
                 (A) (A) (A) (A) (A) (A) (A) (A) (A) (A) (A) (A)
                 (A) (A) (A) (A) (A) (A) (A) (A) (A) (A) (A) (A)
                 (A) (A) (A) (A) (A) (A) (A) (A) (A) (A) (A) (A)
                 (A) (A) (A) (A) (A) (A) (A) (A) (A) (A) (A)
 The electronic state is 1-A.
 Alpha  occ. eigenvalues --  -20.54197 -20.54021 -15.60512 -15.60389 -11.37038
 Alpha  occ. eigenvalues --  -11.36938 -11.29776 -11.27598 -11.25408 -11.21748
 Alpha  occ. eigenvalues --   -1.39726  -1.39153  -1.25446  -1.22946  -1.05451
 Alpha  occ. eigenvalues --   -0.99371  -0.96698  -0.87610  -0.79863  -0.78389
 Alpha  occ. eigenvalues --   -0.73430  -0.67478  -0.66505  -0.65391  -0.62641
 Alpha  occ. eigenvalues --   -0.62544  -0.60645  -0.59324  -0.57393  -0.55733
 Alpha  occ. eigenvalues --   -0.55463  -0.53759  -0.52602  -0.51612  -0.49842
 Alpha  occ. eigenvalues --   -0.44085  -0.42504  -0.40913  -0.39928
 Alpha virt. eigenvalues --    0.02327   0.03698   0.04205   0.04625   0.05513
 Alpha virt. eigenvalues --    0.05917   0.06582   0.06945   0.07096   0.08415
 Alpha virt. eigenvalues --    0.08571   0.08927   0.10852   0.11841   0.13183
 Alpha virt. eigenvalues --    0.13843   0.14110   0.14266   0.15019   0.15119
 Alpha virt. eigenvalues --    0.15595   0.15815   0.15972   0.16263   0.16927
 Alpha virt. eigenvalues --    0.17505   0.17683   0.18023   0.18353   0.19000
 Alpha virt. eigenvalues --    0.20273   0.20485   0.20838   0.21136   0.21606
 Alpha virt. eigenvalues --    0.23232   0.23907   0.24604   0.24919   0.26329
 Alpha virt. eigenvalues --    0.27026   0.27601   0.28361   0.29915   0.30768
 Alpha virt. eigenvalues --    0.31281   0.31755   0.32477   0.32880   0.33312
 Alpha virt. eigenvalues --    0.34065   0.34760   0.35122   0.36215   0.36827
 Alpha virt. eigenvalues --    0.37235   0.37731   0.38042   0.38142   0.38927
 Alpha virt. eigenvalues --    0.40176   0.40883   0.41421   0.42026   0.42580
 Alpha virt. eigenvalues --    0.43429   0.43870   0.44613   0.45102   0.45777
 Alpha virt. eigenvalues --    0.45937   0.47017   0.47594   0.48398   0.48914
 Alpha virt. eigenvalues --    0.49455   0.50150   0.50971   0.51733   0.52589
 Alpha virt. eigenvalues --    0.53308   0.53800   0.54350   0.54947   0.55613
 Alpha virt. eigenvalues --    0.55997   0.56531   0.57599   0.58210   0.58794
 Alpha virt. eigenvalues --    0.58955   0.60990   0.61122   0.61569   0.61717
 Alpha virt. eigenvalues --    0.62459   0.63334   0.63879   0.63966   0.65008
 Alpha virt. eigenvalues --    0.65390   0.66250   0.67068   0.67378   0.68021
 Alpha virt. eigenvalues --    0.68312   0.69070   0.69570   0.70272   0.71470
 Alpha virt. eigenvalues --    0.71912   0.73163   0.73549   0.74545   0.75012
 Alpha virt. eigenvalues --    0.76024   0.76851   0.77674   0.77933   0.78486
 Alpha virt. eigenvalues --    0.79266   0.80265   0.81535   0.82532   0.83596
 Alpha virt. eigenvalues --    0.84865   0.85227   0.86035   0.87049   0.87129
 Alpha virt. eigenvalues --    0.88879   0.89668   0.90986   0.92346   0.93627
 Alpha virt. eigenvalues --    0.94231   0.94699   0.96834   0.97625   0.98929
 Alpha virt. eigenvalues --    1.00276   1.00607   1.02607   1.03084   1.04576
 Alpha virt. eigenvalues --    1.05458   1.07357   1.08387   1.08865   1.10397
 Alpha virt. eigenvalues --    1.11844   1.12597   1.13911   1.14947   1.15907
 Alpha virt. eigenvalues --    1.16349   1.18557   1.20707   1.21518   1.22289
 Alpha virt. eigenvalues --    1.22762   1.25041   1.25575   1.27946   1.29506
 Alpha virt. eigenvalues --    1.31858   1.33075   1.34553   1.35948   1.37907
 Alpha virt. eigenvalues --    1.38997   1.41332   1.41885   1.45082   1.47298
 Alpha virt. eigenvalues --    1.48239   1.49618   1.51621   1.52959   1.53692
 Alpha virt. eigenvalues --    1.54826   1.58696   1.59226   1.62946   1.65140
 Alpha virt. eigenvalues --    1.65757   1.67507   1.67966   1.70299   1.71135
 Alpha virt. eigenvalues --    1.74513   1.75731   1.76133   1.77486   1.79569
 Alpha virt. eigenvalues --    1.80968   1.82782   1.84266   1.85197   1.87267
 Alpha virt. eigenvalues --    1.88454   1.89325   1.89949   1.90613   1.90871
 Alpha virt. eigenvalues --    1.93568   1.96289   1.97219   2.00149   2.01323
 Alpha virt. eigenvalues --    2.01542   2.04268   2.04668   2.07018   2.08121
 Alpha virt. eigenvalues --    2.09086   2.11366   2.13811   2.15952   2.17184
 Alpha virt. eigenvalues --    2.19538   2.19910   2.20291   2.20838   2.22103
 Alpha virt. eigenvalues --    2.23565   2.24114   2.27859   2.28913   2.29597
 Alpha virt. eigenvalues --    2.30796   2.30984   2.32970   2.36324   2.36683
 Alpha virt. eigenvalues --    2.38075   2.39266   2.42232   2.42609   2.44430
 Alpha virt. eigenvalues --    2.46083   2.46347   2.47579   2.49768   2.51240
 Alpha virt. eigenvalues --    2.53479   2.54290   2.54687   2.56352   2.59134
 Alpha virt. eigenvalues --    2.61542   2.63436   2.65480   2.67237   2.68341
 Alpha virt. eigenvalues --    2.71021   2.75717   2.76508   2.77737   2.78928
 Alpha virt. eigenvalues --    2.80393   2.82679   2.84056   2.86606   2.89313
 Alpha virt. eigenvalues --    2.91127   2.93183   2.93490   2.96272   2.98462
 Alpha virt. eigenvalues --    3.00313   3.02375   3.03513   3.06107   3.07554
 Alpha virt. eigenvalues --    3.10292   3.13882   3.16594   3.19936   3.23417
 Alpha virt. eigenvalues --    3.31227   3.34463   3.41901   3.48887   3.56506
 Alpha virt. eigenvalues --    3.59504   3.63344   3.77037   3.81661   3.84213
 Alpha virt. eigenvalues --    3.86143   3.86660   3.87866   3.94170   4.02448
 Alpha virt. eigenvalues --    4.04100   4.12684   4.20321   4.22848
          Condensed to atoms (all electrons):
              1          2          3          4          5          6
     1  H    0.790625   0.419304  -0.109559  -0.057506  -0.105160   0.030999
     2  C    0.419304   4.536931   0.298499   0.348409   0.138575  -0.039186
     3  H   -0.109559   0.298499   1.021804  -0.070934   0.145383  -0.007762
     4  H   -0.057506   0.348409  -0.070934   0.732302  -0.078158   0.010574
     5  C   -0.105160   0.138575   0.145383  -0.078158   5.613636   0.250975
     6  O    0.030999  -0.039186  -0.007762   0.010574   0.250975   8.689136
     7  N    0.058734  -0.003691  -0.175006   0.046223  -0.030556  -0.151032
     8  H   -0.007047  -0.065827   0.021578  -0.009466  -0.024760   0.003100
     9  C   -0.005476   0.027125  -0.021070   0.013063  -0.207884   0.033462
    10  H   -0.000707   0.011803   0.001138   0.000573   0.049895   0.011119
    11  C    0.001415  -0.004224  -0.007523   0.000788  -0.053765   0.006923
    12  H   -0.000193   0.000695   0.000851  -0.000650   0.018691   0.003252
    13  H   -0.000213  -0.001803  -0.001139   0.000067  -0.059153   0.005471
    14  H   -0.000040   0.007815   0.002465   0.000122   0.068845  -0.011549
    15  C   -0.000760  -0.003709  -0.011127   0.006707  -0.172116   0.000243
    16  O    0.000048   0.000388   0.000302   0.000105   0.016666  -0.001205
    17  N    0.000848   0.008245  -0.003672   0.001723  -0.052936  -0.001680
    18  H    0.000393   0.001111   0.000132  -0.000440   0.009501   0.000009
    19  C   -0.000033  -0.000983  -0.001421   0.000589  -0.013364   0.000173
    20  H   -0.000009   0.000085   0.000001   0.000036  -0.000819   0.000067
    21  H   -0.000007  -0.000444  -0.000784   0.000093   0.000387   0.000081
    22  H    0.000010   0.000301   0.000179   0.000004  -0.001345   0.000009
              7          8          9         10         11         12
     1  H    0.058734  -0.007047  -0.005476  -0.000707   0.001415  -0.000193
     2  C   -0.003691  -0.065827   0.027125   0.011803  -0.004224   0.000695
     3  H   -0.175006   0.021578  -0.021070   0.001138  -0.007523   0.000851
     4  H    0.046223  -0.009466   0.013063   0.000573   0.000788  -0.000650
     5  C   -0.030556  -0.024760  -0.207884   0.049895  -0.053765   0.018691
     6  O   -0.151032   0.003100   0.033462   0.011119   0.006923   0.003252
     7  N    7.470309   0.311481  -0.180319  -0.062010   0.024427  -0.004109
     8  H    0.311481   0.930126  -0.137355   0.002434   0.017689  -0.000175
     9  C   -0.180319  -0.137355   7.290414  -0.026008   0.097424  -0.212644
    10  H   -0.062010   0.002434  -0.026008   1.231273   0.039209   0.074328
    11  C    0.024427   0.017689   0.097424   0.039209   4.378960   0.341151
    12  H   -0.004109  -0.000175  -0.212644   0.074328   0.341151   1.104978
    13  H    0.043636   0.000881  -0.172570  -0.035339   0.280497  -0.104113
    14  H   -0.062322   0.001319   0.255573  -0.032344   0.263367  -0.185470
    15  C    0.076289  -0.055996  -0.568223  -0.069414  -0.020167  -0.018642
    16  O   -0.029408   0.007187   0.028501  -0.003050  -0.018358   0.018483
    17  N   -0.051471  -0.018912   0.100481  -0.043359  -0.022502  -0.005522
    18  H    0.049715   0.000367  -0.118589   0.006127   0.016816  -0.002299
    19  C   -0.004393  -0.004541  -0.050757  -0.000806  -0.002385   0.000442
    20  H    0.005852  -0.000551   0.004907   0.001992  -0.006808  -0.000241
    21  H    0.013521   0.002880  -0.018916  -0.002394   0.004341  -0.000323
    22  H   -0.010522  -0.005579   0.014200   0.000293   0.003680   0.000791
             13         14         15         16         17         18
     1  H   -0.000213  -0.000040  -0.000760   0.000048   0.000848   0.000393
     2  C   -0.001803   0.007815  -0.003709   0.000388   0.008245   0.001111
     3  H   -0.001139   0.002465  -0.011127   0.000302  -0.003672   0.000132
     4  H    0.000067   0.000122   0.006707   0.000105   0.001723  -0.000440
     5  C   -0.059153   0.068845  -0.172116   0.016666  -0.052936   0.009501
     6  O    0.005471  -0.011549   0.000243  -0.001205  -0.001680   0.000009
     7  N    0.043636  -0.062322   0.076289  -0.029408  -0.051471   0.049715
     8  H    0.000881   0.001319  -0.055996   0.007187  -0.018912   0.000367
     9  C   -0.172570   0.255573  -0.568223   0.028501   0.100481  -0.118589
    10  H   -0.035339  -0.032344  -0.069414  -0.003050  -0.043359   0.006127
    11  C    0.280497   0.263367  -0.020167  -0.018358  -0.022502   0.016816
    12  H   -0.104113  -0.185470  -0.018642   0.018483  -0.005522  -0.002299
    13  H    1.187821  -0.229008   0.160262  -0.032115   0.006938   0.000556
    14  H   -0.229008   1.006783  -0.117857   0.014518   0.001854   0.000638
    15  C    0.160262  -0.117857   5.433777   0.252705   0.140726  -0.031132
    16  O   -0.032115   0.014518   0.252705   8.716237  -0.169345   0.010395
    17  N    0.006938   0.001854   0.140726  -0.169345   7.151444   0.278657
    18  H    0.000556   0.000638  -0.031132   0.010395   0.278657   0.978043
    19  C    0.006482  -0.002226  -0.040439  -0.022813   0.293411  -0.120416
    20  H   -0.000613  -0.000157   0.001761  -0.011698  -0.008378   0.003601
    21  H    0.000413   0.000215   0.000664   0.011825  -0.087172   0.017638
    22  H    0.000429  -0.000116  -0.021251   0.002040  -0.017666  -0.008381
             19         20         21         22
     1  H   -0.000033  -0.000009  -0.000007   0.000010
     2  C   -0.000983   0.000085  -0.000444   0.000301
     3  H   -0.001421   0.000001  -0.000784   0.000179
     4  H    0.000589   0.000036   0.000093   0.000004
     5  C   -0.013364  -0.000819   0.000387  -0.001345
     6  O    0.000173   0.000067   0.000081   0.000009
     7  N   -0.004393   0.005852   0.013521  -0.010522
     8  H   -0.004541  -0.000551   0.002880  -0.005579
     9  C   -0.050757   0.004907  -0.018916   0.014200
    10  H   -0.000806   0.001992  -0.002394   0.000293
    11  C   -0.002385  -0.006808   0.004341   0.003680
    12  H    0.000442  -0.000241  -0.000323   0.000791
    13  H    0.006482  -0.000613   0.000413   0.000429
    14  H   -0.002226  -0.000157   0.000215  -0.000116
    15  C   -0.040439   0.001761   0.000664  -0.021251
    16  O   -0.022813  -0.011698   0.011825   0.002040
    17  N    0.293411  -0.008378  -0.087172  -0.017666
    18  H   -0.120416   0.003601   0.017638  -0.008381
    19  C    4.072735   0.435363   0.359855   0.337855
    20  H    0.435363   0.955548  -0.160390  -0.090314
    21  H    0.359855  -0.160390   1.147621  -0.156393
    22  H    0.337855  -0.090314  -0.156393   1.037957
 Mulliken atomic charges:
              1
     1  H   -0.015664
     2  C    0.320581
     3  H   -0.082335
     4  H    0.055776
     5  C    0.487462
     6  O   -0.833180
     7  N   -0.335347
     8  H    0.031169
     9  C   -0.145339
    10  H   -0.154754
    11  C    0.659044
    12  H   -0.029281
    13  H   -0.057384
    14  H    0.017578
    15  C    1.057699
    16  O   -0.791408
    17  N   -0.501712
    18  H   -0.092444
    19  C    0.757669
    20  H   -0.129236
    21  H   -0.132713
    22  H   -0.086181
 Sum of Mulliken atomic charges =   0.00000
 Mulliken charges with hydrogens summed into heavy atoms:
              1
     2  C    0.278358
     5  C    0.487462
     6  O   -0.833180
     7  N   -0.304178
     9  C   -0.300093
    11  C    0.589957
    15  C    1.057699
    16  O   -0.791408
    17  N   -0.594156
    19  C    0.409539
 Sum of Mulliken charges with hydrogens summed into heavy atoms =   0.00000
 Electronic spatial extent (au):  <R**2>=           1913.1901
 Charge=              0.0000 electrons
 Dipole moment (field-independent basis, Debye):
    X=              0.9635    Y=             -4.8179    Z=              0.1649  Tot=              4.9161
 Quadrupole moment (field-independent basis, Debye-Ang):
   XX=            -70.0485   YY=            -59.5476   ZZ=            -61.1724
   XY=             -1.4141   XZ=             -9.9002   YZ=             -1.6705
 Traceless Quadrupole moment (field-independent basis, Debye-Ang):
   XX=             -6.4590   YY=              4.0419   ZZ=              2.4171
   XY=             -1.4141   XZ=             -9.9002   YZ=             -1.6705
 Octapole moment (field-independent basis, Debye-Ang**2):
  XXX=             26.5252  YYY=             -8.0199  ZZZ=             -0.8947  XYY=             -4.6740
  XXY=            -40.2203  XXZ=              8.6306  XZZ=              1.2005  YZZ=             -2.7137
  YYZ=             -3.6126  XYZ=             -4.5133
 Hexadecapole moment (field-independent basis, Debye-Ang**3):
 XXXX=          -1786.9959 YYYY=           -575.8450 ZZZZ=           -156.9477 XXXY=              8.6074
 XXXZ=            -55.9938 YYYX=            -11.3737 YYYZ=             -3.3726 ZZZX=             -4.8223
 ZZZY=              1.6776 XXYY=           -388.7279 XXZZ=           -325.5871 YYZZ=           -125.9786
 XXYZ=             -1.8269 YYXZ=             -6.8252 ZZXY=             -1.7098
 N-N= 5.506734771341D+02 E-N=-2.256362427505D+03  KE= 4.920635405286D+02
 1\1\GINC-NODE003\SP\RMP2-FC\Aug-CC-pVDZ\C6H12N2O2\STEBOSS\13-Feb-2017\
 0\\#SP MP2/aug-cc-pVDZ\\Single Point calculation at MP2\\0,1\H,0,-3.82
 95,-1.7091,0.2062\C,0,-2.8679,-1.4906,0.6745\H,0,-2.2693,-2.4064,0.723
 6\H,0,-3.0615,-1.1511,1.6994\C,0,-2.1865,-0.3743,-0.1076\O,0,-2.8191,0
 .4867,-0.6997\N,0,-0.8062,-0.4401,-0.1187\H,0,-0.4137,-1.065,0.5763\C,
 0,0.0494,0.7297,-0.4216\H,0,0.0524,0.8658,-1.5119\C,0,-0.4066,2.0324,0
 .2408\H,0,-0.4143,1.9272,1.3305\H,0,0.297,2.8304,-0.0082\H,0,-1.4051,2
 .2988,-0.1054\C,0,1.4909,0.3927,0.0243\O,0,2.1869,1.1771,0.6513\N,0,1.
 9154,-0.858,-0.3423\H,0,1.3265,-1.3889,-0.9702\C,0,3.2759,-1.3153,-0.1
 106\H,0,3.7119,-0.6796,0.661\H,0,3.2761,-2.3557,0.2304\H,0,3.8913,-1.2
 387,-1.0162\\Version=EM64L-G09RevA.02\State=1-A\HF=-492.9166651\MP2=-4
 94.5192323\RMSD=8.413e-09\PG=C01 [X(C6H12N2O2)]\\@


 EVERYTHING'S GOT A MORAL, IF ONLY YOU CAN FIND IT.

                                    -- LEWIS CARROL, ALICE IN WONDERLAND
 Job cpu time:  0 days 13 hours 48 minutes 43.1 seconds.
 File lengths (MBytes):  RWF=  10533 Int=      0 D2E=      0 Chk=      7 Scr=      2
 Normal termination of Gaussian 09 at Mon Feb 13 00:29:48 2017.
