 Entering Gaussian System, Link 0=g09
 Initial command:
 /home/steboss/Software/g09/l1.exe /home/steboss/projects/phi_psi_scan/alanine/MP2/45/5650/Gau-5688.inp -scrdir=/home/steboss/projects/phi_psi_scan/alanine/MP2/45/5650/
 Entering Link 1 = /home/steboss/Software/g09/l1.exe PID=      5690.
  
 Copyright (c) 1988,1990,1992,1993,1995,1998,2003,2009, Gaussian, Inc.
                  All Rights Reserved.
  
 This is part of the Gaussian(R) 09 program.  It is based on
 the Gaussian(R) 03 system (copyright 2003, Gaussian, Inc.),
 the Gaussian(R) 98 system (copyright 1998, Gaussian, Inc.),
 the Gaussian(R) 94 system (copyright 1995, Gaussian, Inc.),
 the Gaussian 92(TM) system (copyright 1992, Gaussian, Inc.),
 the Gaussian 90(TM) system (copyright 1990, Gaussian, Inc.),
 the Gaussian 88(TM) system (copyright 1988, Gaussian, Inc.),
 the Gaussian 86(TM) system (copyright 1986, Carnegie Mellon
 University), and the Gaussian 82(TM) system (copyright 1983,
 Carnegie Mellon University). Gaussian is a federally registered
 trademark of Gaussian, Inc.
  
 This software contains proprietary and confidential information,
 including trade secrets, belonging to Gaussian, Inc.
  
 This software is provided under written license and may be
 used, copied, transmitted, or stored only in accord with that
 written license.
  
 The following legend is applicable only to US Government
 contracts under FAR:
  
                    RESTRICTED RIGHTS LEGEND
  
 Use, reproduction and disclosure by the US Government is
 subject to restrictions as set forth in subparagraphs (a)
 and (c) of the Commercial Computer Software - Restricted
 Rights clause in FAR 52.227-19.
  
 Gaussian, Inc.
 340 Quinnipiac St., Bldg. 40, Wallingford CT 06492
  
  
 ---------------------------------------------------------------
 Warning -- This program may not be used in any manner that
 competes with the business of Gaussian, Inc. or will provide
 assistance to any competitor of Gaussian, Inc.  The licensee
 of this program is prohibited from giving any competitor of
 Gaussian, Inc. access to this program.  By using this program,
 the user acknowledges that Gaussian, Inc. is engaged in the
 business of creating and licensing software in the field of
 computational chemistry and represents and warrants to the
 licensee that it is not a competitor of Gaussian, Inc. and that
 it will not use this program in any manner prohibited above.
 ---------------------------------------------------------------
  

 Cite this work as:
 Gaussian 09, Revision A.02,
 M. J. Frisch, G. W. Trucks, H. B. Schlegel, G. E. Scuseria, 
 M. A. Robb, J. R. Cheeseman, G. Scalmani, V. Barone, B. Mennucci, 
 G. A. Petersson, H. Nakatsuji, M. Caricato, X. Li, H. P. Hratchian, 
 A. F. Izmaylov, J. Bloino, G. Zheng, J. L. Sonnenberg, M. Hada, 
 M. Ehara, K. Toyota, R. Fukuda, J. Hasegawa, M. Ishida, T. Nakajima, 
 Y. Honda, O. Kitao, H. Nakai, T. Vreven, J. A. Montgomery, Jr., 
 J. E. Peralta, F. Ogliaro, M. Bearpark, J. J. Heyd, E. Brothers, 
 K. N. Kudin, V. N. Staroverov, R. Kobayashi, J. Normand, 
 K. Raghavachari, A. Rendell, J. C. Burant, S. S. Iyengar, J. Tomasi, 
 M. Cossi, N. Rega, J. M. Millam, M. Klene, J. E. Knox, J. B. Cross, 
 V. Bakken, C. Adamo, J. Jaramillo, R. Gomperts, R. E. Stratmann, 
 O. Yazyev, A. J. Austin, R. Cammi, C. Pomelli, J. W. Ochterski, 
 R. L. Martin, K. Morokuma, V. G. Zakrzewski, G. A. Voth, 
 P. Salvador, J. J. Dannenberg, S. Dapprich, A. D. Daniels, 
 O. Farkas, J. B. Foresman, J. V. Ortiz, J. Cioslowski, 
 and D. J. Fox, Gaussian, Inc., Wallingford CT, 2009.
 
 ******************************************
 Gaussian 09:  EM64L-G09RevA.02 11-Jun-2009
                13-Feb-2017 
 ******************************************
 %chk=structure_300.chk
 %NProcShared=8
 Will use up to    8 processors via shared memory.
 -------------------
 #SP MP2/aug-cc-pVDZ
 -------------------
 1/38=1/1;
 2/12=2,17=6,18=5,40=1/2;
 3/5=16,7=10,11=9,16=1,25=1,30=1/1,2,3;
 4//1;
 5/5=2,38=5/2;
 8/10=1/1;
 9/16=-3/6;
 6/7=2,8=2,9=2,10=2/1;
 99/5=1,9=1/99;
 -------------------------------
 Single Point calculation at MP2
 -------------------------------
 Symbolic Z-matrix:
 Charge =  0 Multiplicity = 1
 H                    -3.8617   -1.0053    0.2301 
 C                    -3.1814   -0.7224   -0.5774 
 H                    -3.6225    0.1012   -1.1471 
 H                    -3.0776   -1.5907   -1.2372 
 C                    -1.8213   -0.402     0.0255 
 O                    -1.3129   -1.1626    0.852 
 N                    -1.2659    0.7727   -0.3837 
 H                    -1.7668    1.2439   -1.1241 
 C                     0.1099    1.2839   -0.178 
 H                     0.2493    2.0426   -0.9495 
 C                     0.2345    1.9406    1.2088 
 H                     0.0559    1.2061    1.9992 
 H                     1.2387    2.357     1.3398 
 H                    -0.4963    2.7494    1.3147 
 C                     1.3034    0.3177   -0.4142 
 O                     2.189     0.6666   -1.1927 
 N                     1.37     -0.8049    0.3368 
 H                     0.5153   -1.1071    0.8031 
 C                     2.4762   -1.7326    0.1721 
 H                     3.4231   -1.1877    0.2017 
 H                     2.4498   -2.4592    0.9878 
 H                     2.4271   -2.2683   -0.7851 
 
                          Input orientation:                          
 ---------------------------------------------------------------------
 Center     Atomic      Atomic             Coordinates (Angstroms)
 Number     Number       Type             X           Y           Z
 ---------------------------------------------------------------------
      1          1           0       -3.861700   -1.005300    0.230100
      2          6           0       -3.181400   -0.722400   -0.577400
      3          1           0       -3.622500    0.101200   -1.147100
      4          1           0       -3.077600   -1.590700   -1.237200
      5          6           0       -1.821300   -0.402000    0.025500
      6          8           0       -1.312900   -1.162600    0.852000
      7          7           0       -1.265900    0.772700   -0.383700
      8          1           0       -1.766800    1.243900   -1.124100
      9          6           0        0.109900    1.283900   -0.178000
     10          1           0        0.249300    2.042600   -0.949500
     11          6           0        0.234500    1.940600    1.208800
     12          1           0        0.055900    1.206100    1.999200
     13          1           0        1.238700    2.357000    1.339800
     14          1           0       -0.496300    2.749400    1.314700
     15          6           0        1.303400    0.317700   -0.414200
     16          8           0        2.189000    0.666600   -1.192700
     17          7           0        1.370000   -0.804900    0.336800
     18          1           0        0.515300   -1.107100    0.803100
     19          6           0        2.476200   -1.732600    0.172100
     20          1           0        3.423100   -1.187700    0.201700
     21          1           0        2.449800   -2.459200    0.987800
     22          1           0        2.427100   -2.268300   -0.785100
 ---------------------------------------------------------------------
                    Distance matrix (angstroms):
                    1          2          3          4          5
     1  H    0.000000
     2  C    1.093113   0.000000
     3  H    1.782762   1.094278   0.000000
     4  H    1.763654   1.095470   1.779764   0.000000
     5  C    2.137537   1.521846   2.207379   2.141427   0.000000
     6  O    2.628285   2.393377   3.305729   2.768067   1.232917
     7  N    3.205653   2.437618   2.566565   3.097802   1.362290
     8  H    3.358774   2.483206   2.179430   3.125051   2.008367
     9  C    4.602237   3.875231   4.033453   4.421016   2.571615
    10  H    5.251807   4.421921   4.335772   4.934765   3.348743
    11  C    5.139556   4.685131   4.879560   5.424297   3.333810
    12  H    4.834004   4.564876   4.964941   5.302377   3.163125
    13  H    6.208911   5.718011   5.908009   6.391847   4.324704
    14  H    5.157523   4.779456   4.779806   5.657895   3.653626
    15  C    5.370634   4.606720   4.984828   4.848967   3.236519
    16  O    6.436659   5.581139   5.839117   5.730136   4.325323
    17  N    5.236624   4.643039   5.286590   4.782897   3.231661
    18  H    4.415520   3.964765   4.731243   4.160003   2.561548
    19  C    6.379757   5.795748   6.503634   5.731575   4.501166
    20  H    7.287138   6.666552   7.288416   6.670228   5.305855
    21  H    6.520964   6.097273   6.927213   6.021384   4.837395
    22  H    6.494213   5.821359   6.507168   5.564644   4.710526
                    6          7          8          9         10
     6  O    0.000000
     7  N    2.296639   0.000000
     8  H    3.146782   1.010506   0.000000
     9  C    3.011747   1.482047   2.102072   0.000000
    10  H    3.994894   2.056358   2.175561   1.090995   0.000000
    11  C    3.485915   2.480171   3.151669   1.539479   2.160760
    12  H    2.966550   2.759203   3.616444   2.179259   3.071151
    13  H    4.374494   3.428335   4.042626   2.174730   2.513693
    14  H    4.023018   2.717387   3.135035   2.177917   2.486380
    15  C    3.261836   2.609455   3.284499   1.553633   2.091161
    16  O    4.448604   3.549940   3.998291   2.394438   2.390598
    17  N    2.755237   3.155299   4.021359   2.493182   3.319457
    18  H    1.829696   2.848652   3.801221   2.616063   3.614273
    19  C    3.891586   4.537483   5.342540   3.849833   4.524291
    20  H    4.780504   5.115915   5.882643   4.150936   4.672591
    21  H    3.982151   5.112007   5.996064   4.565635   5.372293
    22  H    4.229689   4.800735   5.480809   4.284403   4.832567
                   11         12         13         14         15
    11  C    0.000000
    12  H    1.093673   0.000000
    13  H    1.094974   1.777187   0.000000
    14  H    1.095190   1.776300   1.778998   0.000000
    15  C    2.531893   2.858323   2.690622   3.484420   0.000000
    16  O    3.348186   3.876777   3.189683   4.223263   1.229667
    17  N    3.096371   2.921396   3.319768   4.131878   1.352282
    18  H    3.087380   2.644352   3.579294   4.019659   2.032972
    19  C    4.426326   4.222808   4.429420   5.498147   2.433709
    20  H    4.579048   4.505477   4.316454   5.665794   2.671833
    21  H    4.930987   4.493118   4.978599   5.992986   3.315269
    22  H    5.147618   5.044440   5.226939   6.175171   2.843882
                   16         17         18         19         20
    16  O    0.000000
    17  N    2.274960   0.000000
    18  H    3.151270   1.019447   0.000000
    19  C    2.775126   1.453077   2.152798   0.000000
    20  H    2.627886   2.092847   2.970434   1.092891   0.000000
    21  H    3.820108   2.080019   2.367399   1.092708   1.783810
    22  H    2.972620   2.125479   2.743309   1.098006   1.770166
                   21         22
    21  H    0.000000
    22  H    1.783293   0.000000
 Stoichiometry    C6H12N2O2
 Framework group  C1[X(C6H12N2O2)]
 Deg. of freedom    60
 Full point group                 C1      NOp   1
 Largest Abelian subgroup         C1      NOp   1
 Largest concise Abelian subgroup C1      NOp   1
                         Standard orientation:                         
 ---------------------------------------------------------------------
 Center     Atomic      Atomic             Coordinates (Angstroms)
 Number     Number       Type             X           Y           Z
 ---------------------------------------------------------------------
      1          1           0       -3.861694   -1.005299    0.230096
      2          6           0       -3.181394   -0.722398   -0.577404
      3          1           0       -3.622495    0.101201   -1.147104
      4          1           0       -3.077594   -1.590698   -1.237204
      5          6           0       -1.821295   -0.401997    0.025496
      6          8           0       -1.312894   -1.162597    0.851996
      7          7           0       -1.265895    0.772703   -0.383704
      8          1           0       -1.766796    1.243903   -1.124104
      9          6           0        0.109904    1.283904   -0.178004
     10          1           0        0.249304    2.042604   -0.949504
     11          6           0        0.234504    1.940604    1.208796
     12          1           0        0.055904    1.206104    1.999196
     13          1           0        1.238704    2.357005    1.339796
     14          1           0       -0.496297    2.749404    1.314696
     15          6           0        1.303405    0.317705   -0.414204
     16          8           0        2.189005    0.666605   -1.192704
     17          7           0        1.370006   -0.804895    0.336796
     18          1           0        0.515306   -1.107096    0.803096
     19          6           0        2.476206   -1.732594    0.172096
     20          1           0        3.423106   -1.187694    0.201696
     21          1           0        2.449807   -2.459194    0.987796
     22          1           0        2.427107   -2.268294   -0.785104
 ---------------------------------------------------------------------
 Rotational constants (GHZ):      1.8628412      0.9137559      0.7532822
 Standard basis: Aug-CC-pVDZ (5D, 7F)
 There are   338 symmetry adapted basis functions of A   symmetry.
 Integral buffers will be    131072 words long.
 Raffenetti 1 integral format.
 Two-electron integral symmetry is turned on.
   338 basis functions,   562 primitive gaussians,   358 cartesian basis functions
    39 alpha electrons       39 beta electrons
       nuclear repulsion energy       561.8977073936 Hartrees.
 NAtoms=   22 NActive=   22 NUniq=   22 SFac= 7.50D-01 NAtFMM=   80 NAOKFM=F Big=F
 One-electron integrals computed using PRISM.
 NBasis=   338 RedAO= T  NBF=   338
 NBsUse=   338 1.00D-06 NBFU=   338
 Harris functional with IExCor=  205 diagonalized for initial guess.
 ExpMin= 2.97D-02 ExpMax= 1.17D+04 ExpMxC= 4.01D+02 IAcc=3 IRadAn=         0 AccDes= 0.00D+00
 HarFok:  IExCor=  205 AccDes= 0.00D+00 IRadAn=         0 IDoV= 1
 ScaDFX=  1.000000  1.000000  1.000000  1.000000
 FoFCou: FMM=F IPFlag=           0 FMFlag=      100000 FMFlg1=           0
         NFxFlg=           0 DoJE=T BraDBF=F KetDBF=T FulRan=T
         Omega=  0.000000  0.000000  1.000000  0.000000  0.000000 ICntrl=     500 IOpCl=  0
         NMat0=    1 NMatS0=    1 NMatT0=    0 NMatD0=    1 NMtDS0=    0 NMtDT0=    0
         I1Cent=           4 NGrid=           0.
 Petite list used in FoFCou.
 Initial guess orbital symmetries:
       Occupied  (A) (A) (A) (A) (A) (A) (A) (A) (A) (A) (A) (A)
                 (A) (A) (A) (A) (A) (A) (A) (A) (A) (A) (A) (A)
                 (A) (A) (A) (A) (A) (A) (A) (A) (A) (A) (A) (A)
                 (A) (A) (A)
       Virtual   (A) (A) (A) (A) (A) (A) (A) (A) (A) (A) (A) (A)
                 (A) (A) (A) (A) (A) (A) (A) (A) (A) (A) (A) (A)
                 (A) (A) (A) (A) (A) (A) (A) (A) (A) (A) (A) (A)
                 (A) (A) (A) (A) (A) (A) (A) (A) (A) (A) (A) (A)
                 (A) (A) (A) (A) (A) (A) (A) (A) (A) (A) (A) (A)
                 (A) (A) (A) (A) (A) (A) (A) (A) (A) (A) (A) (A)
                 (A) (A) (A) (A) (A) (A) (A) (A) (A) (A) (A) (A)
                 (A) (A) (A) (A) (A) (A) (A) (A) (A) (A) (A) (A)
                 (A) (A) (A) (A) (A) (A) (A) (A) (A) (A) (A) (A)
                 (A) (A) (A) (A) (A) (A) (A) (A) (A) (A) (A) (A)
                 (A) (A) (A) (A) (A) (A) (A) (A) (A) (A) (A) (A)
                 (A) (A) (A) (A) (A) (A) (A) (A) (A) (A) (A) (A)
                 (A) (A) (A) (A) (A) (A) (A) (A) (A) (A) (A) (A)
                 (A) (A) (A) (A) (A) (A) (A) (A) (A) (A) (A) (A)
                 (A) (A) (A) (A) (A) (A) (A) (A) (A) (A) (A) (A)
                 (A) (A) (A) (A) (A) (A) (A) (A) (A) (A) (A) (A)
                 (A) (A) (A) (A) (A) (A) (A) (A) (A) (A) (A) (A)
                 (A) (A) (A) (A) (A) (A) (A) (A) (A) (A) (A) (A)
                 (A) (A) (A) (A) (A) (A) (A) (A) (A) (A) (A) (A)
                 (A) (A) (A) (A) (A) (A) (A) (A) (A) (A) (A) (A)
                 (A) (A) (A) (A) (A) (A) (A) (A) (A) (A) (A) (A)
                 (A) (A) (A) (A) (A) (A) (A) (A) (A) (A) (A) (A)
                 (A) (A) (A) (A) (A) (A) (A) (A) (A) (A) (A) (A)
                 (A) (A) (A) (A) (A) (A) (A) (A) (A) (A) (A) (A)
                 (A) (A) (A) (A) (A) (A) (A) (A) (A) (A) (A)
 The electronic state of the initial guess is 1-A.
 Requested convergence on RMS density matrix=1.00D-08 within 128 cycles.
 Requested convergence on MAX density matrix=1.00D-06.
 Requested convergence on             energy=1.00D-06.
 No special actions if energy rises.
 Initial convergence to 1.0D-05 achieved.  Increase integral accuracy.
 SCF Done:  E(RHF) =  -492.919647500     A.U. after   14 cycles
             Convg  =    0.7213D-08             -V/T =  2.0017
 ExpMin= 2.97D-02 ExpMax= 1.17D+04 ExpMxC= 4.01D+02 IAcc=3 IRadAn=         5 AccDes= 0.00D+00
 HarFok:  IExCor=  205 AccDes= 0.00D+00 IRadAn=         5 IDoV=-2
 ScaDFX=  1.000000  1.000000  1.000000  1.000000
 Range of M.O.s used for correlation:    11   338
 NBasis=   338 NAE=    39 NBE=    39 NFC=    10 NFV=     0
 NROrb=    328 NOA=    29 NOB=    29 NVA=   299 NVB=   299

 **** Warning!!: The largest alpha MO coefficient is  0.79160703D+02

 Disk-based method using OVN memory for 29 occupieds at a time.
 Estimated scratch disk usage=  1390635620 words.
 Actual    scratch disk usage=  1377442900 words.
 JobTyp=1 Pass  1:  I=   1 to  29 NPSUse=  8 ParTrn=T ParDer=T DoDerP=F.
 Spin components of T(2) and E(2):
     alpha-alpha T2 =       0.6816329041D-01 E2=     -0.2062783136D+00
     alpha-beta  T2 =       0.3774343101D+00 E2=     -0.1191655071D+01
     beta-beta   T2 =       0.6816329041D-01 E2=     -0.2062783136D+00
 ANorm=    0.1230349906D+01
 E2 =    -0.1604211698D+01 EUMP2 =    -0.49452385919842D+03

 **********************************************************************

            Population analysis using the SCF density.

 **********************************************************************

 Orbital symmetries:
       Occupied  (A) (A) (A) (A) (A) (A) (A) (A) (A) (A) (A) (A)
                 (A) (A) (A) (A) (A) (A) (A) (A) (A) (A) (A) (A)
                 (A) (A) (A) (A) (A) (A) (A) (A) (A) (A) (A) (A)
                 (A) (A) (A)
       Virtual   (A) (A) (A) (A) (A) (A) (A) (A) (A) (A) (A) (A)
                 (A) (A) (A) (A) (A) (A) (A) (A) (A) (A) (A) (A)
                 (A) (A) (A) (A) (A) (A) (A) (A) (A) (A) (A) (A)
                 (A) (A) (A) (A) (A) (A) (A) (A) (A) (A) (A) (A)
                 (A) (A) (A) (A) (A) (A) (A) (A) (A) (A) (A) (A)
                 (A) (A) (A) (A) (A) (A) (A) (A) (A) (A) (A) (A)
                 (A) (A) (A) (A) (A) (A) (A) (A) (A) (A) (A) (A)
                 (A) (A) (A) (A) (A) (A) (A) (A) (A) (A) (A) (A)
                 (A) (A) (A) (A) (A) (A) (A) (A) (A) (A) (A) (A)
                 (A) (A) (A) (A) (A) (A) (A) (A) (A) (A) (A) (A)
                 (A) (A) (A) (A) (A) (A) (A) (A) (A) (A) (A) (A)
                 (A) (A) (A) (A) (A) (A) (A) (A) (A) (A) (A) (A)
                 (A) (A) (A) (A) (A) (A) (A) (A) (A) (A) (A) (A)
                 (A) (A) (A) (A) (A) (A) (A) (A) (A) (A) (A) (A)
                 (A) (A) (A) (A) (A) (A) (A) (A) (A) (A) (A) (A)
                 (A) (A) (A) (A) (A) (A) (A) (A) (A) (A) (A) (A)
                 (A) (A) (A) (A) (A) (A) (A) (A) (A) (A) (A) (A)
                 (A) (A) (A) (A) (A) (A) (A) (A) (A) (A) (A) (A)
                 (A) (A) (A) (A) (A) (A) (A) (A) (A) (A) (A) (A)
                 (A) (A) (A) (A) (A) (A) (A) (A) (A) (A) (A) (A)
                 (A) (A) (A) (A) (A) (A) (A) (A) (A) (A) (A) (A)
                 (A) (A) (A) (A) (A) (A) (A) (A) (A) (A) (A) (A)
                 (A) (A) (A) (A) (A) (A) (A) (A) (A) (A) (A) (A)
                 (A) (A) (A) (A) (A) (A) (A) (A) (A) (A) (A) (A)
                 (A) (A) (A) (A) (A) (A) (A) (A) (A) (A) (A)
 The electronic state is 1-A.
 Alpha  occ. eigenvalues --  -20.54841 -20.52224 -15.61733 -15.57257 -11.38388
 Alpha  occ. eigenvalues --  -11.35031 -11.30090 -11.26052 -11.25574 -11.23723
 Alpha  occ. eigenvalues --   -1.40193  -1.37358  -1.25384  -1.21663  -1.06187
 Alpha  occ. eigenvalues --   -1.00251  -0.94498  -0.88641  -0.81470  -0.76532
 Alpha  occ. eigenvalues --   -0.72191  -0.70860  -0.64828  -0.63532  -0.62533
 Alpha  occ. eigenvalues --   -0.61413  -0.60587  -0.58252  -0.57947  -0.56778
 Alpha  occ. eigenvalues --   -0.54422  -0.53984  -0.52306  -0.51762  -0.50292
 Alpha  occ. eigenvalues --   -0.44619  -0.43476  -0.39665  -0.37620
 Alpha virt. eigenvalues --    0.02490   0.03968   0.04306   0.04543   0.05645
 Alpha virt. eigenvalues --    0.06210   0.06450   0.06696   0.07350   0.08133
 Alpha virt. eigenvalues --    0.08818   0.10093   0.10999   0.11874   0.12068
 Alpha virt. eigenvalues --    0.13253   0.14001   0.14387   0.14729   0.15167
 Alpha virt. eigenvalues --    0.15916   0.16066   0.16143   0.16736   0.17310
 Alpha virt. eigenvalues --    0.17609   0.17927   0.18386   0.18602   0.19163
 Alpha virt. eigenvalues --    0.19967   0.20383   0.20650   0.21430   0.22163
 Alpha virt. eigenvalues --    0.22965   0.24391   0.25263   0.25360   0.26850
 Alpha virt. eigenvalues --    0.27493   0.28162   0.29292   0.30143   0.30614
 Alpha virt. eigenvalues --    0.31340   0.31838   0.32776   0.33278   0.34082
 Alpha virt. eigenvalues --    0.34235   0.34864   0.35060   0.36680   0.37057
 Alpha virt. eigenvalues --    0.37908   0.38676   0.39216   0.39564   0.40355
 Alpha virt. eigenvalues --    0.40709   0.41094   0.42126   0.42696   0.43167
 Alpha virt. eigenvalues --    0.43603   0.44158   0.44817   0.45184   0.45807
 Alpha virt. eigenvalues --    0.46656   0.47017   0.47308   0.48105   0.48430
 Alpha virt. eigenvalues --    0.49133   0.49601   0.51156   0.52176   0.52622
 Alpha virt. eigenvalues --    0.53442   0.54122   0.54402   0.55675   0.56036
 Alpha virt. eigenvalues --    0.56564   0.58183   0.58427   0.58602   0.59177
 Alpha virt. eigenvalues --    0.59965   0.60109   0.61085   0.61474   0.62439
 Alpha virt. eigenvalues --    0.63054   0.63287   0.64059   0.64622   0.65468
 Alpha virt. eigenvalues --    0.66227   0.67061   0.67317   0.68383   0.68530
 Alpha virt. eigenvalues --    0.69080   0.70034   0.70899   0.71446   0.72184
 Alpha virt. eigenvalues --    0.72796   0.73193   0.73701   0.74487   0.74906
 Alpha virt. eigenvalues --    0.76495   0.77550   0.78612   0.78789   0.79304
 Alpha virt. eigenvalues --    0.81050   0.81672   0.82364   0.83087   0.83860
 Alpha virt. eigenvalues --    0.84308   0.85897   0.86469   0.86907   0.87722
 Alpha virt. eigenvalues --    0.90253   0.90572   0.91703   0.92836   0.93441
 Alpha virt. eigenvalues --    0.94965   0.96093   0.97177   0.98929   0.99370
 Alpha virt. eigenvalues --    1.00144   1.00633   1.01971   1.04312   1.06215
 Alpha virt. eigenvalues --    1.07452   1.08555   1.08811   1.10070   1.10777
 Alpha virt. eigenvalues --    1.12407   1.13617   1.13997   1.14792   1.16074
 Alpha virt. eigenvalues --    1.17632   1.18052   1.18418   1.19640   1.20720
 Alpha virt. eigenvalues --    1.22334   1.23398   1.25079   1.28108   1.29867
 Alpha virt. eigenvalues --    1.32721   1.33128   1.35298   1.37006   1.37610
 Alpha virt. eigenvalues --    1.39746   1.41848   1.43156   1.45686   1.46997
 Alpha virt. eigenvalues --    1.48102   1.49988   1.51318   1.52353   1.53352
 Alpha virt. eigenvalues --    1.54667   1.57223   1.62179   1.62576   1.65094
 Alpha virt. eigenvalues --    1.66922   1.68753   1.69840   1.71482   1.74055
 Alpha virt. eigenvalues --    1.74897   1.75894   1.76849   1.80775   1.82136
 Alpha virt. eigenvalues --    1.83794   1.84611   1.86196   1.87456   1.88619
 Alpha virt. eigenvalues --    1.89833   1.90564   1.92731   1.94183   1.94800
 Alpha virt. eigenvalues --    1.95564   1.96564   1.97087   1.99795   2.00398
 Alpha virt. eigenvalues --    2.02243   2.03718   2.05237   2.07091   2.09234
 Alpha virt. eigenvalues --    2.11736   2.12408   2.14439   2.14987   2.15777
 Alpha virt. eigenvalues --    2.17615   2.19761   2.20509   2.21515   2.22894
 Alpha virt. eigenvalues --    2.24007   2.25824   2.26964   2.28659   2.29390
 Alpha virt. eigenvalues --    2.31440   2.33134   2.34738   2.35423   2.38000
 Alpha virt. eigenvalues --    2.39241   2.40359   2.41048   2.43592   2.45377
 Alpha virt. eigenvalues --    2.46315   2.47977   2.50615   2.51949   2.53556
 Alpha virt. eigenvalues --    2.55056   2.55710   2.57963   2.58958   2.60252
 Alpha virt. eigenvalues --    2.62577   2.63739   2.64119   2.67434   2.69786
 Alpha virt. eigenvalues --    2.72208   2.73103   2.74250   2.75132   2.80799
 Alpha virt. eigenvalues --    2.82067   2.85780   2.87522   2.88583   2.89989
 Alpha virt. eigenvalues --    2.91598   2.92550   2.94282   2.95096   2.96812
 Alpha virt. eigenvalues --    3.00317   3.03041   3.05158   3.07946   3.08741
 Alpha virt. eigenvalues --    3.12322   3.16006   3.19168   3.20642   3.26818
 Alpha virt. eigenvalues --    3.29170   3.32198   3.43764   3.52430   3.54043
 Alpha virt. eigenvalues --    3.61313   3.69089   3.77935   3.82422   3.84117
 Alpha virt. eigenvalues --    3.88653   3.91778   3.94297   3.96056   3.99834
 Alpha virt. eigenvalues --    4.06124   4.16466   4.24436   4.26143
          Condensed to atoms (all electrons):
              1          2          3          4          5          6
     1  H    0.756036   0.395167  -0.094368  -0.046171  -0.101775   0.011365
     2  C    0.395167   4.487383   0.321356   0.311020   0.246965  -0.053562
     3  H   -0.094368   0.321356   1.070017  -0.066057   0.113524  -0.000323
     4  H   -0.046171   0.311020  -0.066057   0.725749  -0.047274   0.017105
     5  C   -0.101775   0.246965   0.113524  -0.047274   5.344029   0.164952
     6  O    0.011365  -0.053562  -0.000323   0.017105   0.164952   8.845022
     7  N    0.052454   0.022804  -0.194859   0.050879   0.092945  -0.054759
     8  H   -0.002729  -0.044739   0.011632  -0.004047  -0.099175  -0.008038
     9  C    0.000965  -0.128493  -0.008074   0.000877  -0.289565  -0.060792
    10  H   -0.000159   0.005592   0.001415  -0.000645  -0.008736   0.005142
    11  C    0.003807   0.009730  -0.011425  -0.000368  -0.053323   0.032165
    12  H    0.000207  -0.003425   0.000119  -0.001001  -0.031509   0.016705
    13  H    0.000412   0.002780  -0.000961   0.000250  -0.012144   0.004418
    14  H    0.000378   0.007352  -0.000547   0.000147   0.015232  -0.006680
    15  C   -0.002838   0.015283  -0.009865   0.008768  -0.041992   0.044354
    16  O    0.000166  -0.000656  -0.000090  -0.000013   0.017882  -0.003797
    17  N    0.001214  -0.000083   0.003083  -0.001669   0.061585  -0.067875
    18  H   -0.004525  -0.016753   0.004363  -0.000556  -0.042905   0.035318
    19  C    0.000308   0.003064   0.000188  -0.000463   0.023349  -0.005190
    20  H   -0.000088   0.000395  -0.000027   0.000046  -0.008200  -0.000873
    21  H    0.000217   0.000390  -0.000132  -0.000136   0.007576   0.000626
    22  H    0.000014   0.000595   0.000037   0.000311   0.006620   0.000652
              7          8          9         10         11         12
     1  H    0.052454  -0.002729   0.000965  -0.000159   0.003807   0.000207
     2  C    0.022804  -0.044739  -0.128493   0.005592   0.009730  -0.003425
     3  H   -0.194859   0.011632  -0.008074   0.001415  -0.011425   0.000119
     4  H    0.050879  -0.004047   0.000877  -0.000645  -0.000368  -0.001001
     5  C    0.092945  -0.099175  -0.289565  -0.008736  -0.053323  -0.031509
     6  O   -0.054759  -0.008038  -0.060792   0.005142   0.032165   0.016705
     7  N    7.838308   0.282802  -0.890541  -0.109191   0.216071  -0.074415
     8  H    0.282802   0.959395   0.110621  -0.063286  -0.030848  -0.007492
     9  C   -0.890541   0.110621   9.013868  -0.437880  -0.388303   0.028143
    10  H   -0.109191  -0.063286  -0.437880   1.518009   0.075751   0.079694
    11  C    0.216071  -0.030848  -0.388303   0.075751   4.360562   0.346299
    12  H   -0.074415  -0.007492   0.028143   0.079694   0.346299   1.071289
    13  H    0.149637  -0.002085  -0.271172  -0.045216   0.482676  -0.158944
    14  H   -0.100532   0.007341   0.096395  -0.030113   0.173885  -0.195201
    15  C   -0.056787  -0.026293  -0.369772   0.119161  -0.031367   0.029910
    16  O    0.000242  -0.002102  -0.007488   0.041545   0.023828  -0.004999
    17  N    0.032528   0.014815  -0.290187   0.030648   0.066250  -0.022210
    18  H    0.006411  -0.000362   0.034853  -0.004522  -0.003546   0.006003
    19  C   -0.023859   0.001832  -0.048246   0.010657  -0.001750   0.003291
    20  H   -0.001037  -0.000367   0.036017   0.003591  -0.008331  -0.000745
    21  H   -0.002460  -0.000156  -0.020007   0.000406   0.002281   0.000798
    22  H    0.001971   0.000863  -0.014307  -0.001849  -0.002248  -0.000799
             13         14         15         16         17         18
     1  H    0.000412   0.000378  -0.002838   0.000166   0.001214  -0.004525
     2  C    0.002780   0.007352   0.015283  -0.000656  -0.000083  -0.016753
     3  H   -0.000961  -0.000547  -0.009865  -0.000090   0.003083   0.004363
     4  H    0.000250   0.000147   0.008768  -0.000013  -0.001669  -0.000556
     5  C   -0.012144   0.015232  -0.041992   0.017882   0.061585  -0.042905
     6  O    0.004418  -0.006680   0.044354  -0.003797  -0.067875   0.035318
     7  N    0.149637  -0.100532  -0.056787   0.000242   0.032528   0.006411
     8  H   -0.002085   0.007341  -0.026293  -0.002102   0.014815  -0.000362
     9  C   -0.271172   0.096395  -0.369772  -0.007488  -0.290187   0.034853
    10  H   -0.045216  -0.030113   0.119161   0.041545   0.030648  -0.004522
    11  C    0.482676   0.173885  -0.031367   0.023828   0.066250  -0.003546
    12  H   -0.158944  -0.195201   0.029910  -0.004999  -0.022210   0.006003
    13  H    1.182593  -0.193973  -0.104654   0.028799   0.009205   0.006447
    14  H   -0.193973   1.211217   0.098397  -0.007906   0.014424  -0.008327
    15  C   -0.104654   0.098397   5.134022   0.172551   0.305683  -0.049967
    16  O    0.028799  -0.007906   0.172551   8.758451  -0.138847  -0.004370
    17  N    0.009205   0.014424   0.305683  -0.138847   7.110472   0.212017
    18  H    0.006447  -0.008327  -0.049967  -0.004370   0.212017   0.993278
    19  C   -0.015160   0.009006  -0.123717   0.002274   0.185139  -0.159390
    20  H   -0.002014   0.000926   0.042219  -0.016246  -0.030477   0.002062
    21  H   -0.001362   0.000615  -0.045563   0.008735  -0.184364   0.017436
    22  H   -0.000605   0.000321   0.001741   0.000259   0.107533  -0.018053
             19         20         21         22
     1  H    0.000308  -0.000088   0.000217   0.000014
     2  C    0.003064   0.000395   0.000390   0.000595
     3  H    0.000188  -0.000027  -0.000132   0.000037
     4  H   -0.000463   0.000046  -0.000136   0.000311
     5  C    0.023349  -0.008200   0.007576   0.006620
     6  O   -0.005190  -0.000873   0.000626   0.000652
     7  N   -0.023859  -0.001037  -0.002460   0.001971
     8  H    0.001832  -0.000367  -0.000156   0.000863
     9  C   -0.048246   0.036017  -0.020007  -0.014307
    10  H    0.010657   0.003591   0.000406  -0.001849
    11  C   -0.001750  -0.008331   0.002281  -0.002248
    12  H    0.003291  -0.000745   0.000798  -0.000799
    13  H   -0.015160  -0.002014  -0.001362  -0.000605
    14  H    0.009006   0.000926   0.000615   0.000321
    15  C   -0.123717   0.042219  -0.045563   0.001741
    16  O    0.002274  -0.016246   0.008735   0.000259
    17  N    0.185139  -0.030477  -0.184364   0.107533
    18  H   -0.159390   0.002062   0.017436  -0.018053
    19  C    4.194698   0.370337   0.505806   0.279945
    20  H    0.370337   1.007527  -0.194056  -0.094022
    21  H    0.505806  -0.194056   1.262324  -0.161787
    22  H    0.279945  -0.094022  -0.161787   0.945691
 Mulliken atomic charges:
              1
     1  H    0.029944
     2  C    0.417834
     3  H   -0.139007
     4  H    0.053248
     5  C    0.641940
     6  O   -0.915933
     7  N   -0.238611
     8  H   -0.097584
     9  C   -0.096909
    10  H   -0.190011
    11  C    0.738204
    12  H   -0.081718
    13  H   -0.058928
    14  H   -0.092357
    15  C    0.890725
    16  O   -0.868217
    17  N   -0.418883
    18  H   -0.004912
    19  C    0.787881
    20  H   -0.106638
    21  H   -0.197186
    22  H   -0.052882
 Sum of Mulliken atomic charges =   0.00000
 Mulliken charges with hydrogens summed into heavy atoms:
              1
     2  C    0.362019
     5  C    0.641940
     6  O   -0.915933
     7  N   -0.336195
     9  C   -0.286920
    11  C    0.505201
    15  C    0.890725
    16  O   -0.868217
    17  N   -0.423795
    19  C    0.431175
 Sum of Mulliken charges with hydrogens summed into heavy atoms =   0.00000
 Electronic spatial extent (au):  <R**2>=           1682.1428
 Charge=              0.0000 electrons
 Dipole moment (field-independent basis, Debye):
    X=             -4.1720    Y=              0.7763    Z=             -0.2117  Tot=              4.2489
 Quadrupole moment (field-independent basis, Debye-Ang):
   XX=            -60.2527   YY=            -58.8381   ZZ=            -64.4130
   XY=             -6.8770   XZ=             11.2384   YZ=              2.5163
 Traceless Quadrupole moment (field-independent basis, Debye-Ang):
   XX=              0.9153   YY=              2.3298   ZZ=             -3.2451
   XY=             -6.8770   XZ=             11.2384   YZ=              2.5163
 Octapole moment (field-independent basis, Debye-Ang**2):
  XXX=            -40.4776  YYY=              2.7238  ZZZ=              0.5023  XYY=              3.4190
  XXY=            -14.2819  XXZ=              5.6176  XZZ=            -10.1092  YZZ=             -0.4832
  YYZ=             -4.0635  XYZ=              3.0353
 Hexadecapole moment (field-independent basis, Debye-Ang**3):
 XXXX=          -1282.8831 YYYY=           -598.5146 ZZZZ=           -279.1753 XXXY=            -14.6027
 XXXZ=             43.4125 YYYX=            -13.1431 YYYZ=             -7.4511 ZZZX=             11.3381
 ZZZY=             -5.7571 XXYY=           -314.8508 XXZZ=           -284.0335 YYZZ=           -141.3306
 XXYZ=              8.6666 YYXZ=             17.2885 ZZXY=            -12.4791
 N-N= 5.618977073936D+02 E-N=-2.279018878023D+03  KE= 4.920672848810D+02
 1\1\GINC-NODE007\SP\RMP2-FC\Aug-CC-pVDZ\C6H12N2O2\MANAGER\14-Feb-2017\
 0\\#SP MP2/aug-cc-pVDZ\\Single Point calculation at MP2\\0,1\H,0,-3.86
 17,-1.0053,0.2301\C,0,-3.1814,-0.7224,-0.5774\H,0,-3.6225,0.1012,-1.14
 71\H,0,-3.0776,-1.5907,-1.2372\C,0,-1.8213,-0.402,0.0255\O,0,-1.3129,-
 1.1626,0.852\N,0,-1.2659,0.7727,-0.3837\H,0,-1.7668,1.2439,-1.1241\C,0
 ,0.1099,1.2839,-0.178\H,0,0.2493,2.0426,-0.9495\C,0,0.2345,1.9406,1.20
 88\H,0,0.0559,1.2061,1.9992\H,0,1.2387,2.357,1.3398\H,0,-0.4963,2.7494
 ,1.3147\C,0,1.3034,0.3177,-0.4142\O,0,2.189,0.6666,-1.1927\N,0,1.37,-0
 .8049,0.3368\H,0,0.5153,-1.1071,0.8031\C,0,2.4762,-1.7326,0.1721\H,0,3
 .4231,-1.1877,0.2017\H,0,2.4498,-2.4592,0.9878\H,0,2.4271,-2.2683,-0.7
 851\\Version=EM64L-G09RevA.02\State=1-A\HF=-492.9196475\MP2=-494.52385
 92\RMSD=7.213e-09\PG=C01 [X(C6H12N2O2)]\\@


 LAW OF COMPENSATION:
      NO CALCULATION IS EVER A COMPLETE FAILURE; IT 
      CAN ALWAYS SERVE AS A BAD EXAMPLE.

                                           -- ANON
 Job cpu time:  0 days 12 hours 45 minutes 20.7 seconds.
 File lengths (MBytes):  RWF=  10626 Int=      0 D2E=      0 Chk=      7 Scr=      2
 Normal termination of Gaussian 09 at Tue Feb 14 00:18:06 2017.
