 Entering Gaussian System, Link 0=g09
 Initial command:
 /home/steboss/Software/g09/l1.exe /home/steboss/projects/phi_psi_scan/alanine/MP2/45/5638/Gau-30284.inp -scrdir=/home/steboss/projects/phi_psi_scan/alanine/MP2/45/5638/
 Entering Link 1 = /home/steboss/Software/g09/l1.exe PID=     30286.
  
 Copyright (c) 1988,1990,1992,1993,1995,1998,2003,2009, Gaussian, Inc.
                  All Rights Reserved.
  
 This is part of the Gaussian(R) 09 program.  It is based on
 the Gaussian(R) 03 system (copyright 2003, Gaussian, Inc.),
 the Gaussian(R) 98 system (copyright 1998, Gaussian, Inc.),
 the Gaussian(R) 94 system (copyright 1995, Gaussian, Inc.),
 the Gaussian 92(TM) system (copyright 1992, Gaussian, Inc.),
 the Gaussian 90(TM) system (copyright 1990, Gaussian, Inc.),
 the Gaussian 88(TM) system (copyright 1988, Gaussian, Inc.),
 the Gaussian 86(TM) system (copyright 1986, Carnegie Mellon
 University), and the Gaussian 82(TM) system (copyright 1983,
 Carnegie Mellon University). Gaussian is a federally registered
 trademark of Gaussian, Inc.
  
 This software contains proprietary and confidential information,
 including trade secrets, belonging to Gaussian, Inc.
  
 This software is provided under written license and may be
 used, copied, transmitted, or stored only in accord with that
 written license.
  
 The following legend is applicable only to US Government
 contracts under FAR:
  
                    RESTRICTED RIGHTS LEGEND
  
 Use, reproduction and disclosure by the US Government is
 subject to restrictions as set forth in subparagraphs (a)
 and (c) of the Commercial Computer Software - Restricted
 Rights clause in FAR 52.227-19.
  
 Gaussian, Inc.
 340 Quinnipiac St., Bldg. 40, Wallingford CT 06492
  
  
 ---------------------------------------------------------------
 Warning -- This program may not be used in any manner that
 competes with the business of Gaussian, Inc. or will provide
 assistance to any competitor of Gaussian, Inc.  The licensee
 of this program is prohibited from giving any competitor of
 Gaussian, Inc. access to this program.  By using this program,
 the user acknowledges that Gaussian, Inc. is engaged in the
 business of creating and licensing software in the field of
 computational chemistry and represents and warrants to the
 licensee that it is not a competitor of Gaussian, Inc. and that
 it will not use this program in any manner prohibited above.
 ---------------------------------------------------------------
  

 Cite this work as:
 Gaussian 09, Revision A.02,
 M. J. Frisch, G. W. Trucks, H. B. Schlegel, G. E. Scuseria, 
 M. A. Robb, J. R. Cheeseman, G. Scalmani, V. Barone, B. Mennucci, 
 G. A. Petersson, H. Nakatsuji, M. Caricato, X. Li, H. P. Hratchian, 
 A. F. Izmaylov, J. Bloino, G. Zheng, J. L. Sonnenberg, M. Hada, 
 M. Ehara, K. Toyota, R. Fukuda, J. Hasegawa, M. Ishida, T. Nakajima, 
 Y. Honda, O. Kitao, H. Nakai, T. Vreven, J. A. Montgomery, Jr., 
 J. E. Peralta, F. Ogliaro, M. Bearpark, J. J. Heyd, E. Brothers, 
 K. N. Kudin, V. N. Staroverov, R. Kobayashi, J. Normand, 
 K. Raghavachari, A. Rendell, J. C. Burant, S. S. Iyengar, J. Tomasi, 
 M. Cossi, N. Rega, J. M. Millam, M. Klene, J. E. Knox, J. B. Cross, 
 V. Bakken, C. Adamo, J. Jaramillo, R. Gomperts, R. E. Stratmann, 
 O. Yazyev, A. J. Austin, R. Cammi, C. Pomelli, J. W. Ochterski, 
 R. L. Martin, K. Morokuma, V. G. Zakrzewski, G. A. Voth, 
 P. Salvador, J. J. Dannenberg, S. Dapprich, A. D. Daniels, 
 O. Farkas, J. B. Foresman, J. V. Ortiz, J. Cioslowski, 
 and D. J. Fox, Gaussian, Inc., Wallingford CT, 2009.
 
 ******************************************
 Gaussian 09:  EM64L-G09RevA.02 11-Jun-2009
                13-Feb-2017 
 ******************************************
 %chk=structure_135.chk
 %NProcShared=8
 Will use up to    8 processors via shared memory.
 -------------------
 #SP MP2/aug-cc-pVDZ
 -------------------
 1/38=1/1;
 2/12=2,17=6,18=5,40=1/2;
 3/5=16,7=10,11=9,16=1,25=1,30=1/1,2,3;
 4//1;
 5/5=2,38=5/2;
 8/10=1/1;
 9/16=-3/6;
 6/7=2,8=2,9=2,10=2/1;
 99/5=1,9=1/99;
 -------------------------------
 Single Point calculation at MP2
 -------------------------------
 Symbolic Z-matrix:
 Charge =  0 Multiplicity = 1
 H                    -2.3157   -2.1873   -0.7984 
 C                    -2.8979   -1.2824   -0.5843 
 H                    -3.7009   -1.5414    0.1071 
 H                    -3.3287   -0.9248   -1.527 
 C                    -1.9993   -0.2423    0.0737 
 O                    -2.0178   -0.027     1.2699 
 N                    -1.2302    0.497    -0.8332 
 H                    -1.3021    0.1143   -1.7703 
 C                     0.1413    0.9634   -0.5687 
 H                     0.5412    1.2534   -1.547 
 C                     0.1226    2.2004    0.3493 
 H                    -0.3096    1.9256    1.3136 
 H                     1.1371    2.5851    0.5064 
 H                    -0.4893    2.988    -0.101 
 C                     1.0697   -0.1013    0.0662 
 O                     0.7411   -0.8382    0.9812 
 N                     2.3117   -0.1503   -0.5181 
 H                     2.5403    0.5268   -1.2319 
 C                     3.3839   -0.9789    0.0064 
 H                     2.9393   -1.665     0.7285 
 H                     3.8562   -1.5542   -0.7974 
 H                     4.1523   -0.3803    0.5123 
 
                          Input orientation:                          
 ---------------------------------------------------------------------
 Center     Atomic      Atomic             Coordinates (Angstroms)
 Number     Number       Type             X           Y           Z
 ---------------------------------------------------------------------
      1          1           0       -2.315700   -2.187300   -0.798400
      2          6           0       -2.897900   -1.282400   -0.584300
      3          1           0       -3.700900   -1.541400    0.107100
      4          1           0       -3.328700   -0.924800   -1.527000
      5          6           0       -1.999300   -0.242300    0.073700
      6          8           0       -2.017800   -0.027000    1.269900
      7          7           0       -1.230200    0.497000   -0.833200
      8          1           0       -1.302100    0.114300   -1.770300
      9          6           0        0.141300    0.963400   -0.568700
     10          1           0        0.541200    1.253400   -1.547000
     11          6           0        0.122600    2.200400    0.349300
     12          1           0       -0.309600    1.925600    1.313600
     13          1           0        1.137100    2.585100    0.506400
     14          1           0       -0.489300    2.988000   -0.101000
     15          6           0        1.069700   -0.101300    0.066200
     16          8           0        0.741100   -0.838200    0.981200
     17          7           0        2.311700   -0.150300   -0.518100
     18          1           0        2.540300    0.526800   -1.231900
     19          6           0        3.383900   -0.978900    0.006400
     20          1           0        2.939300   -1.665000    0.728500
     21          1           0        3.856200   -1.554200   -0.797400
     22          1           0        4.152300   -0.380300    0.512300
 ---------------------------------------------------------------------
                    Distance matrix (angstroms):
                    1          2          3          4          5
     1  H    0.000000
     2  C    1.097105   0.000000
     3  H    1.776484   1.090836   0.000000
     4  H    1.775087   1.096426   1.785780   0.000000
     5  C    2.154923   1.523894   2.141079   2.189829   0.000000
     6  O    3.005579   2.405964   2.545258   3.216699   1.215562
     7  N    2.895684   2.451416   3.338203   2.628037   1.400195
     8  H    2.696171   2.429803   3.467018   2.290422   2.003394
     9  C    4.002065   3.778968   4.636079   4.065039   2.539401
    10  H    4.534390   4.380009   5.342506   4.440842   3.364213
    11  C    5.149217   4.703714   5.355267   5.019845   3.247337
    12  H    5.039933   4.537905   4.997664   5.030781   3.015332
    13  H    6.033252   5.694595   6.371318   6.033033   4.244812
    14  H    5.532254   4.926586   5.556361   5.040404   3.570078
    15  C    4.069381   4.190465   4.983391   4.749985   3.072246
    16  O    3.785640   3.986280   4.581474   4.781406   2.947617
    17  N    5.063671   5.331601   6.203015   5.782027   4.352403
    18  H    5.579874   5.767721   6.709914   6.053048   4.785820
    19  C    5.881613   6.316807   7.107808   6.885727   5.433779
    20  H    5.497203   5.995226   6.670358   6.702462   5.180985
    21  H    6.204286   6.762925   7.611048   7.249224   6.063561
    22  H    6.842383   7.191776   7.948905   7.773068   6.168760
                    6          7          8          9         10
     6  O    0.000000
     7  N    2.306061   0.000000
     8  H    3.126501   1.014783   0.000000
     9  C    3.003840   1.472583   2.061120   0.000000
    10  H    4.015324   2.054144   2.178340   1.095943   0.000000
    11  C    3.223372   2.475873   3.297618   1.540533   2.160553
    12  H    2.594707   2.738093   3.711644   2.161526   3.059207
    13  H    4.166460   3.429111   4.151856   2.185719   2.518923
    14  H    3.647726   2.700024   3.421309   2.171498   2.482274
    15  C    3.314675   2.540949   3.007433   1.548745   2.171851
    16  O    2.890142   2.993465   3.557060   2.451064   3.287331
    17  N    4.685800   3.614324   3.833741   2.439984   2.482676
    18  H    5.228955   3.791638   3.901803   2.526985   2.150264
    19  C    5.628580   4.916618   5.129361   3.823313   3.934102
    20  H    5.248714   4.949533   5.234442   4.052162   4.409744
    21  H    6.411704   5.484539   5.508038   4.493450   4.408372
    22  H    6.226469   5.617057   5.933411   4.366029   4.466513
                   11         12         13         14         15
    11  C    0.000000
    12  H    1.091873   0.000000
    13  H    1.096305   1.783102   0.000000
    14  H    1.094306   1.778224   1.782257   0.000000
    15  C    2.504988   2.750781   2.723061   3.464421   0.000000
    16  O    3.164637   2.975408   3.478683   4.162313   1.219928
    17  N    3.327211   3.812571   3.148285   4.227115   1.373452
    18  H    3.338623   4.069170   3.037640   4.063855   2.059669
    19  C    4.567451   4.877175   4.242665   5.545224   2.475738
    20  H    4.797802   4.877510   4.621753   5.838988   2.525708
    21  H    5.417722   5.824021   5.121250   6.324549   3.259034
    22  H    4.788012   5.086041   4.229074   5.767671   3.127182
                   16         17         18         19         20
    16  O    0.000000
    17  N    2.277694   0.000000
    18  H    3.161986   1.010066   0.000000
    19  C    2.820359   1.453028   2.124189   0.000000
    20  H    2.362105   2.059662   2.967551   1.090794   0.000000
    21  H    3.657858   2.105807   2.500189   1.095505   1.783635
    22  H    3.473590   2.121894   2.542363   1.097586   1.780046
                   21         22
    21  H    0.000000
    22  H    1.783544   0.000000
 Stoichiometry    C6H12N2O2
 Framework group  C1[X(C6H12N2O2)]
 Deg. of freedom    60
 Full point group                 C1      NOp   1
 Largest Abelian subgroup         C1      NOp   1
 Largest concise Abelian subgroup C1      NOp   1
                         Standard orientation:                         
 ---------------------------------------------------------------------
 Center     Atomic      Atomic             Coordinates (Angstroms)
 Number     Number       Type             X           Y           Z
 ---------------------------------------------------------------------
      1          1           0       -2.315680   -2.187291   -0.798403
      2          6           0       -2.897882   -1.282392   -0.584303
      3          1           0       -3.700881   -1.541394    0.107097
      4          1           0       -3.328683   -0.924793   -1.527003
      5          6           0       -1.999284   -0.242290    0.073697
      6          8           0       -2.017785   -0.026990    1.269897
      7          7           0       -1.230186    0.497011   -0.833203
      8          1           0       -1.302085    0.114311   -1.770303
      9          6           0        0.141313    0.963414   -0.568703
     10          1           0        0.541213    1.253415   -1.547003
     11          6           0        0.122611    2.200414    0.349297
     12          1           0       -0.309589    1.925613    1.313597
     13          1           0        1.137110    2.585117    0.506397
     14          1           0       -0.489291    2.988013   -0.101003
     15          6           0        1.069716   -0.101284    0.066197
     16          8           0        0.741117   -0.838184    0.981197
     17          7           0        2.311716   -0.150281   -0.518103
     18          1           0        2.540314    0.526820   -1.231903
     19          6           0        3.383918   -0.978878    0.006397
     20          1           0        2.939319   -1.664979    0.728497
     21          1           0        3.856219   -1.554177   -0.797403
     22          1           0        4.152316   -0.380277    0.512297
 ---------------------------------------------------------------------
 Rotational constants (GHZ):      2.2104150      0.8031525      0.7187891
 Standard basis: Aug-CC-pVDZ (5D, 7F)
 There are   338 symmetry adapted basis functions of A   symmetry.
 Integral buffers will be    131072 words long.
 Raffenetti 1 integral format.
 Two-electron integral symmetry is turned on.
   338 basis functions,   562 primitive gaussians,   358 cartesian basis functions
    39 alpha electrons       39 beta electrons
       nuclear repulsion energy       559.2685523793 Hartrees.
 NAtoms=   22 NActive=   22 NUniq=   22 SFac= 7.50D-01 NAtFMM=   80 NAOKFM=F Big=F
 One-electron integrals computed using PRISM.
 NBasis=   338 RedAO= T  NBF=   338
 NBsUse=   338 1.00D-06 NBFU=   338
 Harris functional with IExCor=  205 diagonalized for initial guess.
 ExpMin= 2.97D-02 ExpMax= 1.17D+04 ExpMxC= 4.01D+02 IAcc=3 IRadAn=         0 AccDes= 0.00D+00
 HarFok:  IExCor=  205 AccDes= 0.00D+00 IRadAn=         0 IDoV= 1
 ScaDFX=  1.000000  1.000000  1.000000  1.000000
 FoFCou: FMM=F IPFlag=           0 FMFlag=      100000 FMFlg1=           0
         NFxFlg=           0 DoJE=T BraDBF=F KetDBF=T FulRan=T
         Omega=  0.000000  0.000000  1.000000  0.000000  0.000000 ICntrl=     500 IOpCl=  0
         NMat0=    1 NMatS0=    1 NMatT0=    0 NMatD0=    1 NMtDS0=    0 NMtDT0=    0
         I1Cent=           4 NGrid=           0.
 Petite list used in FoFCou.
 Initial guess orbital symmetries:
       Occupied  (A) (A) (A) (A) (A) (A) (A) (A) (A) (A) (A) (A)
                 (A) (A) (A) (A) (A) (A) (A) (A) (A) (A) (A) (A)
                 (A) (A) (A) (A) (A) (A) (A) (A) (A) (A) (A) (A)
                 (A) (A) (A)
       Virtual   (A) (A) (A) (A) (A) (A) (A) (A) (A) (A) (A) (A)
                 (A) (A) (A) (A) (A) (A) (A) (A) (A) (A) (A) (A)
                 (A) (A) (A) (A) (A) (A) (A) (A) (A) (A) (A) (A)
                 (A) (A) (A) (A) (A) (A) (A) (A) (A) (A) (A) (A)
                 (A) (A) (A) (A) (A) (A) (A) (A) (A) (A) (A) (A)
                 (A) (A) (A) (A) (A) (A) (A) (A) (A) (A) (A) (A)
                 (A) (A) (A) (A) (A) (A) (A) (A) (A) (A) (A) (A)
                 (A) (A) (A) (A) (A) (A) (A) (A) (A) (A) (A) (A)
                 (A) (A) (A) (A) (A) (A) (A) (A) (A) (A) (A) (A)
                 (A) (A) (A) (A) (A) (A) (A) (A) (A) (A) (A) (A)
                 (A) (A) (A) (A) (A) (A) (A) (A) (A) (A) (A) (A)
                 (A) (A) (A) (A) (A) (A) (A) (A) (A) (A) (A) (A)
                 (A) (A) (A) (A) (A) (A) (A) (A) (A) (A) (A) (A)
                 (A) (A) (A) (A) (A) (A) (A) (A) (A) (A) (A) (A)
                 (A) (A) (A) (A) (A) (A) (A) (A) (A) (A) (A) (A)
                 (A) (A) (A) (A) (A) (A) (A) (A) (A) (A) (A) (A)
                 (A) (A) (A) (A) (A) (A) (A) (A) (A) (A) (A) (A)
                 (A) (A) (A) (A) (A) (A) (A) (A) (A) (A) (A) (A)
                 (A) (A) (A) (A) (A) (A) (A) (A) (A) (A) (A) (A)
                 (A) (A) (A) (A) (A) (A) (A) (A) (A) (A) (A) (A)
                 (A) (A) (A) (A) (A) (A) (A) (A) (A) (A) (A) (A)
                 (A) (A) (A) (A) (A) (A) (A) (A) (A) (A) (A) (A)
                 (A) (A) (A) (A) (A) (A) (A) (A) (A) (A) (A) (A)
                 (A) (A) (A) (A) (A) (A) (A) (A) (A) (A) (A) (A)
                 (A) (A) (A) (A) (A) (A) (A) (A) (A) (A) (A)
 The electronic state of the initial guess is 1-A.
 Requested convergence on RMS density matrix=1.00D-08 within 128 cycles.
 Requested convergence on MAX density matrix=1.00D-06.
 Requested convergence on             energy=1.00D-06.
 No special actions if energy rises.
 Initial convergence to 1.0D-05 achieved.  Increase integral accuracy.
 SCF Done:  E(RHF) =  -492.905354128     A.U. after   14 cycles
             Convg  =    0.8951D-08             -V/T =  2.0018
 ExpMin= 2.97D-02 ExpMax= 1.17D+04 ExpMxC= 4.01D+02 IAcc=3 IRadAn=         5 AccDes= 0.00D+00
 HarFok:  IExCor=  205 AccDes= 0.00D+00 IRadAn=         5 IDoV=-2
 ScaDFX=  1.000000  1.000000  1.000000  1.000000
 Range of M.O.s used for correlation:    11   338
 NBasis=   338 NAE=    39 NBE=    39 NFC=    10 NFV=     0
 NROrb=    328 NOA=    29 NOB=    29 NVA=   299 NVB=   299

 **** Warning!!: The largest alpha MO coefficient is  0.85086079D+02

 Disk-based method using OVN memory for 29 occupieds at a time.
 Estimated scratch disk usage=  1382238180 words.
 Actual    scratch disk usage=  1369525716 words.
 JobTyp=1 Pass  1:  I=   1 to  29 NPSUse=  8 ParTrn=T ParDer=T DoDerP=F.
 Spin components of T(2) and E(2):
     alpha-alpha T2 =       0.6808529206D-01 E2=     -0.2057467846D+00
     alpha-beta  T2 =       0.3783410587D+00 E2=     -0.1192114598D+01
     beta-beta   T2 =       0.6808529206D-01 E2=     -0.2057467846D+00
 ANorm=    0.1230654965D+01
 E2 =    -0.1603608168D+01 EUMP2 =    -0.49450896229574D+03

 **********************************************************************

            Population analysis using the SCF density.

 **********************************************************************

 Orbital symmetries:
       Occupied  (A) (A) (A) (A) (A) (A) (A) (A) (A) (A) (A) (A)
                 (A) (A) (A) (A) (A) (A) (A) (A) (A) (A) (A) (A)
                 (A) (A) (A) (A) (A) (A) (A) (A) (A) (A) (A) (A)
                 (A) (A) (A)
       Virtual   (A) (A) (A) (A) (A) (A) (A) (A) (A) (A) (A) (A)
                 (A) (A) (A) (A) (A) (A) (A) (A) (A) (A) (A) (A)
                 (A) (A) (A) (A) (A) (A) (A) (A) (A) (A) (A) (A)
                 (A) (A) (A) (A) (A) (A) (A) (A) (A) (A) (A) (A)
                 (A) (A) (A) (A) (A) (A) (A) (A) (A) (A) (A) (A)
                 (A) (A) (A) (A) (A) (A) (A) (A) (A) (A) (A) (A)
                 (A) (A) (A) (A) (A) (A) (A) (A) (A) (A) (A) (A)
                 (A) (A) (A) (A) (A) (A) (A) (A) (A) (A) (A) (A)
                 (A) (A) (A) (A) (A) (A) (A) (A) (A) (A) (A) (A)
                 (A) (A) (A) (A) (A) (A) (A) (A) (A) (A) (A) (A)
                 (A) (A) (A) (A) (A) (A) (A) (A) (A) (A) (A) (A)
                 (A) (A) (A) (A) (A) (A) (A) (A) (A) (A) (A) (A)
                 (A) (A) (A) (A) (A) (A) (A) (A) (A) (A) (A) (A)
                 (A) (A) (A) (A) (A) (A) (A) (A) (A) (A) (A) (A)
                 (A) (A) (A) (A) (A) (A) (A) (A) (A) (A) (A) (A)
                 (A) (A) (A) (A) (A) (A) (A) (A) (A) (A) (A) (A)
                 (A) (A) (A) (A) (A) (A) (A) (A) (A) (A) (A) (A)
                 (A) (A) (A) (A) (A) (A) (A) (A) (A) (A) (A) (A)
                 (A) (A) (A) (A) (A) (A) (A) (A) (A) (A) (A) (A)
                 (A) (A) (A) (A) (A) (A) (A) (A) (A) (A) (A) (A)
                 (A) (A) (A) (A) (A) (A) (A) (A) (A) (A) (A) (A)
                 (A) (A) (A) (A) (A) (A) (A) (A) (A) (A) (A) (A)
                 (A) (A) (A) (A) (A) (A) (A) (A) (A) (A) (A) (A)
                 (A) (A) (A) (A) (A) (A) (A) (A) (A) (A) (A) (A)
                 (A) (A) (A) (A) (A) (A) (A) (A) (A) (A) (A)
 The electronic state is 1-A.
 Alpha  occ. eigenvalues --  -20.52976 -20.52519 -15.59936 -15.59214 -11.36069
 Alpha  occ. eigenvalues --  -11.35527 -11.30054 -11.26988 -11.24125 -11.22932
 Alpha  occ. eigenvalues --   -1.38875  -1.37461  -1.23699  -1.22813  -1.05172
 Alpha  occ. eigenvalues --   -0.98683  -0.95694  -0.87278  -0.80177  -0.76900
 Alpha  occ. eigenvalues --   -0.70549  -0.69438  -0.65204  -0.62985  -0.62252
 Alpha  occ. eigenvalues --   -0.61633  -0.59549  -0.58586  -0.56366  -0.55902
 Alpha  occ. eigenvalues --   -0.54820  -0.53217  -0.52419  -0.50859  -0.49452
 Alpha  occ. eigenvalues --   -0.44557  -0.41536  -0.39434  -0.38040
 Alpha virt. eigenvalues --    0.02129   0.03645   0.04069   0.04574   0.05705
 Alpha virt. eigenvalues --    0.05900   0.06027   0.06865   0.07804   0.08045
 Alpha virt. eigenvalues --    0.08464   0.09466   0.11171   0.12016   0.12268
 Alpha virt. eigenvalues --    0.12812   0.13895   0.14156   0.14413   0.15398
 Alpha virt. eigenvalues --    0.15515   0.16100   0.16529   0.16721   0.17440
 Alpha virt. eigenvalues --    0.17683   0.18359   0.18664   0.18882   0.19559
 Alpha virt. eigenvalues --    0.19844   0.20565   0.20908   0.21300   0.21652
 Alpha virt. eigenvalues --    0.24011   0.24195   0.25017   0.25669   0.26104
 Alpha virt. eigenvalues --    0.27589   0.28255   0.28589   0.29753   0.30781
 Alpha virt. eigenvalues --    0.31305   0.31508   0.32723   0.33821   0.34516
 Alpha virt. eigenvalues --    0.34769   0.35224   0.36070   0.37017   0.37275
 Alpha virt. eigenvalues --    0.37501   0.38380   0.39333   0.39874   0.40200
 Alpha virt. eigenvalues --    0.40402   0.41796   0.41969   0.42375   0.43315
 Alpha virt. eigenvalues --    0.43777   0.44150   0.44815   0.45405   0.45900
 Alpha virt. eigenvalues --    0.46811   0.47254   0.47983   0.48881   0.49141
 Alpha virt. eigenvalues --    0.50144   0.50392   0.51417   0.51905   0.52153
 Alpha virt. eigenvalues --    0.53724   0.54483   0.55043   0.55699   0.56095
 Alpha virt. eigenvalues --    0.56723   0.57172   0.57819   0.58347   0.58532
 Alpha virt. eigenvalues --    0.58934   0.60638   0.60725   0.61387   0.61938
 Alpha virt. eigenvalues --    0.62833   0.63677   0.64022   0.64593   0.65583
 Alpha virt. eigenvalues --    0.66198   0.66689   0.67354   0.67784   0.68143
 Alpha virt. eigenvalues --    0.68692   0.69833   0.70045   0.70617   0.70844
 Alpha virt. eigenvalues --    0.72067   0.73300   0.73951   0.74691   0.75093
 Alpha virt. eigenvalues --    0.75952   0.76311   0.77379   0.78121   0.78381
 Alpha virt. eigenvalues --    0.79812   0.80808   0.81123   0.81700   0.83447
 Alpha virt. eigenvalues --    0.83701   0.84434   0.84616   0.87000   0.87865
 Alpha virt. eigenvalues --    0.88825   0.89419   0.90307   0.92482   0.93524
 Alpha virt. eigenvalues --    0.94256   0.95212   0.97323   0.99161   0.99670
 Alpha virt. eigenvalues --    1.01157   1.02519   1.02753   1.03919   1.04471
 Alpha virt. eigenvalues --    1.06645   1.06923   1.09007   1.10305   1.10472
 Alpha virt. eigenvalues --    1.11648   1.12626   1.13898   1.15931   1.16702
 Alpha virt. eigenvalues --    1.17389   1.17815   1.19529   1.20162   1.22718
 Alpha virt. eigenvalues --    1.23221   1.25222   1.25613   1.27642   1.31693
 Alpha virt. eigenvalues --    1.31937   1.34069   1.34820   1.35788   1.36347
 Alpha virt. eigenvalues --    1.40677   1.41117   1.43998   1.45674   1.46839
 Alpha virt. eigenvalues --    1.48459   1.50751   1.52998   1.54036   1.56158
 Alpha virt. eigenvalues --    1.57061   1.60208   1.61066   1.61320   1.63843
 Alpha virt. eigenvalues --    1.64966   1.69104   1.69761   1.70965   1.72975
 Alpha virt. eigenvalues --    1.74530   1.75759   1.78324   1.79893   1.79993
 Alpha virt. eigenvalues --    1.81695   1.83305   1.83802   1.86072   1.89179
 Alpha virt. eigenvalues --    1.89490   1.89997   1.90300   1.91372   1.93430
 Alpha virt. eigenvalues --    1.95067   1.96580   1.98851   2.00592   2.02436
 Alpha virt. eigenvalues --    2.02869   2.04243   2.05960   2.07786   2.09853
 Alpha virt. eigenvalues --    2.11280   2.12723   2.13634   2.15837   2.17068
 Alpha virt. eigenvalues --    2.19176   2.20161   2.21326   2.22318   2.22662
 Alpha virt. eigenvalues --    2.24247   2.25891   2.27776   2.28474   2.29281
 Alpha virt. eigenvalues --    2.32447   2.33863   2.34492   2.35564   2.37717
 Alpha virt. eigenvalues --    2.38795   2.39604   2.41464   2.43351   2.44456
 Alpha virt. eigenvalues --    2.46208   2.47388   2.49377   2.50959   2.52676
 Alpha virt. eigenvalues --    2.54169   2.56571   2.58779   2.60390   2.61366
 Alpha virt. eigenvalues --    2.62498   2.63362   2.65778   2.67776   2.69076
 Alpha virt. eigenvalues --    2.70239   2.73409   2.74239   2.75809   2.80093
 Alpha virt. eigenvalues --    2.82788   2.84719   2.87402   2.87986   2.88557
 Alpha virt. eigenvalues --    2.92508   2.92964   2.96031   2.97848   2.99721
 Alpha virt. eigenvalues --    3.02229   3.03666   3.04476   3.05807   3.08305
 Alpha virt. eigenvalues --    3.10056   3.11990   3.17980   3.21877   3.24190
 Alpha virt. eigenvalues --    3.27762   3.34152   3.40599   3.42209   3.52395
 Alpha virt. eigenvalues --    3.58621   3.62938   3.74441   3.84988   3.85791
 Alpha virt. eigenvalues --    3.86627   3.91536   3.96051   4.01689   4.03047
 Alpha virt. eigenvalues --    4.11278   4.15064   4.24449   4.29493
          Condensed to atoms (all electrons):
              1          2          3          4          5          6
     1  H    0.752386   0.333697  -0.063697  -0.081898  -0.050960   0.011648
     2  C    0.333697   4.534145   0.356831   0.355632   0.237056  -0.052365
     3  H   -0.063697   0.356831   0.851833  -0.104900  -0.031320   0.027252
     4  H   -0.081898   0.355632  -0.104900   0.923332   0.041832  -0.006824
     5  C   -0.050960   0.237056  -0.031320   0.041832   4.959133   0.248622
     6  O    0.011648  -0.052365   0.027252  -0.006824   0.248622   8.664614
     7  N    0.024622   0.022574   0.024726  -0.109819   0.132868  -0.060955
     8  H   -0.000822  -0.058171  -0.003980   0.010016  -0.094798   0.004418
     9  C    0.025847  -0.078101   0.002444  -0.014863  -0.144111  -0.140376
    10  H    0.000011   0.003097  -0.000370   0.002801   0.002694   0.001800
    11  C   -0.004466   0.004447   0.004379  -0.007198  -0.049296   0.016932
    12  H   -0.000481   0.001089  -0.000078   0.000955  -0.014689  -0.001791
    13  H   -0.000076  -0.000029  -0.000058  -0.000372  -0.022109   0.005219
    14  H    0.000032   0.000051   0.000279  -0.000491   0.018300   0.002747
    15  C   -0.002444   0.050562  -0.014353   0.007751  -0.036922   0.097190
    16  O   -0.000364   0.000040   0.002213  -0.001335  -0.000174  -0.027861
    17  N   -0.000800  -0.009474   0.000417  -0.000443   0.020288  -0.005668
    18  H    0.000232   0.000278  -0.000016  -0.000317  -0.005942   0.000478
    19  C   -0.000419   0.002292   0.000023   0.000384   0.005969   0.001030
    20  H   -0.000223  -0.000018  -0.000040   0.000144   0.003942   0.000071
    21  H   -0.000184   0.000400   0.000003   0.000044  -0.001031   0.000357
    22  H    0.000059  -0.000019   0.000002  -0.000022   0.001391  -0.000176
              7          8          9         10         11         12
     1  H    0.024622  -0.000822   0.025847   0.000011  -0.004466  -0.000481
     2  C    0.022574  -0.058171  -0.078101   0.003097   0.004447   0.001089
     3  H    0.024726  -0.003980   0.002444  -0.000370   0.004379  -0.000078
     4  H   -0.109819   0.010016  -0.014863   0.002801  -0.007198   0.000955
     5  C    0.132868  -0.094798  -0.144111   0.002694  -0.049296  -0.014689
     6  O   -0.060955   0.004418  -0.140376   0.001800   0.016932  -0.001791
     7  N    7.855361   0.186127  -1.310521   0.058346   0.260035  -0.025869
     8  H    0.186127   0.916018   0.317511  -0.046965  -0.049439  -0.009377
     9  C   -1.310521   0.317511  11.016452  -0.650344  -0.729236   0.063846
    10  H    0.058346  -0.046965  -0.650344   1.626388   0.128899   0.073943
    11  C    0.260035  -0.049439  -0.729236   0.128899   4.572222   0.353069
    12  H   -0.025869  -0.009377   0.063846   0.073943   0.353069   0.982782
    13  H    0.106386  -0.003382  -0.207577  -0.037945   0.318795  -0.138939
    14  H   -0.036929   0.006002  -0.055769  -0.045827   0.254500  -0.209922
    15  C    0.375477  -0.124694  -1.914381   0.173263   0.190146  -0.101760
    16  O   -0.041187   0.003119   0.027186  -0.006837   0.021966   0.032252
    17  N   -0.027426  -0.001782   0.202719  -0.030126   0.003706   0.005881
    18  H    0.002104   0.002613  -0.082573   0.020424  -0.006310  -0.000747
    19  C    0.016890  -0.006873  -0.097354   0.006596   0.000462  -0.006179
    20  H   -0.002679  -0.000652   0.040329   0.007547  -0.019519  -0.001586
    21  H    0.001589  -0.001228  -0.042235  -0.003799   0.011928   0.000385
    22  H    0.001666   0.000790   0.011378  -0.003309  -0.000047  -0.001364
             13         14         15         16         17         18
     1  H   -0.000076   0.000032  -0.002444  -0.000364  -0.000800   0.000232
     2  C   -0.000029   0.000051   0.050562   0.000040  -0.009474   0.000278
     3  H   -0.000058   0.000279  -0.014353   0.002213   0.000417  -0.000016
     4  H   -0.000372  -0.000491   0.007751  -0.001335  -0.000443  -0.000317
     5  C   -0.022109   0.018300  -0.036922  -0.000174   0.020288  -0.005942
     6  O    0.005219   0.002747   0.097190  -0.027861  -0.005668   0.000478
     7  N    0.106386  -0.036929   0.375477  -0.041187  -0.027426   0.002104
     8  H   -0.003382   0.006002  -0.124694   0.003119  -0.001782   0.002613
     9  C   -0.207577  -0.055769  -1.914381   0.027186   0.202719  -0.082573
    10  H   -0.037945  -0.045827   0.173263  -0.006837  -0.030126   0.020424
    11  C    0.318795   0.254500   0.190146   0.021966   0.003706  -0.006310
    12  H   -0.138939  -0.209922  -0.101760   0.032252   0.005881  -0.000747
    13  H    1.196637  -0.162678   0.017171  -0.009319  -0.000341   0.000269
    14  H   -0.162678   1.174756   0.108630  -0.004613  -0.000119  -0.002569
    15  C    0.017171   0.108630   5.846171   0.217632  -0.004104  -0.004469
    16  O   -0.009319  -0.004613   0.217632   8.741153  -0.191433   0.015058
    17  N   -0.000341  -0.000119  -0.004104  -0.191433   7.215868   0.259497
    18  H    0.000269  -0.002569  -0.004469   0.015058   0.259497   1.019627
    19  C    0.003451   0.004185  -0.041453   0.013096   0.199451  -0.106681
    20  H   -0.002036   0.000316  -0.020827  -0.000678  -0.027625  -0.000127
    21  H    0.000238   0.000453   0.006058   0.017862  -0.144877   0.017916
    22  H    0.002269   0.000421  -0.029736   0.007495   0.015312  -0.003514
             19         20         21         22
     1  H   -0.000419  -0.000223  -0.000184   0.000059
     2  C    0.002292  -0.000018   0.000400  -0.000019
     3  H    0.000023  -0.000040   0.000003   0.000002
     4  H    0.000384   0.000144   0.000044  -0.000022
     5  C    0.005969   0.003942  -0.001031   0.001391
     6  O    0.001030   0.000071   0.000357  -0.000176
     7  N    0.016890  -0.002679   0.001589   0.001666
     8  H   -0.006873  -0.000652  -0.001228   0.000790
     9  C   -0.097354   0.040329  -0.042235   0.011378
    10  H    0.006596   0.007547  -0.003799  -0.003309
    11  C    0.000462  -0.019519   0.011928  -0.000047
    12  H   -0.006179  -0.001586   0.000385  -0.001364
    13  H    0.003451  -0.002036   0.000238   0.002269
    14  H    0.004185   0.000316   0.000453   0.000421
    15  C   -0.041453  -0.020827   0.006058  -0.029736
    16  O    0.013096  -0.000678   0.017862   0.007495
    17  N    0.199451  -0.027625  -0.144877   0.015312
    18  H   -0.106681  -0.000127   0.017916  -0.003514
    19  C    4.110074   0.460622   0.404965   0.302703
    20  H    0.460622   0.952374  -0.149198  -0.093052
    21  H    0.404965  -0.149198   1.167217  -0.152099
    22  H    0.302703  -0.093052  -0.152099   1.038496
 Mulliken atomic charges:
              1
     1  H    0.058300
     2  C    0.295985
     3  H   -0.051588
     4  H   -0.014410
     5  C    0.779258
     6  O   -0.786363
     7  N   -0.453387
     8  H   -0.044451
     9  C   -0.240272
    10  H   -0.280287
    11  C    0.724026
    12  H   -0.001421
    13  H   -0.065575
    14  H   -0.051756
    15  C    1.205094
    16  O   -0.815272
    17  N   -0.478920
    18  H   -0.125231
    19  C    0.726765
    20  H   -0.147085
    21  H   -0.134763
    22  H   -0.098645
 Sum of Mulliken atomic charges =   0.00000
 Mulliken charges with hydrogens summed into heavy atoms:
              1
     2  C    0.288287
     5  C    0.779258
     6  O   -0.786363
     7  N   -0.497838
     9  C   -0.520559
    11  C    0.605274
    15  C    1.205094
    16  O   -0.815272
    17  N   -0.604151
    19  C    0.346272
 Sum of Mulliken charges with hydrogens summed into heavy atoms =   0.00000
 Electronic spatial extent (au):  <R**2>=           1753.6329
 Charge=              0.0000 electrons
 Dipole moment (field-independent basis, Debye):
    X=              2.7009    Y=              0.9385    Z=             -5.9475  Tot=              6.5992
 Quadrupole moment (field-independent basis, Debye-Ang):
   XX=            -52.8825   YY=            -59.9313   ZZ=            -63.6011
   XY=              4.3012   XZ=              3.8645   YZ=              1.7002
 Traceless Quadrupole moment (field-independent basis, Debye-Ang):
   XX=              5.9224   YY=             -1.1263   ZZ=             -4.7961
   XY=              4.3012   XZ=              3.8645   YZ=              1.7002
 Octapole moment (field-independent basis, Debye-Ang**2):
  XXX=             22.4437  YYY=             -3.6138  ZZZ=            -12.6303  XYY=              0.3314
  XXY=            -12.7264  XXZ=            -16.8713  XZZ=              7.1028  YZZ=              3.3191
  YYZ=             -0.1273  XYZ=             -3.2707
 Hexadecapole moment (field-independent basis, Debye-Ang**3):
 XXXX=          -1435.4468 YYYY=           -504.7201 ZZZZ=           -252.9751 XXXY=             11.4492
 XXXZ=              8.9131 YYYX=             -1.3115 YYYZ=             -2.1705 ZZZX=              6.0695
 ZZZY=             -3.4217 XXYY=           -329.0765 XXZZ=           -305.4710 YYZZ=           -129.3899
 XXYZ=             -3.7591 YYXZ=             -6.3569 ZZXY=              4.3772
 N-N= 5.592685523793D+02 E-N=-2.274111748924D+03  KE= 4.920417558203D+02
 1\1\GINC-NODE011\SP\RMP2-FC\Aug-CC-pVDZ\C6H12N2O2\MANAGER\13-Feb-2017\
 0\\#SP MP2/aug-cc-pVDZ\\Single Point calculation at MP2\\0,1\H,0,-2.31
 57,-2.1873,-0.7984\C,0,-2.8979,-1.2824,-0.5843\H,0,-3.7009,-1.5414,0.1
 071\H,0,-3.3287,-0.9248,-1.527\C,0,-1.9993,-0.2423,0.0737\O,0,-2.0178,
 -0.027,1.2699\N,0,-1.2302,0.497,-0.8332\H,0,-1.3021,0.1143,-1.7703\C,0
 ,0.1413,0.9634,-0.5687\H,0,0.5412,1.2534,-1.547\C,0,0.1226,2.2004,0.34
 93\H,0,-0.3096,1.9256,1.3136\H,0,1.1371,2.5851,0.5064\H,0,-0.4893,2.98
 8,-0.101\C,0,1.0697,-0.1013,0.0662\O,0,0.7411,-0.8382,0.9812\N,0,2.311
 7,-0.1503,-0.5181\H,0,2.5403,0.5268,-1.2319\C,0,3.3839,-0.9789,0.0064\
 H,0,2.9393,-1.665,0.7285\H,0,3.8562,-1.5542,-0.7974\H,0,4.1523,-0.3803
 ,0.5123\\Version=EM64L-G09RevA.02\State=1-A\HF=-492.9053541\MP2=-494.5
 089623\RMSD=8.951e-09\PG=C01 [X(C6H12N2O2)]\\@


 We're simply so accustomed to the marvels of everyday thought
 that we never wonder about it.
 -- Marvin Minsky in "Why people think computers are smart"
 Job cpu time:  0 days 13 hours 16 minutes 50.1 seconds.
 File lengths (MBytes):  RWF=  10565 Int=      0 D2E=      0 Chk=      7 Scr=      2
 Normal termination of Gaussian 09 at Mon Feb 13 23:58:00 2017.
