 Entering Gaussian System, Link 0=g09
 Initial command:
 /home/steboss/Software/g09/l1.exe /home/steboss/projects/phi_psi_scan/alanine/MP2/105/5204/Gau-16226.inp -scrdir=/home/steboss/projects/phi_psi_scan/alanine/MP2/105/5204/
 Entering Link 1 = /home/steboss/Software/g09/l1.exe PID=     16232.
  
 Copyright (c) 1988,1990,1992,1993,1995,1998,2003,2009, Gaussian, Inc.
                  All Rights Reserved.
  
 This is part of the Gaussian(R) 09 program.  It is based on
 the Gaussian(R) 03 system (copyright 2003, Gaussian, Inc.),
 the Gaussian(R) 98 system (copyright 1998, Gaussian, Inc.),
 the Gaussian(R) 94 system (copyright 1995, Gaussian, Inc.),
 the Gaussian 92(TM) system (copyright 1992, Gaussian, Inc.),
 the Gaussian 90(TM) system (copyright 1990, Gaussian, Inc.),
 the Gaussian 88(TM) system (copyright 1988, Gaussian, Inc.),
 the Gaussian 86(TM) system (copyright 1986, Carnegie Mellon
 University), and the Gaussian 82(TM) system (copyright 1983,
 Carnegie Mellon University). Gaussian is a federally registered
 trademark of Gaussian, Inc.
  
 This software contains proprietary and confidential information,
 including trade secrets, belonging to Gaussian, Inc.
  
 This software is provided under written license and may be
 used, copied, transmitted, or stored only in accord with that
 written license.
  
 The following legend is applicable only to US Government
 contracts under FAR:
  
                    RESTRICTED RIGHTS LEGEND
  
 Use, reproduction and disclosure by the US Government is
 subject to restrictions as set forth in subparagraphs (a)
 and (c) of the Commercial Computer Software - Restricted
 Rights clause in FAR 52.227-19.
  
 Gaussian, Inc.
 340 Quinnipiac St., Bldg. 40, Wallingford CT 06492
  
  
 ---------------------------------------------------------------
 Warning -- This program may not be used in any manner that
 competes with the business of Gaussian, Inc. or will provide
 assistance to any competitor of Gaussian, Inc.  The licensee
 of this program is prohibited from giving any competitor of
 Gaussian, Inc. access to this program.  By using this program,
 the user acknowledges that Gaussian, Inc. is engaged in the
 business of creating and licensing software in the field of
 computational chemistry and represents and warrants to the
 licensee that it is not a competitor of Gaussian, Inc. and that
 it will not use this program in any manner prohibited above.
 ---------------------------------------------------------------
  

 Cite this work as:
 Gaussian 09, Revision A.02,
 M. J. Frisch, G. W. Trucks, H. B. Schlegel, G. E. Scuseria, 
 M. A. Robb, J. R. Cheeseman, G. Scalmani, V. Barone, B. Mennucci, 
 G. A. Petersson, H. Nakatsuji, M. Caricato, X. Li, H. P. Hratchian, 
 A. F. Izmaylov, J. Bloino, G. Zheng, J. L. Sonnenberg, M. Hada, 
 M. Ehara, K. Toyota, R. Fukuda, J. Hasegawa, M. Ishida, T. Nakajima, 
 Y. Honda, O. Kitao, H. Nakai, T. Vreven, J. A. Montgomery, Jr., 
 J. E. Peralta, F. Ogliaro, M. Bearpark, J. J. Heyd, E. Brothers, 
 K. N. Kudin, V. N. Staroverov, R. Kobayashi, J. Normand, 
 K. Raghavachari, A. Rendell, J. C. Burant, S. S. Iyengar, J. Tomasi, 
 M. Cossi, N. Rega, J. M. Millam, M. Klene, J. E. Knox, J. B. Cross, 
 V. Bakken, C. Adamo, J. Jaramillo, R. Gomperts, R. E. Stratmann, 
 O. Yazyev, A. J. Austin, R. Cammi, C. Pomelli, J. W. Ochterski, 
 R. L. Martin, K. Morokuma, V. G. Zakrzewski, G. A. Voth, 
 P. Salvador, J. J. Dannenberg, S. Dapprich, A. D. Daniels, 
 O. Farkas, J. B. Foresman, J. V. Ortiz, J. Cioslowski, 
 and D. J. Fox, Gaussian, Inc., Wallingford CT, 2009.
 
 ******************************************
 Gaussian 09:  EM64L-G09RevA.02 11-Jun-2009
                12-Feb-2017 
 ******************************************
 %chk=structure_90.chk
 %NProcShared=8
 Will use up to    8 processors via shared memory.
 -------------------
 #SP MP2/aug-cc-pVDZ
 -------------------
 1/38=1/1;
 2/12=2,17=6,18=5,40=1/2;
 3/5=16,7=10,11=9,16=1,25=1,30=1/1,2,3;
 4//1;
 5/5=2,38=5/2;
 8/10=1/1;
 9/16=-3/6;
 6/7=2,8=2,9=2,10=2/1;
 99/5=1,9=1/99;
 -------------------------------
 Single Point calculation at MP2
 -------------------------------
 Symbolic Z-matrix:
 Charge =  0 Multiplicity = 1
 H                    -3.891    -1.5296    0.0074 
 C                    -2.8142   -1.6985    0.0752 
 H                    -2.5036   -2.376    -0.7274 
 H                    -2.6126   -2.1847    1.0367 
 C                    -2.1108   -0.343     0.0479 
 O                    -2.593     0.6342    0.5979 
 N                    -0.92     -0.3526   -0.643 
 H                    -0.6161   -1.2574   -0.9765 
 C                     0.1114    0.6928   -0.7226 
 H                     0.4392    0.7127   -1.7736 
 C                    -0.3457    2.0987   -0.339 
 H                    -0.5727    2.1563    0.7239 
 H                     0.469     2.7957   -0.5674 
 H                    -1.232     2.3919   -0.9044 
 C                     1.3078    0.2515    0.1561 
 O                     1.3593    0.4795    1.3555 
 N                     2.2519   -0.487    -0.5103 
 H                     2.2163   -0.5111   -1.5197 
 C                     3.4507   -0.9847    0.1444 
 H                     3.2957   -0.8911    1.22 
 H                     3.6211   -2.0365   -0.1095 
 H                     4.3383   -0.4036   -0.1359 
 
                          Input orientation:                          
 ---------------------------------------------------------------------
 Center     Atomic      Atomic             Coordinates (Angstroms)
 Number     Number       Type             X           Y           Z
 ---------------------------------------------------------------------
      1          1           0       -3.891000   -1.529600    0.007400
      2          6           0       -2.814200   -1.698500    0.075200
      3          1           0       -2.503600   -2.376000   -0.727400
      4          1           0       -2.612600   -2.184700    1.036700
      5          6           0       -2.110800   -0.343000    0.047900
      6          8           0       -2.593000    0.634200    0.597900
      7          7           0       -0.920000   -0.352600   -0.643000
      8          1           0       -0.616100   -1.257400   -0.976500
      9          6           0        0.111400    0.692800   -0.722600
     10          1           0        0.439200    0.712700   -1.773600
     11          6           0       -0.345700    2.098700   -0.339000
     12          1           0       -0.572700    2.156300    0.723900
     13          1           0        0.469000    2.795700   -0.567400
     14          1           0       -1.232000    2.391900   -0.904400
     15          6           0        1.307800    0.251500    0.156100
     16          8           0        1.359300    0.479500    1.355500
     17          7           0        2.251900   -0.487000   -0.510300
     18          1           0        2.216300   -0.511100   -1.519700
     19          6           0        3.450700   -0.984700    0.144400
     20          1           0        3.295700   -0.891100    1.220000
     21          1           0        3.621100   -2.036500   -0.109500
     22          1           0        4.338300   -0.403600   -0.135900
 ---------------------------------------------------------------------
                    Distance matrix (angstroms):
                    1          2          3          4          5
     1  H    0.000000
     2  C    1.092072   0.000000
     3  H    1.783593   1.095283   0.000000
     4  H    1.767179   1.096137   1.777787   0.000000
     5  C    2.139806   1.527382   2.210989   2.149741   0.000000
     6  O    2.591433   2.400757   3.290246   2.852915   1.220630
     7  N    3.261164   2.432129   2.570809   3.007138   1.376750
     8  H    3.430324   2.476345   2.208161   2.983098   2.029692
     9  C    4.635857   3.861857   4.031846   4.335357   2.569966
    10  H    5.191387   4.451579   4.392570   5.060257   3.306791
    11  C    5.084654   4.547943   4.983004   5.037748   3.037625
    12  H    5.011022   4.506064   5.135795   4.806591   3.011516
    13  H    6.168324   5.602693   5.967280   6.072378   4.109185
    14  H    4.824917   4.493812   4.937729   5.159379   3.026358
    15  C    5.497449   4.560694   4.712865   4.698943   3.471594
    16  O    5.780961   4.878622   5.235871   4.793285   3.798410
    17  N    6.252219   5.241747   5.121546   5.379475   4.400622
    18  H    6.377185   5.409210   5.136443   5.714402   4.605369
    19  C    7.363168   6.305812   6.176523   6.244982   5.599230
    20  H    7.316197   6.268440   6.295171   6.051034   5.559179
    21  H    7.530090   6.446817   6.165145   6.339933   5.978912
    22  H    8.307213   7.271835   7.145056   7.270648   6.452003
                    6          7          8          9         10
     6  O    0.000000
     7  N    2.304894   0.000000
     8  H    3.156742   1.011059   0.000000
     9  C    3.010138   1.470708   2.096903   0.000000
    10  H    3.850248   2.064109   2.372830   1.101113   0.000000
    11  C    2.841285   2.535963   3.426796   1.527300   2.143628
    12  H    2.532642   2.878126   3.813999   2.168453   3.057029
    13  H    3.925029   3.441922   4.215735   2.138727   2.407217
    14  H    2.683046   2.774519   3.701611   2.173641   2.523516
    15  C    3.944349   2.442661   2.694616   1.548623   2.165852
    16  O    4.027228   3.143501   3.515288   2.433362   3.269898
    17  N    5.094924   3.177518   3.006041   2.453312   2.514177
    18  H    5.378225   3.260384   2.979013   2.552518   2.172610
    19  C    6.273182   4.485819   4.227250   3.836225   3.953356
    20  H    6.114764   4.640353   4.501218   4.052431   4.437726
    21  H    6.800595   4.872549   4.394605   4.488091   4.522369
    22  H    7.046872   5.282941   5.097221   4.406018   4.373919
                   11         12         13         14         15
    11  C    0.000000
    12  H    1.088395   0.000000
    13  H    1.096226   1.778040   0.000000
    14  H    1.091408   1.772440   1.780456   0.000000
    15  C    2.528109   2.736227   2.774886   3.486625   0.000000
    16  O    2.898304   2.634995   3.139261   3.934369   1.221964
    17  N    3.669157   4.060622   3.736056   4.536622   1.371421
    18  H    3.843039   4.463999   3.859386   4.549371   2.053104
    19  C    4.914640   5.137066   4.867095   5.867631   2.473934
    20  H    4.962779   4.949473   4.977703   5.982577   2.527680
    21  H    5.734811   5.988496   5.787535   6.617792   3.264482
    22  H    5.314378   5.604486   5.039166   6.279622   3.114217
                   16         17         18         19         20
    16  O    0.000000
    17  N    2.282995   0.000000
    18  H    3.159511   1.010315   0.000000
    19  C    2.825703   1.453774   2.125387   0.000000
    20  H    2.376247   2.060765   2.969084   1.090734   0.000000
    21  H    3.686763   2.106252   2.507782   1.095347   1.784768
    22  H    3.446532   2.121367   2.535615   1.097305   1.778521
                   21         22
    21  H    0.000000
    22  H    1.783658   0.000000
 Stoichiometry    C6H12N2O2
 Framework group  C1[X(C6H12N2O2)]
 Deg. of freedom    60
 Full point group                 C1      NOp   1
 Largest Abelian subgroup         C1      NOp   1
 Largest concise Abelian subgroup C1      NOp   1
                         Standard orientation:                         
 ---------------------------------------------------------------------
 Center     Atomic      Atomic             Coordinates (Angstroms)
 Number     Number       Type             X           Y           Z
 ---------------------------------------------------------------------
      1          1           0       -3.891020   -1.529562    0.007404
      2          6           0       -2.814222   -1.698472    0.075204
      3          1           0       -2.503628   -2.375975   -0.727396
      4          1           0       -2.612626   -2.184674    1.036704
      5          6           0       -2.110810   -0.342978    0.047904
      6          8           0       -2.593001    0.634226    0.597904
      7          7           0       -0.920010   -0.352589   -0.642996
      8          1           0       -0.616118   -1.257392   -0.976496
      9          6           0        0.111400    0.692802   -0.722596
     10          1           0        0.439200    0.712699   -1.773596
     11          6           0       -0.345687    2.098706   -0.338996
     12          1           0       -0.572687    2.156308    0.723904
     13          1           0        0.469019    2.795698   -0.567396
     14          1           0       -1.231985    2.391914   -0.904396
     15          6           0        1.307796    0.251491    0.156104
     16          8           0        1.359298    0.479490    1.355504
     17          7           0        2.251889   -0.487018   -0.510296
     18          1           0        2.216289   -0.511118   -1.519696
     19          6           0        3.450685   -0.984729    0.144404
     20          1           0        3.295685   -0.891128    1.220004
     21          1           0        3.621075   -2.036530   -0.109496
     22          1           0        4.338290   -0.403637   -0.135896
 ---------------------------------------------------------------------
 Rotational constants (GHZ):      2.2476923      0.7469992      0.6533536
 Standard basis: Aug-CC-pVDZ (5D, 7F)
 There are   338 symmetry adapted basis functions of A   symmetry.
 Integral buffers will be    131072 words long.
 Raffenetti 1 integral format.
 Two-electron integral symmetry is turned on.
   338 basis functions,   562 primitive gaussians,   358 cartesian basis functions
    39 alpha electrons       39 beta electrons
       nuclear repulsion energy       552.2993186572 Hartrees.
 NAtoms=   22 NActive=   22 NUniq=   22 SFac= 7.50D-01 NAtFMM=   80 NAOKFM=F Big=F
 One-electron integrals computed using PRISM.
 NBasis=   338 RedAO= T  NBF=   338
 NBsUse=   338 1.00D-06 NBFU=   338
 Harris functional with IExCor=  205 diagonalized for initial guess.
 ExpMin= 2.97D-02 ExpMax= 1.17D+04 ExpMxC= 4.01D+02 IAcc=3 IRadAn=         0 AccDes= 0.00D+00
 HarFok:  IExCor=  205 AccDes= 0.00D+00 IRadAn=         0 IDoV= 1
 ScaDFX=  1.000000  1.000000  1.000000  1.000000
 FoFCou: FMM=F IPFlag=           0 FMFlag=      100000 FMFlg1=           0
         NFxFlg=           0 DoJE=T BraDBF=F KetDBF=T FulRan=T
         Omega=  0.000000  0.000000  1.000000  0.000000  0.000000 ICntrl=     500 IOpCl=  0
         NMat0=    1 NMatS0=    1 NMatT0=    0 NMatD0=    1 NMtDS0=    0 NMtDT0=    0
         I1Cent=           4 NGrid=           0.
 Petite list used in FoFCou.
 Initial guess orbital symmetries:
       Occupied  (A) (A) (A) (A) (A) (A) (A) (A) (A) (A) (A) (A)
                 (A) (A) (A) (A) (A) (A) (A) (A) (A) (A) (A) (A)
                 (A) (A) (A) (A) (A) (A) (A) (A) (A) (A) (A) (A)
                 (A) (A) (A)
       Virtual   (A) (A) (A) (A) (A) (A) (A) (A) (A) (A) (A) (A)
                 (A) (A) (A) (A) (A) (A) (A) (A) (A) (A) (A) (A)
                 (A) (A) (A) (A) (A) (A) (A) (A) (A) (A) (A) (A)
                 (A) (A) (A) (A) (A) (A) (A) (A) (A) (A) (A) (A)
                 (A) (A) (A) (A) (A) (A) (A) (A) (A) (A) (A) (A)
                 (A) (A) (A) (A) (A) (A) (A) (A) (A) (A) (A) (A)
                 (A) (A) (A) (A) (A) (A) (A) (A) (A) (A) (A) (A)
                 (A) (A) (A) (A) (A) (A) (A) (A) (A) (A) (A) (A)
                 (A) (A) (A) (A) (A) (A) (A) (A) (A) (A) (A) (A)
                 (A) (A) (A) (A) (A) (A) (A) (A) (A) (A) (A) (A)
                 (A) (A) (A) (A) (A) (A) (A) (A) (A) (A) (A) (A)
                 (A) (A) (A) (A) (A) (A) (A) (A) (A) (A) (A) (A)
                 (A) (A) (A) (A) (A) (A) (A) (A) (A) (A) (A) (A)
                 (A) (A) (A) (A) (A) (A) (A) (A) (A) (A) (A) (A)
                 (A) (A) (A) (A) (A) (A) (A) (A) (A) (A) (A) (A)
                 (A) (A) (A) (A) (A) (A) (A) (A) (A) (A) (A) (A)
                 (A) (A) (A) (A) (A) (A) (A) (A) (A) (A) (A) (A)
                 (A) (A) (A) (A) (A) (A) (A) (A) (A) (A) (A) (A)
                 (A) (A) (A) (A) (A) (A) (A) (A) (A) (A) (A) (A)
                 (A) (A) (A) (A) (A) (A) (A) (A) (A) (A) (A) (A)
                 (A) (A) (A) (A) (A) (A) (A) (A) (A) (A) (A) (A)
                 (A) (A) (A) (A) (A) (A) (A) (A) (A) (A) (A) (A)
                 (A) (A) (A) (A) (A) (A) (A) (A) (A) (A) (A) (A)
                 (A) (A) (A) (A) (A) (A) (A) (A) (A) (A) (A) (A)
                 (A) (A) (A) (A) (A) (A) (A) (A) (A) (A) (A)
 The electronic state of the initial guess is 1-A.
 Requested convergence on RMS density matrix=1.00D-08 within 128 cycles.
 Requested convergence on MAX density matrix=1.00D-06.
 Requested convergence on             energy=1.00D-06.
 No special actions if energy rises.
 Initial convergence to 1.0D-05 achieved.  Increase integral accuracy.
 SCF Done:  E(RHF) =  -492.911520621     A.U. after   14 cycles
             Convg  =    0.8185D-08             -V/T =  2.0017
 ExpMin= 2.97D-02 ExpMax= 1.17D+04 ExpMxC= 4.01D+02 IAcc=3 IRadAn=         5 AccDes= 0.00D+00
 HarFok:  IExCor=  205 AccDes= 0.00D+00 IRadAn=         5 IDoV=-2
 ScaDFX=  1.000000  1.000000  1.000000  1.000000
 Range of M.O.s used for correlation:    11   338
 NBasis=   338 NAE=    39 NBE=    39 NFC=    10 NFV=     0
 NROrb=    328 NOA=    29 NOB=    29 NVA=   299 NVB=   299

 **** Warning!!: The largest alpha MO coefficient is  0.61442036D+02

 Disk-based method using OVN memory for 29 occupieds at a time.
 Estimated scratch disk usage=  1380640728 words.
 Actual    scratch disk usage=  1367556000 words.
 JobTyp=1 Pass  1:  I=   1 to  29 NPSUse=  8 ParTrn=T ParDer=T DoDerP=F.
 Spin components of T(2) and E(2):
     alpha-alpha T2 =       0.6790889162D-01 E2=     -0.2055549722D+00
     alpha-beta  T2 =       0.3771378011D+00 E2=     -0.1190546378D+01
     beta-beta   T2 =       0.6790889162D-01 E2=     -0.2055549722D+00
 ANorm=    0.1230022595D+01
 E2 =    -0.1601656322D+01 EUMP2 =    -0.49451317694307D+03

 **********************************************************************

            Population analysis using the SCF density.

 **********************************************************************

 Orbital symmetries:
       Occupied  (A) (A) (A) (A) (A) (A) (A) (A) (A) (A) (A) (A)
                 (A) (A) (A) (A) (A) (A) (A) (A) (A) (A) (A) (A)
                 (A) (A) (A) (A) (A) (A) (A) (A) (A) (A) (A) (A)
                 (A) (A) (A)
       Virtual   (A) (A) (A) (A) (A) (A) (A) (A) (A) (A) (A) (A)
                 (A) (A) (A) (A) (A) (A) (A) (A) (A) (A) (A) (A)
                 (A) (A) (A) (A) (A) (A) (A) (A) (A) (A) (A) (A)
                 (A) (A) (A) (A) (A) (A) (A) (A) (A) (A) (A) (A)
                 (A) (A) (A) (A) (A) (A) (A) (A) (A) (A) (A) (A)
                 (A) (A) (A) (A) (A) (A) (A) (A) (A) (A) (A) (A)
                 (A) (A) (A) (A) (A) (A) (A) (A) (A) (A) (A) (A)
                 (A) (A) (A) (A) (A) (A) (A) (A) (A) (A) (A) (A)
                 (A) (A) (A) (A) (A) (A) (A) (A) (A) (A) (A) (A)
                 (A) (A) (A) (A) (A) (A) (A) (A) (A) (A) (A) (A)
                 (A) (A) (A) (A) (A) (A) (A) (A) (A) (A) (A) (A)
                 (A) (A) (A) (A) (A) (A) (A) (A) (A) (A) (A) (A)
                 (A) (A) (A) (A) (A) (A) (A) (A) (A) (A) (A) (A)
                 (A) (A) (A) (A) (A) (A) (A) (A) (A) (A) (A) (A)
                 (A) (A) (A) (A) (A) (A) (A) (A) (A) (A) (A) (A)
                 (A) (A) (A) (A) (A) (A) (A) (A) (A) (A) (A) (A)
                 (A) (A) (A) (A) (A) (A) (A) (A) (A) (A) (A) (A)
                 (A) (A) (A) (A) (A) (A) (A) (A) (A) (A) (A) (A)
                 (A) (A) (A) (A) (A) (A) (A) (A) (A) (A) (A) (A)
                 (A) (A) (A) (A) (A) (A) (A) (A) (A) (A) (A) (A)
                 (A) (A) (A) (A) (A) (A) (A) (A) (A) (A) (A) (A)
                 (A) (A) (A) (A) (A) (A) (A) (A) (A) (A) (A) (A)
                 (A) (A) (A) (A) (A) (A) (A) (A) (A) (A) (A) (A)
                 (A) (A) (A) (A) (A) (A) (A) (A) (A) (A) (A) (A)
                 (A) (A) (A) (A) (A) (A) (A) (A) (A) (A) (A)
 The electronic state is 1-A.
 Alpha  occ. eigenvalues --  -20.53535 -20.52600 -15.60575 -15.60160 -11.36369
 Alpha  occ. eigenvalues --  -11.36286 -11.30051 -11.27462 -11.24583 -11.22107
 Alpha  occ. eigenvalues --   -1.39055  -1.38002  -1.24602  -1.23284  -1.05506
 Alpha  occ. eigenvalues --   -0.98797  -0.96399  -0.87892  -0.80141  -0.77201
 Alpha  occ. eigenvalues --   -0.72310  -0.69666  -0.66006  -0.64452  -0.62556
 Alpha  occ. eigenvalues --   -0.61832  -0.59931  -0.58830  -0.56320  -0.55354
 Alpha  occ. eigenvalues --   -0.54390  -0.53083  -0.51994  -0.51331  -0.51007
 Alpha  occ. eigenvalues --   -0.44680  -0.41476  -0.40028  -0.38597
 Alpha virt. eigenvalues --    0.02016   0.03589   0.03862   0.04583   0.05538
 Alpha virt. eigenvalues --    0.06038   0.06271   0.06590   0.07562   0.07804
 Alpha virt. eigenvalues --    0.08669   0.09616   0.10920   0.12026   0.12393
 Alpha virt. eigenvalues --    0.13233   0.13443   0.14378   0.14684   0.14899
 Alpha virt. eigenvalues --    0.15435   0.15996   0.16395   0.16627   0.16946
 Alpha virt. eigenvalues --    0.17037   0.18400   0.18614   0.19064   0.19425
 Alpha virt. eigenvalues --    0.20040   0.20506   0.20832   0.21380   0.22287
 Alpha virt. eigenvalues --    0.22699   0.23917   0.24775   0.25680   0.26792
 Alpha virt. eigenvalues --    0.27386   0.28464   0.29210   0.30149   0.30572
 Alpha virt. eigenvalues --    0.31144   0.31849   0.31896   0.33153   0.33473
 Alpha virt. eigenvalues --    0.34368   0.34705   0.35258   0.35979   0.36443
 Alpha virt. eigenvalues --    0.37102   0.37689   0.38846   0.39380   0.39680
 Alpha virt. eigenvalues --    0.40177   0.41009   0.41591   0.42040   0.42663
 Alpha virt. eigenvalues --    0.42949   0.44101   0.44428   0.44566   0.45486
 Alpha virt. eigenvalues --    0.46071   0.47202   0.47765   0.48193   0.49385
 Alpha virt. eigenvalues --    0.49707   0.49891   0.51031   0.51704   0.52516
 Alpha virt. eigenvalues --    0.53386   0.54628   0.54941   0.55585   0.56101
 Alpha virt. eigenvalues --    0.56668   0.57138   0.57588   0.58604   0.59131
 Alpha virt. eigenvalues --    0.60024   0.60310   0.60414   0.61496   0.62392
 Alpha virt. eigenvalues --    0.62857   0.63065   0.63686   0.64579   0.64868
 Alpha virt. eigenvalues --    0.65577   0.65926   0.66966   0.67793   0.68502
 Alpha virt. eigenvalues --    0.69309   0.69497   0.69973   0.70544   0.70877
 Alpha virt. eigenvalues --    0.71816   0.72195   0.73031   0.74277   0.74781
 Alpha virt. eigenvalues --    0.75243   0.76438   0.77453   0.78093   0.79724
 Alpha virt. eigenvalues --    0.80108   0.80824   0.81541   0.81765   0.82723
 Alpha virt. eigenvalues --    0.83957   0.84352   0.85519   0.86641   0.86770
 Alpha virt. eigenvalues --    0.88922   0.90267   0.91083   0.92789   0.93329
 Alpha virt. eigenvalues --    0.95429   0.96089   0.96586   0.97356   0.98153
 Alpha virt. eigenvalues --    0.98851   1.01075   1.01620   1.02626   1.04393
 Alpha virt. eigenvalues --    1.05103   1.06254   1.07983   1.08784   1.10454
 Alpha virt. eigenvalues --    1.10955   1.12661   1.13282   1.13970   1.15798
 Alpha virt. eigenvalues --    1.16090   1.17939   1.19194   1.20410   1.21675
 Alpha virt. eigenvalues --    1.24316   1.25044   1.25567   1.27134   1.29447
 Alpha virt. eigenvalues --    1.31558   1.32162   1.34436   1.35881   1.36388
 Alpha virt. eigenvalues --    1.39445   1.41267   1.44125   1.44905   1.46141
 Alpha virt. eigenvalues --    1.49624   1.51570   1.52660   1.53948   1.54826
 Alpha virt. eigenvalues --    1.55353   1.56656   1.59289   1.61195   1.62942
 Alpha virt. eigenvalues --    1.65658   1.69161   1.69728   1.71454   1.71987
 Alpha virt. eigenvalues --    1.73498   1.75148   1.77221   1.78824   1.80085
 Alpha virt. eigenvalues --    1.81611   1.84178   1.85089   1.87205   1.89018
 Alpha virt. eigenvalues --    1.89694   1.89960   1.91393   1.92312   1.93929
 Alpha virt. eigenvalues --    1.94509   1.95280   1.97616   1.98269   2.00695
 Alpha virt. eigenvalues --    2.03167   2.04775   2.05661   2.08015   2.08351
 Alpha virt. eigenvalues --    2.09880   2.10735   2.13328   2.14273   2.16793
 Alpha virt. eigenvalues --    2.18799   2.19811   2.20575   2.21136   2.22099
 Alpha virt. eigenvalues --    2.24880   2.25347   2.26579   2.28677   2.30436
 Alpha virt. eigenvalues --    2.30798   2.33254   2.34063   2.35667   2.37595
 Alpha virt. eigenvalues --    2.39374   2.39880   2.41513   2.42222   2.44805
 Alpha virt. eigenvalues --    2.46240   2.48008   2.49462   2.51062   2.52385
 Alpha virt. eigenvalues --    2.54216   2.55175   2.56741   2.59215   2.61244
 Alpha virt. eigenvalues --    2.62972   2.64427   2.65446   2.66455   2.68964
 Alpha virt. eigenvalues --    2.72589   2.73307   2.74617   2.77759   2.79359
 Alpha virt. eigenvalues --    2.80984   2.82924   2.85711   2.86121   2.88358
 Alpha virt. eigenvalues --    2.90560   2.91051   2.93617   2.96256   2.97447
 Alpha virt. eigenvalues --    3.01032   3.01621   3.02838   3.06319   3.07891
 Alpha virt. eigenvalues --    3.11598   3.12560   3.19095   3.21087   3.25528
 Alpha virt. eigenvalues --    3.29681   3.33524   3.41330   3.44365   3.49659
 Alpha virt. eigenvalues --    3.60294   3.63377   3.73057   3.83602   3.84532
 Alpha virt. eigenvalues --    3.85305   3.87658   3.91438   3.98151   4.03596
 Alpha virt. eigenvalues --    4.07985   4.12637   4.21372   4.27622
          Condensed to atoms (all electrons):
              1          2          3          4          5          6
     1  H    0.781619   0.399719  -0.106142  -0.052222  -0.085487   0.027768
     2  C    0.399719   4.505608   0.308502   0.347013   0.191891  -0.024808
     3  H   -0.106142   0.308502   1.061895  -0.064832   0.130765  -0.008015
     4  H   -0.052222   0.347013  -0.064832   0.725670  -0.068182   0.014023
     5  C   -0.085487   0.191891   0.130765  -0.068182   5.455700   0.193594
     6  O    0.027768  -0.024808  -0.008015   0.014023   0.193594   8.659695
     7  N    0.045306  -0.028751  -0.168219   0.036691   0.138914  -0.104939
     8  H   -0.003036  -0.052258   0.008399  -0.005357  -0.159766  -0.000729
     9  C    0.000421  -0.029990  -0.033372  -0.005052  -0.368062   0.081318
    10  H   -0.001683   0.010564   0.003679   0.000745  -0.016070   0.006358
    11  C    0.000764   0.008724  -0.003522   0.002802  -0.052632  -0.025408
    12  H   -0.001617   0.008541   0.001612   0.001192   0.027171  -0.029788
    13  H    0.000026  -0.002083  -0.001004   0.000399  -0.026906   0.004993
    14  H    0.001008  -0.000226  -0.000597  -0.000650   0.019426  -0.005111
    15  C   -0.001861   0.015017  -0.009019   0.005407  -0.022628   0.011879
    16  O   -0.000639  -0.008227  -0.000142  -0.000165  -0.005064   0.000353
    17  N    0.000369  -0.000958   0.001728  -0.000153  -0.004598   0.000386
    18  H    0.000123   0.000178  -0.000115  -0.000019  -0.007529   0.000074
    19  C   -0.000338  -0.003003  -0.000914  -0.000097  -0.017900   0.000799
    20  H   -0.000072  -0.000181   0.000121   0.000036  -0.002638  -0.000179
    21  H    0.000003   0.000036  -0.000376  -0.000007  -0.000480   0.000038
    22  H    0.000003   0.000193   0.000143  -0.000019   0.000319   0.000085
              7          8          9         10         11         12
     1  H    0.045306  -0.003036   0.000421  -0.001683   0.000764  -0.001617
     2  C   -0.028751  -0.052258  -0.029990   0.010564   0.008724   0.008541
     3  H   -0.168219   0.008399  -0.033372   0.003679  -0.003522   0.001612
     4  H    0.036691  -0.005357  -0.005052   0.000745   0.002802   0.001192
     5  C    0.138914  -0.159766  -0.368062  -0.016070  -0.052632   0.027171
     6  O   -0.104939  -0.000729   0.081318   0.006358  -0.025408  -0.029788
     7  N    7.581277   0.322365  -0.285387  -0.159906  -0.027969  -0.017672
     8  H    0.322365   1.033299  -0.069409   0.032569  -0.032119  -0.006508
     9  C   -0.285387  -0.069409   8.082430  -0.313136   0.056063  -0.093300
    10  H   -0.159906   0.032569  -0.313136   1.672680   0.000995   0.070448
    11  C   -0.027969  -0.032119   0.056063   0.000995   4.449210   0.383934
    12  H   -0.017672  -0.006508  -0.093300   0.070448   0.383934   0.941161
    13  H    0.123996  -0.000966  -0.225273  -0.091749   0.307208  -0.164767
    14  H   -0.068793   0.000096   0.220988  -0.028118   0.159779  -0.188561
    15  C    0.029277  -0.040123  -0.855391   0.155260   0.088264  -0.001242
    16  O    0.020392   0.002513  -0.043959  -0.015378  -0.021843  -0.008105
    17  N    0.030000   0.030862   0.086614  -0.047794  -0.037009  -0.004934
    18  H   -0.029326  -0.005107  -0.016481   0.010948   0.011232  -0.001200
    19  C    0.005324   0.009386  -0.015031   0.019828  -0.000736  -0.001136
    20  H   -0.005122   0.000141   0.028821   0.007243  -0.002647   0.001035
    21  H    0.001224   0.000920  -0.019074  -0.002555   0.006724   0.000225
    22  H   -0.002916  -0.002126   0.018128   0.000976  -0.001691  -0.000354
             13         14         15         16         17         18
     1  H    0.000026   0.001008  -0.001861  -0.000639   0.000369   0.000123
     2  C   -0.002083  -0.000226   0.015017  -0.008227  -0.000958   0.000178
     3  H   -0.001004  -0.000597  -0.009019  -0.000142   0.001728  -0.000115
     4  H    0.000399  -0.000650   0.005407  -0.000165  -0.000153  -0.000019
     5  C   -0.026906   0.019426  -0.022628  -0.005064  -0.004598  -0.007529
     6  O    0.004993  -0.005111   0.011879   0.000353   0.000386   0.000074
     7  N    0.123996  -0.068793   0.029277   0.020392   0.030000  -0.029326
     8  H   -0.000966   0.000096  -0.040123   0.002513   0.030862  -0.005107
     9  C   -0.225273   0.220988  -0.855391  -0.043959   0.086614  -0.016481
    10  H   -0.091749  -0.028118   0.155260  -0.015378  -0.047794   0.010948
    11  C    0.307208   0.159779   0.088264  -0.021843  -0.037009   0.011232
    12  H   -0.164767  -0.188561  -0.001242  -0.008105  -0.004934  -0.001200
    13  H    1.321537  -0.205309   0.029227   0.014612  -0.004252   0.007323
    14  H   -0.205309   1.068756  -0.021166   0.003612   0.007610  -0.001629
    15  C    0.029227  -0.021166   5.305065   0.302980   0.110594  -0.040912
    16  O    0.014612   0.003612   0.302980   8.693857  -0.176650   0.009009
    17  N   -0.004252   0.007610   0.110594  -0.176650   7.160713   0.259882
    18  H    0.007323  -0.001629  -0.040912   0.009009   0.259882   1.030594
    19  C   -0.000726   0.000813  -0.129005   0.006429   0.254494  -0.127181
    20  H   -0.001053  -0.000232  -0.033591   0.011462  -0.025696   0.000588
    21  H    0.000739   0.000254  -0.005619   0.014189  -0.114016   0.013187
    22  H   -0.001290   0.000108  -0.021694   0.001927  -0.000877  -0.006913
             19         20         21         22
     1  H   -0.000338  -0.000072   0.000003   0.000003
     2  C   -0.003003  -0.000181   0.000036   0.000193
     3  H   -0.000914   0.000121  -0.000376   0.000143
     4  H   -0.000097   0.000036  -0.000007  -0.000019
     5  C   -0.017900  -0.002638  -0.000480   0.000319
     6  O    0.000799  -0.000179   0.000038   0.000085
     7  N    0.005324  -0.005122   0.001224  -0.002916
     8  H    0.009386   0.000141   0.000920  -0.002126
     9  C   -0.015031   0.028821  -0.019074   0.018128
    10  H    0.019828   0.007243  -0.002555   0.000976
    11  C   -0.000736  -0.002647   0.006724  -0.001691
    12  H   -0.001136   0.001035   0.000225  -0.000354
    13  H   -0.000726  -0.001053   0.000739  -0.001290
    14  H    0.000813  -0.000232   0.000254   0.000108
    15  C   -0.129005  -0.033591  -0.005619  -0.021694
    16  O    0.006429   0.011462   0.014189   0.001927
    17  N    0.254494  -0.025696  -0.114016  -0.000877
    18  H   -0.127181   0.000588   0.013187  -0.006913
    19  C    4.105288   0.463643   0.375025   0.322381
    20  H    0.463643   0.921974  -0.137259  -0.090109
    21  H    0.375025  -0.137259   1.148692  -0.152650
    22  H    0.322381  -0.090109  -0.152650   1.019484
 Mulliken atomic charges:
              1
     1  H   -0.004030
     2  C    0.354500
     3  H   -0.120575
     4  H    0.062777
     5  C    0.680164
     6  O   -0.802386
     7  N   -0.435767
     8  H   -0.063046
     9  C   -0.201865
    10  H   -0.315903
    11  C    0.729875
    12  H    0.083868
    13  H   -0.084684
    14  H    0.037942
    15  C    1.129282
    16  O   -0.801162
    17  N   -0.526312
    18  H   -0.106723
    19  C    0.732656
    20  H   -0.136285
    21  H   -0.129219
    22  H   -0.083107
 Sum of Mulliken atomic charges =   0.00000
 Mulliken charges with hydrogens summed into heavy atoms:
              1
     2  C    0.292672
     5  C    0.680164
     6  O   -0.802386
     7  N   -0.498813
     9  C   -0.517768
    11  C    0.767001
    15  C    1.129282
    16  O   -0.801162
    17  N   -0.633036
    19  C    0.384044
 Sum of Mulliken charges with hydrogens summed into heavy atoms =   0.00000
 Electronic spatial extent (au):  <R**2>=           1858.1802
 Charge=              0.0000 electrons
 Dipole moment (field-independent basis, Debye):
    X=              2.8136    Y=             -3.6730    Z=             -5.0794  Tot=              6.8708
 Quadrupole moment (field-independent basis, Debye-Ang):
   XX=            -60.7693   YY=            -57.7608   ZZ=            -63.5303
   XY=              4.1452   XZ=             -2.2925   YZ=             -2.1528
 Traceless Quadrupole moment (field-independent basis, Debye-Ang):
   XX=             -0.0825   YY=              2.9260   ZZ=             -2.8435
   XY=              4.1452   XZ=             -2.2925   YZ=             -2.1528
 Octapole moment (field-independent basis, Debye-Ang**2):
  XXX=             39.4810  YYY=             -2.8497  ZZZ=             -8.0432  XYY=             -1.2800
  XXY=            -28.4593  XXZ=            -15.2920  XZZ=              2.4001  YZZ=             -5.8845
  YYZ=             -1.7914  XYZ=              1.6905
 Hexadecapole moment (field-independent basis, Debye-Ang**3):
 XXXX=          -1624.1361 YYYY=           -530.0596 ZZZZ=           -224.7404 XXXY=             27.3966
 XXXZ=             17.4838 YYYX=             -1.8999 YYYZ=              6.5617 ZZZX=            -19.8994
 ZZZY=              2.1731 XXYY=           -358.7255 XXZZ=           -322.3586 YYZZ=           -123.5102
 XXYZ=            -12.9705 YYXZ=             -1.7318 ZZXY=             -5.2761
 N-N= 5.522993186572D+02 E-N=-2.259908556370D+03  KE= 4.920558211050D+02
 1\1\GINC-NODE005\SP\RMP2-FC\Aug-CC-pVDZ\C6H12N2O2\MANAGER\12-Feb-2017\
 0\\#SP MP2/aug-cc-pVDZ\\Single Point calculation at MP2\\0,1\H,0,-3.89
 1,-1.5296,0.0074\C,0,-2.8142,-1.6985,0.0752\H,0,-2.5036,-2.376,-0.7274
 \H,0,-2.6126,-2.1847,1.0367\C,0,-2.1108,-0.343,0.0479\O,0,-2.593,0.634
 2,0.5979\N,0,-0.92,-0.3526,-0.643\H,0,-0.6161,-1.2574,-0.9765\C,0,0.11
 14,0.6928,-0.7226\H,0,0.4392,0.7127,-1.7736\C,0,-0.3457,2.0987,-0.339\
 H,0,-0.5727,2.1563,0.7239\H,0,0.469,2.7957,-0.5674\H,0,-1.232,2.3919,-
 0.9044\C,0,1.3078,0.2515,0.1561\O,0,1.3593,0.4795,1.3555\N,0,2.2519,-0
 .487,-0.5103\H,0,2.2163,-0.5111,-1.5197\C,0,3.4507,-0.9847,0.1444\H,0,
 3.2957,-0.8911,1.22\H,0,3.6211,-2.0365,-0.1095\H,0,4.3383,-0.4036,-0.1
 359\\Version=EM64L-G09RevA.02\State=1-A\HF=-492.9115206\MP2=-494.51317
 69\RMSD=8.185e-09\PG=C01 [X(C6H12N2O2)]\\@


 IT WAS A GAME, A VERY INTERESTING GAME ONE COULD
 PLAY.  WHENEVER ONE SOLVED ONE OF THE LITTLE PROBLEMS,
 ONE COULD WRITE A PAPER ABOUT IT.  IT WAS VERY EASY IN
 THOSE DAYS FOR ANY SECOND-RATE PHYSICIST TO DO
 FIRST-RATE WORK.  THERE HAS NOT BEEN SUCH A GLORIOUS
 TIME SINCE.  IT IS VERY DIFFICULT NOW FOR A FIRST-RATE
 PHYSICIST TO DO SECOND-RATE WORK.
     P.A.M. DIRAC, ON THE EARLY DAYS OF QUANTUM MECHANICS
                   DIRECTIONS IN PHYSICS, 1978, P. 7
 Job cpu time:  0 days  8 hours 23 minutes 42.8 seconds.
 File lengths (MBytes):  RWF=  10550 Int=      0 D2E=      0 Chk=      7 Scr=      2
 Normal termination of Gaussian 09 at Sun Feb 12 15:29:47 2017.
