 Entering Gaussian System, Link 0=g09
 Initial command:
 /home/steboss/Software/g09/l1.exe /home/steboss/projects/phi_psi_scan/alanine/MP2/105/5201/Gau-5457.inp -scrdir=/home/steboss/projects/phi_psi_scan/alanine/MP2/105/5201/
 Entering Link 1 = /home/steboss/Software/g09/l1.exe PID=      5459.
  
 Copyright (c) 1988,1990,1992,1993,1995,1998,2003,2009, Gaussian, Inc.
                  All Rights Reserved.
  
 This is part of the Gaussian(R) 09 program.  It is based on
 the Gaussian(R) 03 system (copyright 2003, Gaussian, Inc.),
 the Gaussian(R) 98 system (copyright 1998, Gaussian, Inc.),
 the Gaussian(R) 94 system (copyright 1995, Gaussian, Inc.),
 the Gaussian 92(TM) system (copyright 1992, Gaussian, Inc.),
 the Gaussian 90(TM) system (copyright 1990, Gaussian, Inc.),
 the Gaussian 88(TM) system (copyright 1988, Gaussian, Inc.),
 the Gaussian 86(TM) system (copyright 1986, Carnegie Mellon
 University), and the Gaussian 82(TM) system (copyright 1983,
 Carnegie Mellon University). Gaussian is a federally registered
 trademark of Gaussian, Inc.
  
 This software contains proprietary and confidential information,
 including trade secrets, belonging to Gaussian, Inc.
  
 This software is provided under written license and may be
 used, copied, transmitted, or stored only in accord with that
 written license.
  
 The following legend is applicable only to US Government
 contracts under FAR:
  
                    RESTRICTED RIGHTS LEGEND
  
 Use, reproduction and disclosure by the US Government is
 subject to restrictions as set forth in subparagraphs (a)
 and (c) of the Commercial Computer Software - Restricted
 Rights clause in FAR 52.227-19.
  
 Gaussian, Inc.
 340 Quinnipiac St., Bldg. 40, Wallingford CT 06492
  
  
 ---------------------------------------------------------------
 Warning -- This program may not be used in any manner that
 competes with the business of Gaussian, Inc. or will provide
 assistance to any competitor of Gaussian, Inc.  The licensee
 of this program is prohibited from giving any competitor of
 Gaussian, Inc. access to this program.  By using this program,
 the user acknowledges that Gaussian, Inc. is engaged in the
 business of creating and licensing software in the field of
 computational chemistry and represents and warrants to the
 licensee that it is not a competitor of Gaussian, Inc. and that
 it will not use this program in any manner prohibited above.
 ---------------------------------------------------------------
  

 Cite this work as:
 Gaussian 09, Revision A.02,
 M. J. Frisch, G. W. Trucks, H. B. Schlegel, G. E. Scuseria, 
 M. A. Robb, J. R. Cheeseman, G. Scalmani, V. Barone, B. Mennucci, 
 G. A. Petersson, H. Nakatsuji, M. Caricato, X. Li, H. P. Hratchian, 
 A. F. Izmaylov, J. Bloino, G. Zheng, J. L. Sonnenberg, M. Hada, 
 M. Ehara, K. Toyota, R. Fukuda, J. Hasegawa, M. Ishida, T. Nakajima, 
 Y. Honda, O. Kitao, H. Nakai, T. Vreven, J. A. Montgomery, Jr., 
 J. E. Peralta, F. Ogliaro, M. Bearpark, J. J. Heyd, E. Brothers, 
 K. N. Kudin, V. N. Staroverov, R. Kobayashi, J. Normand, 
 K. Raghavachari, A. Rendell, J. C. Burant, S. S. Iyengar, J. Tomasi, 
 M. Cossi, N. Rega, J. M. Millam, M. Klene, J. E. Knox, J. B. Cross, 
 V. Bakken, C. Adamo, J. Jaramillo, R. Gomperts, R. E. Stratmann, 
 O. Yazyev, A. J. Austin, R. Cammi, C. Pomelli, J. W. Ochterski, 
 R. L. Martin, K. Morokuma, V. G. Zakrzewski, G. A. Voth, 
 P. Salvador, J. J. Dannenberg, S. Dapprich, A. D. Daniels, 
 O. Farkas, J. B. Foresman, J. V. Ortiz, J. Cioslowski, 
 and D. J. Fox, Gaussian, Inc., Wallingford CT, 2009.
 
 ******************************************
 Gaussian 09:  EM64L-G09RevA.02 11-Jun-2009
                12-Feb-2017 
 ******************************************
 %chk=structure_45.chk
 %NProcShared=8
 Will use up to    8 processors via shared memory.
 -------------------
 #SP MP2/aug-cc-pVDZ
 -------------------
 1/38=1/1;
 2/12=2,17=6,18=5,40=1/2;
 3/5=16,7=10,11=9,16=1,25=1,30=1/1,2,3;
 4//1;
 5/5=2,38=5/2;
 8/10=1/1;
 9/16=-3/6;
 6/7=2,8=2,9=2,10=2/1;
 99/5=1,9=1/99;
 -------------------------------
 Single Point calculation at MP2
 -------------------------------
 Symbolic Z-matrix:
 Charge =  0 Multiplicity = 1
 H                    -3.6402   -1.6233    0.7752 
 C                    -3.1253   -1.3016   -0.1318 
 H                    -3.8513   -0.7763   -0.7644 
 H                    -2.7681   -2.1811   -0.6785 
 C                    -2.0044   -0.3435    0.2596 
 O                    -2.067     0.3528    1.2583 
 N                    -0.9178   -0.3636   -0.5991 
 H                    -1.1009   -0.8598   -1.4626 
 C                     0.0852    0.7189   -0.7404 
 H                     0.3175    0.7413   -1.8137 
 C                    -0.382     2.1155   -0.3323 
 H                    -0.5821    2.1745    0.7359 
 H                     0.4054    2.8302   -0.583 
 H                    -1.2931    2.3829   -0.8773 
 C                     1.4259    0.3436   -0.057 
 O                     2.1       1.1689    0.5422 
 N                     1.8578   -0.9302   -0.3174 
 H                     1.1378   -1.5984   -0.5595 
 C                     3.0645   -1.4482    0.3093 
 H                     3.7848   -0.6324    0.3845 
 H                     2.8789   -1.8366    1.3198 
 H                     3.4835   -2.2479   -0.3086 
 
                          Input orientation:                          
 ---------------------------------------------------------------------
 Center     Atomic      Atomic             Coordinates (Angstroms)
 Number     Number       Type             X           Y           Z
 ---------------------------------------------------------------------
      1          1           0       -3.640200   -1.623300    0.775200
      2          6           0       -3.125300   -1.301600   -0.131800
      3          1           0       -3.851300   -0.776300   -0.764400
      4          1           0       -2.768100   -2.181100   -0.678500
      5          6           0       -2.004400   -0.343500    0.259600
      6          8           0       -2.067000    0.352800    1.258300
      7          7           0       -0.917800   -0.363600   -0.599100
      8          1           0       -1.100900   -0.859800   -1.462600
      9          6           0        0.085200    0.718900   -0.740400
     10          1           0        0.317500    0.741300   -1.813700
     11          6           0       -0.382000    2.115500   -0.332300
     12          1           0       -0.582100    2.174500    0.735900
     13          1           0        0.405400    2.830200   -0.583000
     14          1           0       -1.293100    2.382900   -0.877300
     15          6           0        1.425900    0.343600   -0.057000
     16          8           0        2.100000    1.168900    0.542200
     17          7           0        1.857800   -0.930200   -0.317400
     18          1           0        1.137800   -1.598400   -0.559500
     19          6           0        3.064500   -1.448200    0.309300
     20          1           0        3.784800   -0.632400    0.384500
     21          1           0        2.878900   -1.836600    1.319800
     22          1           0        3.483500   -2.247900   -0.308600
 ---------------------------------------------------------------------
                    Distance matrix (angstroms):
                    1          2          3          4          5
     1  H    0.000000
     2  C    1.091449   0.000000
     3  H    1.769842   1.096904   0.000000
     4  H    1.784641   1.095442   1.775997   0.000000
     5  C    2.139994   1.525636   2.155674   2.200010   0.000000
     6  O    2.571637   2.406121   2.924023   3.265484   1.219079
     7  N    3.299546   2.443618   2.966996   2.594845   1.385088
     8  H    3.469687   2.462603   2.838865   2.267201   2.012176
     9  C    4.654197   3.841891   4.210966   4.068802   2.548553
    10  H    5.287450   4.342246   4.558841   4.398867   3.296450
    11  C    5.081442   4.386624   4.537098   4.926875   3.004864
    12  H    4.876147   4.393636   4.652504   5.074483   2.930891
    13  H    6.168083   5.453549   5.582046   5.932398   4.073019
    14  H    4.928415   4.181898   4.066654   4.800546   3.038379
    15  C    5.497874   4.840010   5.440903   4.934573   3.512734
    16  O    6.387532   5.819055   6.396013   6.034153   4.383300
    17  N    5.648200   5.000367   5.728640   4.805632   3.948890
    18  H    4.960981   4.294769   5.060529   3.950918   3.481253
    19  C    6.723148   6.207228   7.030830   5.960882   5.188119
    20  H    7.501010   6.961600   7.723387   6.816813   5.797750
    21  H    6.545285   6.200305   7.124866   6.000041   5.215361
    22  H    7.232693   6.678546   7.494842   6.262890   5.836663
                    6          7          8          9         10
     6  O    0.000000
     7  N    2.298657   0.000000
     8  H    3.131620   1.012607   0.000000
     9  C    2.959864   1.482491   2.102546   0.000000
    10  H    3.908191   2.054756   2.167637   1.098380   0.000000
    11  C    2.911416   2.550333   3.262944   1.528173   2.138287
    12  H    2.407576   2.887364   3.782794   2.177963   3.060033
    13  H    3.954827   3.457091   4.081511   2.141236   2.426078
    14  H    3.046476   2.785948   3.300700   2.165029   2.483088
    15  C    3.732352   2.507376   3.131869   1.550923   2.114878
    16  O    4.306124   3.571868   4.287261   2.430428   2.985031
    17  N    4.419612   2.846813   3.173381   2.457757   2.721277
    18  H    4.169211   2.398289   2.524460   2.551582   2.778508
    19  C    5.520552   4.226140   4.564691   3.830721   4.104516
    20  H    5.998142   4.811878   5.228150   4.096151   4.329123
    21  H    5.409176   4.501870   4.953251   4.310425   4.798454
    22  H    6.326679   4.796501   4.926993   4.531754   4.606973
                   11         12         13         14         15
    11  C    0.000000
    12  H    1.088381   0.000000
    13  H    1.092541   1.773301   0.000000
    14  H    1.094820   1.775209   1.780896   0.000000
    15  C    2.546355   2.830715   2.738846   3.496369   0.000000
    16  O    2.796628   2.870960   2.626340   3.873229   1.222527
    17  N    3.780637   4.086773   4.039878   4.606332   1.370004
    18  H    4.019262   4.344064   4.488815   4.675577   2.026542
    19  C    4.998997   5.157871   5.115830   5.922333   2.455551
    20  H    5.042517   5.203075   4.934167   6.038977   2.590735
    21  H    5.383493   5.329952   5.614078   6.327481   2.959740
    22  H    5.829401   6.097352   5.944501   6.677098   3.318568
                   16         17         18         19         20
    16  O    0.000000
    17  N    2.281183   0.000000
    18  H    3.130099   1.011684   0.000000
    19  C    2.798877   1.455061   2.118855   0.000000
    20  H    2.471457   2.072360   2.971683   1.090879   0.000000
    21  H    3.200684   2.131814   2.572924   1.098368   1.773567
    22  H    3.783181   2.092680   2.446857   1.094021   1.783538
                   21         22
    21  H    0.000000
    22  H    1.785048   0.000000
 Stoichiometry    C6H12N2O2
 Framework group  C1[X(C6H12N2O2)]
 Deg. of freedom    60
 Full point group                 C1      NOp   1
 Largest Abelian subgroup         C1      NOp   1
 Largest concise Abelian subgroup C1      NOp   1
                         Standard orientation:                         
 ---------------------------------------------------------------------
 Center     Atomic      Atomic             Coordinates (Angstroms)
 Number     Number       Type             X           Y           Z
 ---------------------------------------------------------------------
      1          1           0       -3.640195   -1.623279    0.775191
      2          6           0       -3.125295   -1.301579   -0.131809
      3          1           0       -3.851295   -0.776279   -0.764409
      4          1           0       -2.768094   -2.181079   -0.678509
      5          6           0       -2.004395   -0.343479    0.259591
      6          8           0       -2.066995    0.352821    1.258291
      7          7           0       -0.917795   -0.363578   -0.599109
      8          1           0       -1.100895   -0.859778   -1.462609
      9          6           0        0.085205    0.718922   -0.740409
     10          1           0        0.317505    0.741322   -1.813709
     11          6           0       -0.381995    2.115522   -0.332309
     12          1           0       -0.582095    2.174522    0.735891
     13          1           0        0.405405    2.830222   -0.583009
     14          1           0       -1.293095    2.382922   -0.877309
     15          6           0        1.425905    0.343622   -0.057009
     16          8           0        2.100005    1.168922    0.542191
     17          7           0        1.857805   -0.930178   -0.317409
     18          1           0        1.137805   -1.598378   -0.559509
     19          6           0        3.064505   -1.448178    0.309291
     20          1           0        3.784805   -0.632377    0.384491
     21          1           0        2.878905   -1.836578    1.319791
     22          1           0        3.483506   -2.247878   -0.308609
 ---------------------------------------------------------------------
 Rotational constants (GHZ):      2.0815736      0.7936345      0.6608890
 Standard basis: Aug-CC-pVDZ (5D, 7F)
 There are   338 symmetry adapted basis functions of A   symmetry.
 Integral buffers will be    131072 words long.
 Raffenetti 1 integral format.
 Two-electron integral symmetry is turned on.
   338 basis functions,   562 primitive gaussians,   358 cartesian basis functions
    39 alpha electrons       39 beta electrons
       nuclear repulsion energy       553.3563043055 Hartrees.
 NAtoms=   22 NActive=   22 NUniq=   22 SFac= 7.50D-01 NAtFMM=   80 NAOKFM=F Big=F
 One-electron integrals computed using PRISM.
 NBasis=   338 RedAO= T  NBF=   338
 NBsUse=   338 1.00D-06 NBFU=   338
 Harris functional with IExCor=  205 diagonalized for initial guess.
 ExpMin= 2.97D-02 ExpMax= 1.17D+04 ExpMxC= 4.01D+02 IAcc=3 IRadAn=         0 AccDes= 0.00D+00
 HarFok:  IExCor=  205 AccDes= 0.00D+00 IRadAn=         0 IDoV= 1
 ScaDFX=  1.000000  1.000000  1.000000  1.000000
 FoFCou: FMM=F IPFlag=           0 FMFlag=      100000 FMFlg1=           0
         NFxFlg=           0 DoJE=T BraDBF=F KetDBF=T FulRan=T
         Omega=  0.000000  0.000000  1.000000  0.000000  0.000000 ICntrl=     500 IOpCl=  0
         NMat0=    1 NMatS0=    1 NMatT0=    0 NMatD0=    1 NMtDS0=    0 NMtDT0=    0
         I1Cent=           4 NGrid=           0.
 Petite list used in FoFCou.
 Initial guess orbital symmetries:
       Occupied  (A) (A) (A) (A) (A) (A) (A) (A) (A) (A) (A) (A)
                 (A) (A) (A) (A) (A) (A) (A) (A) (A) (A) (A) (A)
                 (A) (A) (A) (A) (A) (A) (A) (A) (A) (A) (A) (A)
                 (A) (A) (A)
       Virtual   (A) (A) (A) (A) (A) (A) (A) (A) (A) (A) (A) (A)
                 (A) (A) (A) (A) (A) (A) (A) (A) (A) (A) (A) (A)
                 (A) (A) (A) (A) (A) (A) (A) (A) (A) (A) (A) (A)
                 (A) (A) (A) (A) (A) (A) (A) (A) (A) (A) (A) (A)
                 (A) (A) (A) (A) (A) (A) (A) (A) (A) (A) (A) (A)
                 (A) (A) (A) (A) (A) (A) (A) (A) (A) (A) (A) (A)
                 (A) (A) (A) (A) (A) (A) (A) (A) (A) (A) (A) (A)
                 (A) (A) (A) (A) (A) (A) (A) (A) (A) (A) (A) (A)
                 (A) (A) (A) (A) (A) (A) (A) (A) (A) (A) (A) (A)
                 (A) (A) (A) (A) (A) (A) (A) (A) (A) (A) (A) (A)
                 (A) (A) (A) (A) (A) (A) (A) (A) (A) (A) (A) (A)
                 (A) (A) (A) (A) (A) (A) (A) (A) (A) (A) (A) (A)
                 (A) (A) (A) (A) (A) (A) (A) (A) (A) (A) (A) (A)
                 (A) (A) (A) (A) (A) (A) (A) (A) (A) (A) (A) (A)
                 (A) (A) (A) (A) (A) (A) (A) (A) (A) (A) (A) (A)
                 (A) (A) (A) (A) (A) (A) (A) (A) (A) (A) (A) (A)
                 (A) (A) (A) (A) (A) (A) (A) (A) (A) (A) (A) (A)
                 (A) (A) (A) (A) (A) (A) (A) (A) (A) (A) (A) (A)
                 (A) (A) (A) (A) (A) (A) (A) (A) (A) (A) (A) (A)
                 (A) (A) (A) (A) (A) (A) (A) (A) (A) (A) (A) (A)
                 (A) (A) (A) (A) (A) (A) (A) (A) (A) (A) (A) (A)
                 (A) (A) (A) (A) (A) (A) (A) (A) (A) (A) (A) (A)
                 (A) (A) (A) (A) (A) (A) (A) (A) (A) (A) (A) (A)
                 (A) (A) (A) (A) (A) (A) (A) (A) (A) (A) (A) (A)
                 (A) (A) (A) (A) (A) (A) (A) (A) (A) (A) (A)
 The electronic state of the initial guess is 1-A.
 Requested convergence on RMS density matrix=1.00D-08 within 128 cycles.
 Requested convergence on MAX density matrix=1.00D-06.
 Requested convergence on             energy=1.00D-06.
 No special actions if energy rises.
 Initial convergence to 1.0D-05 achieved.  Increase integral accuracy.
 SCF Done:  E(RHF) =  -492.913376785     A.U. after   14 cycles
             Convg  =    0.8181D-08             -V/T =  2.0017
 ExpMin= 2.97D-02 ExpMax= 1.17D+04 ExpMxC= 4.01D+02 IAcc=3 IRadAn=         5 AccDes= 0.00D+00
 HarFok:  IExCor=  205 AccDes= 0.00D+00 IRadAn=         5 IDoV=-2
 ScaDFX=  1.000000  1.000000  1.000000  1.000000
 Range of M.O.s used for correlation:    11   338
 NBasis=   338 NAE=    39 NBE=    39 NFC=    10 NFV=     0
 NROrb=    328 NOA=    29 NOB=    29 NVA=   299 NVB=   299

 **** Warning!!: The largest alpha MO coefficient is  0.71474536D+02

 Disk-based method using OVN memory for 29 occupieds at a time.
 Estimated scratch disk usage=  1380830270 words.
 Actual    scratch disk usage=  1367625368 words.
 JobTyp=1 Pass  1:  I=   1 to  29 NPSUse=  8 ParTrn=T ParDer=T DoDerP=F.
 Spin components of T(2) and E(2):
     alpha-alpha T2 =       0.6789557698D-01 E2=     -0.2055056665D+00
     alpha-beta  T2 =       0.3772351814D+00 E2=     -0.1190453779D+01
     beta-beta   T2 =       0.6789557698D-01 E2=     -0.2055056665D+00
 ANorm=    0.1230051355D+01
 E2 =    -0.1601465112D+01 EUMP2 =    -0.49451484189758D+03

 **********************************************************************

            Population analysis using the SCF density.

 **********************************************************************

 Orbital symmetries:
       Occupied  (A) (A) (A) (A) (A) (A) (A) (A) (A) (A) (A) (A)
                 (A) (A) (A) (A) (A) (A) (A) (A) (A) (A) (A) (A)
                 (A) (A) (A) (A) (A) (A) (A) (A) (A) (A) (A) (A)
                 (A) (A) (A)
       Virtual   (A) (A) (A) (A) (A) (A) (A) (A) (A) (A) (A) (A)
                 (A) (A) (A) (A) (A) (A) (A) (A) (A) (A) (A) (A)
                 (A) (A) (A) (A) (A) (A) (A) (A) (A) (A) (A) (A)
                 (A) (A) (A) (A) (A) (A) (A) (A) (A) (A) (A) (A)
                 (A) (A) (A) (A) (A) (A) (A) (A) (A) (A) (A) (A)
                 (A) (A) (A) (A) (A) (A) (A) (A) (A) (A) (A) (A)
                 (A) (A) (A) (A) (A) (A) (A) (A) (A) (A) (A) (A)
                 (A) (A) (A) (A) (A) (A) (A) (A) (A) (A) (A) (A)
                 (A) (A) (A) (A) (A) (A) (A) (A) (A) (A) (A) (A)
                 (A) (A) (A) (A) (A) (A) (A) (A) (A) (A) (A) (A)
                 (A) (A) (A) (A) (A) (A) (A) (A) (A) (A) (A) (A)
                 (A) (A) (A) (A) (A) (A) (A) (A) (A) (A) (A) (A)
                 (A) (A) (A) (A) (A) (A) (A) (A) (A) (A) (A) (A)
                 (A) (A) (A) (A) (A) (A) (A) (A) (A) (A) (A) (A)
                 (A) (A) (A) (A) (A) (A) (A) (A) (A) (A) (A) (A)
                 (A) (A) (A) (A) (A) (A) (A) (A) (A) (A) (A) (A)
                 (A) (A) (A) (A) (A) (A) (A) (A) (A) (A) (A) (A)
                 (A) (A) (A) (A) (A) (A) (A) (A) (A) (A) (A) (A)
                 (A) (A) (A) (A) (A) (A) (A) (A) (A) (A) (A) (A)
                 (A) (A) (A) (A) (A) (A) (A) (A) (A) (A) (A) (A)
                 (A) (A) (A) (A) (A) (A) (A) (A) (A) (A) (A) (A)
                 (A) (A) (A) (A) (A) (A) (A) (A) (A) (A) (A) (A)
                 (A) (A) (A) (A) (A) (A) (A) (A) (A) (A) (A) (A)
                 (A) (A) (A) (A) (A) (A) (A) (A) (A) (A) (A) (A)
                 (A) (A) (A) (A) (A) (A) (A) (A) (A) (A) (A)
 The electronic state is 1-A.
 Alpha  occ. eigenvalues --  -20.54145 -20.53266 -15.60915 -15.59168 -11.37304
 Alpha  occ. eigenvalues --  -11.35678 -11.30017 -11.26645 -11.25665 -11.21938
 Alpha  occ. eigenvalues --   -1.39537  -1.38459  -1.25015  -1.22449  -1.05533
 Alpha  occ. eigenvalues --   -0.99538  -0.95751  -0.87647  -0.80220  -0.76579
 Alpha  occ. eigenvalues --   -0.71709  -0.70436  -0.66073  -0.64180  -0.62376
 Alpha  occ. eigenvalues --   -0.61507  -0.60614  -0.59150  -0.57158  -0.54893
 Alpha  occ. eigenvalues --   -0.54591  -0.53154  -0.52031  -0.51472  -0.50739
 Alpha  occ. eigenvalues --   -0.44837  -0.42728  -0.39611  -0.39347
 Alpha virt. eigenvalues --    0.01994   0.03609   0.03829   0.04677   0.05586
 Alpha virt. eigenvalues --    0.06050   0.06328   0.06418   0.07656   0.07995
 Alpha virt. eigenvalues --    0.08453   0.09402   0.11190   0.12366   0.12499
 Alpha virt. eigenvalues --    0.13135   0.13693   0.14326   0.14623   0.14932
 Alpha virt. eigenvalues --    0.15526   0.15990   0.16222   0.16606   0.17028
 Alpha virt. eigenvalues --    0.17676   0.17852   0.18476   0.18706   0.19226
 Alpha virt. eigenvalues --    0.19868   0.20069   0.20762   0.20946   0.21774
 Alpha virt. eigenvalues --    0.23299   0.23572   0.24306   0.25288   0.26462
 Alpha virt. eigenvalues --    0.27685   0.28391   0.28756   0.29745   0.30961
 Alpha virt. eigenvalues --    0.31432   0.31930   0.32173   0.33364   0.33963
 Alpha virt. eigenvalues --    0.34503   0.34624   0.34800   0.35708   0.36683
 Alpha virt. eigenvalues --    0.37742   0.37770   0.38821   0.39147   0.39952
 Alpha virt. eigenvalues --    0.40561   0.41233   0.41818   0.42256   0.42493
 Alpha virt. eigenvalues --    0.43398   0.43815   0.44568   0.44695   0.45935
 Alpha virt. eigenvalues --    0.46524   0.47429   0.47990   0.48630   0.49312
 Alpha virt. eigenvalues --    0.49934   0.50483   0.50833   0.51231   0.52596
 Alpha virt. eigenvalues --    0.53161   0.53781   0.54679   0.55039   0.55596
 Alpha virt. eigenvalues --    0.56390   0.57112   0.57936   0.58358   0.58681
 Alpha virt. eigenvalues --    0.59401   0.60292   0.60617   0.60898   0.61659
 Alpha virt. eigenvalues --    0.63114   0.63343   0.63856   0.64129   0.65359
 Alpha virt. eigenvalues --    0.65812   0.66241   0.66575   0.67228   0.68050
 Alpha virt. eigenvalues --    0.68636   0.68692   0.69637   0.70893   0.71299
 Alpha virt. eigenvalues --    0.72351   0.72918   0.73687   0.74338   0.74545
 Alpha virt. eigenvalues --    0.75149   0.76116   0.77559   0.78135   0.78727
 Alpha virt. eigenvalues --    0.79904   0.80717   0.82027   0.83500   0.84087
 Alpha virt. eigenvalues --    0.85226   0.85626   0.86895   0.87574   0.88904
 Alpha virt. eigenvalues --    0.89565   0.90606   0.91118   0.92498   0.93418
 Alpha virt. eigenvalues --    0.94716   0.96289   0.97480   0.97876   0.98358
 Alpha virt. eigenvalues --    0.99135   1.00575   1.02219   1.03277   1.04260
 Alpha virt. eigenvalues --    1.05363   1.06681   1.09061   1.09134   1.10725
 Alpha virt. eigenvalues --    1.13174   1.13605   1.14543   1.15000   1.16017
 Alpha virt. eigenvalues --    1.17244   1.17773   1.19645   1.20023   1.20656
 Alpha virt. eigenvalues --    1.22830   1.25210   1.26007   1.27500   1.28138
 Alpha virt. eigenvalues --    1.30001   1.34149   1.34422   1.35052   1.36827
 Alpha virt. eigenvalues --    1.40120   1.41216   1.42973   1.43335   1.45975
 Alpha virt. eigenvalues --    1.48398   1.51353   1.52068   1.53072   1.54138
 Alpha virt. eigenvalues --    1.54372   1.57010   1.58542   1.61110   1.63015
 Alpha virt. eigenvalues --    1.66086   1.67550   1.68705   1.70434   1.72200
 Alpha virt. eigenvalues --    1.72954   1.75722   1.77657   1.78895   1.80377
 Alpha virt. eigenvalues --    1.82467   1.83824   1.84626   1.85368   1.87822
 Alpha virt. eigenvalues --    1.88164   1.88595   1.91379   1.92122   1.93748
 Alpha virt. eigenvalues --    1.94746   1.96989   1.98007   1.98947   2.00927
 Alpha virt. eigenvalues --    2.02272   2.02767   2.06034   2.07426   2.08204
 Alpha virt. eigenvalues --    2.09948   2.11533   2.11591   2.13236   2.16741
 Alpha virt. eigenvalues --    2.17445   2.18479   2.19903   2.22598   2.23285
 Alpha virt. eigenvalues --    2.24817   2.26045   2.26250   2.27756   2.29759
 Alpha virt. eigenvalues --    2.31608   2.33707   2.34747   2.36323   2.37430
 Alpha virt. eigenvalues --    2.39466   2.39892   2.42314   2.43845   2.44894
 Alpha virt. eigenvalues --    2.45187   2.45688   2.47632   2.48905   2.50208
 Alpha virt. eigenvalues --    2.52753   2.54902   2.56451   2.59373   2.60161
 Alpha virt. eigenvalues --    2.61148   2.62310   2.66131   2.66696   2.67749
 Alpha virt. eigenvalues --    2.72330   2.73888   2.75988   2.76762   2.79333
 Alpha virt. eigenvalues --    2.82240   2.83985   2.85043   2.88578   2.89624
 Alpha virt. eigenvalues --    2.90063   2.92601   2.93823   2.97206   2.97737
 Alpha virt. eigenvalues --    2.99862   3.02851   3.04846   3.05618   3.06812
 Alpha virt. eigenvalues --    3.09367   3.15653   3.16400   3.19627   3.22926
 Alpha virt. eigenvalues --    3.26608   3.31583   3.43106   3.45927   3.49675
 Alpha virt. eigenvalues --    3.58595   3.67061   3.75510   3.82217   3.84791
 Alpha virt. eigenvalues --    3.85214   3.87540   3.88240   3.94810   4.02190
 Alpha virt. eigenvalues --    4.03818   4.08094   4.19742   4.21862
          Condensed to atoms (all electrons):
              1          2          3          4          5          6
     1  H    0.787605   0.389072  -0.058464  -0.101997  -0.070407   0.027982
     2  C    0.389072   4.567048   0.340407   0.344477   0.153166  -0.020844
     3  H   -0.058464   0.340407   0.735361  -0.071472  -0.038202   0.007016
     4  H   -0.101997   0.344477  -0.071472   1.017611   0.046627   0.000012
     5  C   -0.070407   0.153166  -0.038202   0.046627   5.242608   0.186864
     6  O    0.027982  -0.020844   0.007016   0.000012   0.186864   8.667101
     7  N    0.043581   0.026083   0.029324  -0.156579  -0.047559  -0.067303
     8  H   -0.007037  -0.072181  -0.002147   0.013664  -0.086440   0.003692
     9  C   -0.000702  -0.084383  -0.002168   0.006714   0.034293   0.004098
    10  H    0.001038   0.021080  -0.000573   0.001615   0.001479   0.000170
    11  C    0.001663   0.008464   0.004067  -0.008141  -0.077965  -0.005317
    12  H    0.000722  -0.001920   0.000311   0.000168   0.053069  -0.058978
    13  H   -0.000373   0.000671   0.000290  -0.000111  -0.039593   0.002662
    14  H    0.000272  -0.000171  -0.000933   0.000158   0.020793   0.023077
    15  C   -0.001765   0.000491   0.001771  -0.009282  -0.048356   0.019362
    16  O    0.000163   0.002747   0.000060   0.000380   0.014337  -0.001770
    17  N   -0.000047  -0.001610   0.000362  -0.000774  -0.005200  -0.000229
    18  H    0.000704   0.005702  -0.000610  -0.000602  -0.015037   0.000517
    19  C   -0.000169   0.000253   0.000131  -0.000699  -0.014706   0.001251
    20  H   -0.000043  -0.000194   0.000012  -0.000065  -0.001969   0.000046
    21  H    0.000107  -0.000161  -0.000025  -0.000318   0.001063  -0.000064
    22  H    0.000005   0.000326   0.000001   0.000091  -0.001116   0.000020
              7          8          9         10         11         12
     1  H    0.043581  -0.007037  -0.000702   0.001038   0.001663   0.000722
     2  C    0.026083  -0.072181  -0.084383   0.021080   0.008464  -0.001920
     3  H    0.029324  -0.002147  -0.002168  -0.000573   0.004067   0.000311
     4  H   -0.156579   0.013664   0.006714   0.001615  -0.008141   0.000168
     5  C   -0.047559  -0.086440   0.034293   0.001479  -0.077965   0.053069
     6  O   -0.067303   0.003692   0.004098   0.000170  -0.005317  -0.058978
     7  N    7.559476   0.298927  -0.416961   0.031015   0.011630  -0.035123
     8  H    0.298927   0.976231   0.084411  -0.069467  -0.006227  -0.005431
     9  C   -0.416961   0.084411   7.583170  -0.179818   0.054904  -0.070143
    10  H    0.031015  -0.069467  -0.179818   1.274063   0.004632   0.065951
    11  C    0.011630  -0.006227   0.054904   0.004632   4.476561   0.340988
    12  H   -0.035123  -0.005431  -0.070143   0.065951   0.340988   1.028171
    13  H    0.071587  -0.006106  -0.066969  -0.027310   0.332037  -0.197165
    14  H   -0.053055   0.016405   0.124274  -0.079758   0.174873  -0.167016
    15  C    0.184364  -0.064612  -0.842985   0.054245   0.017846  -0.039139
    16  O   -0.016134   0.001612  -0.063616   0.000582  -0.042470   0.034173
    17  N   -0.074642   0.025719   0.153772  -0.036443   0.000291  -0.000474
    18  H    0.018939  -0.007630  -0.068201   0.009187   0.010856  -0.000786
    19  C    0.004568   0.001832  -0.027687  -0.001713   0.007843  -0.000367
    20  H   -0.001478   0.000574  -0.000147   0.000270  -0.007738  -0.000265
    21  H    0.011537   0.000155   0.017753   0.001520  -0.000748  -0.000488
    22  H   -0.003070  -0.000976  -0.003879  -0.001633   0.004685   0.000338
             13         14         15         16         17         18
     1  H   -0.000373   0.000272  -0.001765   0.000163  -0.000047   0.000704
     2  C    0.000671  -0.000171   0.000491   0.002747  -0.001610   0.005702
     3  H    0.000290  -0.000933   0.001771   0.000060   0.000362  -0.000610
     4  H   -0.000111   0.000158  -0.009282   0.000380  -0.000774  -0.000602
     5  C   -0.039593   0.020793  -0.048356   0.014337  -0.005200  -0.015037
     6  O    0.002662   0.023077   0.019362  -0.001770  -0.000229   0.000517
     7  N    0.071587  -0.053055   0.184364  -0.016134  -0.074642   0.018939
     8  H   -0.006106   0.016405  -0.064612   0.001612   0.025719  -0.007630
     9  C   -0.066969   0.124274  -0.842985  -0.063616   0.153772  -0.068201
    10  H   -0.027310  -0.079758   0.054245   0.000582  -0.036443   0.009187
    11  C    0.332037   0.174873   0.017846  -0.042470   0.000291   0.010856
    12  H   -0.197165  -0.167016  -0.039139   0.034173  -0.000474  -0.000786
    13  H    1.190200  -0.193332   0.039864  -0.016908  -0.004949  -0.000397
    14  H   -0.193332   1.145483  -0.009682   0.004802   0.003591  -0.000138
    15  C    0.039864  -0.009682   5.416024   0.320014   0.090296  -0.000785
    16  O   -0.016908   0.004802   0.320014   8.699697  -0.150620   0.003016
    17  N   -0.004949   0.003591   0.090296  -0.150620   7.070692   0.266499
    18  H   -0.000397  -0.000138  -0.000785   0.003016   0.266499   0.970420
    19  C    0.001855   0.000223  -0.062940   0.003811   0.238868  -0.130237
    20  H    0.000153  -0.000306   0.033478  -0.019133  -0.062156   0.008761
    21  H    0.000009   0.000123  -0.035121   0.003050   0.108915  -0.017616
    22  H    0.000019   0.000246  -0.006472   0.011701  -0.136981   0.016059
             19         20         21         22
     1  H   -0.000169  -0.000043   0.000107   0.000005
     2  C    0.000253  -0.000194  -0.000161   0.000326
     3  H    0.000131   0.000012  -0.000025   0.000001
     4  H   -0.000699  -0.000065  -0.000318   0.000091
     5  C   -0.014706  -0.001969   0.001063  -0.001116
     6  O    0.001251   0.000046  -0.000064   0.000020
     7  N    0.004568  -0.001478   0.011537  -0.003070
     8  H    0.001832   0.000574   0.000155  -0.000976
     9  C   -0.027687  -0.000147   0.017753  -0.003879
    10  H   -0.001713   0.000270   0.001520  -0.001633
    11  C    0.007843  -0.007738  -0.000748   0.004685
    12  H   -0.000367  -0.000265  -0.000488   0.000338
    13  H    0.001855   0.000153   0.000009   0.000019
    14  H    0.000223  -0.000306   0.000123   0.000246
    15  C   -0.062940   0.033478  -0.035121  -0.006472
    16  O    0.003811  -0.019133   0.003050   0.011701
    17  N    0.238868  -0.062156   0.108915  -0.136981
    18  H   -0.130237   0.008761  -0.017616   0.016059
    19  C    4.100350   0.448539   0.267498   0.418942
    20  H    0.448539   0.991847  -0.095006  -0.172756
    21  H    0.267498  -0.095006   0.994141  -0.177114
    22  H    0.418942  -0.172756  -0.177114   1.213988
 Mulliken atomic charges:
              1
     1  H   -0.011910
     2  C    0.321475
     3  H    0.055484
     4  H   -0.081476
     5  C    0.692250
     6  O   -0.789364
     7  N   -0.419124
     8  H   -0.094968
     9  C   -0.235728
    10  H   -0.070130
    11  C    0.697266
    12  H    0.053403
    13  H   -0.086133
    14  H   -0.009930
    15  C    0.943385
    16  O   -0.789493
    17  N   -0.484878
    18  H   -0.068622
    19  C    0.742553
    20  H   -0.122422
    21  H   -0.079212
    22  H   -0.162425
 Sum of Mulliken atomic charges =   0.00000
 Mulliken charges with hydrogens summed into heavy atoms:
              1
     2  C    0.283573
     5  C    0.692250
     6  O   -0.789364
     7  N   -0.514092
     9  C   -0.305858
    11  C    0.654606
    15  C    0.943385
    16  O   -0.789493
    17  N   -0.553501
    19  C    0.378494
 Sum of Mulliken charges with hydrogens summed into heavy atoms =   0.00000
 Electronic spatial extent (au):  <R**2>=           1827.5215
 Charge=              0.0000 electrons
 Dipole moment (field-independent basis, Debye):
    X=             -1.5953    Y=             -4.4562    Z=             -4.7019  Tot=              6.6716
 Quadrupole moment (field-independent basis, Debye-Ang):
   XX=            -62.2286   YY=            -58.9857   ZZ=            -63.0774
   XY=             -2.2854   XZ=              4.7049   YZ=             -2.5656
 Traceless Quadrupole moment (field-independent basis, Debye-Ang):
   XX=             -0.7980   YY=              2.4448   ZZ=             -1.6468
   XY=             -2.2854   XZ=              4.7049   YZ=             -2.5656
 Octapole moment (field-independent basis, Debye-Ang**2):
  XXX=            -11.4132  YYY=             -8.7291  ZZZ=             -6.4922  XYY=             -4.5677
  XXY=            -30.1757  XXZ=            -14.0659  XZZ=              3.2884  YZZ=             -4.2099
  YYZ=             -3.6669  XYZ=             -2.5023
 Hexadecapole moment (field-independent basis, Debye-Ang**3):
 XXXX=          -1528.9924 YYYY=           -582.9371 ZZZZ=           -210.9244 XXXY=            -10.0805
 XXXZ=             22.9847 YYYX=             -9.5570 YYYZ=              8.0392 ZZZX=             12.0897
 ZZZY=              2.8856 XXYY=           -359.9019 XXZZ=           -320.7558 YYZZ=           -130.2748
 XXYZ=            -19.7943 YYXZ=             -7.7690 ZZXY=              5.9709
 N-N= 5.533563043055D+02 E-N=-2.261951055699D+03  KE= 4.920531603323D+02
 1\1\GINC-NODE001\SP\RMP2-FC\Aug-CC-pVDZ\C6H12N2O2\STEBOSS\12-Feb-2017\
 0\\#SP MP2/aug-cc-pVDZ\\Single Point calculation at MP2\\0,1\H,0,-3.64
 02,-1.6233,0.7752\C,0,-3.1253,-1.3016,-0.1318\H,0,-3.8513,-0.7763,-0.7
 644\H,0,-2.7681,-2.1811,-0.6785\C,0,-2.0044,-0.3435,0.2596\O,0,-2.067,
 0.3528,1.2583\N,0,-0.9178,-0.3636,-0.5991\H,0,-1.1009,-0.8598,-1.4626\
 C,0,0.0852,0.7189,-0.7404\H,0,0.3175,0.7413,-1.8137\C,0,-0.382,2.1155,
 -0.3323\H,0,-0.5821,2.1745,0.7359\H,0,0.4054,2.8302,-0.583\H,0,-1.2931
 ,2.3829,-0.8773\C,0,1.4259,0.3436,-0.057\O,0,2.1,1.1689,0.5422\N,0,1.8
 578,-0.9302,-0.3174\H,0,1.1378,-1.5984,-0.5595\C,0,3.0645,-1.4482,0.30
 93\H,0,3.7848,-0.6324,0.3845\H,0,2.8789,-1.8366,1.3198\H,0,3.4835,-2.2
 479,-0.3086\\Version=EM64L-G09RevA.02\State=1-A\HF=-492.9133768\MP2=-4
 94.5148419\RMSD=8.181e-09\PG=C01 [X(C6H12N2O2)]\\@


 ALL SCIENCE IS EITHER PHYSICS, OR STAMP COLLECTING.
   --ERNEST RUTHERFORD, 1871-1937.
 Job cpu time:  0 days  8 hours 53 minutes 41.4 seconds.
 File lengths (MBytes):  RWF=  10551 Int=      0 D2E=      0 Chk=      7 Scr=      2
 Normal termination of Gaussian 09 at Sun Feb 12 15:22:42 2017.
