 Entering Gaussian System, Link 0=g09
 Initial command:
 /home/steboss/Software/g09/l1.exe /home/steboss/projects/phi_psi_scan/alanine/MP2/105/5196/Gau-23510.inp -scrdir=/home/steboss/projects/phi_psi_scan/alanine/MP2/105/5196/
 Entering Link 1 = /home/steboss/Software/g09/l1.exe PID=     23512.
  
 Copyright (c) 1988,1990,1992,1993,1995,1998,2003,2009, Gaussian, Inc.
                  All Rights Reserved.
  
 This is part of the Gaussian(R) 09 program.  It is based on
 the Gaussian(R) 03 system (copyright 2003, Gaussian, Inc.),
 the Gaussian(R) 98 system (copyright 1998, Gaussian, Inc.),
 the Gaussian(R) 94 system (copyright 1995, Gaussian, Inc.),
 the Gaussian 92(TM) system (copyright 1992, Gaussian, Inc.),
 the Gaussian 90(TM) system (copyright 1990, Gaussian, Inc.),
 the Gaussian 88(TM) system (copyright 1988, Gaussian, Inc.),
 the Gaussian 86(TM) system (copyright 1986, Carnegie Mellon
 University), and the Gaussian 82(TM) system (copyright 1983,
 Carnegie Mellon University). Gaussian is a federally registered
 trademark of Gaussian, Inc.
  
 This software contains proprietary and confidential information,
 including trade secrets, belonging to Gaussian, Inc.
  
 This software is provided under written license and may be
 used, copied, transmitted, or stored only in accord with that
 written license.
  
 The following legend is applicable only to US Government
 contracts under FAR:
  
                    RESTRICTED RIGHTS LEGEND
  
 Use, reproduction and disclosure by the US Government is
 subject to restrictions as set forth in subparagraphs (a)
 and (c) of the Commercial Computer Software - Restricted
 Rights clause in FAR 52.227-19.
  
 Gaussian, Inc.
 340 Quinnipiac St., Bldg. 40, Wallingford CT 06492
  
  
 ---------------------------------------------------------------
 Warning -- This program may not be used in any manner that
 competes with the business of Gaussian, Inc. or will provide
 assistance to any competitor of Gaussian, Inc.  The licensee
 of this program is prohibited from giving any competitor of
 Gaussian, Inc. access to this program.  By using this program,
 the user acknowledges that Gaussian, Inc. is engaged in the
 business of creating and licensing software in the field of
 computational chemistry and represents and warrants to the
 licensee that it is not a competitor of Gaussian, Inc. and that
 it will not use this program in any manner prohibited above.
 ---------------------------------------------------------------
  

 Cite this work as:
 Gaussian 09, Revision A.02,
 M. J. Frisch, G. W. Trucks, H. B. Schlegel, G. E. Scuseria, 
 M. A. Robb, J. R. Cheeseman, G. Scalmani, V. Barone, B. Mennucci, 
 G. A. Petersson, H. Nakatsuji, M. Caricato, X. Li, H. P. Hratchian, 
 A. F. Izmaylov, J. Bloino, G. Zheng, J. L. Sonnenberg, M. Hada, 
 M. Ehara, K. Toyota, R. Fukuda, J. Hasegawa, M. Ishida, T. Nakajima, 
 Y. Honda, O. Kitao, H. Nakai, T. Vreven, J. A. Montgomery, Jr., 
 J. E. Peralta, F. Ogliaro, M. Bearpark, J. J. Heyd, E. Brothers, 
 K. N. Kudin, V. N. Staroverov, R. Kobayashi, J. Normand, 
 K. Raghavachari, A. Rendell, J. C. Burant, S. S. Iyengar, J. Tomasi, 
 M. Cossi, N. Rega, J. M. Millam, M. Klene, J. E. Knox, J. B. Cross, 
 V. Bakken, C. Adamo, J. Jaramillo, R. Gomperts, R. E. Stratmann, 
 O. Yazyev, A. J. Austin, R. Cammi, C. Pomelli, J. W. Ochterski, 
 R. L. Martin, K. Morokuma, V. G. Zakrzewski, G. A. Voth, 
 P. Salvador, J. J. Dannenberg, S. Dapprich, A. D. Daniels, 
 O. Farkas, J. B. Foresman, J. V. Ortiz, J. Cioslowski, 
 and D. J. Fox, Gaussian, Inc., Wallingford CT, 2009.
 
 ******************************************
 Gaussian 09:  EM64L-G09RevA.02 11-Jun-2009
                12-Feb-2017 
 ******************************************
 %chk=structure_300.chk
 %NProcShared=8
 Will use up to    8 processors via shared memory.
 -------------------
 #SP MP2/aug-cc-pVDZ
 -------------------
 1/38=1/1;
 2/12=2,17=6,18=5,40=1/2;
 3/5=16,7=10,11=9,16=1,25=1,30=1/1,2,3;
 4//1;
 5/5=2,38=5/2;
 8/10=1/1;
 9/16=-3/6;
 6/7=2,8=2,9=2,10=2/1;
 99/5=1,9=1/99;
 -------------------------------
 Single Point calculation at MP2
 -------------------------------
 Symbolic Z-matrix:
 Charge =  0 Multiplicity = 1
 H                    -3.6165   -1.6112   -0.3953 
 C                    -3.2285   -0.6491   -0.7353 
 H                    -3.9607    0.1237   -0.4716 
 H                    -3.1251   -0.6622   -1.8254 
 C                    -1.9177   -0.3657   -0.0166 
 O                    -1.6922   -0.7893    1.1154 
 N                    -0.9974    0.3532   -0.7306 
 H                    -1.2837    0.6487   -1.654 
 C                     0.1082    1.1482   -0.1555 
 H                     0.2021    2.023    -0.8053 
 C                    -0.1058    1.6523    1.2765 
 H                    -0.167     0.8424    2.002 
 H                     0.7333    2.3069    1.5347 
 H                    -1.0293    2.2378    1.3391 
 C                     1.4522    0.4121   -0.3462 
 O                     2.3826    0.9209   -0.9605 
 N                     1.492    -0.8121    0.2497 
 H                     0.6475   -1.141     0.7063 
 C                     2.6498   -1.6831    0.1809 
 H                     3.4432   -1.1344   -0.329 
 H                     2.992    -1.9616    1.1845 
 H                     2.4305   -2.5994   -0.3815 
 
                          Input orientation:                          
 ---------------------------------------------------------------------
 Center     Atomic      Atomic             Coordinates (Angstroms)
 Number     Number       Type             X           Y           Z
 ---------------------------------------------------------------------
      1          1           0       -3.616500   -1.611200   -0.395300
      2          6           0       -3.228500   -0.649100   -0.735300
      3          1           0       -3.960700    0.123700   -0.471600
      4          1           0       -3.125100   -0.662200   -1.825400
      5          6           0       -1.917700   -0.365700   -0.016600
      6          8           0       -1.692200   -0.789300    1.115400
      7          7           0       -0.997400    0.353200   -0.730600
      8          1           0       -1.283700    0.648700   -1.654000
      9          6           0        0.108200    1.148200   -0.155500
     10          1           0        0.202100    2.023000   -0.805300
     11          6           0       -0.105800    1.652300    1.276500
     12          1           0       -0.167000    0.842400    2.002000
     13          1           0        0.733300    2.306900    1.534700
     14          1           0       -1.029300    2.237800    1.339100
     15          6           0        1.452200    0.412100   -0.346200
     16          8           0        2.382600    0.920900   -0.960500
     17          7           0        1.492000   -0.812100    0.249700
     18          1           0        0.647500   -1.141000    0.706300
     19          6           0        2.649800   -1.683100    0.180900
     20          1           0        3.443200   -1.134400   -0.329000
     21          1           0        2.992000   -1.961600    1.184500
     22          1           0        2.430500   -2.599400   -0.381500
 ---------------------------------------------------------------------
                    Distance matrix (angstroms):
                    1          2          3          4          5
     1  H    0.000000
     2  C    1.091687   0.000000
     3  H    1.770360   1.096756   0.000000
     4  H    1.785290   1.095071   1.774441   0.000000
     5  C    2.140235   1.521526   2.149508   2.194877   0.000000
     6  O    2.580826   2.409349   2.915172   3.273784   1.229517
     7  N    3.291045   2.445902   2.983437   2.599371   1.368782
     8  H    3.483307   2.512079   2.973218   2.266846   2.027817
     9  C    4.641679   3.834061   4.207786   4.064522   2.532875
    10  H    5.287458   4.349027   4.587766   4.395584   3.289603
    11  C    5.076452   4.369787   4.500303   4.908652   3.004565
    12  H    4.864797   4.369229   4.585563   5.065883   2.932440
    13  H    6.164184   5.439365   5.552048   5.915495   4.071501
    14  H    4.951419   4.180168   4.042420   4.776656   3.066821
    15  C    5.457827   4.815236   5.422028   4.928877   3.474167
    16  O    6.536068   5.830957   6.411864   5.795603   4.586814
    17  N    5.210697   4.824926   5.579241   5.064200   3.449093
    18  H    4.429030   4.164559   4.921628   4.568508   2.775595
    19  C    6.293146   6.038459   6.883966   6.198141   4.757794
    20  H    7.076093   6.701655   7.511384   6.753129   5.424734
    21  H    6.803736   6.641002   7.445212   6.940234   5.300443
    22  H    6.127229   5.996093   6.947721   6.058241   4.901980
                    6          7          8          9         10
     6  O    0.000000
     7  N    2.279423   0.000000
     8  H    3.147109   1.010918   0.000000
     9  C    2.934371   1.478214   2.105324   0.000000
    10  H    3.896985   2.057331   2.194674   1.093770   0.000000
    11  C    2.916167   2.551678   3.313984   1.533146   2.136846
    12  H    2.403069   2.897582   3.827646   2.196373   3.067733
    13  H    3.955416   3.455988   4.121374   2.142455   2.416272
    14  H    3.106898   2.799356   3.398324   2.171397   2.482123
    15  C    3.669726   2.480277   3.041623   1.544197   2.090101
    16  O    4.882432   3.435045   3.741229   2.423342   2.448120
    17  N    3.299862   2.918223   3.669131   2.433488   3.288565
    18  H    2.401094   2.646320   3.536040   2.504791   3.534715
    19  C    4.530467   4.275444   4.927126   3.819575   4.549616
    20  H    5.345813   4.700337   5.222897   4.045070   4.549809
    21  H    4.829161   4.994118   5.757809   4.447781   5.255462
    22  H    4.744874   4.537644   5.095556   4.414596   5.148976
                   11         12         13         14         15
    11  C    0.000000
    12  H    1.089052   0.000000
    13  H    1.095106   1.781480   0.000000
    14  H    1.095254   1.769220   1.774766   0.000000
    15  C    2.568777   2.884616   2.764936   3.511589   0.000000
    16  O    3.425091   3.909351   3.296545   4.320121   1.225515
    17  N    3.111358   2.925783   3.457602   4.104344   1.362111
    18  H    2.948748   2.505219   3.547058   3.824707   2.041425
    19  C    4.463022   4.198680   4.628806   5.500060   2.470211
    20  H    4.789439   4.730205   4.760198   5.844446   2.521119
    21  H    4.760788   4.302325   4.841948   5.816332   3.216905
    22  H    5.220990   4.926872   5.533904   6.191057   3.166615
                   16         17         18         19         20
    16  O    0.000000
    17  N    2.293696   0.000000
    18  H    3.168632   1.014810   0.000000
    19  C    2.855697   1.450474   2.139889   0.000000
    20  H    2.397483   2.060571   2.981246   1.091125   0.000000
    21  H    3.644338   2.108365   2.529573   1.096301   1.782841
    22  H    3.567919   2.115097   2.547416   1.097266   1.781725
                   21         22
    21  H    0.000000
    22  H    1.781692   0.000000
 Stoichiometry    C6H12N2O2
 Framework group  C1[X(C6H12N2O2)]
 Deg. of freedom    60
 Full point group                 C1      NOp   1
 Largest Abelian subgroup         C1      NOp   1
 Largest concise Abelian subgroup C1      NOp   1
                         Standard orientation:                         
 ---------------------------------------------------------------------
 Center     Atomic      Atomic             Coordinates (Angstroms)
 Number     Number       Type             X           Y           Z
 ---------------------------------------------------------------------
      1          1           0       -3.616501   -1.611241   -0.395303
      2          6           0       -3.228507   -0.649139   -0.735303
      3          1           0       -3.960712    0.123657   -0.471603
      4          1           0       -3.125107   -0.662238   -1.825403
      5          6           0       -1.917709   -0.365730   -0.016603
      6          8           0       -1.692206   -0.789329    1.115397
      7          7           0       -0.997414    0.353176   -0.730603
      8          1           0       -1.283716    0.648674   -1.654003
      9          6           0        0.108181    1.148183   -0.155503
     10          1           0        0.202075    2.022983   -0.805303
     11          6           0       -0.105822    1.652281    1.276497
     12          1           0       -0.167017    0.842381    2.001997
     13          1           0        0.733274    2.306887    1.534697
     14          1           0       -1.029326    2.237775    1.339097
     15          6           0        1.452186    0.412091   -0.346203
     16          8           0        2.382583    0.920897   -0.960503
     17          7           0        1.491994   -0.812108    0.249697
     18          1           0        0.647496   -1.141014    0.706297
     19          6           0        2.649799   -1.683101    0.180897
     20          1           0        3.443196   -1.134396   -0.329003
     21          1           0        2.992001   -1.961599    1.184497
     22          1           0        2.430505   -2.599402   -0.381503
 ---------------------------------------------------------------------
 Rotational constants (GHZ):      2.0552801      0.8166517      0.7337422
 Standard basis: Aug-CC-pVDZ (5D, 7F)
 There are   338 symmetry adapted basis functions of A   symmetry.
 Integral buffers will be    131072 words long.
 Raffenetti 1 integral format.
 Two-electron integral symmetry is turned on.
   338 basis functions,   562 primitive gaussians,   358 cartesian basis functions
    39 alpha electrons       39 beta electrons
       nuclear repulsion energy       559.2598889840 Hartrees.
 NAtoms=   22 NActive=   22 NUniq=   22 SFac= 7.50D-01 NAtFMM=   80 NAOKFM=F Big=F
 One-electron integrals computed using PRISM.
 NBasis=   338 RedAO= T  NBF=   338
 NBsUse=   338 1.00D-06 NBFU=   338
 Harris functional with IExCor=  205 diagonalized for initial guess.
 ExpMin= 2.97D-02 ExpMax= 1.17D+04 ExpMxC= 4.01D+02 IAcc=3 IRadAn=         0 AccDes= 0.00D+00
 HarFok:  IExCor=  205 AccDes= 0.00D+00 IRadAn=         0 IDoV= 1
 ScaDFX=  1.000000  1.000000  1.000000  1.000000
 FoFCou: FMM=F IPFlag=           0 FMFlag=      100000 FMFlg1=           0
         NFxFlg=           0 DoJE=T BraDBF=F KetDBF=T FulRan=T
         Omega=  0.000000  0.000000  1.000000  0.000000  0.000000 ICntrl=     500 IOpCl=  0
         NMat0=    1 NMatS0=    1 NMatT0=    0 NMatD0=    1 NMtDS0=    0 NMtDT0=    0
         I1Cent=           4 NGrid=           0.
 Petite list used in FoFCou.
 Initial guess orbital symmetries:
       Occupied  (A) (A) (A) (A) (A) (A) (A) (A) (A) (A) (A) (A)
                 (A) (A) (A) (A) (A) (A) (A) (A) (A) (A) (A) (A)
                 (A) (A) (A) (A) (A) (A) (A) (A) (A) (A) (A) (A)
                 (A) (A) (A)
       Virtual   (A) (A) (A) (A) (A) (A) (A) (A) (A) (A) (A) (A)
                 (A) (A) (A) (A) (A) (A) (A) (A) (A) (A) (A) (A)
                 (A) (A) (A) (A) (A) (A) (A) (A) (A) (A) (A) (A)
                 (A) (A) (A) (A) (A) (A) (A) (A) (A) (A) (A) (A)
                 (A) (A) (A) (A) (A) (A) (A) (A) (A) (A) (A) (A)
                 (A) (A) (A) (A) (A) (A) (A) (A) (A) (A) (A) (A)
                 (A) (A) (A) (A) (A) (A) (A) (A) (A) (A) (A) (A)
                 (A) (A) (A) (A) (A) (A) (A) (A) (A) (A) (A) (A)
                 (A) (A) (A) (A) (A) (A) (A) (A) (A) (A) (A) (A)
                 (A) (A) (A) (A) (A) (A) (A) (A) (A) (A) (A) (A)
                 (A) (A) (A) (A) (A) (A) (A) (A) (A) (A) (A) (A)
                 (A) (A) (A) (A) (A) (A) (A) (A) (A) (A) (A) (A)
                 (A) (A) (A) (A) (A) (A) (A) (A) (A) (A) (A) (A)
                 (A) (A) (A) (A) (A) (A) (A) (A) (A) (A) (A) (A)
                 (A) (A) (A) (A) (A) (A) (A) (A) (A) (A) (A) (A)
                 (A) (A) (A) (A) (A) (A) (A) (A) (A) (A) (A) (A)
                 (A) (A) (A) (A) (A) (A) (A) (A) (A) (A) (A) (A)
                 (A) (A) (A) (A) (A) (A) (A) (A) (A) (A) (A) (A)
                 (A) (A) (A) (A) (A) (A) (A) (A) (A) (A) (A) (A)
                 (A) (A) (A) (A) (A) (A) (A) (A) (A) (A) (A) (A)
                 (A) (A) (A) (A) (A) (A) (A) (A) (A) (A) (A) (A)
                 (A) (A) (A) (A) (A) (A) (A) (A) (A) (A) (A) (A)
                 (A) (A) (A) (A) (A) (A) (A) (A) (A) (A) (A) (A)
                 (A) (A) (A) (A) (A) (A) (A) (A) (A) (A) (A) (A)
                 (A) (A) (A) (A) (A) (A) (A) (A) (A) (A) (A)
 The electronic state of the initial guess is 1-A.
 Requested convergence on RMS density matrix=1.00D-08 within 128 cycles.
 Requested convergence on MAX density matrix=1.00D-06.
 Requested convergence on             energy=1.00D-06.
 No special actions if energy rises.
 Initial convergence to 1.0D-05 achieved.  Increase integral accuracy.
 SCF Done:  E(RHF) =  -492.919821979     A.U. after   14 cycles
             Convg  =    0.7517D-08             -V/T =  2.0017
 ExpMin= 2.97D-02 ExpMax= 1.17D+04 ExpMxC= 4.01D+02 IAcc=3 IRadAn=         5 AccDes= 0.00D+00
 HarFok:  IExCor=  205 AccDes= 0.00D+00 IRadAn=         5 IDoV=-2
 ScaDFX=  1.000000  1.000000  1.000000  1.000000
 Range of M.O.s used for correlation:    11   338
 NBasis=   338 NAE=    39 NBE=    39 NFC=    10 NFV=     0
 NROrb=    328 NOA=    29 NOB=    29 NVA=   299 NVB=   299

 **** Warning!!: The largest alpha MO coefficient is  0.72318582D+02

 Disk-based method using OVN memory for 29 occupieds at a time.
 Estimated scratch disk usage=  1387108922 words.
 Actual    scratch disk usage=  1374072118 words.
 JobTyp=1 Pass  1:  I=   1 to  29 NPSUse=  8 ParTrn=T ParDer=T DoDerP=F.
 Spin components of T(2) and E(2):
     alpha-alpha T2 =       0.6800205138D-01 E2=     -0.2059389258D+00
     alpha-beta  T2 =       0.3768750628D+00 E2=     -0.1190858960D+01
     beta-beta   T2 =       0.6800205138D-01 E2=     -0.2059389258D+00
 ANorm=    0.1229991531D+01
 E2 =    -0.1602736811D+01 EUMP2 =    -0.49452255879037D+03

 **********************************************************************

            Population analysis using the SCF density.

 **********************************************************************

 Orbital symmetries:
       Occupied  (A) (A) (A) (A) (A) (A) (A) (A) (A) (A) (A) (A)
                 (A) (A) (A) (A) (A) (A) (A) (A) (A) (A) (A) (A)
                 (A) (A) (A) (A) (A) (A) (A) (A) (A) (A) (A) (A)
                 (A) (A) (A)
       Virtual   (A) (A) (A) (A) (A) (A) (A) (A) (A) (A) (A) (A)
                 (A) (A) (A) (A) (A) (A) (A) (A) (A) (A) (A) (A)
                 (A) (A) (A) (A) (A) (A) (A) (A) (A) (A) (A) (A)
                 (A) (A) (A) (A) (A) (A) (A) (A) (A) (A) (A) (A)
                 (A) (A) (A) (A) (A) (A) (A) (A) (A) (A) (A) (A)
                 (A) (A) (A) (A) (A) (A) (A) (A) (A) (A) (A) (A)
                 (A) (A) (A) (A) (A) (A) (A) (A) (A) (A) (A) (A)
                 (A) (A) (A) (A) (A) (A) (A) (A) (A) (A) (A) (A)
                 (A) (A) (A) (A) (A) (A) (A) (A) (A) (A) (A) (A)
                 (A) (A) (A) (A) (A) (A) (A) (A) (A) (A) (A) (A)
                 (A) (A) (A) (A) (A) (A) (A) (A) (A) (A) (A) (A)
                 (A) (A) (A) (A) (A) (A) (A) (A) (A) (A) (A) (A)
                 (A) (A) (A) (A) (A) (A) (A) (A) (A) (A) (A) (A)
                 (A) (A) (A) (A) (A) (A) (A) (A) (A) (A) (A) (A)
                 (A) (A) (A) (A) (A) (A) (A) (A) (A) (A) (A) (A)
                 (A) (A) (A) (A) (A) (A) (A) (A) (A) (A) (A) (A)
                 (A) (A) (A) (A) (A) (A) (A) (A) (A) (A) (A) (A)
                 (A) (A) (A) (A) (A) (A) (A) (A) (A) (A) (A) (A)
                 (A) (A) (A) (A) (A) (A) (A) (A) (A) (A) (A) (A)
                 (A) (A) (A) (A) (A) (A) (A) (A) (A) (A) (A) (A)
                 (A) (A) (A) (A) (A) (A) (A) (A) (A) (A) (A) (A)
                 (A) (A) (A) (A) (A) (A) (A) (A) (A) (A) (A) (A)
                 (A) (A) (A) (A) (A) (A) (A) (A) (A) (A) (A) (A)
                 (A) (A) (A) (A) (A) (A) (A) (A) (A) (A) (A) (A)
                 (A) (A) (A) (A) (A) (A) (A) (A) (A) (A) (A)
 The electronic state is 1-A.
 Alpha  occ. eigenvalues --  -20.54457 -20.52781 -15.60971 -15.58436 -11.37747
 Alpha  occ. eigenvalues --  -11.35351 -11.29760 -11.26112 -11.25877 -11.23579
 Alpha  occ. eigenvalues --   -1.39717  -1.37865  -1.25030  -1.22182  -1.06047
 Alpha  occ. eigenvalues --   -1.00114  -0.95183  -0.88966  -0.79945  -0.77226
 Alpha  occ. eigenvalues --   -0.72050  -0.70266  -0.66040  -0.63543  -0.62598
 Alpha  occ. eigenvalues --   -0.61526  -0.59969  -0.58998  -0.57469  -0.56615
 Alpha  occ. eigenvalues --   -0.54591  -0.54091  -0.52642  -0.51890  -0.50651
 Alpha  occ. eigenvalues --   -0.44316  -0.43406  -0.39532  -0.38224
 Alpha virt. eigenvalues --    0.02584   0.04049   0.04272   0.04524   0.05724
 Alpha virt. eigenvalues --    0.05929   0.06472   0.06685   0.07787   0.07919
 Alpha virt. eigenvalues --    0.09090   0.09563   0.10886   0.11797   0.11898
 Alpha virt. eigenvalues --    0.13515   0.13983   0.14379   0.15053   0.15097
 Alpha virt. eigenvalues --    0.15436   0.15989   0.16269   0.16730   0.17178
 Alpha virt. eigenvalues --    0.17588   0.18261   0.18425   0.19095   0.19192
 Alpha virt. eigenvalues --    0.19351   0.19923   0.20373   0.21406   0.22379
 Alpha virt. eigenvalues --    0.23166   0.23771   0.24730   0.25274   0.25698
 Alpha virt. eigenvalues --    0.27369   0.28519   0.29495   0.29784   0.30655
 Alpha virt. eigenvalues --    0.31560   0.31603   0.31917   0.33018   0.33563
 Alpha virt. eigenvalues --    0.33925   0.35414   0.35579   0.35934   0.37092
 Alpha virt. eigenvalues --    0.37869   0.38115   0.38231   0.39078   0.40522
 Alpha virt. eigenvalues --    0.41107   0.41258   0.41905   0.42206   0.42527
 Alpha virt. eigenvalues --    0.43226   0.44546   0.44769   0.45930   0.46207
 Alpha virt. eigenvalues --    0.46381   0.46457   0.47480   0.48252   0.48736
 Alpha virt. eigenvalues --    0.49163   0.50191   0.50530   0.52033   0.52765
 Alpha virt. eigenvalues --    0.53289   0.54012   0.54901   0.55398   0.56105
 Alpha virt. eigenvalues --    0.56389   0.57295   0.57738   0.58112   0.59163
 Alpha virt. eigenvalues --    0.59730   0.60443   0.60661   0.61565   0.62987
 Alpha virt. eigenvalues --    0.63538   0.64416   0.64672   0.64880   0.65058
 Alpha virt. eigenvalues --    0.66096   0.66552   0.66983   0.68206   0.68600
 Alpha virt. eigenvalues --    0.69200   0.69605   0.70586   0.71411   0.72827
 Alpha virt. eigenvalues --    0.73348   0.73858   0.74474   0.74631   0.75426
 Alpha virt. eigenvalues --    0.76390   0.77337   0.78208   0.78556   0.79906
 Alpha virt. eigenvalues --    0.80616   0.81451   0.82332   0.82971   0.83833
 Alpha virt. eigenvalues --    0.84772   0.85112   0.86192   0.87039   0.88406
 Alpha virt. eigenvalues --    0.88664   0.89149   0.91242   0.92029   0.92798
 Alpha virt. eigenvalues --    0.93817   0.94620   0.95319   0.97304   0.98172
 Alpha virt. eigenvalues --    0.99950   1.01070   1.03259   1.03461   1.04579
 Alpha virt. eigenvalues --    1.05694   1.06760   1.08641   1.08792   1.12010
 Alpha virt. eigenvalues --    1.13252   1.14025   1.14524   1.14709   1.15476
 Alpha virt. eigenvalues --    1.17283   1.17474   1.19726   1.20935   1.21935
 Alpha virt. eigenvalues --    1.23624   1.24519   1.25619   1.26918   1.30029
 Alpha virt. eigenvalues --    1.32367   1.33556   1.36560   1.37923   1.38654
 Alpha virt. eigenvalues --    1.40900   1.41549   1.43467   1.45127   1.48333
 Alpha virt. eigenvalues --    1.49394   1.52015   1.52875   1.54042   1.54685
 Alpha virt. eigenvalues --    1.56604   1.57766   1.60092   1.63524   1.65718
 Alpha virt. eigenvalues --    1.66330   1.68984   1.70011   1.71621   1.72618
 Alpha virt. eigenvalues --    1.75403   1.77270   1.78028   1.79192   1.80186
 Alpha virt. eigenvalues --    1.82706   1.83666   1.84913   1.85514   1.88442
 Alpha virt. eigenvalues --    1.88667   1.90369   1.91099   1.92560   1.93535
 Alpha virt. eigenvalues --    1.96241   1.97937   1.99151   1.99793   2.01108
 Alpha virt. eigenvalues --    2.03338   2.04463   2.05695   2.07163   2.08402
 Alpha virt. eigenvalues --    2.11012   2.12274   2.14019   2.15539   2.16113
 Alpha virt. eigenvalues --    2.17929   2.19142   2.20646   2.22080   2.24418
 Alpha virt. eigenvalues --    2.25516   2.26461   2.27915   2.29106   2.30439
 Alpha virt. eigenvalues --    2.32430   2.33989   2.35405   2.36416   2.39462
 Alpha virt. eigenvalues --    2.39863   2.41688   2.42160   2.44693   2.46169
 Alpha virt. eigenvalues --    2.46511   2.48027   2.49936   2.50588   2.51538
 Alpha virt. eigenvalues --    2.52342   2.54325   2.57098   2.58514   2.62076
 Alpha virt. eigenvalues --    2.63531   2.64145   2.67239   2.69345   2.69501
 Alpha virt. eigenvalues --    2.71546   2.74687   2.75903   2.76957   2.78456
 Alpha virt. eigenvalues --    2.82051   2.82793   2.85151   2.87902   2.89765
 Alpha virt. eigenvalues --    2.91487   2.94001   2.95369   2.97656   2.98769
 Alpha virt. eigenvalues --    3.02427   3.02774   3.05353   3.06745   3.08418
 Alpha virt. eigenvalues --    3.10305   3.15211   3.19537   3.22517   3.24592
 Alpha virt. eigenvalues --    3.28086   3.37126   3.45719   3.46267   3.50580
 Alpha virt. eigenvalues --    3.63077   3.65442   3.77489   3.82485   3.83199
 Alpha virt. eigenvalues --    3.88061   3.93625   3.94723   3.98098   4.02664
 Alpha virt. eigenvalues --    4.06717   4.15464   4.21466   4.29297
          Condensed to atoms (all electrons):
              1          2          3          4          5          6
     1  H    0.765510   0.326923  -0.043615  -0.087948  -0.022802   0.024381
     2  C    0.326923   4.650440   0.357534   0.420160   0.141884  -0.059099
     3  H   -0.043615   0.357534   0.706468  -0.071249  -0.057272   0.011040
     4  H   -0.087948   0.420160  -0.071249   0.971157  -0.009169  -0.001051
     5  C   -0.022802   0.141884  -0.057272  -0.009169   5.417050   0.218102
     6  O    0.024381  -0.059099   0.011040  -0.001051   0.218102   8.691435
     7  N    0.040503  -0.013349   0.035240  -0.142184   0.140377  -0.130969
     8  H   -0.005237  -0.113138  -0.003844   0.016938  -0.121007   0.004554
     9  C    0.010069  -0.138832   0.004266  -0.011599  -0.260081   0.015013
    10  H    0.000674   0.000759   0.000246   0.000028  -0.002382   0.004286
    11  C   -0.000247  -0.002394   0.001662  -0.007554  -0.057126   0.009967
    12  H   -0.000293   0.002465   0.001832   0.000572   0.020991  -0.047448
    13  H    0.000039   0.007106   0.000144   0.000074  -0.017482   0.002876
    14  H   -0.000554  -0.006340  -0.001043   0.000275   0.024981   0.020689
    15  C   -0.003554  -0.012885   0.002761  -0.011730  -0.053984   0.039149
    16  O    0.000126   0.000954  -0.000001   0.000308   0.006802  -0.001295
    17  N   -0.000111  -0.009062  -0.001204   0.001467   0.030316  -0.019580
    18  H    0.001488  -0.005630  -0.002042  -0.000982  -0.037707   0.042949
    19  C   -0.000760  -0.000166   0.000149   0.000107  -0.003837   0.005810
    20  H   -0.000071  -0.000065   0.000039  -0.000162  -0.005859   0.001240
    21  H   -0.000153  -0.000228  -0.000006   0.000078  -0.003704   0.000680
    22  H    0.000260   0.001874   0.000028   0.000248   0.016771  -0.000544
              7          8          9         10         11         12
     1  H    0.040503  -0.005237   0.010069   0.000674  -0.000247  -0.000293
     2  C   -0.013349  -0.113138  -0.138832   0.000759  -0.002394   0.002465
     3  H    0.035240  -0.003844   0.004266   0.000246   0.001662   0.001832
     4  H   -0.142184   0.016938  -0.011599   0.000028  -0.007554   0.000572
     5  C    0.140377  -0.121007  -0.260081  -0.002382  -0.057126   0.020991
     6  O   -0.130969   0.004554   0.015013   0.004286   0.009967  -0.047448
     7  N    7.585446   0.253671  -0.599820  -0.050252   0.109240  -0.070921
     8  H    0.253671   0.981799   0.188756  -0.058754  -0.016712  -0.004003
     9  C   -0.599820   0.188756   8.785071  -0.599142  -0.017163   0.007696
    10  H   -0.050252  -0.058754  -0.599142   1.605684   0.016820   0.077186
    11  C    0.109240  -0.016712  -0.017163   0.016820   4.274389   0.279333
    12  H   -0.070921  -0.004003   0.007696   0.077186   0.279333   1.090562
    13  H    0.115400  -0.005477  -0.185789  -0.047692   0.422626  -0.234851
    14  H   -0.064751   0.007535   0.078575  -0.046945   0.169482  -0.181004
    15  C   -0.029722  -0.023330  -0.788060   0.242027  -0.005981   0.053155
    16  O   -0.004987  -0.005943   0.038947   0.022371   0.011254  -0.011293
    17  N   -0.003776   0.014840  -0.197151   0.048538   0.043740  -0.024884
    18  H    0.025228   0.002242   0.012574  -0.002214  -0.025693  -0.000042
    19  C   -0.017192   0.001705  -0.085387   0.018093  -0.014566   0.007380
    20  H   -0.005254   0.000164   0.025737   0.006829  -0.012955   0.002679
    21  H   -0.004087  -0.000810   0.000779  -0.000389   0.012704   0.001041
    22  H    0.010156   0.000322  -0.055241  -0.003323  -0.000579  -0.002086
             13         14         15         16         17         18
     1  H    0.000039  -0.000554  -0.003554   0.000126  -0.000111   0.001488
     2  C    0.007106  -0.006340  -0.012885   0.000954  -0.009062  -0.005630
     3  H    0.000144  -0.001043   0.002761  -0.000001  -0.001204  -0.002042
     4  H    0.000074   0.000275  -0.011730   0.000308   0.001467  -0.000982
     5  C   -0.017482   0.024981  -0.053984   0.006802   0.030316  -0.037707
     6  O    0.002876   0.020689   0.039149  -0.001295  -0.019580   0.042949
     7  N    0.115400  -0.064751  -0.029722  -0.004987  -0.003776   0.025228
     8  H   -0.005477   0.007535  -0.023330  -0.005943   0.014840   0.002242
     9  C   -0.185789   0.078575  -0.788060   0.038947  -0.197151   0.012574
    10  H   -0.047692  -0.046945   0.242027   0.022371   0.048538  -0.002214
    11  C    0.422626   0.169482  -0.005981   0.011254   0.043740  -0.025693
    12  H   -0.234851  -0.181004   0.053155  -0.011293  -0.024884  -0.000042
    13  H    1.251595  -0.177024  -0.056965   0.016143   0.004073   0.002485
    14  H   -0.177024   1.149586   0.067076  -0.003218   0.019611  -0.002658
    15  C   -0.056965   0.067076   5.371448   0.191735   0.245612  -0.079060
    16  O    0.016143  -0.003218   0.191735   8.686478  -0.124017   0.004598
    17  N    0.004073   0.019611   0.245612  -0.124017   7.154287   0.228832
    18  H    0.002485  -0.002658  -0.079060   0.004598   0.228832   1.049084
    19  C   -0.007777   0.004747  -0.022858  -0.016549   0.232590  -0.134713
    20  H   -0.002406   0.000052   0.005042  -0.004496  -0.068892  -0.002600
    21  H   -0.000699   0.000826  -0.027640   0.008131  -0.030449   0.005139
    22  H    0.000000   0.000452   0.001294   0.003858   0.013375  -0.010549
             19         20         21         22
     1  H   -0.000760  -0.000071  -0.000153   0.000260
     2  C   -0.000166  -0.000065  -0.000228   0.001874
     3  H    0.000149   0.000039  -0.000006   0.000028
     4  H    0.000107  -0.000162   0.000078   0.000248
     5  C   -0.003837  -0.005859  -0.003704   0.016771
     6  O    0.005810   0.001240   0.000680  -0.000544
     7  N   -0.017192  -0.005254  -0.004087   0.010156
     8  H    0.001705   0.000164  -0.000810   0.000322
     9  C   -0.085387   0.025737   0.000779  -0.055241
    10  H    0.018093   0.006829  -0.000389  -0.003323
    11  C   -0.014566  -0.012955   0.012704  -0.000579
    12  H    0.007380   0.002679   0.001041  -0.002086
    13  H   -0.007777  -0.002406  -0.000699   0.000000
    14  H    0.004747   0.000052   0.000826   0.000452
    15  C   -0.022858   0.005042  -0.027640   0.001294
    16  O   -0.016549  -0.004496   0.008131   0.003858
    17  N    0.232590  -0.068892  -0.030449   0.013375
    18  H   -0.134713  -0.002600   0.005139  -0.010549
    19  C    4.158023   0.478953   0.338989   0.332004
    20  H    0.478953   1.009768  -0.135123  -0.131899
    21  H    0.338989  -0.135123   1.079890  -0.144387
    22  H    0.332004  -0.131899  -0.144387   1.061100
 Mulliken atomic charges:
              1
     1  H   -0.004628
     2  C    0.451090
     3  H    0.058867
     4  H   -0.067782
     5  C    0.635135
     6  O   -0.832185
     7  N   -0.177997
     8  H   -0.114272
     9  C   -0.229216
    10  H   -0.232449
    11  C    0.809753
    12  H    0.031932
    13  H   -0.086399
    14  H   -0.060350
    15  C    0.896469
    16  O   -0.819906
    17  N   -0.558153
    18  H   -0.070727
    19  C    0.725256
    20  H   -0.160722
    21  H   -0.100583
    22  H   -0.093134
 Sum of Mulliken atomic charges =   0.00000
 Mulliken charges with hydrogens summed into heavy atoms:
              1
     2  C    0.437547
     5  C    0.635135
     6  O   -0.832185
     7  N   -0.292269
     9  C   -0.461665
    11  C    0.694936
    15  C    0.896469
    16  O   -0.819906
    17  N   -0.628880
    19  C    0.370818
 Sum of Mulliken charges with hydrogens summed into heavy atoms =   0.00000
 Electronic spatial extent (au):  <R**2>=           1734.5494
 Charge=              0.0000 electrons
 Dipole moment (field-independent basis, Debye):
    X=             -3.4198    Y=             -0.2894    Z=             -1.2012  Tot=              3.6362
 Quadrupole moment (field-independent basis, Debye-Ang):
   XX=            -63.1844   YY=            -59.2856   ZZ=            -63.2342
   XY=             -8.5376   XZ=             12.2200   YZ=              3.0884
 Traceless Quadrupole moment (field-independent basis, Debye-Ang):
   XX=             -1.2830   YY=              2.6158   ZZ=             -1.3328
   XY=             -8.5376   XZ=             12.2200   YZ=              3.0884
 Octapole moment (field-independent basis, Debye-Ang**2):
  XXX=            -38.0406  YYY=             -3.2310  ZZZ=             -7.1597  XYY=             -0.7711
  XXY=            -18.5888  XXZ=             -0.1989  XZZ=             -3.4155  YZZ=              2.2448
  YYZ=              0.8742  XYZ=              1.0441
 Hexadecapole moment (field-independent basis, Debye-Ang**3):
 XXXX=          -1429.4971 YYYY=           -498.3206 ZZZZ=           -294.7726 XXXY=            -40.5274
 XXXZ=             49.4678 YYYX=             -3.7273 YYYZ=             -2.2341 ZZZX=             19.8197
 ZZZY=             -6.8193 XXYY=           -327.2527 XXZZ=           -314.7220 YYZZ=           -135.9018
 XXYZ=             20.9557 YYXZ=             10.3043 ZZXY=            -13.1068
 N-N= 5.592598889840D+02 E-N=-2.273713442297D+03  KE= 4.920692878459D+02
 1\1\GINC-NODE007\SP\RMP2-FC\Aug-CC-pVDZ\C6H12N2O2\MANAGER\12-Feb-2017\
 0\\#SP MP2/aug-cc-pVDZ\\Single Point calculation at MP2\\0,1\H,0,-3.61
 65,-1.6112,-0.3953\C,0,-3.2285,-0.6491,-0.7353\H,0,-3.9607,0.1237,-0.4
 716\H,0,-3.1251,-0.6622,-1.8254\C,0,-1.9177,-0.3657,-0.0166\O,0,-1.692
 2,-0.7893,1.1154\N,0,-0.9974,0.3532,-0.7306\H,0,-1.2837,0.6487,-1.654\
 C,0,0.1082,1.1482,-0.1555\H,0,0.2021,2.023,-0.8053\C,0,-0.1058,1.6523,
 1.2765\H,0,-0.167,0.8424,2.002\H,0,0.7333,2.3069,1.5347\H,0,-1.0293,2.
 2378,1.3391\C,0,1.4522,0.4121,-0.3462\O,0,2.3826,0.9209,-0.9605\N,0,1.
 492,-0.8121,0.2497\H,0,0.6475,-1.141,0.7063\C,0,2.6498,-1.6831,0.1809\
 H,0,3.4432,-1.1344,-0.329\H,0,2.992,-1.9616,1.1845\H,0,2.4305,-2.5994,
 -0.3815\\Version=EM64L-G09RevA.02\State=1-A\HF=-492.919822\MP2=-494.52
 25588\RMSD=7.517e-09\PG=C01 [X(C6H12N2O2)]\\@


    UPON JULIA'S CLOTHES

 WHENAS IN SILKS MY JULIA GOES,
 THEN, THEN, METHINKS, HOW SWEETLY FLOWS
 THAT LIQUEFACTION OF HER CLOTHES.

 NEXT, WHEN I CAST MINE EYES, AND SEE
 THAT BRAVE VIBRATION, EACH WAY FREE,
 O, HOW THAT GLITTERING TAKETH ME!
     -- ROBERT HERRICK, 1648
 Job cpu time:  0 days  7 hours 37 minutes 57.1 seconds.
 File lengths (MBytes):  RWF=  10600 Int=      0 D2E=      0 Chk=      7 Scr=      2
 Normal termination of Gaussian 09 at Sun Feb 12 15:02:05 2017.
