 Entering Gaussian System, Link 0=g09
 Initial command:
 /home/steboss/Software/g09/l1.exe /home/steboss/projects/phi_psi_scan/alanine/MP2/300/5544/Gau-22241.inp -scrdir=/home/steboss/projects/phi_psi_scan/alanine/MP2/300/5544/
 Entering Link 1 = /home/steboss/Software/g09/l1.exe PID=     22245.
  
 Copyright (c) 1988,1990,1992,1993,1995,1998,2003,2009, Gaussian, Inc.
                  All Rights Reserved.
  
 This is part of the Gaussian(R) 09 program.  It is based on
 the Gaussian(R) 03 system (copyright 2003, Gaussian, Inc.),
 the Gaussian(R) 98 system (copyright 1998, Gaussian, Inc.),
 the Gaussian(R) 94 system (copyright 1995, Gaussian, Inc.),
 the Gaussian 92(TM) system (copyright 1992, Gaussian, Inc.),
 the Gaussian 90(TM) system (copyright 1990, Gaussian, Inc.),
 the Gaussian 88(TM) system (copyright 1988, Gaussian, Inc.),
 the Gaussian 86(TM) system (copyright 1986, Carnegie Mellon
 University), and the Gaussian 82(TM) system (copyright 1983,
 Carnegie Mellon University). Gaussian is a federally registered
 trademark of Gaussian, Inc.
  
 This software contains proprietary and confidential information,
 including trade secrets, belonging to Gaussian, Inc.
  
 This software is provided under written license and may be
 used, copied, transmitted, or stored only in accord with that
 written license.
  
 The following legend is applicable only to US Government
 contracts under FAR:
  
                    RESTRICTED RIGHTS LEGEND
  
 Use, reproduction and disclosure by the US Government is
 subject to restrictions as set forth in subparagraphs (a)
 and (c) of the Commercial Computer Software - Restricted
 Rights clause in FAR 52.227-19.
  
 Gaussian, Inc.
 340 Quinnipiac St., Bldg. 40, Wallingford CT 06492
  
  
 ---------------------------------------------------------------
 Warning -- This program may not be used in any manner that
 competes with the business of Gaussian, Inc. or will provide
 assistance to any competitor of Gaussian, Inc.  The licensee
 of this program is prohibited from giving any competitor of
 Gaussian, Inc. access to this program.  By using this program,
 the user acknowledges that Gaussian, Inc. is engaged in the
 business of creating and licensing software in the field of
 computational chemistry and represents and warrants to the
 licensee that it is not a competitor of Gaussian, Inc. and that
 it will not use this program in any manner prohibited above.
 ---------------------------------------------------------------
  

 Cite this work as:
 Gaussian 09, Revision A.02,
 M. J. Frisch, G. W. Trucks, H. B. Schlegel, G. E. Scuseria, 
 M. A. Robb, J. R. Cheeseman, G. Scalmani, V. Barone, B. Mennucci, 
 G. A. Petersson, H. Nakatsuji, M. Caricato, X. Li, H. P. Hratchian, 
 A. F. Izmaylov, J. Bloino, G. Zheng, J. L. Sonnenberg, M. Hada, 
 M. Ehara, K. Toyota, R. Fukuda, J. Hasegawa, M. Ishida, T. Nakajima, 
 Y. Honda, O. Kitao, H. Nakai, T. Vreven, J. A. Montgomery, Jr., 
 J. E. Peralta, F. Ogliaro, M. Bearpark, J. J. Heyd, E. Brothers, 
 K. N. Kudin, V. N. Staroverov, R. Kobayashi, J. Normand, 
 K. Raghavachari, A. Rendell, J. C. Burant, S. S. Iyengar, J. Tomasi, 
 M. Cossi, N. Rega, J. M. Millam, M. Klene, J. E. Knox, J. B. Cross, 
 V. Bakken, C. Adamo, J. Jaramillo, R. Gomperts, R. E. Stratmann, 
 O. Yazyev, A. J. Austin, R. Cammi, C. Pomelli, J. W. Ochterski, 
 R. L. Martin, K. Morokuma, V. G. Zakrzewski, G. A. Voth, 
 P. Salvador, J. J. Dannenberg, S. Dapprich, A. D. Daniels, 
 O. Farkas, J. B. Foresman, J. V. Ortiz, J. Cioslowski, 
 and D. J. Fox, Gaussian, Inc., Wallingford CT, 2009.
 
 ******************************************
 Gaussian 09:  EM64L-G09RevA.02 11-Jun-2009
                13-Feb-2017 
 ******************************************
 %chk=structure_15.chk
 %NProcShared=8
 Will use up to    8 processors via shared memory.
 -------------------
 #SP MP2/aug-cc-pVDZ
 -------------------
 1/38=1/1;
 2/12=2,17=6,18=5,40=1/2;
 3/5=16,7=10,11=9,16=1,25=1,30=1/1,2,3;
 4//1;
 5/5=2,38=5/2;
 8/10=1/1;
 9/16=-3/6;
 6/7=2,8=2,9=2,10=2/1;
 99/5=1,9=1/99;
 -------------------------------
 Single Point calculation at MP2
 -------------------------------
 Symbolic Z-matrix:
 Charge =  0 Multiplicity = 1
 H                     4.0034   -0.4716    0.3364 
 C                     3.259    -0.459    -0.466 
 H                     3.3386   -1.4119   -0.9976 
 H                     3.4967    0.357    -1.1552 
 C                     1.8764   -0.3611    0.1601 
 O                     1.4589   -1.2336    0.9246 
 N                     1.1566    0.7442   -0.168 
 H                     1.5504    1.3571   -0.8684 
 C                    -0.1669    1.1385    0.3393 
 H                    -0.0826    1.2046    1.4339 
 C                    -0.4995    2.5293   -0.2058 
 H                    -0.5423    2.518    -1.302 
 H                    -1.4787    2.8341    0.163 
 H                     0.2524    3.2598    0.1119 
 C                    -1.3713    0.1823    0.1064 
 O                    -2.5063    0.6299    0.2421 
 N                    -1.1132   -1.0971   -0.2705 
 H                    -0.2107   -1.4696    0.0166 
 C                    -2.2198   -2.0371   -0.3876 
 H                    -3.0081   -1.593    -0.9987 
 H                    -1.8574   -2.9486   -0.8699 
 H                    -2.6534   -2.2939    0.5879 
 
                          Input orientation:                          
 ---------------------------------------------------------------------
 Center     Atomic      Atomic             Coordinates (Angstroms)
 Number     Number       Type             X           Y           Z
 ---------------------------------------------------------------------
      1          1           0        4.003400   -0.471600    0.336400
      2          6           0        3.259000   -0.459000   -0.466000
      3          1           0        3.338600   -1.411900   -0.997600
      4          1           0        3.496700    0.357000   -1.155200
      5          6           0        1.876400   -0.361100    0.160100
      6          8           0        1.458900   -1.233600    0.924600
      7          7           0        1.156600    0.744200   -0.168000
      8          1           0        1.550400    1.357100   -0.868400
      9          6           0       -0.166900    1.138500    0.339300
     10          1           0       -0.082600    1.204600    1.433900
     11          6           0       -0.499500    2.529300   -0.205800
     12          1           0       -0.542300    2.518000   -1.302000
     13          1           0       -1.478700    2.834100    0.163000
     14          1           0        0.252400    3.259800    0.111900
     15          6           0       -1.371300    0.182300    0.106400
     16          8           0       -2.506300    0.629900    0.242100
     17          7           0       -1.113200   -1.097100   -0.270500
     18          1           0       -0.210700   -1.469600    0.016600
     19          6           0       -2.219800   -2.037100   -0.387600
     20          1           0       -3.008100   -1.593000   -0.998700
     21          1           0       -1.857400   -2.948600   -0.869900
     22          1           0       -2.653400   -2.293900    0.587900
 ---------------------------------------------------------------------
                    Distance matrix (angstroms):
                    1          2          3          4          5
     1  H    0.000000
     2  C    1.094594   0.000000
     3  H    1.762294   1.094054   0.000000
     4  H    1.779942   1.094237   1.782930   0.000000
     5  C    2.137153   1.520910   2.140673   2.207046   0.000000
     6  O    2.720497   2.402943   2.694423   3.317862   1.232892
     7  N    3.136377   2.440611   3.177755   2.569155   1.359209
     8  H    3.288297   2.525759   3.298744   2.206930   2.028867
     9  C    4.470328   3.864881   4.536559   4.033142   2.540864
    10  H    4.550775   4.188493   4.945996   4.498139   2.812768
    11  C    5.438335   4.808738   5.557969   4.646489   3.759414
    12  H    5.682029   4.900133   5.531560   4.583120   4.034484
    13  H    6.403994   5.803960   6.525480   5.712117   4.633142
    14  H    5.295635   4.816958   5.707924   4.534013   3.968705
    15  C    5.419214   4.709415   5.093471   5.031856   3.293284
    16  O    6.602908   5.909805   6.314163   6.169516   4.494092
    17  N    5.190296   4.422841   4.521758   4.914090   3.108829
    18  H    4.342455   3.645961   3.691810   4.295858   2.367562
    19  C    6.457800   5.702087   5.626614   6.244942   4.459575
    20  H    7.225037   6.391108   6.349283   6.792600   5.169017
    21  H    6.476084   5.704278   5.419979   6.298791   4.658038
    22  H    6.906303   6.279653   6.260655   6.920217   4.943462
                    6          7          8          9         10
     6  O    0.000000
     7  N    2.279661   0.000000
     8  H    3.151975   1.010586   0.000000
     9  C    2.934733   1.471217   2.110792   0.000000
    10  H    2.929237   2.076937   2.826753   1.099829   0.000000
    11  C    4.390051   2.435298   2.452587   1.530386   2.148779
    12  H    4.799693   2.705288   2.432096   2.176651   3.069445
    13  H    5.075009   3.379652   3.524310   2.151037   2.493903
    14  H    4.723004   2.687781   2.503210   2.174267   2.466527
    15  C    3.268678   2.604094   3.296471   1.555359   2.113788
    16  O    4.434101   3.687558   4.268354   2.396020   2.761338
    17  N    2.839471   2.924531   3.670878   2.503048   3.043836
    18  H    1.915130   2.608543   3.446002   2.628353   3.029273
    19  C    3.987520   4.379946   5.095701   3.850613   4.288835
    20  H    4.876714   4.847401   5.431389   4.162181   4.722569
    21  H    4.142379   4.818053   5.491098   4.585231   5.070156
    22  H    4.260119   4.931281   5.755219   4.245687   4.423147
                   11         12         13         14         15
    11  C    0.000000
    12  H    1.097093   0.000000
    13  H    1.089839   1.767198   0.000000
    14  H    1.095407   1.783516   1.783407   0.000000
    15  C    2.523076   2.850671   2.654577   3.479574   0.000000
    16  O    2.799211   3.131527   2.433252   3.813627   1.227593
    17  N    3.678531   3.802482   3.971882   4.581885   1.358504
    18  H    4.015479   4.213030   4.488997   4.752975   2.020849
    19  C    4.883082   4.939541   4.957921   5.866722   2.426875
    20  H    4.890309   4.803382   4.825746   5.950963   2.655570
    21  H    5.682632   5.639141   5.886418   6.630190   3.315417
    22  H    5.341582   5.584160   5.277958   6.286003   2.829698
                   16         17         18         19         20
    16  O    0.000000
    17  N    2.277282   0.000000
    18  H    3.119059   1.017688   0.000000
    19  C    2.755266   1.456666   2.126480   0.000000
    20  H    2.594739   2.089698   2.978508   1.091826   0.000000
    21  H    3.803062   2.083547   2.384312   1.093060   1.782793
    22  H    2.947850   2.131055   2.640575   1.097978   1.770416
                   21         22
    21  H    0.000000
    22  H    1.785337   0.000000
 Stoichiometry    C6H12N2O2
 Framework group  C1[X(C6H12N2O2)]
 Deg. of freedom    60
 Full point group                 C1      NOp   1
 Largest Abelian subgroup         C1      NOp   1
 Largest concise Abelian subgroup C1      NOp   1
                         Standard orientation:                         
 ---------------------------------------------------------------------
 Center     Atomic      Atomic             Coordinates (Angstroms)
 Number     Number       Type             X           Y           Z
 ---------------------------------------------------------------------
      1          1           0        4.003396   -0.471596    0.336395
      2          6           0        3.258996   -0.458996   -0.466005
      3          1           0        3.338595   -1.411896   -0.997605
      4          1           0        3.496696    0.357004   -1.155205
      5          6           0        1.876396   -0.361095    0.160095
      6          8           0        1.458895   -1.233595    0.924595
      7          7           0        1.156597    0.744206   -0.168005
      8          1           0        1.550397    1.357105   -0.868405
      9          6           0       -0.166903    1.138507    0.339295
     10          1           0       -0.082603    1.204606    1.433895
     11          6           0       -0.499502    2.529307   -0.205805
     12          1           0       -0.542302    2.518007   -1.302005
     13          1           0       -1.478702    2.834107    0.162995
     14          1           0        0.252398    3.259806    0.111895
     15          6           0       -1.371304    0.182307    0.106395
     16          8           0       -2.506303    0.629908    0.242095
     17          7           0       -1.113205   -1.097093   -0.270505
     18          1           0       -0.210705   -1.469593    0.016595
     19          6           0       -2.219805   -2.037092   -0.387605
     20          1           0       -3.008105   -1.592992   -0.998705
     21          1           0       -1.857406   -2.948592   -0.869905
     22          1           0       -2.653405   -2.293892    0.587895
 ---------------------------------------------------------------------
 Rotational constants (GHZ):      1.7853088      0.9684302      0.6817191
 Standard basis: Aug-CC-pVDZ (5D, 7F)
 There are   338 symmetry adapted basis functions of A   symmetry.
 Integral buffers will be    131072 words long.
 Raffenetti 1 integral format.
 Two-electron integral symmetry is turned on.
   338 basis functions,   562 primitive gaussians,   358 cartesian basis functions
    39 alpha electrons       39 beta electrons
       nuclear repulsion energy       559.7469960710 Hartrees.
 NAtoms=   22 NActive=   22 NUniq=   22 SFac= 7.50D-01 NAtFMM=   80 NAOKFM=F Big=F
 One-electron integrals computed using PRISM.
 NBasis=   338 RedAO= T  NBF=   338
 NBsUse=   338 1.00D-06 NBFU=   338
 Harris functional with IExCor=  205 diagonalized for initial guess.
 ExpMin= 2.97D-02 ExpMax= 1.17D+04 ExpMxC= 4.01D+02 IAcc=3 IRadAn=         0 AccDes= 0.00D+00
 HarFok:  IExCor=  205 AccDes= 0.00D+00 IRadAn=         0 IDoV= 1
 ScaDFX=  1.000000  1.000000  1.000000  1.000000
 FoFCou: FMM=F IPFlag=           0 FMFlag=      100000 FMFlg1=           0
         NFxFlg=           0 DoJE=T BraDBF=F KetDBF=T FulRan=T
         Omega=  0.000000  0.000000  1.000000  0.000000  0.000000 ICntrl=     500 IOpCl=  0
         NMat0=    1 NMatS0=    1 NMatT0=    0 NMatD0=    1 NMtDS0=    0 NMtDT0=    0
         I1Cent=           4 NGrid=           0.
 Petite list used in FoFCou.
 Initial guess orbital symmetries:
       Occupied  (A) (A) (A) (A) (A) (A) (A) (A) (A) (A) (A) (A)
                 (A) (A) (A) (A) (A) (A) (A) (A) (A) (A) (A) (A)
                 (A) (A) (A) (A) (A) (A) (A) (A) (A) (A) (A) (A)
                 (A) (A) (A)
       Virtual   (A) (A) (A) (A) (A) (A) (A) (A) (A) (A) (A) (A)
                 (A) (A) (A) (A) (A) (A) (A) (A) (A) (A) (A) (A)
                 (A) (A) (A) (A) (A) (A) (A) (A) (A) (A) (A) (A)
                 (A) (A) (A) (A) (A) (A) (A) (A) (A) (A) (A) (A)
                 (A) (A) (A) (A) (A) (A) (A) (A) (A) (A) (A) (A)
                 (A) (A) (A) (A) (A) (A) (A) (A) (A) (A) (A) (A)
                 (A) (A) (A) (A) (A) (A) (A) (A) (A) (A) (A) (A)
                 (A) (A) (A) (A) (A) (A) (A) (A) (A) (A) (A) (A)
                 (A) (A) (A) (A) (A) (A) (A) (A) (A) (A) (A) (A)
                 (A) (A) (A) (A) (A) (A) (A) (A) (A) (A) (A) (A)
                 (A) (A) (A) (A) (A) (A) (A) (A) (A) (A) (A) (A)
                 (A) (A) (A) (A) (A) (A) (A) (A) (A) (A) (A) (A)
                 (A) (A) (A) (A) (A) (A) (A) (A) (A) (A) (A) (A)
                 (A) (A) (A) (A) (A) (A) (A) (A) (A) (A) (A) (A)
                 (A) (A) (A) (A) (A) (A) (A) (A) (A) (A) (A) (A)
                 (A) (A) (A) (A) (A) (A) (A) (A) (A) (A) (A) (A)
                 (A) (A) (A) (A) (A) (A) (A) (A) (A) (A) (A) (A)
                 (A) (A) (A) (A) (A) (A) (A) (A) (A) (A) (A) (A)
                 (A) (A) (A) (A) (A) (A) (A) (A) (A) (A) (A) (A)
                 (A) (A) (A) (A) (A) (A) (A) (A) (A) (A) (A) (A)
                 (A) (A) (A) (A) (A) (A) (A) (A) (A) (A) (A) (A)
                 (A) (A) (A) (A) (A) (A) (A) (A) (A) (A) (A) (A)
                 (A) (A) (A) (A) (A) (A) (A) (A) (A) (A) (A) (A)
                 (A) (A) (A) (A) (A) (A) (A) (A) (A) (A) (A) (A)
                 (A) (A) (A) (A) (A) (A) (A) (A) (A) (A) (A)
 The electronic state of the initial guess is 1-A.
 Requested convergence on RMS density matrix=1.00D-08 within 128 cycles.
 Requested convergence on MAX density matrix=1.00D-06.
 Requested convergence on             energy=1.00D-06.
 No special actions if energy rises.
 Initial convergence to 1.0D-05 achieved.  Increase integral accuracy.
 SCF Done:  E(RHF) =  -492.922620433     A.U. after   14 cycles
             Convg  =    0.7245D-08             -V/T =  2.0017
 ExpMin= 2.97D-02 ExpMax= 1.17D+04 ExpMxC= 4.01D+02 IAcc=3 IRadAn=         5 AccDes= 0.00D+00
 HarFok:  IExCor=  205 AccDes= 0.00D+00 IRadAn=         5 IDoV=-2
 ScaDFX=  1.000000  1.000000  1.000000  1.000000
 Range of M.O.s used for correlation:    11   338
 NBasis=   338 NAE=    39 NBE=    39 NFC=    10 NFV=     0
 NROrb=    328 NOA=    29 NOB=    29 NVA=   299 NVB=   299

 **** Warning!!: The largest alpha MO coefficient is  0.56166750D+02

 Disk-based method using OVN memory for 29 occupieds at a time.
 Estimated scratch disk usage=  1387846243 words.
 Actual    scratch disk usage=  1375030963 words.
 JobTyp=1 Pass  1:  I=   1 to  29 NPSUse=  8 ParTrn=T ParDer=T DoDerP=F.
 Spin components of T(2) and E(2):
     alpha-alpha T2 =       0.6812787933D-01 E2=     -0.2063181193D+00
     alpha-beta  T2 =       0.3766952887D+00 E2=     -0.1190861968D+01
     beta-beta   T2 =       0.6812787933D-01 E2=     -0.2063181193D+00
 ANorm=    0.1230020751D+01
 E2 =    -0.1603498207D+01 EUMP2 =    -0.49452611863924D+03

 **********************************************************************

            Population analysis using the SCF density.

 **********************************************************************

 Orbital symmetries:
       Occupied  (A) (A) (A) (A) (A) (A) (A) (A) (A) (A) (A) (A)
                 (A) (A) (A) (A) (A) (A) (A) (A) (A) (A) (A) (A)
                 (A) (A) (A) (A) (A) (A) (A) (A) (A) (A) (A) (A)
                 (A) (A) (A)
       Virtual   (A) (A) (A) (A) (A) (A) (A) (A) (A) (A) (A) (A)
                 (A) (A) (A) (A) (A) (A) (A) (A) (A) (A) (A) (A)
                 (A) (A) (A) (A) (A) (A) (A) (A) (A) (A) (A) (A)
                 (A) (A) (A) (A) (A) (A) (A) (A) (A) (A) (A) (A)
                 (A) (A) (A) (A) (A) (A) (A) (A) (A) (A) (A) (A)
                 (A) (A) (A) (A) (A) (A) (A) (A) (A) (A) (A) (A)
                 (A) (A) (A) (A) (A) (A) (A) (A) (A) (A) (A) (A)
                 (A) (A) (A) (A) (A) (A) (A) (A) (A) (A) (A) (A)
                 (A) (A) (A) (A) (A) (A) (A) (A) (A) (A) (A) (A)
                 (A) (A) (A) (A) (A) (A) (A) (A) (A) (A) (A) (A)
                 (A) (A) (A) (A) (A) (A) (A) (A) (A) (A) (A) (A)
                 (A) (A) (A) (A) (A) (A) (A) (A) (A) (A) (A) (A)
                 (A) (A) (A) (A) (A) (A) (A) (A) (A) (A) (A) (A)
                 (A) (A) (A) (A) (A) (A) (A) (A) (A) (A) (A) (A)
                 (A) (A) (A) (A) (A) (A) (A) (A) (A) (A) (A) (A)
                 (A) (A) (A) (A) (A) (A) (A) (A) (A) (A) (A) (A)
                 (A) (A) (A) (A) (A) (A) (A) (A) (A) (A) (A) (A)
                 (A) (A) (A) (A) (A) (A) (A) (A) (A) (A) (A) (A)
                 (A) (A) (A) (A) (A) (A) (A) (A) (A) (A) (A) (A)
                 (A) (A) (A) (A) (A) (A) (A) (A) (A) (A) (A) (A)
                 (A) (A) (A) (A) (A) (A) (A) (A) (A) (A) (A) (A)
                 (A) (A) (A) (A) (A) (A) (A) (A) (A) (A) (A) (A)
                 (A) (A) (A) (A) (A) (A) (A) (A) (A) (A) (A) (A)
                 (A) (A) (A) (A) (A) (A) (A) (A) (A) (A) (A) (A)
                 (A) (A) (A) (A) (A) (A) (A) (A) (A) (A) (A)
 The electronic state is 1-A.
 Alpha  occ. eigenvalues --  -20.54629 -20.52504 -15.61557 -15.57664 -11.38144
 Alpha  occ. eigenvalues --  -11.35336 -11.30110 -11.26096 -11.25616 -11.24089
 Alpha  occ. eigenvalues --   -1.40115  -1.37787  -1.25499  -1.21785  -1.06341
 Alpha  occ. eigenvalues --   -1.00226  -0.95065  -0.87688  -0.81798  -0.77334
 Alpha  occ. eigenvalues --   -0.72039  -0.69556  -0.67675  -0.63417  -0.62101
 Alpha  occ. eigenvalues --   -0.62028  -0.59609  -0.58842  -0.58231  -0.55159
 Alpha  occ. eigenvalues --   -0.54277  -0.54032  -0.53288  -0.52228  -0.49581
 Alpha  occ. eigenvalues --   -0.44513  -0.43913  -0.40056  -0.38081
 Alpha virt. eigenvalues --    0.02404   0.03967   0.04328   0.04549   0.05871
 Alpha virt. eigenvalues --    0.06089   0.06426   0.06588   0.07286   0.07970
 Alpha virt. eigenvalues --    0.09193   0.10035   0.11318   0.11660   0.12620
 Alpha virt. eigenvalues --    0.13051   0.13813   0.14734   0.15051   0.15390
 Alpha virt. eigenvalues --    0.15852   0.16408   0.16452   0.16793   0.17463
 Alpha virt. eigenvalues --    0.18081   0.18306   0.18364   0.18720   0.18937
 Alpha virt. eigenvalues --    0.19759   0.20307   0.20488   0.21026   0.22026
 Alpha virt. eigenvalues --    0.23529   0.24565   0.25146   0.26145   0.26379
 Alpha virt. eigenvalues --    0.26482   0.28327   0.28774   0.29827   0.30649
 Alpha virt. eigenvalues --    0.31564   0.32117   0.32452   0.33339   0.34017
 Alpha virt. eigenvalues --    0.34427   0.34664   0.34977   0.36050   0.36856
 Alpha virt. eigenvalues --    0.37766   0.37887   0.39034   0.39226   0.40182
 Alpha virt. eigenvalues --    0.40441   0.40955   0.41945   0.42348   0.42723
 Alpha virt. eigenvalues --    0.43134   0.43715   0.44909   0.45231   0.45955
 Alpha virt. eigenvalues --    0.46780   0.47069   0.47911   0.48564   0.49417
 Alpha virt. eigenvalues --    0.50180   0.50521   0.51479   0.51683   0.52192
 Alpha virt. eigenvalues --    0.52531   0.53513   0.54418   0.55125   0.55571
 Alpha virt. eigenvalues --    0.56729   0.57048   0.57566   0.58315   0.58589
 Alpha virt. eigenvalues --    0.59277   0.60119   0.60755   0.61728   0.62061
 Alpha virt. eigenvalues --    0.62538   0.63874   0.64372   0.64688   0.65131
 Alpha virt. eigenvalues --    0.65927   0.66433   0.66790   0.67507   0.68123
 Alpha virt. eigenvalues --    0.69437   0.69726   0.70154   0.71228   0.71758
 Alpha virt. eigenvalues --    0.71985   0.73267   0.73840   0.74523   0.76017
 Alpha virt. eigenvalues --    0.76529   0.77430   0.78098   0.78148   0.79647
 Alpha virt. eigenvalues --    0.80252   0.81445   0.82229   0.83027   0.84061
 Alpha virt. eigenvalues --    0.84438   0.85343   0.87082   0.87886   0.88014
 Alpha virt. eigenvalues --    0.89798   0.90770   0.91654   0.92363   0.93088
 Alpha virt. eigenvalues --    0.94121   0.94553   0.97266   0.98398   1.00235
 Alpha virt. eigenvalues --    1.00812   1.01568   1.03224   1.04720   1.06094
 Alpha virt. eigenvalues --    1.06637   1.07634   1.09026   1.10628   1.11033
 Alpha virt. eigenvalues --    1.12820   1.13284   1.14381   1.16413   1.16759
 Alpha virt. eigenvalues --    1.17126   1.19741   1.20027   1.21140   1.23451
 Alpha virt. eigenvalues --    1.23957   1.26435   1.27105   1.28737   1.31212
 Alpha virt. eigenvalues --    1.33034   1.33568   1.34825   1.36494   1.38052
 Alpha virt. eigenvalues --    1.39234   1.42101   1.42679   1.44654   1.45999
 Alpha virt. eigenvalues --    1.48674   1.49795   1.50350   1.50899   1.54572
 Alpha virt. eigenvalues --    1.56471   1.58772   1.60949   1.61930   1.64356
 Alpha virt. eigenvalues --    1.65999   1.69223   1.69730   1.71620   1.72619
 Alpha virt. eigenvalues --    1.73995   1.75896   1.76698   1.79469   1.82126
 Alpha virt. eigenvalues --    1.84250   1.84959   1.85780   1.86227   1.88211
 Alpha virt. eigenvalues --    1.88672   1.90109   1.91234   1.91879   1.93058
 Alpha virt. eigenvalues --    1.94972   1.96856   1.98190   2.00176   2.01571
 Alpha virt. eigenvalues --    2.01906   2.04930   2.05668   2.08678   2.09571
 Alpha virt. eigenvalues --    2.11472   2.11904   2.13831   2.15364   2.17173
 Alpha virt. eigenvalues --    2.19318   2.20097   2.20597   2.22122   2.23349
 Alpha virt. eigenvalues --    2.25260   2.26340   2.28519   2.29532   2.29667
 Alpha virt. eigenvalues --    2.30175   2.32071   2.34503   2.36461   2.36897
 Alpha virt. eigenvalues --    2.39506   2.40278   2.43419   2.44790   2.45002
 Alpha virt. eigenvalues --    2.45735   2.48501   2.49212   2.50628   2.51939
 Alpha virt. eigenvalues --    2.53474   2.54324   2.55676   2.58322   2.61367
 Alpha virt. eigenvalues --    2.63119   2.65483   2.65805   2.67856   2.68198
 Alpha virt. eigenvalues --    2.69147   2.73024   2.75907   2.78261   2.80184
 Alpha virt. eigenvalues --    2.82583   2.84838   2.86296   2.87951   2.88764
 Alpha virt. eigenvalues --    2.90078   2.91794   2.94674   2.96365   2.97264
 Alpha virt. eigenvalues --    2.98075   3.01214   3.05011   3.09477   3.11088
 Alpha virt. eigenvalues --    3.12645   3.14520   3.18201   3.20143   3.23482
 Alpha virt. eigenvalues --    3.32311   3.38351   3.44807   3.51635   3.55353
 Alpha virt. eigenvalues --    3.61770   3.63876   3.76954   3.84320   3.85760
 Alpha virt. eigenvalues --    3.87564   3.89137   3.94982   3.95754   3.97975
 Alpha virt. eigenvalues --    4.03786   4.12952   4.21396   4.22821
          Condensed to atoms (all electrons):
              1          2          3          4          5          6
     1  H    0.716037   0.404566  -0.045030  -0.075647  -0.092843   0.006004
     2  C    0.404566   4.561622   0.330159   0.351301   0.215077  -0.037901
     3  H   -0.045030   0.330159   0.722201  -0.072870  -0.088339   0.022252
     4  H   -0.075647   0.351301  -0.072870   1.104679   0.159687  -0.012227
     5  C   -0.092843   0.215077  -0.088339   0.159687   5.594359   0.154103
     6  O    0.006004  -0.037901   0.022252  -0.012227   0.154103   8.814614
     7  N    0.042826  -0.050821   0.071630  -0.227286   0.046466  -0.120893
     8  H   -0.005433  -0.053267  -0.002084   0.005135  -0.070269  -0.015282
     9  C   -0.008474  -0.068323   0.011786  -0.056394  -0.329613   0.084920
    10  H   -0.001133   0.002493   0.000455  -0.001157   0.010195   0.013803
    11  C    0.001050  -0.019868  -0.001458  -0.000391   0.014454  -0.006171
    12  H   -0.000050  -0.007889  -0.000574  -0.000697  -0.008899   0.000527
    13  H    0.000156   0.002095   0.000147   0.000185   0.002475  -0.001308
    14  H   -0.000382   0.000982  -0.000229   0.001055   0.003052   0.001459
    15  C    0.004288  -0.003729   0.000412  -0.011687  -0.169358   0.011775
    16  O   -0.000122   0.001137   0.000115   0.000184   0.000942   0.000248
    17  N   -0.002665   0.008324   0.004128   0.001453   0.016455  -0.042171
    18  H   -0.004288   0.000879   0.001989   0.001440   0.041155   0.037809
    19  C    0.000237   0.001418  -0.000227  -0.000409   0.014991  -0.002240
    20  H   -0.000006   0.000942   0.000309  -0.000158  -0.001763  -0.000477
    21  H    0.000233  -0.001116  -0.000547  -0.000107   0.014499   0.000131
    22  H    0.000015  -0.000516  -0.000051   0.000018  -0.004343   0.000348
              7          8          9         10         11         12
     1  H    0.042826  -0.005433  -0.008474  -0.001133   0.001050  -0.000050
     2  C   -0.050821  -0.053267  -0.068323   0.002493  -0.019868  -0.007889
     3  H    0.071630  -0.002084   0.011786   0.000455  -0.001458  -0.000574
     4  H   -0.227286   0.005135  -0.056394  -0.001157  -0.000391  -0.000697
     5  C    0.046466  -0.070269  -0.329613   0.010195   0.014454  -0.008899
     6  O   -0.120893  -0.015282   0.084920   0.013803  -0.006171   0.000527
     7  N    7.581882   0.368852  -0.268648  -0.103756   0.032959  -0.070402
     8  H    0.368852   0.926248  -0.184638  -0.001613   0.021044   0.010449
     9  C   -0.268648  -0.184638   6.878847   0.146620   0.162823  -0.113900
    10  H   -0.103756  -0.001613   0.146620   0.985633  -0.069847   0.074992
    11  C    0.032959   0.021044   0.162823  -0.069847   4.286682   0.380395
    12  H   -0.070402   0.010449  -0.113900   0.074992   0.380395   1.098055
    13  H    0.053391   0.000196  -0.031123  -0.030304   0.318762  -0.163293
    14  H   -0.032201  -0.004275   0.167711  -0.068131   0.248791  -0.211804
    15  C    0.099176   0.019099  -0.270214  -0.020806  -0.073864  -0.003176
    16  O    0.002593  -0.000646  -0.112751   0.006021  -0.005634   0.022349
    17  N   -0.011607   0.007151  -0.108855   0.032818   0.035712   0.016392
    18  H    0.020062  -0.001570  -0.049811   0.001621   0.002363  -0.000070
    19  C   -0.011836   0.004087  -0.025076   0.007235  -0.005926   0.004334
    20  H   -0.000294   0.000364   0.014775   0.001788  -0.004001  -0.000511
    21  H   -0.001776   0.000270  -0.026832  -0.001444   0.002283  -0.000057
    22  H    0.000446  -0.000127   0.008627   0.000271   0.000120   0.000404
             13         14         15         16         17         18
     1  H    0.000156  -0.000382   0.004288  -0.000122  -0.002665  -0.004288
     2  C    0.002095   0.000982  -0.003729   0.001137   0.008324   0.000879
     3  H    0.000147  -0.000229   0.000412   0.000115   0.004128   0.001989
     4  H    0.000185   0.001055  -0.011687   0.000184   0.001453   0.001440
     5  C    0.002475   0.003052  -0.169358   0.000942   0.016455   0.041155
     6  O   -0.001308   0.001459   0.011775   0.000248  -0.042171   0.037809
     7  N    0.053391  -0.032201   0.099176   0.002593  -0.011607   0.020062
     8  H    0.000196  -0.004275   0.019099  -0.000646   0.007151  -0.001570
     9  C   -0.031123   0.167711  -0.270214  -0.112751  -0.108855  -0.049811
    10  H   -0.030304  -0.068131  -0.020806   0.006021   0.032818   0.001621
    11  C    0.318762   0.248791  -0.073864  -0.005634   0.035712   0.002363
    12  H   -0.163293  -0.211804  -0.003176   0.022349   0.016392  -0.000070
    13  H    1.158367  -0.209522   0.048680  -0.042348  -0.015464  -0.002147
    14  H   -0.209522   1.185227  -0.039614   0.009291   0.004360   0.001122
    15  C    0.048680  -0.039614   5.332075   0.300124   0.179115  -0.066699
    16  O   -0.042348   0.009291   0.300124   8.796145  -0.152267   0.013841
    17  N   -0.015464   0.004360   0.179115  -0.152267   7.070356   0.264206
    18  H   -0.002147   0.001122  -0.066699   0.013841   0.264206   0.955815
    19  C   -0.000269  -0.001148  -0.116759   0.016150   0.168632  -0.161665
    20  H   -0.000767   0.000209   0.029864  -0.011672  -0.078240   0.007045
    21  H    0.000292   0.000098  -0.023906   0.008339  -0.149358   0.003980
    22  H    0.000376  -0.000262   0.002822   0.000495   0.154220  -0.022875
             19         20         21         22
     1  H    0.000237  -0.000006   0.000233   0.000015
     2  C    0.001418   0.000942  -0.001116  -0.000516
     3  H   -0.000227   0.000309  -0.000547  -0.000051
     4  H   -0.000409  -0.000158  -0.000107   0.000018
     5  C    0.014991  -0.001763   0.014499  -0.004343
     6  O   -0.002240  -0.000477   0.000131   0.000348
     7  N   -0.011836  -0.000294  -0.001776   0.000446
     8  H    0.004087   0.000364   0.000270  -0.000127
     9  C   -0.025076   0.014775  -0.026832   0.008627
    10  H    0.007235   0.001788  -0.001444   0.000271
    11  C   -0.005926  -0.004001   0.002283   0.000120
    12  H    0.004334  -0.000511  -0.000057   0.000404
    13  H   -0.000269  -0.000767   0.000292   0.000376
    14  H   -0.001148   0.000209   0.000098  -0.000262
    15  C   -0.116759   0.029864  -0.023906   0.002822
    16  O    0.016150  -0.011672   0.008339   0.000495
    17  N    0.168632  -0.078240  -0.149358   0.154220
    18  H   -0.161665   0.007045   0.003980  -0.022875
    19  C    4.211781   0.439102   0.474352   0.226213
    20  H    0.439102   1.044661  -0.217144  -0.100389
    21  H    0.474352  -0.217144   1.271597  -0.158549
    22  H    0.226213  -0.100389  -0.158549   0.931955
 Mulliken atomic charges:
              1
     1  H    0.060661
     2  C    0.362435
     3  H    0.045827
     4  H   -0.166106
     5  C    0.477516
     6  O   -0.909322
     7  N   -0.420766
     8  H   -0.023693
     9  C    0.178541
    10  H    0.014247
    11  C    0.679722
    12  H   -0.026574
    13  H   -0.088577
    14  H   -0.055789
    15  C    0.772382
    16  O   -0.852534
    17  N   -0.402695
    18  H   -0.044204
    19  C    0.757023
    20  H   -0.123637
    21  H   -0.195237
    22  H   -0.039220
 Sum of Mulliken atomic charges =   0.00000
 Mulliken charges with hydrogens summed into heavy atoms:
              1
     2  C    0.302817
     5  C    0.477516
     6  O   -0.909322
     7  N   -0.444459
     9  C    0.192788
    11  C    0.508783
    15  C    0.772382
    16  O   -0.852534
    17  N   -0.446900
    19  C    0.398929
 Sum of Mulliken charges with hydrogens summed into heavy atoms =   0.00000
 Electronic spatial extent (au):  <R**2>=           1734.5123
 Charge=              0.0000 electrons
 Dipole moment (field-independent basis, Debye):
    X=              4.2638    Y=              1.2100    Z=             -2.4156  Tot=              5.0477
 Quadrupole moment (field-independent basis, Debye-Ang):
   XX=            -63.8504   YY=            -58.1338   ZZ=            -62.3223
   XY=              7.9056   XZ=             -3.0789   YZ=              2.1242
 Traceless Quadrupole moment (field-independent basis, Debye-Ang):
   XX=             -2.4149   YY=              3.3017   ZZ=             -0.8868
   XY=              7.9056   XZ=             -3.0789   YZ=              2.1242
 Octapole moment (field-independent basis, Debye-Ang**2):
  XXX=             54.9797  YYY=             -0.0519  ZZZ=              1.0119  XYY=             -6.9800
  XXY=            -13.0741  XXZ=            -11.9303  XZZ=             -1.2904  YZZ=              4.6780
  YYZ=             -6.6754  XYZ=              3.5672
 Hexadecapole moment (field-independent basis, Debye-Ang**3):
 XXXX=          -1351.9621 YYYY=           -754.6301 ZZZZ=           -153.1432 XXXY=             27.4798
 XXXZ=              8.7205 YYYX=             11.6622 YYYZ=              9.9551 ZZZX=             -4.4128
 ZZZY=             -2.0826 XXYY=           -349.8477 XXZZ=           -248.4195 YYZZ=           -154.2990
 XXYZ=              2.9187 YYXZ=            -11.5339 ZZXY=              5.9821
 N-N= 5.597469960710D+02 E-N=-2.274644366996D+03  KE= 4.920653283713D+02
 1\1\GINC-NODE010\SP\RMP2-FC\Aug-CC-pVDZ\C6H12N2O2\MANAGER\13-Feb-2017\
 0\\#SP MP2/aug-cc-pVDZ\\Single Point calculation at MP2\\0,1\H,0,4.003
 4,-0.4716,0.3364\C,0,3.259,-0.459,-0.466\H,0,3.3386,-1.4119,-0.9976\H,
 0,3.4967,0.357,-1.1552\C,0,1.8764,-0.3611,0.1601\O,0,1.4589,-1.2336,0.
 9246\N,0,1.1566,0.7442,-0.168\H,0,1.5504,1.3571,-0.8684\C,0,-0.1669,1.
 1385,0.3393\H,0,-0.0826,1.2046,1.4339\C,0,-0.4995,2.5293,-0.2058\H,0,-
 0.5423,2.518,-1.302\H,0,-1.4787,2.8341,0.163\H,0,0.2524,3.2598,0.1119\
 C,0,-1.3713,0.1823,0.1064\O,0,-2.5063,0.6299,0.2421\N,0,-1.1132,-1.097
 1,-0.2705\H,0,-0.2107,-1.4696,0.0166\C,0,-2.2198,-2.0371,-0.3876\H,0,-
 3.0081,-1.593,-0.9987\H,0,-1.8574,-2.9486,-0.8699\H,0,-2.6534,-2.2939,
 0.5879\\Version=EM64L-G09RevA.02\State=1-A\HF=-492.9226204\MP2=-494.52
 61186\RMSD=7.245e-09\PG=C01 [X(C6H12N2O2)]\\@


 OLD AGE AND TREACHERY WILL ALWAYS PREVAIL OVER YOUTH AND SKILL.
 Job cpu time:  0 days 13 hours 10 minutes 49.1 seconds.
 File lengths (MBytes):  RWF=  10607 Int=      0 D2E=      0 Chk=      7 Scr=      2
 Normal termination of Gaussian 09 at Mon Feb 13 16:35:09 2017.
