 Entering Gaussian System, Link 0=g09
 Initial command:
 /home/steboss/Software/g09/l1.exe /home/steboss/projects/phi_psi_scan/alanine/MP2/300/5552/Gau-17345.inp -scrdir=/home/steboss/projects/phi_psi_scan/alanine/MP2/300/5552/
 Entering Link 1 = /home/steboss/Software/g09/l1.exe PID=     17347.
  
 Copyright (c) 1988,1990,1992,1993,1995,1998,2003,2009, Gaussian, Inc.
                  All Rights Reserved.
  
 This is part of the Gaussian(R) 09 program.  It is based on
 the Gaussian(R) 03 system (copyright 2003, Gaussian, Inc.),
 the Gaussian(R) 98 system (copyright 1998, Gaussian, Inc.),
 the Gaussian(R) 94 system (copyright 1995, Gaussian, Inc.),
 the Gaussian 92(TM) system (copyright 1992, Gaussian, Inc.),
 the Gaussian 90(TM) system (copyright 1990, Gaussian, Inc.),
 the Gaussian 88(TM) system (copyright 1988, Gaussian, Inc.),
 the Gaussian 86(TM) system (copyright 1986, Carnegie Mellon
 University), and the Gaussian 82(TM) system (copyright 1983,
 Carnegie Mellon University). Gaussian is a federally registered
 trademark of Gaussian, Inc.
  
 This software contains proprietary and confidential information,
 including trade secrets, belonging to Gaussian, Inc.
  
 This software is provided under written license and may be
 used, copied, transmitted, or stored only in accord with that
 written license.
  
 The following legend is applicable only to US Government
 contracts under FAR:
  
                    RESTRICTED RIGHTS LEGEND
  
 Use, reproduction and disclosure by the US Government is
 subject to restrictions as set forth in subparagraphs (a)
 and (c) of the Commercial Computer Software - Restricted
 Rights clause in FAR 52.227-19.
  
 Gaussian, Inc.
 340 Quinnipiac St., Bldg. 40, Wallingford CT 06492
  
  
 ---------------------------------------------------------------
 Warning -- This program may not be used in any manner that
 competes with the business of Gaussian, Inc. or will provide
 assistance to any competitor of Gaussian, Inc.  The licensee
 of this program is prohibited from giving any competitor of
 Gaussian, Inc. access to this program.  By using this program,
 the user acknowledges that Gaussian, Inc. is engaged in the
 business of creating and licensing software in the field of
 computational chemistry and represents and warrants to the
 licensee that it is not a competitor of Gaussian, Inc. and that
 it will not use this program in any manner prohibited above.
 ---------------------------------------------------------------
  

 Cite this work as:
 Gaussian 09, Revision A.02,
 M. J. Frisch, G. W. Trucks, H. B. Schlegel, G. E. Scuseria, 
 M. A. Robb, J. R. Cheeseman, G. Scalmani, V. Barone, B. Mennucci, 
 G. A. Petersson, H. Nakatsuji, M. Caricato, X. Li, H. P. Hratchian, 
 A. F. Izmaylov, J. Bloino, G. Zheng, J. L. Sonnenberg, M. Hada, 
 M. Ehara, K. Toyota, R. Fukuda, J. Hasegawa, M. Ishida, T. Nakajima, 
 Y. Honda, O. Kitao, H. Nakai, T. Vreven, J. A. Montgomery, Jr., 
 J. E. Peralta, F. Ogliaro, M. Bearpark, J. J. Heyd, E. Brothers, 
 K. N. Kudin, V. N. Staroverov, R. Kobayashi, J. Normand, 
 K. Raghavachari, A. Rendell, J. C. Burant, S. S. Iyengar, J. Tomasi, 
 M. Cossi, N. Rega, J. M. Millam, M. Klene, J. E. Knox, J. B. Cross, 
 V. Bakken, C. Adamo, J. Jaramillo, R. Gomperts, R. E. Stratmann, 
 O. Yazyev, A. J. Austin, R. Cammi, C. Pomelli, J. W. Ochterski, 
 R. L. Martin, K. Morokuma, V. G. Zakrzewski, G. A. Voth, 
 P. Salvador, J. J. Dannenberg, S. Dapprich, A. D. Daniels, 
 O. Farkas, J. B. Foresman, J. V. Ortiz, J. Cioslowski, 
 and D. J. Fox, Gaussian, Inc., Wallingford CT, 2009.
 
 ******************************************
 Gaussian 09:  EM64L-G09RevA.02 11-Jun-2009
                13-Feb-2017 
 ******************************************
 %chk=structure_270.chk
 %NProcShared=8
 Will use up to    8 processors via shared memory.
 -------------------
 #SP MP2/aug-cc-pVDZ
 -------------------
 1/38=1/1;
 2/12=2,17=6,18=5,40=1/2;
 3/5=16,7=10,11=9,16=1,25=1,30=1/1,2,3;
 4//1;
 5/5=2,38=5/2;
 8/10=1/1;
 9/16=-3/6;
 6/7=2,8=2,9=2,10=2/1;
 99/5=1,9=1/99;
 -------------------------------
 Single Point calculation at MP2
 -------------------------------
 Symbolic Z-matrix:
 Charge =  0 Multiplicity = 1
 H                    -3.8713   -1.0908    0.6739 
 C                    -2.9627   -0.6728    1.1109 
 H                    -2.5052   -1.4439    1.7429 
 H                    -3.2229    0.1813    1.7457 
 C                    -2.0054   -0.3047   -0.0175 
 O                    -2.0152   -0.8662   -1.0977 
 N                    -1.1547    0.747     0.2793 
 H                    -1.1224    1.015     1.2563 
 C                     0.0722    1.027    -0.4774 
 H                    -0.2234    1.0705   -1.5295 
 C                     0.6327    2.3856   -0.0533 
 H                     0.8541    2.432     1.0226 
 H                     1.5555    2.6127   -0.5953 
 H                    -0.0981    3.1718   -0.2663 
 C                     1.0814   -0.153    -0.4458 
 O                     1.0751   -1.0223   -1.3024 
 N                     1.9867   -0.1308    0.5847 
 H                     1.938     0.6107    1.2671 
 C                     2.9704   -1.1814    0.7803 
 H                     2.9251   -1.8328   -0.0934 
 H                     3.9787   -0.7608    0.8673 
 H                     2.7568   -1.7756    1.678 
 
                          Input orientation:                          
 ---------------------------------------------------------------------
 Center     Atomic      Atomic             Coordinates (Angstroms)
 Number     Number       Type             X           Y           Z
 ---------------------------------------------------------------------
      1          1           0       -3.871300   -1.090800    0.673900
      2          6           0       -2.962700   -0.672800    1.110900
      3          1           0       -2.505200   -1.443900    1.742900
      4          1           0       -3.222900    0.181300    1.745700
      5          6           0       -2.005400   -0.304700   -0.017500
      6          8           0       -2.015200   -0.866200   -1.097700
      7          7           0       -1.154700    0.747000    0.279300
      8          1           0       -1.122400    1.015000    1.256300
      9          6           0        0.072200    1.027000   -0.477400
     10          1           0       -0.223400    1.070500   -1.529500
     11          6           0        0.632700    2.385600   -0.053300
     12          1           0        0.854100    2.432000    1.022600
     13          1           0        1.555500    2.612700   -0.595300
     14          1           0       -0.098100    3.171800   -0.266300
     15          6           0        1.081400   -0.153000   -0.445800
     16          8           0        1.075100   -1.022300   -1.302400
     17          7           0        1.986700   -0.130800    0.584700
     18          1           0        1.938000    0.610700    1.267100
     19          6           0        2.970400   -1.181400    0.780300
     20          1           0        2.925100   -1.832800   -0.093400
     21          1           0        3.978700   -0.760800    0.867300
     22          1           0        2.756800   -1.775600    1.678000
 ---------------------------------------------------------------------
                    Distance matrix (angstroms):
                    1          2          3          4          5
     1  H    0.000000
     2  C    1.091443   0.000000
     3  H    1.770217   1.096962   0.000000
     4  H    1.785334   1.095519   1.776619   0.000000
     5  C    2.139526   1.524863   2.155594   2.197129   0.000000
     6  O    2.575678   2.411032   2.939872   3.262012   1.217461
     7  N    3.303503   2.444638   2.960746   2.597652   1.384866
     8  H    3.511415   2.501302   2.862709   2.312286   2.035648
     9  C    4.621878   3.823955   4.204530   4.063873   2.510250
    10  H    4.778427   4.185041   4.715657   4.529306   2.711613
    11  C    5.735869   4.861694   5.266671   4.791763   3.768099
    12  H    5.904330   4.920929   5.179414   4.712797   4.092441
    13  H    6.691557   5.841212   6.197779   5.850222   4.639513
    14  H    5.769816   4.988343   5.579937   4.770284   3.973128
    15  C    5.163568   4.364430   4.395512   4.841635   3.120062
    16  O    5.327037   4.716990   4.719126   5.404847   3.414000
    17  N    5.936811   5.006717   4.821081   5.346518   4.041008
    18  H    6.082348   5.068395   4.918312   5.200801   4.247182
    19  C    6.843127   5.964029   5.565761   6.414508   5.115044
    20  H    6.879707   6.120631   5.745555   6.725830   5.162430
    21  H    7.859313   6.946231   6.578317   7.315886   6.066329
    22  H    6.738611   5.852388   5.272844   6.292126   5.264676
                    6          7          8          9         10
     6  O    0.000000
     7  N    2.288887   0.000000
     8  H    3.142821   1.013606   0.000000
     9  C    2.885519   1.468427   2.105452   0.000000
    10  H    2.673538   2.060031   2.927791   1.093703   0.000000
    11  C    4.321614   2.447536   2.583403   1.529645   2.154428
    12  H    4.858670   2.725252   2.443165   2.198953   3.086730
    13  H    5.010494   3.404548   3.626598   2.174517   2.532903
    14  H    4.546641   2.700692   2.831835   2.161882   2.454962
    15  C    3.243849   2.517124   3.019620   1.553024   2.091378
    16  O    3.101004   3.256410   3.940373   2.426121   2.473356
    17  N    4.403009   3.276003   3.380888   2.476665   3.285956
    18  H    4.837489   3.249480   3.087009   2.588010   3.564272
    19  C    5.336894   4.581067   4.669236   3.854660   4.539448
    20  H    5.133176   4.841388   5.129709   4.057703   4.517144
    21  H    6.308658   5.382472   5.415349   4.501687   5.172616
    22  H    5.594953   4.860011   4.797236   4.439301   5.222062
                   11         12         13         14         15
    11  C    0.000000
    12  H    1.099423   0.000000
    13  H    1.094028   1.772629   0.000000
    14  H    1.094325   1.765008   1.776296   0.000000
    15  C    2.607658   2.981625   2.810021   3.532384   0.000000
    16  O    3.656467   4.169731   3.734167   4.476648   1.220445
    17  N    2.927905   2.835927   3.017470   3.997219   1.371857
    18  H    2.568567   2.133484   2.760950   3.613344   2.061802
    19  C    4.345483   4.194532   4.276612   5.427837   2.475732
    20  H    4.801209   4.870628   4.678694   5.849415   2.518957
    21  H    4.684341   4.470035   4.403589   5.776737   3.238518
    22  H    4.982448   4.664088   5.086078   6.033865   3.154413
                   16         17         18         19         20
    16  O    0.000000
    17  N    2.277484   0.000000
    18  H    3.164430   1.008892   0.000000
    19  C    2.820481   1.452476   2.124723   0.000000
    20  H    2.353952   2.058450   2.965808   1.090745   0.000000
    21  H    3.634126   2.108276   2.491046   1.095966   1.783873
    22  H    3.504049   2.119841   2.556110   1.097526   1.780296
                   21         22
    21  H    0.000000
    22  H    1.783282   0.000000
 Stoichiometry    C6H12N2O2
 Framework group  C1[X(C6H12N2O2)]
 Deg. of freedom    60
 Full point group                 C1      NOp   1
 Largest Abelian subgroup         C1      NOp   1
 Largest concise Abelian subgroup C1      NOp   1
                         Standard orientation:                         
 ---------------------------------------------------------------------
 Center     Atomic      Atomic             Coordinates (Angstroms)
 Number     Number       Type             X           Y           Z
 ---------------------------------------------------------------------
      1          1           0       -3.871308   -1.090754    0.673904
      2          6           0       -2.962703   -0.672764    1.110904
      3          1           0       -2.505212   -1.443869    1.742904
      4          1           0       -3.222894    0.181339    1.745704
      5          6           0       -2.005399   -0.304675   -0.017496
      6          8           0       -2.015205   -0.866174   -1.097696
      7          7           0       -1.154688    0.747016    0.279304
      8          1           0       -1.122385    1.015016    1.256304
      9          6           0        0.072215    1.027003   -0.477396
     10          1           0       -0.223385    1.070506   -1.529496
     11          6           0        0.632730    2.385597   -0.053296
     12          1           0        0.854130    2.431995    1.022604
     13          1           0        1.555532    2.612687   -0.595296
     14          1           0       -0.098062    3.171805   -0.266296
     15          6           0        1.081402   -0.153008   -0.445796
     16          8           0        1.075093   -1.022308   -1.302396
     17          7           0        1.986702   -0.130818    0.584704
     18          1           0        1.938010    0.610683    1.267104
     19          6           0        2.970391   -1.181428    0.780304
     20          1           0        2.925084   -1.832828   -0.093396
     21          1           0        3.978696   -0.760839    0.867304
     22          1           0        2.756785   -1.775626    1.678004
 ---------------------------------------------------------------------
 Rotational constants (GHZ):      1.8473542      0.8365571      0.7369876
 Standard basis: Aug-CC-pVDZ (5D, 7F)
 There are   338 symmetry adapted basis functions of A   symmetry.
 Integral buffers will be    131072 words long.
 Raffenetti 1 integral format.
 Two-electron integral symmetry is turned on.
   338 basis functions,   562 primitive gaussians,   358 cartesian basis functions
    39 alpha electrons       39 beta electrons
       nuclear repulsion energy       555.9475033206 Hartrees.
 NAtoms=   22 NActive=   22 NUniq=   22 SFac= 7.50D-01 NAtFMM=   80 NAOKFM=F Big=F
 One-electron integrals computed using PRISM.
 NBasis=   338 RedAO= T  NBF=   338
 NBsUse=   338 1.00D-06 NBFU=   338
 Harris functional with IExCor=  205 diagonalized for initial guess.
 ExpMin= 2.97D-02 ExpMax= 1.17D+04 ExpMxC= 4.01D+02 IAcc=3 IRadAn=         0 AccDes= 0.00D+00
 HarFok:  IExCor=  205 AccDes= 0.00D+00 IRadAn=         0 IDoV= 1
 ScaDFX=  1.000000  1.000000  1.000000  1.000000
 FoFCou: FMM=F IPFlag=           0 FMFlag=      100000 FMFlg1=           0
         NFxFlg=           0 DoJE=T BraDBF=F KetDBF=T FulRan=T
         Omega=  0.000000  0.000000  1.000000  0.000000  0.000000 ICntrl=     500 IOpCl=  0
         NMat0=    1 NMatS0=    1 NMatT0=    0 NMatD0=    1 NMtDS0=    0 NMtDT0=    0
         I1Cent=           4 NGrid=           0.
 Petite list used in FoFCou.
 Initial guess orbital symmetries:
       Occupied  (A) (A) (A) (A) (A) (A) (A) (A) (A) (A) (A) (A)
                 (A) (A) (A) (A) (A) (A) (A) (A) (A) (A) (A) (A)
                 (A) (A) (A) (A) (A) (A) (A) (A) (A) (A) (A) (A)
                 (A) (A) (A)
       Virtual   (A) (A) (A) (A) (A) (A) (A) (A) (A) (A) (A) (A)
                 (A) (A) (A) (A) (A) (A) (A) (A) (A) (A) (A) (A)
                 (A) (A) (A) (A) (A) (A) (A) (A) (A) (A) (A) (A)
                 (A) (A) (A) (A) (A) (A) (A) (A) (A) (A) (A) (A)
                 (A) (A) (A) (A) (A) (A) (A) (A) (A) (A) (A) (A)
                 (A) (A) (A) (A) (A) (A) (A) (A) (A) (A) (A) (A)
                 (A) (A) (A) (A) (A) (A) (A) (A) (A) (A) (A) (A)
                 (A) (A) (A) (A) (A) (A) (A) (A) (A) (A) (A) (A)
                 (A) (A) (A) (A) (A) (A) (A) (A) (A) (A) (A) (A)
                 (A) (A) (A) (A) (A) (A) (A) (A) (A) (A) (A) (A)
                 (A) (A) (A) (A) (A) (A) (A) (A) (A) (A) (A) (A)
                 (A) (A) (A) (A) (A) (A) (A) (A) (A) (A) (A) (A)
                 (A) (A) (A) (A) (A) (A) (A) (A) (A) (A) (A) (A)
                 (A) (A) (A) (A) (A) (A) (A) (A) (A) (A) (A) (A)
                 (A) (A) (A) (A) (A) (A) (A) (A) (A) (A) (A) (A)
                 (A) (A) (A) (A) (A) (A) (A) (A) (A) (A) (A) (A)
                 (A) (A) (A) (A) (A) (A) (A) (A) (A) (A) (A) (A)
                 (A) (A) (A) (A) (A) (A) (A) (A) (A) (A) (A) (A)
                 (A) (A) (A) (A) (A) (A) (A) (A) (A) (A) (A) (A)
                 (A) (A) (A) (A) (A) (A) (A) (A) (A) (A) (A) (A)
                 (A) (A) (A) (A) (A) (A) (A) (A) (A) (A) (A) (A)
                 (A) (A) (A) (A) (A) (A) (A) (A) (A) (A) (A) (A)
                 (A) (A) (A) (A) (A) (A) (A) (A) (A) (A) (A) (A)
                 (A) (A) (A) (A) (A) (A) (A) (A) (A) (A) (A) (A)
                 (A) (A) (A) (A) (A) (A) (A) (A) (A) (A) (A)
 The electronic state of the initial guess is 1-A.
 Requested convergence on RMS density matrix=1.00D-08 within 128 cycles.
 Requested convergence on MAX density matrix=1.00D-06.
 Requested convergence on             energy=1.00D-06.
 No special actions if energy rises.
 Initial convergence to 1.0D-05 achieved.  Increase integral accuracy.
 SCF Done:  E(RHF) =  -492.909748386     A.U. after   14 cycles
             Convg  =    0.7197D-08             -V/T =  2.0018
 ExpMin= 2.97D-02 ExpMax= 1.17D+04 ExpMxC= 4.01D+02 IAcc=3 IRadAn=         5 AccDes= 0.00D+00
 HarFok:  IExCor=  205 AccDes= 0.00D+00 IRadAn=         5 IDoV=-2
 ScaDFX=  1.000000  1.000000  1.000000  1.000000
 Range of M.O.s used for correlation:    11   338
 NBasis=   338 NAE=    39 NBE=    39 NFC=    10 NFV=     0
 NROrb=    328 NOA=    29 NOB=    29 NVA=   299 NVB=   299

 **** Warning!!: The largest alpha MO coefficient is  0.65669197D+02

 Disk-based method using OVN memory for 29 occupieds at a time.
 Estimated scratch disk usage=  1386448810 words.
 Actual    scratch disk usage=  1373173970 words.
 JobTyp=1 Pass  1:  I=   1 to  29 NPSUse=  8 ParTrn=T ParDer=T DoDerP=F.
 Spin components of T(2) and E(2):
     alpha-alpha T2 =       0.6806676154D-01 E2=     -0.2057655603D+00
     alpha-beta  T2 =       0.3781195199D+00 E2=     -0.1191561793D+01
     beta-beta   T2 =       0.6806676154D-01 E2=     -0.2057655603D+00
 ANorm=    0.1230549895D+01
 E2 =    -0.1603092914D+01 EUMP2 =    -0.49451284129970D+03

 **********************************************************************

            Population analysis using the SCF density.

 **********************************************************************

 Orbital symmetries:
       Occupied  (A) (A) (A) (A) (A) (A) (A) (A) (A) (A) (A) (A)
                 (A) (A) (A) (A) (A) (A) (A) (A) (A) (A) (A) (A)
                 (A) (A) (A) (A) (A) (A) (A) (A) (A) (A) (A) (A)
                 (A) (A) (A)
       Virtual   (A) (A) (A) (A) (A) (A) (A) (A) (A) (A) (A) (A)
                 (A) (A) (A) (A) (A) (A) (A) (A) (A) (A) (A) (A)
                 (A) (A) (A) (A) (A) (A) (A) (A) (A) (A) (A) (A)
                 (A) (A) (A) (A) (A) (A) (A) (A) (A) (A) (A) (A)
                 (A) (A) (A) (A) (A) (A) (A) (A) (A) (A) (A) (A)
                 (A) (A) (A) (A) (A) (A) (A) (A) (A) (A) (A) (A)
                 (A) (A) (A) (A) (A) (A) (A) (A) (A) (A) (A) (A)
                 (A) (A) (A) (A) (A) (A) (A) (A) (A) (A) (A) (A)
                 (A) (A) (A) (A) (A) (A) (A) (A) (A) (A) (A) (A)
                 (A) (A) (A) (A) (A) (A) (A) (A) (A) (A) (A) (A)
                 (A) (A) (A) (A) (A) (A) (A) (A) (A) (A) (A) (A)
                 (A) (A) (A) (A) (A) (A) (A) (A) (A) (A) (A) (A)
                 (A) (A) (A) (A) (A) (A) (A) (A) (A) (A) (A) (A)
                 (A) (A) (A) (A) (A) (A) (A) (A) (A) (A) (A) (A)
                 (A) (A) (A) (A) (A) (A) (A) (A) (A) (A) (A) (A)
                 (A) (A) (A) (A) (A) (A) (A) (A) (A) (A) (A) (A)
                 (A) (A) (A) (A) (A) (A) (A) (A) (A) (A) (A) (A)
                 (A) (A) (A) (A) (A) (A) (A) (A) (A) (A) (A) (A)
                 (A) (A) (A) (A) (A) (A) (A) (A) (A) (A) (A) (A)
                 (A) (A) (A) (A) (A) (A) (A) (A) (A) (A) (A) (A)
                 (A) (A) (A) (A) (A) (A) (A) (A) (A) (A) (A) (A)
                 (A) (A) (A) (A) (A) (A) (A) (A) (A) (A) (A) (A)
                 (A) (A) (A) (A) (A) (A) (A) (A) (A) (A) (A) (A)
                 (A) (A) (A) (A) (A) (A) (A) (A) (A) (A) (A) (A)
                 (A) (A) (A) (A) (A) (A) (A) (A) (A) (A) (A)
 The electronic state is 1-A.
 Alpha  occ. eigenvalues --  -20.52961 -20.52648 -15.60040 -15.59588 -11.36025
 Alpha  occ. eigenvalues --  -11.35625 -11.29501 -11.26821 -11.25559 -11.24744
 Alpha  occ. eigenvalues --   -1.38674  -1.37789  -1.24263  -1.22705  -1.05978
 Alpha  occ. eigenvalues --   -0.99358  -0.95634  -0.88722  -0.80016  -0.78541
 Alpha  occ. eigenvalues --   -0.71918  -0.67505  -0.66483  -0.64109  -0.62013
 Alpha  occ. eigenvalues --   -0.61565  -0.59337  -0.58629  -0.57770  -0.56415
 Alpha  occ. eigenvalues --   -0.55079  -0.54641  -0.52903  -0.51406  -0.50502
 Alpha  occ. eigenvalues --   -0.44215  -0.42216  -0.39170  -0.38197
 Alpha virt. eigenvalues --    0.02117   0.03611   0.03779   0.04555   0.05373
 Alpha virt. eigenvalues --    0.05671   0.06495   0.06766   0.07283   0.07649
 Alpha virt. eigenvalues --    0.08848   0.09286   0.10663   0.11670   0.12509
 Alpha virt. eigenvalues --    0.13512   0.14501   0.14760   0.14843   0.15155
 Alpha virt. eigenvalues --    0.15200   0.15753   0.16710   0.16992   0.17416
 Alpha virt. eigenvalues --    0.17732   0.17858   0.18286   0.18572   0.18816
 Alpha virt. eigenvalues --    0.19354   0.20429   0.20974   0.21253   0.21761
 Alpha virt. eigenvalues --    0.21820   0.23761   0.24183   0.24765   0.26432
 Alpha virt. eigenvalues --    0.27141   0.27898   0.28533   0.29944   0.30335
 Alpha virt. eigenvalues --    0.31185   0.31785   0.32712   0.33053   0.33705
 Alpha virt. eigenvalues --    0.34353   0.34934   0.35851   0.36463   0.37554
 Alpha virt. eigenvalues --    0.38101   0.38598   0.39010   0.39714   0.40326
 Alpha virt. eigenvalues --    0.40826   0.41065   0.41523   0.42497   0.42565
 Alpha virt. eigenvalues --    0.43024   0.44028   0.44299   0.45151   0.45266
 Alpha virt. eigenvalues --    0.45971   0.46505   0.46811   0.48233   0.48830
 Alpha virt. eigenvalues --    0.49067   0.50670   0.50732   0.51848   0.52619
 Alpha virt. eigenvalues --    0.53054   0.53213   0.53906   0.54611   0.55289
 Alpha virt. eigenvalues --    0.56215   0.56353   0.57193   0.57490   0.58687
 Alpha virt. eigenvalues --    0.59228   0.60206   0.60611   0.60966   0.62213
 Alpha virt. eigenvalues --    0.62692   0.63223   0.63718   0.64315   0.64949
 Alpha virt. eigenvalues --    0.65502   0.66205   0.67051   0.67686   0.68715
 Alpha virt. eigenvalues --    0.69146   0.69751   0.70816   0.70944   0.71679
 Alpha virt. eigenvalues --    0.72022   0.72284   0.73132   0.74194   0.74742
 Alpha virt. eigenvalues --    0.75409   0.76993   0.77832   0.78233   0.78526
 Alpha virt. eigenvalues --    0.79912   0.80730   0.81507   0.82457   0.82997
 Alpha virt. eigenvalues --    0.83963   0.84682   0.85684   0.86346   0.86707
 Alpha virt. eigenvalues --    0.89091   0.89882   0.90481   0.91816   0.92852
 Alpha virt. eigenvalues --    0.93657   0.94579   0.95942   0.98597   0.99057
 Alpha virt. eigenvalues --    1.00496   1.01136   1.04359   1.05440   1.05884
 Alpha virt. eigenvalues --    1.06471   1.07071   1.08470   1.09418   1.10242
 Alpha virt. eigenvalues --    1.12367   1.12854   1.13651   1.14914   1.15108
 Alpha virt. eigenvalues --    1.17135   1.18429   1.19205   1.21035   1.22995
 Alpha virt. eigenvalues --    1.24435   1.24607   1.24867   1.28867   1.30197
 Alpha virt. eigenvalues --    1.30763   1.32588   1.33293   1.34799   1.36163
 Alpha virt. eigenvalues --    1.40236   1.41911   1.44043   1.45263   1.46618
 Alpha virt. eigenvalues --    1.48744   1.49819   1.50714   1.52753   1.56319
 Alpha virt. eigenvalues --    1.56524   1.57613   1.60373   1.62298   1.63641
 Alpha virt. eigenvalues --    1.65269   1.68912   1.69343   1.70159   1.71756
 Alpha virt. eigenvalues --    1.72767   1.75697   1.76676   1.78427   1.79019
 Alpha virt. eigenvalues --    1.81168   1.82517   1.84816   1.85494   1.88798
 Alpha virt. eigenvalues --    1.89434   1.89895   1.90166   1.91516   1.92970
 Alpha virt. eigenvalues --    1.94650   1.94864   1.96527   1.99442   2.00735
 Alpha virt. eigenvalues --    2.02954   2.04506   2.06562   2.07187   2.07616
 Alpha virt. eigenvalues --    2.08989   2.11687   2.14281   2.16442   2.17747
 Alpha virt. eigenvalues --    2.18806   2.20293   2.21079   2.23174   2.24527
 Alpha virt. eigenvalues --    2.24711   2.26762   2.28200   2.28703   2.30676
 Alpha virt. eigenvalues --    2.31535   2.32336   2.34453   2.36064   2.37138
 Alpha virt. eigenvalues --    2.38412   2.40283   2.40631   2.42168   2.44740
 Alpha virt. eigenvalues --    2.46286   2.47458   2.48515   2.50834   2.51931
 Alpha virt. eigenvalues --    2.53103   2.54533   2.57221   2.57834   2.58665
 Alpha virt. eigenvalues --    2.60543   2.63702   2.65138   2.65769   2.70220
 Alpha virt. eigenvalues --    2.70614   2.71983   2.74064   2.76751   2.79658
 Alpha virt. eigenvalues --    2.80323   2.85030   2.85449   2.85826   2.87513
 Alpha virt. eigenvalues --    2.88080   2.91538   2.93382   2.94073   2.96678
 Alpha virt. eigenvalues --    3.00098   3.01175   3.04804   3.06560   3.07155
 Alpha virt. eigenvalues --    3.08437   3.10795   3.12446   3.17847   3.27408
 Alpha virt. eigenvalues --    3.30686   3.36551   3.43921   3.49231   3.51424
 Alpha virt. eigenvalues --    3.62135   3.63080   3.78857   3.82575   3.85209
 Alpha virt. eigenvalues --    3.87397   3.89624   3.95515   3.97470   4.00936
 Alpha virt. eigenvalues --    4.04108   4.08091   4.22001   4.27183
          Condensed to atoms (all electrons):
              1          2          3          4          5          6
     1  H    0.803383   0.365603  -0.058831  -0.103175  -0.073824   0.034361
     2  C    0.365603   4.564695   0.348604   0.345185   0.193909  -0.034440
     3  H   -0.058831   0.348604   0.764185  -0.080978  -0.064309   0.012790
     4  H   -0.103175   0.345185  -0.080978   1.015154   0.100749  -0.012796
     5  C   -0.073824   0.193909  -0.064309   0.100749   5.250977   0.232886
     6  O    0.034361  -0.034440   0.012790  -0.012796   0.232886   8.649582
     7  N    0.049700  -0.003365   0.028394  -0.160778   0.116659  -0.115003
     8  H   -0.006123  -0.066724  -0.003449   0.012472  -0.077922  -0.004189
     9  C    0.008274  -0.060275   0.011092  -0.028233  -0.257810   0.027697
    10  H    0.001744   0.006086   0.000773  -0.002646   0.048029  -0.014221
    11  C    0.003019  -0.015202   0.000274  -0.008396  -0.039966  -0.011579
    12  H    0.000373  -0.002705  -0.000921   0.000593  -0.023332  -0.000726
    13  H    0.000214  -0.001091  -0.000115  -0.001054   0.006348  -0.000434
    14  H   -0.000280   0.004043   0.000588   0.001030  -0.005616   0.002563
    15  C   -0.000254   0.020372  -0.016097  -0.005633  -0.150813   0.083440
    16  O    0.000793  -0.011129   0.001323  -0.000676   0.060212  -0.039407
    17  N   -0.000646   0.010831   0.002946   0.002487   0.059735  -0.013449
    18  H   -0.000406  -0.000891   0.000116   0.000430  -0.019246   0.000166
    19  C   -0.000084   0.001716  -0.000178   0.000855   0.007285  -0.003176
    20  H   -0.000010   0.001136  -0.000175   0.000201  -0.004113   0.000858
    21  H    0.000016   0.000211   0.000036  -0.000028   0.000168  -0.000063
    22  H   -0.000048  -0.000659  -0.000659   0.000058   0.000068   0.000321
              7          8          9         10         11         12
     1  H    0.049700  -0.006123   0.008274   0.001744   0.003019   0.000373
     2  C   -0.003365  -0.066724  -0.060275   0.006086  -0.015202  -0.002705
     3  H    0.028394  -0.003449   0.011092   0.000773   0.000274  -0.000921
     4  H   -0.160778   0.012472  -0.028233  -0.002646  -0.008396   0.000593
     5  C    0.116659  -0.077922  -0.257810   0.048029  -0.039966  -0.023332
     6  O   -0.115003  -0.004189   0.027697  -0.014221  -0.011579  -0.000726
     7  N    7.462981   0.294121  -0.280666   0.044011  -0.035251  -0.047491
     8  H    0.294121   0.959209  -0.027643  -0.015274  -0.019194   0.004876
     9  C   -0.280666  -0.027643   7.036082  -0.350941   0.242616  -0.094650
    10  H    0.044011  -0.015274  -0.350941   1.343278  -0.036722   0.049729
    11  C   -0.035251  -0.019194   0.242616  -0.036722   4.367395   0.435382
    12  H   -0.047491   0.004876  -0.094650   0.049729   0.435382   1.120371
    13  H    0.069223   0.006866  -0.068948  -0.045381   0.280319  -0.139764
    14  H   -0.078530  -0.006166   0.149777  -0.041150   0.252732  -0.242326
    15  C    0.083776  -0.049584  -0.287019   0.095027  -0.120315   0.030257
    16  O   -0.009811   0.005301   0.002094   0.039929   0.013282  -0.000246
    17  N    0.072461   0.026564  -0.233452   0.060942  -0.012605  -0.015937
    18  H   -0.013142  -0.006167  -0.002421  -0.004156   0.002120   0.009822
    19  C    0.018103   0.006222  -0.096680   0.007508  -0.029877  -0.000685
    20  H   -0.001692  -0.001729   0.001412   0.003690  -0.008688   0.003544
    21  H    0.001641   0.000946  -0.035909  -0.003265   0.015024  -0.001614
    22  H   -0.003093  -0.000724   0.040854   0.001528  -0.005257  -0.002392
             13         14         15         16         17         18
     1  H    0.000214  -0.000280  -0.000254   0.000793  -0.000646  -0.000406
     2  C   -0.001091   0.004043   0.020372  -0.011129   0.010831  -0.000891
     3  H   -0.000115   0.000588  -0.016097   0.001323   0.002946   0.000116
     4  H   -0.001054   0.001030  -0.005633  -0.000676   0.002487   0.000430
     5  C    0.006348  -0.005616  -0.150813   0.060212   0.059735  -0.019246
     6  O   -0.000434   0.002563   0.083440  -0.039407  -0.013449   0.000166
     7  N    0.069223  -0.078530   0.083776  -0.009811   0.072461  -0.013142
     8  H    0.006866  -0.006166  -0.049584   0.005301   0.026564  -0.006167
     9  C   -0.068948   0.149777  -0.287019   0.002094  -0.233452  -0.002421
    10  H   -0.045381  -0.041150   0.095027   0.039929   0.060942  -0.004156
    11  C    0.280319   0.252732  -0.120315   0.013282  -0.012605   0.002120
    12  H   -0.139764  -0.242326   0.030257  -0.000246  -0.015937   0.009822
    13  H    1.185956  -0.179262  -0.083215  -0.003754   0.031953  -0.002455
    14  H   -0.179262   1.172085   0.053328  -0.001252  -0.017212   0.002759
    15  C   -0.083215   0.053328   5.338066   0.171477   0.078007  -0.050333
    16  O   -0.003754  -0.001252   0.171477   8.730411  -0.126241   0.013442
    17  N    0.031953  -0.017212   0.078007  -0.126241   7.281597   0.234240
    18  H   -0.002455   0.002759  -0.050333   0.013442   0.234240   1.067980
    19  C    0.000927   0.001457  -0.059909  -0.022059   0.253436  -0.126161
    20  H   -0.001471  -0.000277   0.021367  -0.013670  -0.074911   0.001814
    21  H    0.000237   0.001106   0.012543   0.008668  -0.076217  -0.000343
    22  H   -0.000699   0.000476  -0.053574   0.008434   0.031055   0.003823
             19         20         21         22
     1  H   -0.000084  -0.000010   0.000016  -0.000048
     2  C    0.001716   0.001136   0.000211  -0.000659
     3  H   -0.000178  -0.000175   0.000036  -0.000659
     4  H    0.000855   0.000201  -0.000028   0.000058
     5  C    0.007285  -0.004113   0.000168   0.000068
     6  O   -0.003176   0.000858  -0.000063   0.000321
     7  N    0.018103  -0.001692   0.001641  -0.003093
     8  H    0.006222  -0.001729   0.000946  -0.000724
     9  C   -0.096680   0.001412  -0.035909   0.040854
    10  H    0.007508   0.003690  -0.003265   0.001528
    11  C   -0.029877  -0.008688   0.015024  -0.005257
    12  H   -0.000685   0.003544  -0.001614  -0.002392
    13  H    0.000927  -0.001471   0.000237  -0.000699
    14  H    0.001457  -0.000277   0.001106   0.000476
    15  C   -0.059909   0.021367   0.012543  -0.053574
    16  O   -0.022059  -0.013670   0.008668   0.008434
    17  N    0.253436  -0.074911  -0.076217   0.031055
    18  H   -0.126161   0.001814  -0.000343   0.003823
    19  C    4.164350   0.486485   0.363456   0.289911
    20  H    0.486485   1.000430  -0.157898  -0.108249
    21  H    0.363456  -0.157898   1.151037  -0.153697
    22  H    0.289911  -0.108249  -0.153697   1.042465
 Mulliken atomic charges:
              1
     1  H   -0.023798
     2  C    0.334089
     3  H    0.054593
     4  H   -0.074819
     5  C    0.639927
     6  O   -0.795182
     7  N   -0.492249
     8  H   -0.031688
     9  C    0.304749
    10  H   -0.188519
    11  C    0.730889
    12  H   -0.082160
    13  H   -0.054399
    14  H   -0.069873
    15  C    0.889087
    16  O   -0.827122
    17  N   -0.575585
    18  H   -0.110991
    19  C    0.737098
    20  H   -0.148053
    21  H   -0.126053
    22  H   -0.089943
 Sum of Mulliken atomic charges =   0.00000
 Mulliken charges with hydrogens summed into heavy atoms:
              1
     2  C    0.290065
     5  C    0.639927
     6  O   -0.795182
     7  N   -0.523936
     9  C    0.116230
    11  C    0.524457
    15  C    0.889087
    16  O   -0.827122
    17  N   -0.686575
    19  C    0.373049
 Sum of Mulliken charges with hydrogens summed into heavy atoms =   0.00000
 Electronic spatial extent (au):  <R**2>=           1752.7376
 Charge=              0.0000 electrons
 Dipole moment (field-independent basis, Debye):
    X=              1.4328    Y=              3.9720    Z=              6.1906  Tot=              7.4936
 Quadrupole moment (field-independent basis, Debye-Ang):
   XX=            -56.5906   YY=            -61.1696   ZZ=            -63.6980
   XY=             -0.3032   XZ=             -2.7636   YZ=             -5.7016
 Traceless Quadrupole moment (field-independent basis, Debye-Ang):
   XX=              3.8955   YY=             -0.6835   ZZ=             -3.2119
   XY=             -0.3032   XZ=             -2.7636   YZ=             -5.7016
 Octapole moment (field-independent basis, Debye-Ang**2):
  XXX=              6.2819  YYY=              1.9289  ZZZ=              9.3891  XYY=              4.8183
  XXY=             -2.7088  XXZ=             21.7548  XZZ=              2.2591  YZZ=              9.6880
  YYZ=              5.6742  XYZ=              2.1728
 Hexadecapole moment (field-independent basis, Debye-Ang**3):
 XXXX=          -1342.5111 YYYY=           -561.5699 ZZZZ=           -320.1435 XXXY=             -7.6606
 XXXZ=            -12.8941 YYYX=             -3.6692 YYYZ=             -5.7382 ZZZX=              4.0374
 ZZZY=             -0.7557 XXYY=           -329.5287 XXZZ=           -297.7114 YYZZ=           -146.0355
 XXYZ=            -12.9571 YYXZ=             -2.4702 ZZXY=             -1.1939
 N-N= 5.559475033206D+02 E-N=-2.267177012231D+03  KE= 4.920478195751D+02
 1\1\GINC-NODE012\SP\RMP2-FC\Aug-CC-pVDZ\C6H12N2O2\MANAGER\13-Feb-2017\
 0\\#SP MP2/aug-cc-pVDZ\\Single Point calculation at MP2\\0,1\H,0,-3.87
 13,-1.0908,0.6739\C,0,-2.9627,-0.6728,1.1109\H,0,-2.5052,-1.4439,1.742
 9\H,0,-3.2229,0.1813,1.7457\C,0,-2.0054,-0.3047,-0.0175\O,0,-2.0152,-0
 .8662,-1.0977\N,0,-1.1547,0.747,0.2793\H,0,-1.1224,1.015,1.2563\C,0,0.
 0722,1.027,-0.4774\H,0,-0.2234,1.0705,-1.5295\C,0,0.6327,2.3856,-0.053
 3\H,0,0.8541,2.432,1.0226\H,0,1.5555,2.6127,-0.5953\H,0,-0.0981,3.1718
 ,-0.2663\C,0,1.0814,-0.153,-0.4458\O,0,1.0751,-1.0223,-1.3024\N,0,1.98
 67,-0.1308,0.5847\H,0,1.938,0.6107,1.2671\C,0,2.9704,-1.1814,0.7803\H,
 0,2.9251,-1.8328,-0.0934\H,0,3.9787,-0.7608,0.8673\H,0,2.7568,-1.7756,
 1.678\\Version=EM64L-G09RevA.02\State=1-A\HF=-492.9097484\MP2=-494.512
 8413\RMSD=7.197e-09\PG=C01 [X(C6H12N2O2)]\\@


 Human beings, who are almost unique in having the
 ability to learn from the experience of others, are
 also remarkable for their apparent disinclination to do so.
                               -- Douglas Adams,
                                Last Chance to See
 Job cpu time:  0 days  9 hours 47 minutes  4.1 seconds.
 File lengths (MBytes):  RWF=  10593 Int=      0 D2E=      0 Chk=      7 Scr=      2
 Normal termination of Gaussian 09 at Mon Feb 13 17:03:27 2017.
