 Entering Gaussian System, Link 0=g09
 Initial command:
 /home/steboss/Software/g09/l1.exe /home/steboss/projects/phi_psi_scan/alanine/MP2/300/5558/Gau-29157.inp -scrdir=/home/steboss/projects/phi_psi_scan/alanine/MP2/300/5558/
 Entering Link 1 = /home/steboss/Software/g09/l1.exe PID=     29159.
  
 Copyright (c) 1988,1990,1992,1993,1995,1998,2003,2009, Gaussian, Inc.
                  All Rights Reserved.
  
 This is part of the Gaussian(R) 09 program.  It is based on
 the Gaussian(R) 03 system (copyright 2003, Gaussian, Inc.),
 the Gaussian(R) 98 system (copyright 1998, Gaussian, Inc.),
 the Gaussian(R) 94 system (copyright 1995, Gaussian, Inc.),
 the Gaussian 92(TM) system (copyright 1992, Gaussian, Inc.),
 the Gaussian 90(TM) system (copyright 1990, Gaussian, Inc.),
 the Gaussian 88(TM) system (copyright 1988, Gaussian, Inc.),
 the Gaussian 86(TM) system (copyright 1986, Carnegie Mellon
 University), and the Gaussian 82(TM) system (copyright 1983,
 Carnegie Mellon University). Gaussian is a federally registered
 trademark of Gaussian, Inc.
  
 This software contains proprietary and confidential information,
 including trade secrets, belonging to Gaussian, Inc.
  
 This software is provided under written license and may be
 used, copied, transmitted, or stored only in accord with that
 written license.
  
 The following legend is applicable only to US Government
 contracts under FAR:
  
                    RESTRICTED RIGHTS LEGEND
  
 Use, reproduction and disclosure by the US Government is
 subject to restrictions as set forth in subparagraphs (a)
 and (c) of the Commercial Computer Software - Restricted
 Rights clause in FAR 52.227-19.
  
 Gaussian, Inc.
 340 Quinnipiac St., Bldg. 40, Wallingford CT 06492
  
  
 ---------------------------------------------------------------
 Warning -- This program may not be used in any manner that
 competes with the business of Gaussian, Inc. or will provide
 assistance to any competitor of Gaussian, Inc.  The licensee
 of this program is prohibited from giving any competitor of
 Gaussian, Inc. access to this program.  By using this program,
 the user acknowledges that Gaussian, Inc. is engaged in the
 business of creating and licensing software in the field of
 computational chemistry and represents and warrants to the
 licensee that it is not a competitor of Gaussian, Inc. and that
 it will not use this program in any manner prohibited above.
 ---------------------------------------------------------------
  

 Cite this work as:
 Gaussian 09, Revision A.02,
 M. J. Frisch, G. W. Trucks, H. B. Schlegel, G. E. Scuseria, 
 M. A. Robb, J. R. Cheeseman, G. Scalmani, V. Barone, B. Mennucci, 
 G. A. Petersson, H. Nakatsuji, M. Caricato, X. Li, H. P. Hratchian, 
 A. F. Izmaylov, J. Bloino, G. Zheng, J. L. Sonnenberg, M. Hada, 
 M. Ehara, K. Toyota, R. Fukuda, J. Hasegawa, M. Ishida, T. Nakajima, 
 Y. Honda, O. Kitao, H. Nakai, T. Vreven, J. A. Montgomery, Jr., 
 J. E. Peralta, F. Ogliaro, M. Bearpark, J. J. Heyd, E. Brothers, 
 K. N. Kudin, V. N. Staroverov, R. Kobayashi, J. Normand, 
 K. Raghavachari, A. Rendell, J. C. Burant, S. S. Iyengar, J. Tomasi, 
 M. Cossi, N. Rega, J. M. Millam, M. Klene, J. E. Knox, J. B. Cross, 
 V. Bakken, C. Adamo, J. Jaramillo, R. Gomperts, R. E. Stratmann, 
 O. Yazyev, A. J. Austin, R. Cammi, C. Pomelli, J. W. Ochterski, 
 R. L. Martin, K. Morokuma, V. G. Zakrzewski, G. A. Voth, 
 P. Salvador, J. J. Dannenberg, S. Dapprich, A. D. Daniels, 
 O. Farkas, J. B. Foresman, J. V. Ortiz, J. Cioslowski, 
 and D. J. Fox, Gaussian, Inc., Wallingford CT, 2009.
 
 ******************************************
 Gaussian 09:  EM64L-G09RevA.02 11-Jun-2009
                13-Feb-2017 
 ******************************************
 %chk=structure_345.chk
 %NProcShared=8
 Will use up to    8 processors via shared memory.
 -------------------
 #SP MP2/aug-cc-pVDZ
 -------------------
 1/38=1/1;
 2/12=2,17=6,18=5,40=1/2;
 3/5=16,7=10,11=9,16=1,25=1,30=1/1,2,3;
 4//1;
 5/5=2,38=5/2;
 8/10=1/1;
 9/16=-3/6;
 6/7=2,8=2,9=2,10=2/1;
 99/5=1,9=1/99;
 -------------------------------
 Single Point calculation at MP2
 -------------------------------
 Symbolic Z-matrix:
 Charge =  0 Multiplicity = 1
 H                     3.3535   -1.6411   -0.5665 
 C                     3.2163   -0.5708   -0.3928 
 H                     3.3712   -0.0289   -1.3315 
 H                     3.9841   -0.2542    0.3217 
 C                     1.8444   -0.344     0.2286 
 O                     1.4079   -1.0528    1.1272 
 N                     1.1428    0.7224   -0.2691 
 H                     1.5484    1.2582   -1.0236 
 C                    -0.1453    1.1732    0.2581 
 H                    -0.0219    1.3885    1.3261 
 C                    -0.5693    2.458    -0.4619 
 H                    -0.6969    2.2814   -1.5371 
 H                    -1.5236    2.7972   -0.0548 
 H                     0.1757    3.2492   -0.3204 
 C                    -1.3153    0.1626    0.2229 
 O                    -2.3407    0.4449    0.8322 
 N                    -1.1775   -0.9423   -0.5583 
 H                    -0.2407   -1.1935   -0.835 
 C                    -2.1816   -1.9937   -0.555 
 H                    -3.1393   -1.542    -0.294 
 H                    -2.2498   -2.4484   -1.5482 
 H                    -1.9503   -2.7744    0.1812 
 
                          Input orientation:                          
 ---------------------------------------------------------------------
 Center     Atomic      Atomic             Coordinates (Angstroms)
 Number     Number       Type             X           Y           Z
 ---------------------------------------------------------------------
      1          1           0        3.353500   -1.641100   -0.566500
      2          6           0        3.216300   -0.570800   -0.392800
      3          1           0        3.371200   -0.028900   -1.331500
      4          1           0        3.984100   -0.254200    0.321700
      5          6           0        1.844400   -0.344000    0.228600
      6          8           0        1.407900   -1.052800    1.127200
      7          7           0        1.142800    0.722400   -0.269100
      8          1           0        1.548400    1.258200   -1.023600
      9          6           0       -0.145300    1.173200    0.258100
     10          1           0       -0.021900    1.388500    1.326100
     11          6           0       -0.569300    2.458000   -0.461900
     12          1           0       -0.696900    2.281400   -1.537100
     13          1           0       -1.523600    2.797200   -0.054800
     14          1           0        0.175700    3.249200   -0.320400
     15          6           0       -1.315300    0.162600    0.222900
     16          8           0       -2.340700    0.444900    0.832200
     17          7           0       -1.177500   -0.942300   -0.558300
     18          1           0       -0.240700   -1.193500   -0.835000
     19          6           0       -2.181600   -1.993700   -0.555000
     20          1           0       -3.139300   -1.542000   -0.294000
     21          1           0       -2.249800   -2.448400   -1.548200
     22          1           0       -1.950300   -2.774400    0.181200
 ---------------------------------------------------------------------
                    Distance matrix (angstroms):
                    1          2          3          4          5
     1  H    0.000000
     2  C    1.092949   0.000000
     3  H    1.784580   1.094901   0.000000
     4  H    1.763533   1.095565   1.777492   0.000000
     5  C    2.142903   1.523051   2.205520   2.143606   0.000000
     6  O    2.645766   2.411024   3.308795   2.814853   1.224913
     7  N    3.249888   2.446849   2.580487   3.061989   1.370094
     8  H    3.445761   2.554416   2.252560   3.166989   2.054913
     9  C    4.565288   3.842598   4.041985   4.369606   2.502333
    10  H    4.914645   4.156851   4.537068   4.444696   2.772930
    11  C    5.674674   4.848626   4.740086   5.357566   3.762173
    12  H    5.721347   4.975701   4.682862   5.638809   4.058156
    13  H    6.614110   5.824459   5.794469   6.307738   4.614204
    14  H    5.837295   4.882918   4.688228   5.214405   3.999631
    15  C    5.066969   4.631669   4.941266   5.316684   3.200059
    16  O    6.223477   5.780356   6.126327   6.383764   4.301367
    17  N    4.584577   4.412582   4.703489   5.281098   3.179474
    18  H    3.631902   3.540359   3.827352   4.479863   2.490088
    19  C    5.546331   5.584647   5.941126   6.466090   4.420884
    20  H    6.499271   6.430135   6.764059   7.265008   5.152240
    21  H    5.745645   5.893944   6.123445   6.868227   4.934368
    22  H    5.474826   5.646157   6.176115   6.448895   4.506533
                    6          7          8          9         10
     6  O    0.000000
     7  N    2.274042   0.000000
     8  H    3.160127   1.010378   0.000000
     9  C    2.850060   1.462998   2.125700   0.000000
    10  H    2.836166   2.084437   2.829118   1.096451   0.000000
    11  C    4.331313   2.445560   2.497935   1.532608   2.154164
    12  H    4.758736   2.724482   2.520316   2.180622   3.074217
    13  H    4.981297   3.385323   3.569913   2.152903   2.479198
    14  H    4.703304   2.706036   2.518507   2.178871   2.492431
    15  C    3.116211   2.568598   3.309816   1.546432   2.095892
    16  O    4.047485   3.663965   4.385265   2.383232   2.551696
    17  N    3.088270   2.870306   3.534011   2.491443   3.212321
    18  H    2.566692   2.430018   3.040934   2.608685   3.374159
    19  C    4.074261   4.302392   4.970648   3.851870   4.431943
    20  H    4.789170   4.844018   5.508899   4.079358   4.575012
    21  H    4.741754   4.816618   5.332955   4.561538   5.286487
    22  H    3.890544   4.690165   5.473053   4.341369   4.728558
                   11         12         13         14         15
    11  C    0.000000
    12  H    1.097053   0.000000
    13  H    1.091547   1.773893   0.000000
    14  H    1.095922   1.782814   1.778333   0.000000
    15  C    2.508850   2.823001   2.657372   3.470642   0.000000
    16  O    2.977436   3.418829   2.643433   3.940159   1.225718
    17  N    3.455610   3.403126   3.789084   4.410943   1.360171
    18  H    3.685191   3.574352   4.263828   4.491746   2.028035
    19  C    4.735590   4.630911   4.861675   5.753251   2.450558
    20  H    4.757425   4.704147   4.636417   5.826278   2.549475
    21  H    5.298763   4.978216   5.502175   6.312938   3.290502
    22  H    5.449656   5.484950   5.592897   6.407436   3.005151
                   16         17         18         19         20
    16  O    0.000000
    17  N    2.282728   0.000000
    18  H    3.142278   1.008592   0.000000
    19  C    2.810055   1.453847   2.117974   0.000000
    20  H    2.419475   2.068370   2.969178   1.090570   0.000000
    21  H    3.747766   2.097157   2.473845   1.094463   1.784878
    22  H    3.307583   2.121478   2.540598   1.097717   1.777174
                   21         22
    21  H    0.000000
    22  H    1.785161   0.000000
 Stoichiometry    C6H12N2O2
 Framework group  C1[X(C6H12N2O2)]
 Deg. of freedom    60
 Full point group                 C1      NOp   1
 Largest Abelian subgroup         C1      NOp   1
 Largest concise Abelian subgroup C1      NOp   1
                         Standard orientation:                         
 ---------------------------------------------------------------------
 Center     Atomic      Atomic             Coordinates (Angstroms)
 Number     Number       Type             X           Y           Z
 ---------------------------------------------------------------------
      1          1           0        3.353492   -1.641125   -0.566509
      2          6           0        3.216295   -0.570825   -0.392809
      3          1           0        3.371196   -0.028925   -1.331509
      4          1           0        3.984096   -0.254226    0.321691
      5          6           0        1.844395   -0.344021    0.228591
      6          8           0        1.407894   -1.052820    1.127191
      7          7           0        1.142798    0.722381   -0.269109
      8          1           0        1.548399    1.258180   -1.023609
      9          6           0       -0.145301    1.173184    0.258091
     10          1           0       -0.021900    1.388483    1.326091
     11          6           0       -0.569298    2.457985   -0.461909
     12          1           0       -0.696898    2.281385   -1.537109
     13          1           0       -1.523597    2.797187   -0.054809
     14          1           0        0.175704    3.249183   -0.320409
     15          6           0       -1.315303    0.162587    0.222891
     16          8           0       -2.340703    0.444889    0.832191
     17          7           0       -1.177506   -0.942314   -0.558309
     18          1           0       -0.240707   -1.193516   -0.835009
     19          6           0       -2.181609   -1.993711   -0.555009
     20          1           0       -3.139308   -1.542009   -0.294009
     21          1           0       -2.249810   -2.448411   -1.548209
     22          1           0       -1.950311   -2.774412    0.181191
 ---------------------------------------------------------------------
 Rotational constants (GHZ):      1.7547169      0.9634400      0.7243672
 Standard basis: Aug-CC-pVDZ (5D, 7F)
 There are   338 symmetry adapted basis functions of A   symmetry.
 Integral buffers will be    131072 words long.
 Raffenetti 1 integral format.
 Two-electron integral symmetry is turned on.
   338 basis functions,   562 primitive gaussians,   358 cartesian basis functions
    39 alpha electrons       39 beta electrons
       nuclear repulsion energy       561.0981056455 Hartrees.
 NAtoms=   22 NActive=   22 NUniq=   22 SFac= 7.50D-01 NAtFMM=   80 NAOKFM=F Big=F
 One-electron integrals computed using PRISM.
 NBasis=   338 RedAO= T  NBF=   338
 NBsUse=   338 1.00D-06 NBFU=   338
 Harris functional with IExCor=  205 diagonalized for initial guess.
 ExpMin= 2.97D-02 ExpMax= 1.17D+04 ExpMxC= 4.01D+02 IAcc=3 IRadAn=         0 AccDes= 0.00D+00
 HarFok:  IExCor=  205 AccDes= 0.00D+00 IRadAn=         0 IDoV= 1
 ScaDFX=  1.000000  1.000000  1.000000  1.000000
 FoFCou: FMM=F IPFlag=           0 FMFlag=      100000 FMFlg1=           0
         NFxFlg=           0 DoJE=T BraDBF=F KetDBF=T FulRan=T
         Omega=  0.000000  0.000000  1.000000  0.000000  0.000000 ICntrl=     500 IOpCl=  0
         NMat0=    1 NMatS0=    1 NMatT0=    0 NMatD0=    1 NMtDS0=    0 NMtDT0=    0
         I1Cent=           4 NGrid=           0.
 Petite list used in FoFCou.
 Initial guess orbital symmetries:
       Occupied  (A) (A) (A) (A) (A) (A) (A) (A) (A) (A) (A) (A)
                 (A) (A) (A) (A) (A) (A) (A) (A) (A) (A) (A) (A)
                 (A) (A) (A) (A) (A) (A) (A) (A) (A) (A) (A) (A)
                 (A) (A) (A)
       Virtual   (A) (A) (A) (A) (A) (A) (A) (A) (A) (A) (A) (A)
                 (A) (A) (A) (A) (A) (A) (A) (A) (A) (A) (A) (A)
                 (A) (A) (A) (A) (A) (A) (A) (A) (A) (A) (A) (A)
                 (A) (A) (A) (A) (A) (A) (A) (A) (A) (A) (A) (A)
                 (A) (A) (A) (A) (A) (A) (A) (A) (A) (A) (A) (A)
                 (A) (A) (A) (A) (A) (A) (A) (A) (A) (A) (A) (A)
                 (A) (A) (A) (A) (A) (A) (A) (A) (A) (A) (A) (A)
                 (A) (A) (A) (A) (A) (A) (A) (A) (A) (A) (A) (A)
                 (A) (A) (A) (A) (A) (A) (A) (A) (A) (A) (A) (A)
                 (A) (A) (A) (A) (A) (A) (A) (A) (A) (A) (A) (A)
                 (A) (A) (A) (A) (A) (A) (A) (A) (A) (A) (A) (A)
                 (A) (A) (A) (A) (A) (A) (A) (A) (A) (A) (A) (A)
                 (A) (A) (A) (A) (A) (A) (A) (A) (A) (A) (A) (A)
                 (A) (A) (A) (A) (A) (A) (A) (A) (A) (A) (A) (A)
                 (A) (A) (A) (A) (A) (A) (A) (A) (A) (A) (A) (A)
                 (A) (A) (A) (A) (A) (A) (A) (A) (A) (A) (A) (A)
                 (A) (A) (A) (A) (A) (A) (A) (A) (A) (A) (A) (A)
                 (A) (A) (A) (A) (A) (A) (A) (A) (A) (A) (A) (A)
                 (A) (A) (A) (A) (A) (A) (A) (A) (A) (A) (A) (A)
                 (A) (A) (A) (A) (A) (A) (A) (A) (A) (A) (A) (A)
                 (A) (A) (A) (A) (A) (A) (A) (A) (A) (A) (A) (A)
                 (A) (A) (A) (A) (A) (A) (A) (A) (A) (A) (A) (A)
                 (A) (A) (A) (A) (A) (A) (A) (A) (A) (A) (A) (A)
                 (A) (A) (A) (A) (A) (A) (A) (A) (A) (A) (A) (A)
                 (A) (A) (A) (A) (A) (A) (A) (A) (A) (A) (A)
 The electronic state of the initial guess is 1-A.
 Requested convergence on RMS density matrix=1.00D-08 within 128 cycles.
 Requested convergence on MAX density matrix=1.00D-06.
 Requested convergence on             energy=1.00D-06.
 No special actions if energy rises.
 Initial convergence to 1.0D-05 achieved.  Increase integral accuracy.
 SCF Done:  E(RHF) =  -492.922746410     A.U. after   14 cycles
             Convg  =    0.6552D-08             -V/T =  2.0017
 ExpMin= 2.97D-02 ExpMax= 1.17D+04 ExpMxC= 4.01D+02 IAcc=3 IRadAn=         5 AccDes= 0.00D+00
 HarFok:  IExCor=  205 AccDes= 0.00D+00 IRadAn=         5 IDoV=-2
 ScaDFX=  1.000000  1.000000  1.000000  1.000000
 Range of M.O.s used for correlation:    11   338
 NBasis=   338 NAE=    39 NBE=    39 NFC=    10 NFV=     0
 NROrb=    328 NOA=    29 NOB=    29 NVA=   299 NVB=   299

 **** Warning!!: The largest alpha MO coefficient is  0.57970126D+02

 Disk-based method using OVN memory for 29 occupieds at a time.
 Estimated scratch disk usage=  1392650943 words.
 Actual    scratch disk usage=  1379560023 words.
 JobTyp=1 Pass  1:  I=   1 to  29 NPSUse=  8 ParTrn=T ParDer=T DoDerP=F.
 Spin components of T(2) and E(2):
     alpha-alpha T2 =       0.6802953839D-01 E2=     -0.2060537454D+00
     alpha-beta  T2 =       0.3766375558D+00 E2=     -0.1190668362D+01
     beta-beta   T2 =       0.6802953839D-01 E2=     -0.2060537454D+00
 ANorm=    0.1229917328D+01
 E2 =    -0.1602775853D+01 EUMP2 =    -0.49452552226299D+03

 **********************************************************************

            Population analysis using the SCF density.

 **********************************************************************

 Orbital symmetries:
       Occupied  (A) (A) (A) (A) (A) (A) (A) (A) (A) (A) (A) (A)
                 (A) (A) (A) (A) (A) (A) (A) (A) (A) (A) (A) (A)
                 (A) (A) (A) (A) (A) (A) (A) (A) (A) (A) (A) (A)
                 (A) (A) (A)
       Virtual   (A) (A) (A) (A) (A) (A) (A) (A) (A) (A) (A) (A)
                 (A) (A) (A) (A) (A) (A) (A) (A) (A) (A) (A) (A)
                 (A) (A) (A) (A) (A) (A) (A) (A) (A) (A) (A) (A)
                 (A) (A) (A) (A) (A) (A) (A) (A) (A) (A) (A) (A)
                 (A) (A) (A) (A) (A) (A) (A) (A) (A) (A) (A) (A)
                 (A) (A) (A) (A) (A) (A) (A) (A) (A) (A) (A) (A)
                 (A) (A) (A) (A) (A) (A) (A) (A) (A) (A) (A) (A)
                 (A) (A) (A) (A) (A) (A) (A) (A) (A) (A) (A) (A)
                 (A) (A) (A) (A) (A) (A) (A) (A) (A) (A) (A) (A)
                 (A) (A) (A) (A) (A) (A) (A) (A) (A) (A) (A) (A)
                 (A) (A) (A) (A) (A) (A) (A) (A) (A) (A) (A) (A)
                 (A) (A) (A) (A) (A) (A) (A) (A) (A) (A) (A) (A)
                 (A) (A) (A) (A) (A) (A) (A) (A) (A) (A) (A) (A)
                 (A) (A) (A) (A) (A) (A) (A) (A) (A) (A) (A) (A)
                 (A) (A) (A) (A) (A) (A) (A) (A) (A) (A) (A) (A)
                 (A) (A) (A) (A) (A) (A) (A) (A) (A) (A) (A) (A)
                 (A) (A) (A) (A) (A) (A) (A) (A) (A) (A) (A) (A)
                 (A) (A) (A) (A) (A) (A) (A) (A) (A) (A) (A) (A)
                 (A) (A) (A) (A) (A) (A) (A) (A) (A) (A) (A) (A)
                 (A) (A) (A) (A) (A) (A) (A) (A) (A) (A) (A) (A)
                 (A) (A) (A) (A) (A) (A) (A) (A) (A) (A) (A) (A)
                 (A) (A) (A) (A) (A) (A) (A) (A) (A) (A) (A) (A)
                 (A) (A) (A) (A) (A) (A) (A) (A) (A) (A) (A) (A)
                 (A) (A) (A) (A) (A) (A) (A) (A) (A) (A) (A) (A)
                 (A) (A) (A) (A) (A) (A) (A) (A) (A) (A) (A)
 The electronic state is 1-A.
 Alpha  occ. eigenvalues --  -20.54298 -20.52267 -15.61172 -15.58676 -11.37558
 Alpha  occ. eigenvalues --  -11.35394 -11.29611 -11.25991 -11.25990 -11.24521
 Alpha  occ. eigenvalues --   -1.39813  -1.37704  -1.25285  -1.22259  -1.06200
 Alpha  occ. eigenvalues --   -1.00169  -0.95386  -0.87945  -0.81447  -0.78069
 Alpha  occ. eigenvalues --   -0.71860  -0.69157  -0.67809  -0.62932  -0.62348
 Alpha  occ. eigenvalues --   -0.62012  -0.59576  -0.59208  -0.58199  -0.55585
 Alpha  occ. eigenvalues --   -0.54567  -0.54252  -0.53706  -0.52155  -0.49441
 Alpha  occ. eigenvalues --   -0.43852  -0.43668  -0.40043  -0.38203
 Alpha virt. eigenvalues --    0.02244   0.03755   0.04083   0.04601   0.05780
 Alpha virt. eigenvalues --    0.06017   0.06352   0.06747   0.06934   0.08224
 Alpha virt. eigenvalues --    0.08637   0.09552   0.11508   0.11735   0.11933
 Alpha virt. eigenvalues --    0.13205   0.13973   0.14685   0.14865   0.15544
 Alpha virt. eigenvalues --    0.15571   0.16149   0.16819   0.17314   0.17491
 Alpha virt. eigenvalues --    0.17589   0.17956   0.18358   0.19028   0.19254
 Alpha virt. eigenvalues --    0.19329   0.20424   0.20539   0.21401   0.22283
 Alpha virt. eigenvalues --    0.22675   0.23047   0.25501   0.25826   0.26037
 Alpha virt. eigenvalues --    0.26376   0.27928   0.29458   0.29760   0.30783
 Alpha virt. eigenvalues --    0.31316   0.32356   0.32890   0.33178   0.34113
 Alpha virt. eigenvalues --    0.34874   0.34939   0.35595   0.36008   0.36635
 Alpha virt. eigenvalues --    0.37451   0.37755   0.38945   0.39071   0.40439
 Alpha virt. eigenvalues --    0.41110   0.41257   0.42045   0.42535   0.42952
 Alpha virt. eigenvalues --    0.43479   0.43977   0.44326   0.45388   0.46071
 Alpha virt. eigenvalues --    0.46575   0.46861   0.47559   0.48685   0.48813
 Alpha virt. eigenvalues --    0.49522   0.50312   0.50893   0.51334   0.52433
 Alpha virt. eigenvalues --    0.53427   0.53463   0.53997   0.54922   0.55588
 Alpha virt. eigenvalues --    0.55682   0.57343   0.57896   0.58059   0.58687
 Alpha virt. eigenvalues --    0.59680   0.59799   0.60416   0.60935   0.62028
 Alpha virt. eigenvalues --    0.62246   0.63218   0.64204   0.64764   0.65293
 Alpha virt. eigenvalues --    0.66052   0.66646   0.67217   0.67911   0.67953
 Alpha virt. eigenvalues --    0.68700   0.69612   0.70276   0.71186   0.71972
 Alpha virt. eigenvalues --    0.72422   0.72598   0.73526   0.74418   0.74692
 Alpha virt. eigenvalues --    0.75245   0.76228   0.77436   0.78488   0.79328
 Alpha virt. eigenvalues --    0.79754   0.81046   0.81865   0.82643   0.83643
 Alpha virt. eigenvalues --    0.84584   0.85172   0.85840   0.87261   0.88051
 Alpha virt. eigenvalues --    0.88511   0.89744   0.90512   0.92290   0.93197
 Alpha virt. eigenvalues --    0.94043   0.95438   0.97198   0.97786   0.99945
 Alpha virt. eigenvalues --    1.00252   1.00929   1.02404   1.03727   1.05311
 Alpha virt. eigenvalues --    1.07191   1.07761   1.09463   1.11119   1.11961
 Alpha virt. eigenvalues --    1.13002   1.13829   1.15254   1.16427   1.17462
 Alpha virt. eigenvalues --    1.18053   1.19711   1.21096   1.22285   1.22637
 Alpha virt. eigenvalues --    1.23228   1.25633   1.27682   1.27969   1.30683
 Alpha virt. eigenvalues --    1.31338   1.34362   1.35057   1.35729   1.36932
 Alpha virt. eigenvalues --    1.38411   1.39118   1.43830   1.44629   1.45699
 Alpha virt. eigenvalues --    1.47286   1.49123   1.50263   1.51605   1.53936
 Alpha virt. eigenvalues --    1.57284   1.58234   1.59609   1.61418   1.63436
 Alpha virt. eigenvalues --    1.64246   1.68899   1.70061   1.71313   1.73676
 Alpha virt. eigenvalues --    1.74924   1.76131   1.77648   1.79754   1.82569
 Alpha virt. eigenvalues --    1.84266   1.84868   1.85773   1.86907   1.87961
 Alpha virt. eigenvalues --    1.88853   1.90132   1.90630   1.92991   1.93522
 Alpha virt. eigenvalues --    1.95167   1.96307   1.99044   1.99661   2.01813
 Alpha virt. eigenvalues --    2.01940   2.03690   2.05158   2.06205   2.09205
 Alpha virt. eigenvalues --    2.12019   2.13683   2.14986   2.16176   2.17116
 Alpha virt. eigenvalues --    2.19598   2.20104   2.21439   2.22952   2.24149
 Alpha virt. eigenvalues --    2.25684   2.26239   2.27088   2.28281   2.30113
 Alpha virt. eigenvalues --    2.32362   2.34426   2.35609   2.36723   2.37181
 Alpha virt. eigenvalues --    2.39610   2.40574   2.41632   2.43780   2.44390
 Alpha virt. eigenvalues --    2.47082   2.49003   2.50630   2.51381   2.51650
 Alpha virt. eigenvalues --    2.53361   2.54778   2.56163   2.56777   2.59665
 Alpha virt. eigenvalues --    2.61994   2.64355   2.65273   2.67968   2.68344
 Alpha virt. eigenvalues --    2.69958   2.74054   2.74648   2.77491   2.79675
 Alpha virt. eigenvalues --    2.83514   2.84421   2.85851   2.86904   2.89321
 Alpha virt. eigenvalues --    2.90497   2.90801   2.94221   2.95669   2.98089
 Alpha virt. eigenvalues --    2.99432   3.01393   3.04146   3.06173   3.10557
 Alpha virt. eigenvalues --    3.12262   3.14048   3.15999   3.20845   3.22134
 Alpha virt. eigenvalues --    3.35472   3.40301   3.44960   3.49454   3.52617
 Alpha virt. eigenvalues --    3.61190   3.66091   3.77034   3.84663   3.85146
 Alpha virt. eigenvalues --    3.86812   3.89109   3.90425   3.96253   3.98708
 Alpha virt. eigenvalues --    4.03696   4.05597   4.20774   4.26451
          Condensed to atoms (all electrons):
              1          2          3          4          5          6
     1  H    0.751143   0.333283  -0.097819  -0.050483  -0.079246   0.028537
     2  C    0.333283   4.518869   0.345270   0.408489   0.279131  -0.058815
     3  H   -0.097819   0.345270   1.105798  -0.059999   0.158209  -0.014897
     4  H   -0.050483   0.408489  -0.059999   0.709222  -0.084844   0.005958
     5  C   -0.079246   0.279131   0.158209  -0.084844   5.514554   0.197630
     6  O    0.028537  -0.058815  -0.014897   0.005958   0.197630   8.694140
     7  N    0.079386  -0.093718  -0.254587   0.034475  -0.078863  -0.114664
     8  H   -0.002611  -0.051032   0.015919  -0.007109  -0.085866  -0.005666
     9  C    0.008098  -0.039010  -0.030716  -0.018746  -0.135309   0.081771
    10  H    0.000414  -0.003499   0.000340  -0.002951  -0.005915   0.013567
    11  C   -0.000484  -0.018853  -0.005845   0.002872  -0.022296  -0.001071
    12  H   -0.000538  -0.005647  -0.000090   0.000251  -0.014468  -0.000348
    13  H    0.000303   0.001556  -0.000071   0.000016   0.001017  -0.001751
    14  H   -0.000325  -0.000973   0.000367  -0.000165   0.006889   0.002345
    15  C    0.003939   0.008750  -0.005532   0.004823  -0.107367  -0.023351
    16  O   -0.000001   0.001304   0.000164   0.000010   0.020458   0.002132
    17  N   -0.002245  -0.004451  -0.001735  -0.000058   0.022470   0.011762
    18  H    0.002926  -0.004943  -0.004359  -0.002261  -0.002704   0.007586
    19  C    0.000185   0.004802  -0.001077   0.000270  -0.003320   0.000640
    20  H    0.000248   0.001059  -0.000129   0.000067  -0.007050  -0.000895
    21  H   -0.000320   0.000240   0.000103   0.000097   0.006525  -0.000534
    22  H   -0.000003  -0.000923   0.000187  -0.000216   0.009273   0.001368
              7          8          9         10         11         12
     1  H    0.079386  -0.002611   0.008098   0.000414  -0.000484  -0.000538
     2  C   -0.093718  -0.051032  -0.039010  -0.003499  -0.018853  -0.005647
     3  H   -0.254587   0.015919  -0.030716   0.000340  -0.005845  -0.000090
     4  H    0.034475  -0.007109  -0.018746  -0.002951   0.002872   0.000251
     5  C   -0.078863  -0.085866  -0.135309  -0.005915  -0.022296  -0.014468
     6  O   -0.114664  -0.005666   0.081771   0.013567  -0.001071  -0.000348
     7  N    7.669984   0.384884  -0.309430  -0.040880   0.000175  -0.064176
     8  H    0.384884   0.934952  -0.159736  -0.007025   0.010710   0.006153
     9  C   -0.309430  -0.159736   6.747463   0.003152   0.224913  -0.130111
    10  H   -0.040880  -0.007025   0.003152   1.028897   0.015087   0.067308
    11  C    0.000175   0.010710   0.224913   0.015087   4.311532   0.479106
    12  H   -0.064176   0.006153  -0.130111   0.067308   0.479106   1.080690
    13  H    0.045318   0.001145  -0.009857  -0.033260   0.290833  -0.160044
    14  H   -0.040923   0.000627   0.147498  -0.046608   0.181527  -0.203585
    15  C    0.143985   0.013020  -0.308378  -0.057428  -0.187264  -0.080698
    16  O    0.000611  -0.002163  -0.099078   0.052294   0.045499   0.011800
    17  N   -0.026912   0.009277  -0.046624   0.057490   0.076813   0.035230
    18  H   -0.005315  -0.001751   0.014547   0.001156  -0.023009   0.001562
    19  C    0.017867   0.001888  -0.055667   0.006749  -0.011740   0.002795
    20  H    0.006395   0.000581  -0.025697   0.000043  -0.006535  -0.001556
    21  H   -0.002437  -0.000118   0.004713   0.000699  -0.001557  -0.000129
    22  H    0.001383  -0.000069  -0.014787  -0.001742   0.001237   0.000347
             13         14         15         16         17         18
     1  H    0.000303  -0.000325   0.003939  -0.000001  -0.002245   0.002926
     2  C    0.001556  -0.000973   0.008750   0.001304  -0.004451  -0.004943
     3  H   -0.000071   0.000367  -0.005532   0.000164  -0.001735  -0.004359
     4  H    0.000016  -0.000165   0.004823   0.000010  -0.000058  -0.002261
     5  C    0.001017   0.006889  -0.107367   0.020458   0.022470  -0.002704
     6  O   -0.001751   0.002345  -0.023351   0.002132   0.011762   0.007586
     7  N    0.045318  -0.040923   0.143985   0.000611  -0.026912  -0.005315
     8  H    0.001145   0.000627   0.013020  -0.002163   0.009277  -0.001751
     9  C   -0.009857   0.147498  -0.308378  -0.099078  -0.046624   0.014547
    10  H   -0.033260  -0.046608  -0.057428   0.052294   0.057490   0.001156
    11  C    0.290833   0.181527  -0.187264   0.045499   0.076813  -0.023009
    12  H   -0.160044  -0.203585  -0.080698   0.011800   0.035230   0.001562
    13  H    1.104155  -0.194516   0.036546  -0.008684  -0.013552  -0.000889
    14  H   -0.194516   1.180234   0.043422  -0.001022  -0.003341  -0.001370
    15  C    0.036546   0.043422   5.356374   0.123363   0.046366  -0.025259
    16  O   -0.008684  -0.001022   0.123363   8.863725  -0.113598   0.006249
    17  N   -0.013552  -0.003341   0.046366  -0.113598   7.148289   0.246991
    18  H   -0.000889  -0.001370  -0.025259   0.006249   0.246991   0.977028
    19  C    0.000168  -0.000194  -0.081241   0.013853   0.209795  -0.121823
    20  H    0.001045  -0.000086   0.069607  -0.019660  -0.066337   0.001049
    21  H   -0.000423   0.000017  -0.032014   0.010754  -0.142249   0.016818
    22  H   -0.000297   0.000240  -0.014021   0.008621   0.089244  -0.013216
             19         20         21         22
     1  H    0.000185   0.000248  -0.000320  -0.000003
     2  C    0.004802   0.001059   0.000240  -0.000923
     3  H   -0.001077  -0.000129   0.000103   0.000187
     4  H    0.000270   0.000067   0.000097  -0.000216
     5  C   -0.003320  -0.007050   0.006525   0.009273
     6  O    0.000640  -0.000895  -0.000534   0.001368
     7  N    0.017867   0.006395  -0.002437   0.001383
     8  H    0.001888   0.000581  -0.000118  -0.000069
     9  C   -0.055667  -0.025697   0.004713  -0.014787
    10  H    0.006749   0.000043   0.000699  -0.001742
    11  C   -0.011740  -0.006535  -0.001557   0.001237
    12  H    0.002795  -0.001556  -0.000129   0.000347
    13  H    0.000168   0.001045  -0.000423  -0.000297
    14  H   -0.000194  -0.000086   0.000017   0.000240
    15  C   -0.081241   0.069607  -0.032014  -0.014021
    16  O    0.013853  -0.019660   0.010754   0.008621
    17  N    0.209795  -0.066337  -0.142249   0.089244
    18  H   -0.121823   0.001049   0.016818  -0.013216
    19  C    4.133237   0.458681   0.417104   0.276650
    20  H    0.458681   1.005182  -0.167232  -0.111972
    21  H    0.417104  -0.167232   1.210618  -0.170490
    22  H    0.276650  -0.111972  -0.170490   1.018025
 Mulliken atomic charges:
              1
     1  H    0.025611
     2  C    0.379110
     3  H   -0.149502
     4  H    0.060281
     5  C    0.411092
     6  O   -0.825444
     7  N   -0.352559
     8  H   -0.056010
     9  C    0.150991
    10  H   -0.047888
    11  C    0.638349
    12  H   -0.023851
    13  H   -0.058759
    14  H   -0.070059
    15  C    1.072358
    16  O   -0.916630
    17  N   -0.532626
    18  H   -0.069011
    19  C    0.730380
    20  H   -0.136809
    21  H   -0.150186
    22  H   -0.078840
 Sum of Mulliken atomic charges =   0.00000
 Mulliken charges with hydrogens summed into heavy atoms:
              1
     2  C    0.315500
     5  C    0.411092
     6  O   -0.825444
     7  N   -0.408569
     9  C    0.103103
    11  C    0.485681
    15  C    1.072358
    16  O   -0.916630
    17  N   -0.601637
    19  C    0.364545
 Sum of Mulliken charges with hydrogens summed into heavy atoms =   0.00000
 Electronic spatial extent (au):  <R**2>=           1698.9426
 Charge=              0.0000 electrons
 Dipole moment (field-independent basis, Debye):
    X=              4.0365    Y=              1.1045    Z=             -4.5541  Tot=              6.1849
 Quadrupole moment (field-independent basis, Debye-Ang):
   XX=            -62.1060   YY=            -56.8285   ZZ=            -64.7235
   XY=              6.0568   XZ=             -0.2507   YZ=              2.6281
 Traceless Quadrupole moment (field-independent basis, Debye-Ang):
   XX=             -0.8867   YY=              4.3909   ZZ=             -3.5042
   XY=              6.0568   XZ=             -0.2507   YZ=              2.6281
 Octapole moment (field-independent basis, Debye-Ang**2):
  XXX=             44.7683  YYY=              0.0820  ZZZ=             -3.0152  XYY=             -6.7471
  XXY=            -10.5966  XXZ=            -17.4660  XZZ=              2.9670  YZZ=              3.4012
  YYZ=             -6.7030  XYZ=              4.6121
 Hexadecapole moment (field-independent basis, Debye-Ang**3):
 XXXX=          -1269.0516 YYYY=           -701.9545 ZZZZ=           -216.4176 XXXY=             18.8473
 XXXZ=             23.9668 YYYX=              6.6707 YYYZ=              7.6496 ZZZX=             -5.3034
 ZZZY=              3.1600 XXYY=           -324.5347 XXZZ=           -265.8934 YYZZ=           -154.9080
 XXYZ=              0.7360 YYXZ=             -7.7388 ZZXY=             12.6581
 N-N= 5.610981056455D+02 E-N=-2.277342156771D+03  KE= 4.920670311437D+02
 1\1\GINC-NODE005\SP\RMP2-FC\Aug-CC-pVDZ\C6H12N2O2\MANAGER\13-Feb-2017\
 0\\#SP MP2/aug-cc-pVDZ\\Single Point calculation at MP2\\0,1\H,0,3.353
 5,-1.6411,-0.5665\C,0,3.2163,-0.5708,-0.3928\H,0,3.3712,-0.0289,-1.331
 5\H,0,3.9841,-0.2542,0.3217\C,0,1.8444,-0.344,0.2286\O,0,1.4079,-1.052
 8,1.1272\N,0,1.1428,0.7224,-0.2691\H,0,1.5484,1.2582,-1.0236\C,0,-0.14
 53,1.1732,0.2581\H,0,-0.0219,1.3885,1.3261\C,0,-0.5693,2.458,-0.4619\H
 ,0,-0.6969,2.2814,-1.5371\H,0,-1.5236,2.7972,-0.0548\H,0,0.1757,3.2492
 ,-0.3204\C,0,-1.3153,0.1626,0.2229\O,0,-2.3407,0.4449,0.8322\N,0,-1.17
 75,-0.9423,-0.5583\H,0,-0.2407,-1.1935,-0.835\C,0,-2.1816,-1.9937,-0.5
 55\H,0,-3.1393,-1.542,-0.294\H,0,-2.2498,-2.4484,-1.5482\H,0,-1.9503,-
 2.7744,0.1812\\Version=EM64L-G09RevA.02\State=1-A\HF=-492.9227464\MP2=
 -494.5255223\RMSD=6.552e-09\PG=C01 [X(C6H12N2O2)]\\@


 WHERE THERE IS MUCH DESIRE TO LEARN, THERE OF NECESSITY WILL BE
 MUCH ARGUING, MUCH WRITING, MANY OPINIONS; FOR OPINION IN GOOD MEN
 IS BUT KNOWLEDGE IN THE MAKING. -- JOHN MILTON.
 Job cpu time:  0 days 13 hours 54 minutes 13.0 seconds.
 File lengths (MBytes):  RWF=  10642 Int=      0 D2E=      0 Chk=      7 Scr=      2
 Normal termination of Gaussian 09 at Mon Feb 13 17:53:48 2017.
