 Entering Gaussian System, Link 0=g09
 Initial command:
 /home/steboss/Software/g09/l1.exe /home/steboss/projects/phi_psi_scan/alanine/15/4244/Gau-20668.inp -scrdir=/home/steboss/projects/phi_psi_scan/alanine/15/4244/
 Entering Link 1 = /home/steboss/Software/g09/l1.exe PID=     20670.
  
 Copyright (c) 1988,1990,1992,1993,1995,1998,2003,2009, Gaussian, Inc.
                  All Rights Reserved.
  
 This is part of the Gaussian(R) 09 program.  It is based on
 the Gaussian(R) 03 system (copyright 2003, Gaussian, Inc.),
 the Gaussian(R) 98 system (copyright 1998, Gaussian, Inc.),
 the Gaussian(R) 94 system (copyright 1995, Gaussian, Inc.),
 the Gaussian 92(TM) system (copyright 1992, Gaussian, Inc.),
 the Gaussian 90(TM) system (copyright 1990, Gaussian, Inc.),
 the Gaussian 88(TM) system (copyright 1988, Gaussian, Inc.),
 the Gaussian 86(TM) system (copyright 1986, Carnegie Mellon
 University), and the Gaussian 82(TM) system (copyright 1983,
 Carnegie Mellon University). Gaussian is a federally registered
 trademark of Gaussian, Inc.
  
 This software contains proprietary and confidential information,
 including trade secrets, belonging to Gaussian, Inc.
  
 This software is provided under written license and may be
 used, copied, transmitted, or stored only in accord with that
 written license.
  
 The following legend is applicable only to US Government
 contracts under FAR:
  
                    RESTRICTED RIGHTS LEGEND
  
 Use, reproduction and disclosure by the US Government is
 subject to restrictions as set forth in subparagraphs (a)
 and (c) of the Commercial Computer Software - Restricted
 Rights clause in FAR 52.227-19.
  
 Gaussian, Inc.
 340 Quinnipiac St., Bldg. 40, Wallingford CT 06492
  
  
 ---------------------------------------------------------------
 Warning -- This program may not be used in any manner that
 competes with the business of Gaussian, Inc. or will provide
 assistance to any competitor of Gaussian, Inc.  The licensee
 of this program is prohibited from giving any competitor of
 Gaussian, Inc. access to this program.  By using this program,
 the user acknowledges that Gaussian, Inc. is engaged in the
 business of creating and licensing software in the field of
 computational chemistry and represents and warrants to the
 licensee that it is not a competitor of Gaussian, Inc. and that
 it will not use this program in any manner prohibited above.
 ---------------------------------------------------------------
  

 Cite this work as:
 Gaussian 09, Revision A.02,
 M. J. Frisch, G. W. Trucks, H. B. Schlegel, G. E. Scuseria, 
 M. A. Robb, J. R. Cheeseman, G. Scalmani, V. Barone, B. Mennucci, 
 G. A. Petersson, H. Nakatsuji, M. Caricato, X. Li, H. P. Hratchian, 
 A. F. Izmaylov, J. Bloino, G. Zheng, J. L. Sonnenberg, M. Hada, 
 M. Ehara, K. Toyota, R. Fukuda, J. Hasegawa, M. Ishida, T. Nakajima, 
 Y. Honda, O. Kitao, H. Nakai, T. Vreven, J. A. Montgomery, Jr., 
 J. E. Peralta, F. Ogliaro, M. Bearpark, J. J. Heyd, E. Brothers, 
 K. N. Kudin, V. N. Staroverov, R. Kobayashi, J. Normand, 
 K. Raghavachari, A. Rendell, J. C. Burant, S. S. Iyengar, J. Tomasi, 
 M. Cossi, N. Rega, J. M. Millam, M. Klene, J. E. Knox, J. B. Cross, 
 V. Bakken, C. Adamo, J. Jaramillo, R. Gomperts, R. E. Stratmann, 
 O. Yazyev, A. J. Austin, R. Cammi, C. Pomelli, J. W. Ochterski, 
 R. L. Martin, K. Morokuma, V. G. Zakrzewski, G. A. Voth, 
 P. Salvador, J. J. Dannenberg, S. Dapprich, A. D. Daniels, 
 O. Farkas, J. B. Foresman, J. V. Ortiz, J. Cioslowski, 
 and D. J. Fox, Gaussian, Inc., Wallingford CT, 2009.
 
 ******************************************
 Gaussian 09:  EM64L-G09RevA.02 11-Jun-2009
                10-Feb-2017 
 ******************************************
 %chk=structure_60.chk
 %NProcShared=8
 Will use up to    8 processors via shared memory.
 ----------------------------------------------------------------------
 # b3lyp/6-31G* Opt=(ModRedundant, maxcycles=1000, calcfc) geom=nocrowd
 ----------------------------------------------------------------------
 1/6=1000,10=4,14=-1,18=120,19=15,26=3,38=1/1,3;
 2/9=110,12=1,17=6,18=5,40=1/2;
 3/5=1,6=6,7=1,11=2,16=1,25=1,30=1,71=2,74=-5/1,2,3;
 4//1;
 5/5=2,38=5/2;
 8/6=4,10=90,11=11/1;
 11/6=1,8=1,9=11,15=111,16=1/1,2,10;
 10/6=1,7=6,13=1/2;
 6/7=2,8=2,9=2,10=2,28=1/1;
 7/10=1,18=20,25=1/1,2,3,16;
 1/6=1000,10=4,14=-1,18=20,19=15/3(2);
 2/9=110,12=1/2;
 99//99;
 2/9=110,12=1/2;
 3/5=1,6=6,7=1,11=2,16=1,25=1,30=1,71=1,74=-5/1,2,3;
 4/5=5,16=3/1;
 5/5=2,38=5/2;
 7//1,2,3,16;
 1/6=1000,14=-1,18=20,19=15/3(-5);
 2/9=110,12=1/2;
 6/7=2,8=2,9=2,10=2,19=2,28=1/1;
 99/9=1/99;
 ------------------
 Phi Psi fixed scan
 ------------------
 Symbolic Z-matrix:
 Charge =  0 Multiplicity = 1
 H                     0.2794    4.4661   -0.5095 
 C                     1.1328    3.8369   -0.2568 
 H                     1.206     3.0183   -0.9728 
 H                     1.0012    3.4309    0.7462 
 C                     2.4367    4.6366   -0.2933 
 O                     2.4278    5.8313   -0.5812 
 N                     3.5554    3.9697    0. 
 H                     3.5119    2.9873    0.2306 
 C                     4.8533    4.6139    0. 
 H                     5.4076    4.3155    0.8898 
 C                     5.6613    4.2208   -1.2322 
 H                     5.1233    4.5214   -2.1312 
 H                     6.6305    4.7189   -1.2058 
 H                     5.8085    3.1409   -1.2414 
 C                     4.7127    6.1294    0. 
 O                     5.1823    6.7994   -0.9171 
 N                     4.0632    6.6695    1.0338 
 H                     3.6947    6.0769    1.764 
 C                     3.8633    8.0999    1.1497 
 H                     4.3136    8.6009    0.2928 
 H                     2.7955    8.3171    1.1769 
 H                     4.3301    8.4594    2.0667 
 
 The following ModRedundant input section has been read:
 D    5    7    9   15 F                                                       
 D    7    9   15   17 F                                                       

 GradGradGradGradGradGradGradGradGradGradGradGradGradGradGradGradGradGrad
 Berny optimization.
 Initialization pass.
                           ----------------------------
                           !    Initial Parameters    !
                           ! (Angstroms and Degrees)  !
 --------------------------                            --------------------------
 ! Name  Definition              Value          Derivative Info.                !
 --------------------------------------------------------------------------------
 ! R1    R(1,2)                  1.09           calculate D2E/DX2 analytically  !
 ! R2    R(2,3)                  1.09           calculate D2E/DX2 analytically  !
 ! R3    R(2,4)                  1.09           calculate D2E/DX2 analytically  !
 ! R4    R(2,5)                  1.53           calculate D2E/DX2 analytically  !
 ! R5    R(5,6)                  1.2289         calculate D2E/DX2 analytically  !
 ! R6    R(5,7)                  1.335          calculate D2E/DX2 analytically  !
 ! R7    R(7,8)                  1.01           calculate D2E/DX2 analytically  !
 ! R8    R(7,9)                  1.449          calculate D2E/DX2 analytically  !
 ! R9    R(9,10)                 1.09           calculate D2E/DX2 analytically  !
 ! R10   R(9,11)                 1.525          calculate D2E/DX2 analytically  !
 ! R11   R(9,15)                 1.522          calculate D2E/DX2 analytically  !
 ! R12   R(11,12)                1.09           calculate D2E/DX2 analytically  !
 ! R13   R(11,13)                1.09           calculate D2E/DX2 analytically  !
 ! R14   R(11,14)                1.0899         calculate D2E/DX2 analytically  !
 ! R15   R(15,16)                1.229          calculate D2E/DX2 analytically  !
 ! R16   R(15,17)                1.335          calculate D2E/DX2 analytically  !
 ! R17   R(17,18)                1.01           calculate D2E/DX2 analytically  !
 ! R18   R(17,19)                1.4489         calculate D2E/DX2 analytically  !
 ! R19   R(19,20)                1.09           calculate D2E/DX2 analytically  !
 ! R20   R(19,21)                1.09           calculate D2E/DX2 analytically  !
 ! R21   R(19,22)                1.09           calculate D2E/DX2 analytically  !
 ! A1    A(1,2,3)              109.5005         calculate D2E/DX2 analytically  !
 ! A2    A(1,2,4)              109.5005         calculate D2E/DX2 analytically  !
 ! A3    A(1,2,5)              111.0996         calculate D2E/DX2 analytically  !
 ! A4    A(3,2,4)              109.4396         calculate D2E/DX2 analytically  !
 ! A5    A(3,2,5)              108.6402         calculate D2E/DX2 analytically  !
 ! A6    A(4,2,5)              108.6336         calculate D2E/DX2 analytically  !
 ! A7    A(2,5,6)              120.4992         calculate D2E/DX2 analytically  !
 ! A8    A(2,5,7)              116.6014         calculate D2E/DX2 analytically  !
 ! A9    A(6,5,7)              122.8994         calculate D2E/DX2 analytically  !
 ! A10   A(5,7,8)              119.9963         calculate D2E/DX2 analytically  !
 ! A11   A(5,7,9)              121.9044         calculate D2E/DX2 analytically  !
 ! A12   A(8,7,9)              118.0993         calculate D2E/DX2 analytically  !
 ! A13   A(7,9,10)             109.5            calculate D2E/DX2 analytically  !
 ! A14   A(7,9,11)             111.0992         calculate D2E/DX2 analytically  !
 ! A15   A(7,9,15)             111.0966         calculate D2E/DX2 analytically  !
 ! A16   A(10,9,11)            108.6382         calculate D2E/DX2 analytically  !
 ! A17   A(10,9,15)            108.6373         calculate D2E/DX2 analytically  !
 ! A18   A(11,9,15)            107.7947         calculate D2E/DX2 analytically  !
 ! A19   A(9,11,12)            109.5007         calculate D2E/DX2 analytically  !
 ! A20   A(9,11,13)            109.4959         calculate D2E/DX2 analytically  !
 ! A21   A(9,11,14)            109.4978         calculate D2E/DX2 analytically  !
 ! A22   A(12,11,13)           109.441          calculate D2E/DX2 analytically  !
 ! A23   A(12,11,14)           109.4482         calculate D2E/DX2 analytically  !
 ! A24   A(13,11,14)           109.4436         calculate D2E/DX2 analytically  !
 ! A25   A(9,15,16)            120.4988         calculate D2E/DX2 analytically  !
 ! A26   A(9,15,17)            116.6009         calculate D2E/DX2 analytically  !
 ! A27   A(16,15,17)           122.9003         calculate D2E/DX2 analytically  !
 ! A28   A(15,17,18)           119.9975         calculate D2E/DX2 analytically  !
 ! A29   A(15,17,19)           121.9004         calculate D2E/DX2 analytically  !
 ! A30   A(18,17,19)           118.1021         calculate D2E/DX2 analytically  !
 ! A31   A(17,19,20)           109.5044         calculate D2E/DX2 analytically  !
 ! A32   A(17,19,21)           109.5034         calculate D2E/DX2 analytically  !
 ! A33   A(17,19,22)           109.5005         calculate D2E/DX2 analytically  !
 ! A34   A(20,19,21)           109.4351         calculate D2E/DX2 analytically  !
 ! A35   A(20,19,22)           109.4433         calculate D2E/DX2 analytically  !
 ! A36   A(21,19,22)           109.4405         calculate D2E/DX2 analytically  !
 ! D1    D(1,2,5,6)             -0.0077         calculate D2E/DX2 analytically  !
 ! D2    D(1,2,5,7)           -179.9969         calculate D2E/DX2 analytically  !
 ! D3    D(3,2,5,6)            120.5076         calculate D2E/DX2 analytically  !
 ! D4    D(3,2,5,7)            -59.4816         calculate D2E/DX2 analytically  !
 ! D5    D(4,2,5,6)           -120.5187         calculate D2E/DX2 analytically  !
 ! D6    D(4,2,5,7)             59.4921         calculate D2E/DX2 analytically  !
 ! D7    D(2,5,7,8)             -0.0054         calculate D2E/DX2 analytically  !
 ! D8    D(2,5,7,9)            179.9958         calculate D2E/DX2 analytically  !
 ! D9    D(6,5,7,8)           -179.9943         calculate D2E/DX2 analytically  !
 ! D10   D(6,5,7,9)              0.0069         calculate D2E/DX2 analytically  !
 ! D11   D(5,7,9,10)           134.9983         calculate D2E/DX2 analytically  !
 ! D12   D(5,7,9,11)          -104.9991         calculate D2E/DX2 analytically  !
 ! D13   D(5,7,9,15)            14.9985         frozen, calculate D2E/DX2 analyt!
 ! D14   D(8,7,9,10)           -45.0005         calculate D2E/DX2 analytically  !
 ! D15   D(8,7,9,11)            75.0021         calculate D2E/DX2 analytically  !
 ! D16   D(8,7,9,15)          -165.0003         calculate D2E/DX2 analytically  !
 ! D17   D(7,9,11,12)           60.0024         calculate D2E/DX2 analytically  !
 ! D18   D(7,9,11,13)          179.9986         calculate D2E/DX2 analytically  !
 ! D19   D(7,9,11,14)          -60.0038         calculate D2E/DX2 analytically  !
 ! D20   D(10,9,11,12)        -179.4843         calculate D2E/DX2 analytically  !
 ! D21   D(10,9,11,13)         -59.4881         calculate D2E/DX2 analytically  !
 ! D22   D(10,9,11,14)          60.5095         calculate D2E/DX2 analytically  !
 ! D23   D(15,9,11,12)         -61.938          calculate D2E/DX2 analytically  !
 ! D24   D(15,9,11,13)          58.0582         calculate D2E/DX2 analytically  !
 ! D25   D(15,9,11,14)         178.0558         calculate D2E/DX2 analytically  !
 ! D26   D(7,9,15,16)         -119.9999         calculate D2E/DX2 analytically  !
 ! D27   D(7,9,15,17)           60.0015         frozen, calculate D2E/DX2 analyt!
 ! D28   D(10,9,15,16)         119.489          calculate D2E/DX2 analytically  !
 ! D29   D(10,9,15,17)         -60.5096         calculate D2E/DX2 analytically  !
 ! D30   D(11,9,15,16)           1.9421         calculate D2E/DX2 analytically  !
 ! D31   D(11,9,15,17)        -178.0565         calculate D2E/DX2 analytically  !
 ! D32   D(9,15,17,18)          -0.0063         calculate D2E/DX2 analytically  !
 ! D33   D(9,15,17,19)         179.9999         calculate D2E/DX2 analytically  !
 ! D34   D(16,15,17,18)        179.9951         calculate D2E/DX2 analytically  !
 ! D35   D(16,15,17,19)          0.0012         calculate D2E/DX2 analytically  !
 ! D36   D(15,17,19,20)          0.0023         calculate D2E/DX2 analytically  !
 ! D37   D(15,17,19,21)        119.9982         calculate D2E/DX2 analytically  !
 ! D38   D(15,17,19,22)       -120.0018         calculate D2E/DX2 analytically  !
 ! D39   D(18,17,19,20)       -179.9916         calculate D2E/DX2 analytically  !
 ! D40   D(18,17,19,21)        -59.9958         calculate D2E/DX2 analytically  !
 ! D41   D(18,17,19,22)         60.0043         calculate D2E/DX2 analytically  !
 --------------------------------------------------------------------------------
 Trust Radius=3.00D-01 FncErr=1.00D-07 GrdErr=1.00D-06
 Number of steps in this run= 132 maximum allowed number of steps= 132.
 GradGradGradGradGradGradGradGradGradGradGradGradGradGradGradGradGradGrad

                          Input orientation:                          
 ---------------------------------------------------------------------
 Center     Atomic      Atomic             Coordinates (Angstroms)
 Number     Number       Type             X           Y           Z
 ---------------------------------------------------------------------
      1          1           0        0.279400    4.466100   -0.509500
      2          6           0        1.132800    3.836900   -0.256800
      3          1           0        1.206000    3.018300   -0.972800
      4          1           0        1.001200    3.430900    0.746200
      5          6           0        2.436700    4.636600   -0.293300
      6          8           0        2.427800    5.831300   -0.581200
      7          7           0        3.555400    3.969700    0.000000
      8          1           0        3.511900    2.987300    0.230600
      9          6           0        4.853300    4.613900    0.000000
     10          1           0        5.407600    4.315500    0.889800
     11          6           0        5.661300    4.220800   -1.232200
     12          1           0        5.123300    4.521400   -2.131200
     13          1           0        6.630500    4.718900   -1.205800
     14          1           0        5.808500    3.140900   -1.241400
     15          6           0        4.712700    6.129400    0.000000
     16          8           0        5.182300    6.799400   -0.917100
     17          7           0        4.063200    6.669500    1.033800
     18          1           0        3.694700    6.076900    1.764000
     19          6           0        3.863300    8.099900    1.149700
     20          1           0        4.313600    8.600900    0.292800
     21          1           0        2.795500    8.317100    1.176900
     22          1           0        4.330100    8.459400    2.066700
 ---------------------------------------------------------------------
                    Distance matrix (angstroms):
                    1          2          3          4          5
     1  H    0.000000
     2  C    1.089973   0.000000
     3  H    1.780269   1.090009   0.000000
     4  H    1.780286   1.090029   1.779647   0.000000
     5  C    2.174800   1.530035   2.143651   2.143579   0.000000
     6  O    2.546475   2.399977   3.091782   3.091779   1.228932
     7  N    3.352339   2.439790   2.714992   2.714969   1.335017
     8  H    3.630930   2.572838   2.601213   2.601199   2.037331
     9  C    4.604563   3.809435   4.098180   4.098168   2.434440
    10  H    5.317815   4.451704   4.775505   4.496610   3.213888
    11  C    5.435744   4.648236   4.622012   5.123918   3.384150
    12  H    5.108457   4.461615   4.352751   5.143960   3.257141
    13  H    6.394155   5.648294   5.689598   6.095758   4.292713
    14  H    5.732607   4.828667   4.611961   5.210066   3.808549
    15  C    4.762384   4.258778   4.787716   4.649080   2.737636
    16  O    5.445076   5.060717   5.487329   5.620939   3.550373
    17  N    4.642617   4.275104   5.051861   4.466216   2.922222
    18  H    4.407692   3.957848   4.799868   3.910521   2.808827
    19  C    5.366730   5.254240   6.114647   5.491265   4.013961
    20  H    5.832240   5.754585   6.513397   6.156823   4.425149
    21  H    4.899480   4.989214   5.935065   5.223023   3.979486
    22  H    6.244311   6.081849   6.971666   6.173419   4.875281
                    6          7          8          9         10
     6  O    0.000000
     7  N    2.252738   0.000000
     8  H    3.150020   1.010039   0.000000
     9  C    2.775411   1.448978   2.120933   0.000000
    10  H    3.652492   2.083739   2.406728   1.089970   0.000000
    11  C    3.670563   2.452791   2.877712   1.525027   2.139209
    12  H    3.374027   2.702720   3.244714   2.150225   3.041326
    13  H    4.392066   3.386959   3.845432   2.150214   2.459625
    14  H    4.370726   2.702673   2.732169   2.150165   2.466256
    15  C    2.376431   2.450234   3.371630   1.522008   2.136554
    16  O    2.938931   3.390439   4.317355   2.392848   3.079839
    17  N    2.446495   2.935221   3.808892   2.432795   2.714676
    18  H    2.676811   2.751616   3.454035   2.567960   2.607831
    19  C    3.194248   4.298275   5.206429   3.801856   4.095619
    20  H    3.462774   4.701980   5.670899   4.034003   4.462947
    21  H    3.066810   4.567541   5.460355   4.396968   4.787306
    22  H    4.187724   5.002881   5.829631   4.396915   4.440496
                   11         12         13         14         15
    11  C    0.000000
    12  H    1.089957   0.000000
    13  H    1.090023   1.779613   0.000000
    14  H    1.089925   1.779613   1.779617   0.000000
    15  C    2.461892   2.701161   2.668599   3.416575   0.000000
    16  O    2.641573   2.582015   2.551296   3.725845   1.229023
    17  N    3.699299   3.969304   3.925771   4.546826   1.335028
    18  H    4.036067   4.430921   4.391218   4.703262   2.037345
    19  C    4.894249   5.015732   4.963561   5.838908   2.434371
    20  H    4.829824   4.813908   4.762746   5.865159   2.520580
    21  H    5.549437   5.547028   5.773346   6.459055   3.137958
    22  H    5.533585   5.810282   5.476535   6.435498   3.137918
                   16         17         18         19         20
    16  O    0.000000
    17  N    2.252836   0.000000
    18  H    3.150120   1.010029   0.000000
    19  C    2.775378   1.448943   2.120924   0.000000
    20  H    2.337499   2.083768   2.986309   1.089976   0.000000
    21  H    3.519242   2.083777   2.484299   1.090006   1.779551
    22  H    3.519220   2.083713   2.484284   1.089969   1.779611
                   21         22
    21  H    0.000000
    22  H    1.779604   0.000000
 Stoichiometry    C6H12N2O2
 Framework group  C1[X(C6H12N2O2)]
 Deg. of freedom    60
 Full point group                 C1      NOp   1
 Largest Abelian subgroup         C1      NOp   1
 Largest concise Abelian subgroup C1      NOp   1
                         Standard orientation:                         
 ---------------------------------------------------------------------
 Center     Atomic      Atomic             Coordinates (Angstroms)
 Number     Number       Type             X           Y           Z
 ---------------------------------------------------------------------
      1          1           0        2.927741   -2.062881   -0.747783
      2          6           0        2.875498   -1.177568   -0.114117
      3          1           0        3.601926   -0.440988   -0.457443
      4          1           0        3.098525   -1.454029    0.916413
      5          6           0        1.481623   -0.548326   -0.160741
      6          8           0        0.595632   -1.045576   -0.852144
      7          7           0        1.295327    0.547369    0.578865
      8          1           0        2.054958    0.918961    1.131185
      9          6           0        0.021168    1.236120    0.619850
     10          1           0       -0.225985    1.482896    1.652347
     11          6           0        0.068200    2.526368   -0.191789
     12          1           0        0.305594    2.294654   -1.230036
     13          1           0       -0.901300    3.022215   -0.143259
     14          1           0        0.833772    3.185651    0.217091
     15          6           0       -1.089932    0.367178    0.048093
     16          8           0       -1.735561    0.742467   -0.928031
     17          7           0       -1.311867   -0.798559    0.659731
     18          1           0       -0.754401   -1.063525    1.459221
     19          6           0       -2.341065   -1.714678    0.211497
     20          1           0       -2.852611   -1.292398   -0.653402
     21          1           0       -1.886284   -2.665947   -0.064862
     22          1           0       -3.059668   -1.875979    1.015004
 ---------------------------------------------------------------------
 Rotational constants (GHZ):      1.7289481      1.2049608      0.8345027
 Standard basis: 6-31G(d) (6D, 7F)
 There are   174 symmetry adapted basis functions of A   symmetry.
 Integral buffers will be    131072 words long.
 Raffenetti 2 integral format.
 Two-electron integral symmetry is turned on.
   174 basis functions,   328 primitive gaussians,   174 cartesian basis functions
    39 alpha electrons       39 beta electrons
       nuclear repulsion energy       583.1887865940 Hartrees.
 NAtoms=   22 NActive=   22 NUniq=   22 SFac= 7.50D-01 NAtFMM=   80 NAOKFM=F Big=F
 One-electron integrals computed using PRISM.
 NBasis=   174 RedAO= T  NBF=   174
 NBsUse=   174 1.00D-06 NBFU=   174
 Harris functional with IExCor=  402 diagonalized for initial guess.
 ExpMin= 1.61D-01 ExpMax= 5.48D+03 ExpMxC= 8.25D+02 IAcc=1 IRadAn=         1 AccDes= 0.00D+00
 HarFok:  IExCor=  402 AccDes= 0.00D+00 IRadAn=         1 IDoV= 1
 ScaDFX=  1.000000  1.000000  1.000000  1.000000
 FoFCou: FMM=F IPFlag=           0 FMFlag=      100000 FMFlg1=           0
         NFxFlg=           0 DoJE=T BraDBF=F KetDBF=T FulRan=T
         Omega=  0.000000  0.000000  1.000000  0.000000  0.000000 ICntrl=     500 IOpCl=  0
         NMat0=    1 NMatS0=    1 NMatT0=    0 NMatD0=    1 NMtDS0=    0 NMtDT0=    0
         I1Cent=           4 NGrid=           0.
 Petite list used in FoFCou.
 Initial guess orbital symmetries:
       Occupied  (A) (A) (A) (A) (A) (A) (A) (A) (A) (A) (A) (A)
                 (A) (A) (A) (A) (A) (A) (A) (A) (A) (A) (A) (A)
                 (A) (A) (A) (A) (A) (A) (A) (A) (A) (A) (A) (A)
                 (A) (A) (A)
       Virtual   (A) (A) (A) (A) (A) (A) (A) (A) (A) (A) (A) (A)
                 (A) (A) (A) (A) (A) (A) (A) (A) (A) (A) (A) (A)
                 (A) (A) (A) (A) (A) (A) (A) (A) (A) (A) (A) (A)
                 (A) (A) (A) (A) (A) (A) (A) (A) (A) (A) (A) (A)
                 (A) (A) (A) (A) (A) (A) (A) (A) (A) (A) (A) (A)
                 (A) (A) (A) (A) (A) (A) (A) (A) (A) (A) (A) (A)
                 (A) (A) (A) (A) (A) (A) (A) (A) (A) (A) (A) (A)
                 (A) (A) (A) (A) (A) (A) (A) (A) (A) (A) (A) (A)
                 (A) (A) (A) (A) (A) (A) (A) (A) (A) (A) (A) (A)
                 (A) (A) (A) (A) (A) (A) (A) (A) (A) (A) (A) (A)
                 (A) (A) (A) (A) (A) (A) (A) (A) (A) (A) (A) (A)
                 (A) (A) (A)
 The electronic state of the initial guess is 1-A.
 Requested convergence on RMS density matrix=1.00D-08 within 128 cycles.
 Requested convergence on MAX density matrix=1.00D-06.
 Requested convergence on             energy=1.00D-06.
 No special actions if energy rises.
 Integral accuracy reduced to 1.0D-05 until final iterations.
 Initial convergence to 1.0D-05 achieved.  Increase integral accuracy.
 SCF Done:  E(RB3LYP) =  -495.820444746     A.U. after   15 cycles
             Convg  =    0.4929D-08             -V/T =  2.0085
 Range of M.O.s used for correlation:     1   174
 NBasis=   174 NAE=    39 NBE=    39 NFC=     0 NFV=     0
 NROrb=    174 NOA=    39 NOB=    39 NVA=   135 NVB=   135
 Symmetrizing basis deriv contribution to polar:
 IMax=3 JMax=2 DiffMx= 0.00D+00
 G2DrvN: will do    23 centers at a time, making    1 passes doing MaxLOS=2.
 Calling FoFCou, ICntrl=  3107 FMM=F I1Cent=   0 AccDes= 0.00D+00.
 FoFDir/FoFCou used for L=0 through L=2.
 End of G2Drv Frequency-dependent properties file   721 does not exist.
 End of G2Drv Frequency-dependent properties file   722 does not exist.
          IDoAtm=1111111111111111111111
          Differentiating once with respect to nuclear coordinates.
          There are    69 degrees of freedom in the 1st order CPHF.  IDoFFX=5.
     63 vectors produced by pass  0 Test12= 7.63D-11 1.45D-07 XBig12= 1.53D-01 9.44D-02.
 AX will form    63 AO Fock derivatives at one time.
     63 vectors produced by pass  1 Test12= 7.63D-11 1.45D-07 XBig12= 2.48D-02 5.15D-02.
     63 vectors produced by pass  2 Test12= 7.63D-11 1.45D-07 XBig12= 5.52D-05 1.42D-03.
     63 vectors produced by pass  3 Test12= 7.63D-11 1.45D-07 XBig12= 1.67D-07 7.44D-05.
     30 vectors produced by pass  4 Test12= 7.63D-11 1.45D-07 XBig12= 1.81D-10 1.67D-06.
 Inverted reduced A of dimension   282 with in-core refinement.
 End of Minotr Frequency-dependent properties file   721 does not exist.
 End of Minotr Frequency-dependent properties file   722 does not exist.

 **********************************************************************

            Population analysis using the SCF density.

 **********************************************************************

 Orbital symmetries:
       Occupied  (A) (A) (A) (A) (A) (A) (A) (A) (A) (A) (A) (A)
                 (A) (A) (A) (A) (A) (A) (A) (A) (A) (A) (A) (A)
                 (A) (A) (A) (A) (A) (A) (A) (A) (A) (A) (A) (A)
                 (A) (A) (A)
       Virtual   (A) (A) (A) (A) (A) (A) (A) (A) (A) (A) (A) (A)
                 (A) (A) (A) (A) (A) (A) (A) (A) (A) (A) (A) (A)
                 (A) (A) (A) (A) (A) (A) (A) (A) (A) (A) (A) (A)
                 (A) (A) (A) (A) (A) (A) (A) (A) (A) (A) (A) (A)
                 (A) (A) (A) (A) (A) (A) (A) (A) (A) (A) (A) (A)
                 (A) (A) (A) (A) (A) (A) (A) (A) (A) (A) (A) (A)
                 (A) (A) (A) (A) (A) (A) (A) (A) (A) (A) (A) (A)
                 (A) (A) (A) (A) (A) (A) (A) (A) (A) (A) (A) (A)
                 (A) (A) (A) (A) (A) (A) (A) (A) (A) (A) (A) (A)
                 (A) (A) (A) (A) (A) (A) (A) (A) (A) (A) (A) (A)
                 (A) (A) (A) (A) (A) (A) (A) (A) (A) (A) (A) (A)
                 (A) (A) (A)
 The electronic state is 1-A.
 Alpha  occ. eigenvalues --  -19.10380 -19.08558 -14.37085 -14.33816 -10.28565
 Alpha  occ. eigenvalues --  -10.26604 -10.23268 -10.19863 -10.19334 -10.16966
 Alpha  occ. eigenvalues --   -1.03948  -1.00740  -0.93558  -0.90386  -0.78184
 Alpha  occ. eigenvalues --   -0.72824  -0.70152  -0.63590  -0.60654  -0.56844
 Alpha  occ. eigenvalues --   -0.52912  -0.49672  -0.46889  -0.45896  -0.44691
 Alpha  occ. eigenvalues --   -0.43388  -0.41711  -0.40478  -0.39732  -0.39246
 Alpha  occ. eigenvalues --   -0.37452  -0.37031  -0.36141  -0.35491  -0.34589
 Alpha  occ. eigenvalues --   -0.26124  -0.24409  -0.23132  -0.21669
 Alpha virt. eigenvalues --    0.03112   0.03820   0.07202   0.09592   0.11580
 Alpha virt. eigenvalues --    0.13450   0.14039   0.15415   0.15882   0.16848
 Alpha virt. eigenvalues --    0.17179   0.18133   0.18495   0.18740   0.20438
 Alpha virt. eigenvalues --    0.21451   0.23675   0.26492   0.28347   0.34119
 Alpha virt. eigenvalues --    0.35439   0.39633   0.43296   0.50999   0.51801
 Alpha virt. eigenvalues --    0.52175   0.54821   0.55742   0.56399   0.57313
 Alpha virt. eigenvalues --    0.58615   0.59997   0.62512   0.64036   0.66495
 Alpha virt. eigenvalues --    0.67845   0.67998   0.72525   0.73040   0.74734
 Alpha virt. eigenvalues --    0.76798   0.78676   0.80214   0.82534   0.83146
 Alpha virt. eigenvalues --    0.86065   0.87477   0.87784   0.88319   0.89446
 Alpha virt. eigenvalues --    0.89785   0.90150   0.91308   0.92642   0.94595
 Alpha virt. eigenvalues --    0.95342   0.97203   0.98082   0.98315   1.00881
 Alpha virt. eigenvalues --    1.04697   1.08294   1.12820   1.14198   1.20750
 Alpha virt. eigenvalues --    1.24025   1.29132   1.31030   1.36287   1.37299
 Alpha virt. eigenvalues --    1.38468   1.42815   1.43754   1.46105   1.48473
 Alpha virt. eigenvalues --    1.53593   1.61279   1.63394   1.70039   1.73181
 Alpha virt. eigenvalues --    1.75527   1.76242   1.80114   1.84131   1.84647
 Alpha virt. eigenvalues --    1.86965   1.87350   1.90195   1.91429   1.94024
 Alpha virt. eigenvalues --    1.95313   1.97457   2.01503   2.04505   2.05658
 Alpha virt. eigenvalues --    2.08768   2.10873   2.13727   2.16507   2.18403
 Alpha virt. eigenvalues --    2.21145   2.24592   2.26214   2.29527   2.32766
 Alpha virt. eigenvalues --    2.33901   2.35283   2.37478   2.41204   2.42029
 Alpha virt. eigenvalues --    2.47283   2.52223   2.54130   2.60377   2.64813
 Alpha virt. eigenvalues --    2.68677   2.69498   2.75737   2.82101   2.91076
 Alpha virt. eigenvalues --    2.95528   2.98675   3.03553   3.19550   3.21769
 Alpha virt. eigenvalues --    3.97905   4.05456   4.09077   4.18902   4.26063
 Alpha virt. eigenvalues --    4.29560   4.34862   4.44315   4.50273   4.67633
          Condensed to atoms (all electrons):
              1          2          3          4          5          6
     1  H    0.497329   0.360576  -0.020559  -0.021297  -0.017111   0.004963
     2  C    0.360576   5.344945   0.351539   0.346501   0.344764  -0.074974
     3  H   -0.020559   0.351539   0.548190  -0.027528  -0.025451   0.001209
     4  H   -0.021297   0.346501  -0.027528   0.565719  -0.027637   0.001154
     5  C   -0.017111   0.344764  -0.025451  -0.027637   4.376325   0.579470
     6  O    0.004963  -0.074974   0.001209   0.001154   0.579470   8.116800
     7  N    0.004559  -0.140426   0.004786   0.005562   0.236665  -0.102818
     8  H   -0.000144   0.000681   0.000824   0.000747  -0.018996   0.003782
     9  C   -0.000122   0.005542  -0.000147   0.000046  -0.034524  -0.007450
    10  H    0.000002  -0.000197  -0.000004   0.000001   0.003798   0.000698
    11  C    0.000003  -0.000200   0.000029  -0.000001  -0.000853  -0.000508
    12  H    0.000001  -0.000058  -0.000007   0.000001   0.002682   0.000643
    13  H    0.000000   0.000005   0.000000   0.000000   0.000042   0.000011
    14  H    0.000000  -0.000006   0.000001   0.000000  -0.000061  -0.000012
    15  C    0.000001   0.000378  -0.000004  -0.000036   0.002031   0.031521
    16  O    0.000000  -0.000041   0.000001   0.000000  -0.000926  -0.007489
    17  N    0.000022  -0.000616  -0.000003   0.000108   0.003358  -0.060505
    18  H    0.000002  -0.000215   0.000004   0.000027   0.001843  -0.001595
    19  C    0.000000   0.000026   0.000000  -0.000002  -0.000288   0.002712
    20  H    0.000000   0.000000   0.000000   0.000000   0.000015  -0.000207
    21  H   -0.000001   0.000014   0.000000  -0.000004  -0.000057   0.002969
    22  H    0.000000   0.000000   0.000000   0.000000   0.000000   0.000011
              7          8          9         10         11         12
     1  H    0.004559  -0.000144  -0.000122   0.000002   0.000003   0.000001
     2  C   -0.140426   0.000681   0.005542  -0.000197  -0.000200  -0.000058
     3  H    0.004786   0.000824  -0.000147  -0.000004   0.000029  -0.000007
     4  H    0.005562   0.000747   0.000046   0.000001  -0.000001   0.000001
     5  C    0.236665  -0.018996  -0.034524   0.003798  -0.000853   0.002682
     6  O   -0.102818   0.003782  -0.007450   0.000698  -0.000508   0.000643
     7  N    7.176746   0.301379   0.234827  -0.043961  -0.067447  -0.003760
     8  H    0.301379   0.415337  -0.028609  -0.003765   0.000559  -0.000198
     9  C    0.234827  -0.028609   5.170102   0.359690   0.371168  -0.028620
    10  H   -0.043961  -0.003765   0.359690   0.609081  -0.050306   0.005486
    11  C   -0.067447   0.000559   0.371168  -0.050306   5.092538   0.380210
    12  H   -0.003760  -0.000198  -0.028620   0.005486   0.380210   0.518855
    13  H    0.005083  -0.000143  -0.025634  -0.000466   0.366808  -0.020345
    14  H   -0.000835   0.001770  -0.035466  -0.003134   0.348067  -0.031263
    15  C   -0.035100   0.003129   0.292947  -0.027370  -0.037039  -0.006896
    16  O    0.001183  -0.000098  -0.098468   0.001774   0.004459   0.004913
    17  N    0.005028  -0.000294  -0.135642   0.000377   0.006606   0.000206
    18  H    0.003574  -0.000040   0.001287   0.000582   0.000157  -0.000006
    19  C   -0.000098   0.000015   0.006681  -0.000213  -0.000180  -0.000002
    20  H   -0.000030   0.000001   0.001412  -0.000036  -0.000023  -0.000006
    21  H   -0.000013  -0.000001  -0.000098  -0.000001   0.000002   0.000000
    22  H   -0.000007   0.000000  -0.000149   0.000007   0.000001   0.000000
             13         14         15         16         17         18
     1  H    0.000000   0.000000   0.000001   0.000000   0.000022   0.000002
     2  C    0.000005  -0.000006   0.000378  -0.000041  -0.000616  -0.000215
     3  H    0.000000   0.000001  -0.000004   0.000001  -0.000003   0.000004
     4  H    0.000000   0.000000  -0.000036   0.000000   0.000108   0.000027
     5  C    0.000042  -0.000061   0.002031  -0.000926   0.003358   0.001843
     6  O    0.000011  -0.000012   0.031521  -0.007489  -0.060505  -0.001595
     7  N    0.005083  -0.000835  -0.035100   0.001183   0.005028   0.003574
     8  H   -0.000143   0.001770   0.003129  -0.000098  -0.000294  -0.000040
     9  C   -0.025634  -0.035466   0.292947  -0.098468  -0.135642   0.001287
    10  H   -0.000466  -0.003134  -0.027370   0.001774   0.000377   0.000582
    11  C    0.366808   0.348067  -0.037039   0.004459   0.006606   0.000157
    12  H   -0.020345  -0.031263  -0.006896   0.004913   0.000206  -0.000006
    13  H    0.536050  -0.029011  -0.002976   0.003860   0.000058  -0.000031
    14  H   -0.029011   0.625922   0.006628   0.001241  -0.000059  -0.000025
    15  C   -0.002976   0.006628   4.334102   0.584046   0.282023  -0.025284
    16  O    0.003860   0.001241   0.584046   8.115338  -0.090474   0.003822
    17  N    0.000058  -0.000059   0.282023  -0.090474   7.082434   0.306649
    18  H   -0.000031  -0.000025  -0.025284   0.003822   0.306649   0.429953
    19  C    0.000003   0.000002  -0.023387  -0.010925   0.273837  -0.033736
    20  H   -0.000003   0.000000  -0.001902   0.022172  -0.035596   0.004091
    21  H    0.000000   0.000000   0.003157   0.000533  -0.046783  -0.000542
    22  H    0.000000   0.000000   0.000288   0.000628  -0.044290  -0.001207
             19         20         21         22
     1  H    0.000000   0.000000  -0.000001   0.000000
     2  C    0.000026   0.000000   0.000014   0.000000
     3  H    0.000000   0.000000   0.000000   0.000000
     4  H   -0.000002   0.000000  -0.000004   0.000000
     5  C   -0.000288   0.000015  -0.000057   0.000000
     6  O    0.002712  -0.000207   0.002969   0.000011
     7  N   -0.000098  -0.000030  -0.000013  -0.000007
     8  H    0.000015   0.000001  -0.000001   0.000000
     9  C    0.006681   0.001412  -0.000098  -0.000149
    10  H   -0.000213  -0.000036  -0.000001   0.000007
    11  C   -0.000180  -0.000023   0.000002   0.000001
    12  H   -0.000002  -0.000006   0.000000   0.000000
    13  H    0.000003  -0.000003   0.000000   0.000000
    14  H    0.000002   0.000000   0.000000   0.000000
    15  C   -0.023387  -0.001902   0.003157   0.000288
    16  O   -0.010925   0.022172   0.000533   0.000628
    17  N    0.273837  -0.035596  -0.046783  -0.044290
    18  H   -0.033736   0.004091  -0.000542  -0.001207
    19  C    4.950273   0.376985   0.379990   0.381180
    20  H    0.376985   0.476587  -0.023078  -0.025871
    21  H    0.379990  -0.023078   0.566577  -0.041453
    22  H    0.381180  -0.025871  -0.041453   0.587934
 Mulliken atomic charges:
              1
     1  H    0.191774
     2  C   -0.538237
     3  H    0.167122
     4  H    0.156640
     5  C    0.574912
     6  O   -0.490384
     7  N   -0.584897
     8  H    0.324065
     9  C   -0.048771
    10  H    0.147958
    11  C   -0.414049
    12  H    0.178165
    13  H    0.166690
    14  H    0.116244
    15  C    0.619742
    16  O   -0.535549
    17  N   -0.546446
    18  H    0.310691
    19  C   -0.302872
    20  H    0.205488
    21  H    0.158789
    22  H    0.142926
 Sum of Mulliken atomic charges =   0.00000
 Mulliken charges with hydrogens summed into heavy atoms:
              1
     2  C   -0.022702
     5  C    0.574912
     6  O   -0.490384
     7  N   -0.260832
     9  C    0.099187
    11  C    0.047050
    15  C    0.619742
    16  O   -0.535549
    17  N   -0.235756
    19  C    0.204331
 Sum of Mulliken charges with hydrogens summed into heavy atoms =   0.00000
 APT atomic charges:
              1
     1  H    0.528898
     2  C   -1.263837
     3  H    0.472525
     4  H    0.406686
     5  C    0.261360
     6  O   -0.458811
     7  N   -0.764462
     8  H    0.721848
     9  C   -0.393873
    10  H    0.449818
    11  C   -1.186252
    12  H    0.294039
    13  H    0.481347
    14  H    0.481884
    15  C   -0.174669
    16  O   -0.098384
    17  N   -0.392125
    18  H    0.478443
    19  C   -1.264121
    20  H    0.444798
    21  H    0.398465
    22  H    0.576424
 Sum of APT charges=   0.00000
 APT Atomic charges with hydrogens summed into heavy atoms:
              1
     1  H    0.000000
     2  C    0.144273
     3  H    0.000000
     4  H    0.000000
     5  C    0.261360
     6  O   -0.458811
     7  N   -0.042614
     8  H    0.000000
     9  C    0.055945
    10  H    0.000000
    11  C    0.071018
    12  H    0.000000
    13  H    0.000000
    14  H    0.000000
    15  C   -0.174669
    16  O   -0.098384
    17  N    0.086317
    18  H    0.000000
    19  C    0.155565
    20  H    0.000000
    21  H    0.000000
    22  H    0.000000
 Sum of APT charges=   0.00000
 Electronic spatial extent (au):  <R**2>=           1512.3306
 Charge=              0.0000 electrons
 Dipole moment (field-independent basis, Debye):
    X=              3.3905    Y=             -0.1256    Z=              4.6853  Tot=              5.7848
 Quadrupole moment (field-independent basis, Debye-Ang):
   XX=            -55.3342   YY=            -57.8320   ZZ=            -59.9290
   XY=              4.4594   XZ=             -1.4530   YZ=              0.2206
 Traceless Quadrupole moment (field-independent basis, Debye-Ang):
   XX=              2.3642   YY=             -0.1336   ZZ=             -2.2306
   XY=              4.4594   XZ=             -1.4530   YZ=              0.2206
 Octapole moment (field-independent basis, Debye-Ang**2):
  XXX=             15.5940  YYY=             -5.3026  ZZZ=              4.7715  XYY=             -1.4747
  XXY=            -10.0403  XXZ=              6.3806  XZZ=              4.0236  YZZ=             -1.0395
  YYZ=              4.9993  XYZ=             -0.8366
 Hexadecapole moment (field-independent basis, Debye-Ang**3):
 XXXX=          -1010.8615 YYYY=           -730.7677 ZZZZ=           -184.7098 XXXY=             19.9180
 XXXZ=              0.6822 YYYX=             -3.1978 YYYZ=              3.2066 ZZZX=              3.6661
 ZZZY=             -2.0176 XXYY=           -281.4038 XXZZ=           -202.4487 YYZZ=           -150.7856
 XXYZ=             13.2371 YYXZ=             -0.2864 ZZXY=              6.9112
 N-N= 5.831887865940D+02 E-N=-2.323306501142D+03  KE= 4.916316890297D+02
  Exact polarizability:   0.000   0.000   0.000   0.000   0.000   0.000
 Approx polarizability: 111.257   3.075 116.869  15.961   1.702 111.046
 Calling FoFJK, ICntrl=    100147 FMM=F ISym2X=0 I1Cent= 0 IOpClX= 0 NMat=1 NMatS=1 NMatT=0.
 ***** Axes restored to original set *****
 -------------------------------------------------------------------
 Center     Atomic                   Forces (Hartrees/Bohr)
 Number     Number              X              Y              Z
 -------------------------------------------------------------------
      1        1           0.002952823    0.002386822   -0.000313707
      2        6           0.010443612   -0.000743238    0.002774899
      3        1          -0.003139546   -0.005336139   -0.000916893
      4        1          -0.004156708   -0.005276600    0.002742054
      5        6          -0.042251102    0.020690726   -0.015960275
      6        8          -0.014229103   -0.012036728   -0.013263141
      7        7           0.014451305   -0.013447280    0.015368347
      8        1          -0.000562740   -0.000828444   -0.000558153
      9        6           0.011475968   -0.003282260   -0.013754940
     10        1          -0.000268744   -0.002147706    0.007047348
     11        6           0.000941825   -0.004413822    0.001950726
     12        1           0.001558952    0.001023801   -0.001604436
     13        1           0.001424661   -0.000173241   -0.002678522
     14        1           0.001758393   -0.004794778   -0.001476883
     15        6           0.003288969    0.014335503   -0.017620796
     16        8           0.005605774   -0.000688793    0.004385054
     17        7           0.017163821    0.013722876    0.030336905
     18        1          -0.000901499    0.000310826   -0.001828246
     19        6          -0.002892616   -0.003920901    0.002745697
     20        1           0.000256410   -0.003494212   -0.000547799
     21        1          -0.003892134    0.003279444   -0.000383169
     22        1           0.000971680    0.004834144    0.003555928
 -------------------------------------------------------------------
 Cartesian Forces:  Max     0.042251102 RMS     0.009838172

 GradGradGradGradGradGradGradGradGradGradGradGradGradGradGradGradGradGrad
 Berny optimization.
 Internal  Forces:  Max     0.076175756 RMS     0.015155891
 Search for a local minimum.
 Step number   1 out of a maximum of  132
 All quantities printed in internal units (Hartrees-Bohrs-Radians)
 Mixed Optimization -- RFO/linear search
 Second derivative matrix not updated -- analytic derivatives used.
     Eigenvalues ---   -0.00081  -0.00064   0.00167   0.00309   0.00575
     Eigenvalues ---    0.01147   0.01316   0.02786   0.03863   0.04294
     Eigenvalues ---    0.04595   0.04751   0.05661   0.05835   0.05984
     Eigenvalues ---    0.06262   0.06427   0.06558   0.11826   0.12083
     Eigenvalues ---    0.12493   0.13222   0.13317   0.13355   0.13549
     Eigenvalues ---    0.14295   0.15624   0.17000   0.17721   0.18378
     Eigenvalues ---    0.19008   0.20893   0.22475   0.23519   0.24217
     Eigenvalues ---    0.24795   0.29600   0.31227   0.34004   0.34442
     Eigenvalues ---    0.34565   0.34844   0.35033   0.35273   0.35386
     Eigenvalues ---    0.35685   0.35902   0.35928   0.36628   0.38504
     Eigenvalues ---    0.39531   0.46653   0.46718   0.50145   0.53178
     Eigenvalues ---    0.81228   0.82015   1.046561000.000001000.00000
     Eigenvalues --- 1000.000001000.000001000.000001000.000001000.00000
     Eigenvalues --- 1000.000001000.000001000.000001000.000001000.00000
     Eigenvalues --- 1000.000001000.000001000.000001000.000001000.00000
     Eigenvalues --- 1000.000001000.000001000.000001000.000001000.00000
     Eigenvalues --- 1000.000001000.000001000.000001000.000001000.00000
     Eigenvalues --- 1000.000001000.000001000.000001000.000001000.00000
     Eigenvalues --- 1000.000001000.000001000.000001000.000001000.00000
     Eigenvalues --- 1000.000001000.000001000.00000
 RFO step:  Lambda=-2.45729022D-02 EMin=-8.09603241D-04
 Linear search not attempted -- first point.
 Maximum step size (   0.300) exceeded in Quadratic search.
    -- Step size scaled by   0.262
 Iteration  1 RMS(Cart)=  0.05461640 RMS(Int)=  0.00251600
 Iteration  2 RMS(Cart)=  0.00264720 RMS(Int)=  0.00013892
 Iteration  3 RMS(Cart)=  0.00000669 RMS(Int)=  0.00013883
 Iteration  4 RMS(Cart)=  0.00000000 RMS(Int)=  0.00013883
 Iteration  1 RMS(Cart)=  0.00000765 RMS(Int)=  0.00000248
 Iteration  2 RMS(Cart)=  0.00000436 RMS(Int)=  0.00000276
 Iteration  3 RMS(Cart)=  0.00000255 RMS(Int)=  0.00000312
 Iteration  4 RMS(Cart)=  0.00000153 RMS(Int)=  0.00000337
 Iteration  5 RMS(Cart)=  0.00000095 RMS(Int)=  0.00000352
 Variable       Old X    -DE/DX   Delta X   Delta X   Delta X     New X
                                 (Linear)    (Quad)   (Total)
    R1        2.05975  -0.00087   0.00000   0.00004   0.00004   2.05979
    R2        2.05982   0.00440   0.00000   0.00291   0.00291   2.06273
    R3        2.05986   0.00499   0.00000   0.00304   0.00304   2.06289
    R4        2.89135  -0.00041   0.00000  -0.00085  -0.00085   2.89049
    R5        2.32234  -0.00849   0.00000  -0.00254  -0.00254   2.31981
    R6        2.52282   0.04752   0.00000   0.01613   0.01613   2.53894
    R7        1.90870   0.00070   0.00000   0.00057   0.00057   1.90927
    R8        2.73817   0.03917   0.00000   0.00890   0.00890   2.74707
    R9        2.05975   0.00620   0.00000   0.00431   0.00431   2.06405
   R10        2.88188   0.00825   0.00000   0.00365   0.00365   2.88553
   R11        2.87618   0.02644   0.00000   0.01302   0.01302   2.88920
   R12        2.05972   0.00084   0.00000   0.00108   0.00108   2.06080
   R13        2.05984   0.00113   0.00000   0.00118   0.00118   2.06103
   R14        2.05966   0.00500   0.00000   0.00307   0.00307   2.06273
   R15        2.32252  -0.00151   0.00000  -0.00242  -0.00242   2.32010
   R16        2.52284   0.02701   0.00000   0.00856   0.00856   2.53140
   R17        1.90868  -0.00117   0.00000  -0.00086  -0.00086   1.90782
   R18        2.73811   0.00188   0.00000  -0.00023  -0.00023   2.73788
   R19        2.05976  -0.00108   0.00000  -0.00003  -0.00003   2.05972
   R20        2.05981   0.00446   0.00000   0.00390   0.00390   2.06371
   R21        2.05974   0.00500   0.00000   0.00205   0.00205   2.06179
    A1        1.91114  -0.00014   0.00000  -0.00201  -0.00200   1.90914
    A2        1.91114  -0.00036   0.00000  -0.00043  -0.00039   1.91075
    A3        1.93905  -0.00789   0.00000  -0.01062  -0.01060   1.92845
    A4        1.91008  -0.00534   0.00000  -0.00639  -0.00645   1.90364
    A5        1.89613   0.00615   0.00000   0.00664   0.00661   1.90274
    A6        1.89601   0.00763   0.00000   0.01291   0.01290   1.90891
    A7        2.10311  -0.00646   0.00000   0.00701   0.00701   2.11012
    A8        2.03508  -0.02425   0.00000  -0.01295  -0.01295   2.02213
    A9        2.14500   0.03071   0.00000   0.00594   0.00594   2.15094
   A10        2.09433  -0.03867   0.00000  -0.01302  -0.01303   2.08130
   A11        2.12763   0.07618   0.00000   0.02342   0.02340   2.15104
   A12        2.06122  -0.03751   0.00000  -0.01039  -0.01040   2.05082
   A13        1.91114  -0.00481   0.00000  -0.01005  -0.01004   1.90110
   A14        1.93905  -0.02445   0.00000  -0.00309  -0.00317   1.93588
   A15        1.93900   0.03801   0.00000   0.01011   0.01011   1.94911
   A16        1.89609   0.00824   0.00000   0.00158   0.00156   1.89766
   A17        1.89608  -0.01959   0.00000  -0.00508  -0.00506   1.89102
   A18        1.88137   0.00218   0.00000   0.00657   0.00655   1.88792
   A19        1.91115   0.00135   0.00000   0.00225   0.00224   1.91339
   A20        1.91106   0.00309   0.00000   0.00428   0.00427   1.91534
   A21        1.91110   0.00196   0.00000   0.00284   0.00283   1.91393
   A22        1.91011  -0.00291   0.00000  -0.00522  -0.00522   1.90489
   A23        1.91023  -0.00128   0.00000  -0.00136  -0.00137   1.90886
   A24        1.91015  -0.00222   0.00000  -0.00279  -0.00280   1.90735
   A25        2.10310   0.00016   0.00000   0.00045   0.00044   2.10354
   A26        2.03507  -0.00148   0.00000  -0.00399  -0.00400   2.03107
   A27        2.14501   0.00133   0.00000   0.00354   0.00353   2.14854
   A28        2.09435  -0.00261   0.00000  -0.00435  -0.00513   2.08922
   A29        2.12756   0.00464   0.00000   0.00329   0.00251   2.13007
   A30        2.06127  -0.00203   0.00000   0.00106   0.00027   2.06154
   A31        1.91121  -0.00690   0.00000  -0.00787  -0.00786   1.90335
   A32        1.91119   0.00362   0.00000   0.00785   0.00784   1.91904
   A33        1.91114   0.00583   0.00000   0.00114   0.00113   1.91228
   A34        1.91000   0.00000   0.00000  -0.00385  -0.00384   1.90617
   A35        1.91015   0.00004   0.00000   0.00245   0.00245   1.91260
   A36        1.91010  -0.00259   0.00000   0.00027   0.00025   1.91035
    D1       -0.00013  -0.00233   0.00000  -0.03227  -0.03228  -0.03241
    D2       -3.14154   0.00268   0.00000  -0.03140  -0.03141   3.11024
    D3        2.10325  -0.00341   0.00000  -0.03704  -0.03706   2.06619
    D4       -1.03815   0.00160   0.00000  -0.03617  -0.03620  -1.07435
    D5       -2.10345  -0.00194   0.00000  -0.03352  -0.03348  -2.13693
    D6        1.03833   0.00307   0.00000  -0.03265  -0.03262   1.00572
    D7       -0.00009   0.00874   0.00000  -0.00952  -0.00953  -0.00962
    D8        3.14152   0.00072   0.00000  -0.01841  -0.01840   3.12312
    D9       -3.14149   0.01388   0.00000  -0.00863  -0.00864   3.13305
   D10        0.00012   0.00586   0.00000  -0.01752  -0.01751  -0.01739
   D11        2.35617   0.01679   0.00000  -0.00647  -0.00649   2.34967
   D12       -1.83258   0.00846   0.00000  -0.01299  -0.01297  -1.84555
   D13        0.26177   0.02028   0.00000   0.00000   0.00000   0.26177
   D14       -0.78541   0.00892   0.00000  -0.01520  -0.01522  -0.80063
   D15        1.30903   0.00059   0.00000  -0.02172  -0.02170   1.28733
   D16       -2.87980   0.01240   0.00000  -0.00873  -0.00873  -2.88853
   D17        1.04724   0.01696   0.00000   0.01237   0.01236   1.05960
   D18        3.14157   0.01613   0.00000   0.00998   0.00997  -3.13165
   D19       -1.04726   0.01650   0.00000   0.01092   0.01092  -1.03635
   D20       -3.13259   0.00120   0.00000  -0.00096  -0.00097  -3.13356
   D21       -1.03826   0.00036   0.00000  -0.00336  -0.00336  -1.04163
   D22        1.05609   0.00074   0.00000  -0.00241  -0.00242   1.05367
   D23       -1.08102  -0.01638   0.00000  -0.00253  -0.00252  -1.08355
   D24        1.01331  -0.01722   0.00000  -0.00493  -0.00492   1.00839
   D25        3.10766  -0.01684   0.00000  -0.00398  -0.00397   3.10369
   D26       -2.09439   0.00401   0.00000  -0.00821  -0.00822  -2.10261
   D27        1.04722   0.01725   0.00000   0.00000   0.00000   1.04722
   D28        2.08548  -0.00089   0.00000   0.00127   0.00126   2.08674
   D29       -1.05609   0.01235   0.00000   0.00947   0.00948  -1.04661
   D30        0.03390  -0.00130   0.00000  -0.00147  -0.00144   0.03246
   D31       -3.10767   0.01194   0.00000   0.00674   0.00678  -3.10089
   D32       -0.00011  -0.00693   0.00000  -0.04823  -0.04817  -0.04828
   D33        3.14159  -0.00488   0.00000   0.02687   0.02678  -3.11482
   D34        3.14151   0.00666   0.00000  -0.03981  -0.03972   3.10179
   D35        0.00002   0.00870   0.00000   0.03529   0.03523   0.03525
   D36        0.00004  -0.00070   0.00000  -0.13887  -0.13890  -0.13886
   D37        2.09436  -0.00272   0.00000  -0.14360  -0.14364   1.95072
   D38       -2.09443  -0.00010   0.00000  -0.13775  -0.13778  -2.23221
   D39       -3.14145   0.00131   0.00000  -0.06514  -0.06509   3.07665
   D40       -1.04712  -0.00070   0.00000  -0.06986  -0.06984  -1.11696
   D41        1.04727   0.00191   0.00000  -0.06402  -0.06398   0.98330
         Item               Value     Threshold  Converged?
 Maximum Force            0.076176     0.000450     NO 
 RMS     Force            0.014549     0.000300     NO 
 Maximum Displacement     0.238945     0.001800     NO 
 RMS     Displacement     0.054777     0.001200     NO 
 Predicted change in Energy=-6.006794D-03
 GradGradGradGradGradGradGradGradGradGradGradGradGradGradGradGradGradGrad

                          Input orientation:                          
 ---------------------------------------------------------------------
 Center     Atomic      Atomic             Coordinates (Angstroms)
 Number     Number       Type             X           Y           Z
 ---------------------------------------------------------------------
      1          1           0        0.256188    4.416579   -0.461820
      2          6           0        1.127926    3.796790   -0.252010
      3          1           0        1.202649    3.009873   -1.004776
      4          1           0        1.020434    3.338943    0.733124
      5          6           0        2.404106    4.639409   -0.283378
      6          8           0        2.362947    5.836078   -0.554057
      7          7           0        3.544153    3.987055   -0.000791
      8          1           0        3.507302    3.002098    0.221219
      9          6           0        4.850123    4.625501   -0.006573
     10          1           0        5.397821    4.319854    0.887639
     11          6           0        5.653085    4.213149   -1.238163
     12          1           0        5.122676    4.519016   -2.140584
     13          1           0        6.631626    4.694360   -1.218030
     14          1           0        5.784341    3.129541   -1.245098
     15          6           0        4.733479    6.149935   -0.001920
     16          8           0        5.215436    6.814997   -0.914477
     17          7           0        4.095722    6.694711    1.042540
     18          1           0        3.688726    6.097241    1.747256
     19          6           0        3.886499    8.123911    1.155221
     20          1           0        4.440044    8.628108    0.363146
     21          1           0        2.823811    8.354128    1.053694
     22          1           0        4.242007    8.469725    2.127036
 ---------------------------------------------------------------------
                    Distance matrix (angstroms):
                    1          2          3          4          5
     1  H    0.000000
     2  C    1.089995   0.000000
     3  H    1.780285   1.091549   0.000000
     4  H    1.781366   1.091635   1.778141   0.000000
     5  C    2.166806   1.529583   2.149256   2.153842   0.000000
     6  O    2.542030   2.403165   3.088183   3.113657   1.227590
     7  N    3.347799   2.436691   2.728647   2.706998   1.343551
     8  H    3.610685   2.552823   2.610469   2.561254   2.037755
     9  C    4.621162   3.821224   4.112266   4.107177   2.461669
    10  H    5.316652   4.450213   4.785055   4.488605   3.230437
    11  C    5.456243   4.650044   4.616138   5.109957   3.413089
    12  H    5.148927   4.477314   4.351343   5.145790   3.294591
    13  H    6.426136   5.659464   5.688301   6.093409   4.329956
    14  H    5.729788   4.807665   4.589551   5.162559   3.824996
    15  C    4.823087   4.312754   4.830370   4.714729   2.790500
    16  O    5.527337   5.124078   5.530786   5.691712   3.610408
    17  N    4.711157   4.345298   5.112671   4.562270   2.973868
    18  H    4.414404   3.980808   4.825568   3.969440   2.810516
    19  C    5.434914   5.321090   6.166201   5.593605   4.050780
    20  H    5.993513   5.889836   6.626953   6.309190   4.524683
    21  H    4.939004   5.034900   5.952019   5.339196   3.970271
    22  H    6.246352   6.098662   6.989702   6.216626   4.884598
                    6          7          8          9         10
     6  O    0.000000
     7  N    2.262794   0.000000
     8  H    3.153100   1.010340   0.000000
     9  C    2.819802   1.453686   2.119079   0.000000
    10  H    3.686174   2.082341   2.398887   1.092249   0.000000
    11  C    3.731877   2.455565   2.863708   1.526956   2.143731
    12  H    3.444971   2.711720   3.238609   2.153979   3.047212
    13  H    4.468333   3.393293   3.833613   2.155486   2.469083
    14  H    4.416879   2.702234   2.711316   2.155134   2.472814
    15  C    2.454137   2.468308   3.385584   1.528898   2.140528
    16  O    3.037249   3.409584   4.329634   2.398257   3.083281
    17  N    2.507764   2.953670   3.828341   2.439547   2.712821
    18  H    2.668696   2.743985   3.455664   2.567251   2.611331
    19  C    3.236823   4.308961   5.220069   3.810146   4.102017
    20  H    3.598753   4.740721   5.704572   4.040510   4.444488
    21  H    3.022886   4.549962   5.459341   4.374102   4.788367
    22  H    4.201812   5.010885   5.836683   4.438485   4.482570
                   11         12         13         14         15
    11  C    0.000000
    12  H    1.090528   0.000000
    13  H    1.090648   1.777296   0.000000
    14  H    1.091551   1.780544   1.779686   0.000000
    15  C    2.474896   2.717582   2.683390   3.431120   0.000000
    16  O    2.658180   2.604510   2.568042   3.743735   1.227742
    17  N    3.712834   3.990058   3.942384   4.560171   1.339557
    18  H    4.039955   4.434220   4.407001   4.706701   2.038113
    19  C    4.913571   5.038426   4.992982   5.857224   2.439863
    20  H    4.850518   4.859968   4.772580   5.884541   2.522046
    21  H    5.514083   5.495114   5.749268   6.430046   3.101551
    22  H    5.606616   5.881858   5.581498   6.501357   3.186757
                   16         17         18         19         20
    16  O    0.000000
    17  N    2.257907   0.000000
    18  H    3.151324   1.009575   0.000000
    19  C    2.786213   1.448822   2.120616   0.000000
    20  H    2.349665   2.078017   2.980860   1.089958   0.000000
    21  H    3.458684   2.090824   2.514487   1.092068   1.778800
    22  H    3.596733   2.085235   2.465569   1.091053   1.782024
                   21         22
    21  H    0.000000
    22  H    1.782331   0.000000
 Stoichiometry    C6H12N2O2
 Framework group  C1[X(C6H12N2O2)]
 Deg. of freedom    60
 Full point group                 C1      NOp   1
 Largest Abelian subgroup         C1      NOp   1
 Largest concise Abelian subgroup C1      NOp   1
                         Standard orientation:                         
 ---------------------------------------------------------------------
 Center     Atomic      Atomic             Coordinates (Angstroms)
 Number     Number       Type             X           Y           Z
 ---------------------------------------------------------------------
      1          1           0        2.996171   -2.038142   -0.697938
      2          6           0        2.924446   -1.129302   -0.100484
      3          1           0        3.624282   -0.385825   -0.486425
      4          1           0        3.179428   -1.354511    0.936788
      5          6           0        1.506681   -0.558529   -0.162016
      6          8           0        0.640271   -1.094969   -0.846518
      7          7           0        1.287594    0.546607    0.569970
      8          1           0        2.043154    0.933756    1.117721
      9          6           0        0.007547    1.234338    0.611313
     10          1           0       -0.233014    1.472963    1.649675
     11          6           0        0.060108    2.532714   -0.190594
     12          1           0        0.291555    2.310464   -1.232845
     13          1           0       -0.905398    3.037279   -0.138393
     14          1           0        0.831397    3.186958    0.219968
     15          6           0       -1.117317    0.368458    0.043457
     16          8           0       -1.770892    0.750377   -0.923149
     17          7           0       -1.340499   -0.798279    0.662591
     18          1           0       -0.749273   -1.077539    1.431816
     19          6           0       -2.353821   -1.728457    0.207584
     20          1           0       -2.944761   -1.255330   -0.576604
     21          1           0       -1.881262   -2.628312   -0.191869
     22          1           0       -3.002842   -1.998657    1.041946
 ---------------------------------------------------------------------
 Rotational constants (GHZ):      1.7241784      1.1771858      0.8181547
 Standard basis: 6-31G(d) (6D, 7F)
 There are   174 symmetry adapted basis functions of A   symmetry.
 Integral buffers will be    131072 words long.
 Raffenetti 2 integral format.
 Two-electron integral symmetry is turned on.
   174 basis functions,   328 primitive gaussians,   174 cartesian basis functions
    39 alpha electrons       39 beta electrons
       nuclear repulsion energy       579.7727653974 Hartrees.
 NAtoms=   22 NActive=   22 NUniq=   22 SFac= 7.50D-01 NAtFMM=   80 NAOKFM=F Big=F
 One-electron integrals computed using PRISM.
 NBasis=   174 RedAO= T  NBF=   174
 NBsUse=   174 1.00D-06 NBFU=   174
 Initial guess read from the read-write file.
 B after Tr=     0.000000    0.000000    0.000000
         Rot=    1.000000    0.000000    0.000000    0.000000 Ang=   0.00 deg.
 Initial guess orbital symmetries:
       Occupied  (A) (A) (A) (A) (A) (A) (A) (A) (A) (A) (A) (A)
                 (A) (A) (A) (A) (A) (A) (A) (A) (A) (A) (A) (A)
                 (A) (A) (A) (A) (A) (A) (A) (A) (A) (A) (A) (A)
                 (A) (A) (A)
       Virtual   (A) (A) (A) (A) (A) (A) (A) (A) (A) (A) (A) (A)
                 (A) (A) (A) (A) (A) (A) (A) (A) (A) (A) (A) (A)
                 (A) (A) (A) (A) (A) (A) (A) (A) (A) (A) (A) (A)
                 (A) (A) (A) (A) (A) (A) (A) (A) (A) (A) (A) (A)
                 (A) (A) (A) (A) (A) (A) (A) (A) (A) (A) (A) (A)
                 (A) (A) (A) (A) (A) (A) (A) (A) (A) (A) (A) (A)
                 (A) (A) (A) (A) (A) (A) (A) (A) (A) (A) (A) (A)
                 (A) (A) (A) (A) (A) (A) (A) (A) (A) (A) (A) (A)
                 (A) (A) (A) (A) (A) (A) (A) (A) (A) (A) (A) (A)
                 (A) (A) (A) (A) (A) (A) (A) (A) (A) (A) (A) (A)
                 (A) (A) (A) (A) (A) (A) (A) (A) (A) (A) (A) (A)
                 (A) (A) (A)
 Harris functional with IExCor=  402 diagonalized for initial guess.
 ExpMin= 1.61D-01 ExpMax= 5.48D+03 ExpMxC= 8.25D+02 IAcc=1 IRadAn=         1 AccDes= 0.00D+00
 HarFok:  IExCor=  402 AccDes= 0.00D+00 IRadAn=         1 IDoV= 1
 ScaDFX=  1.000000  1.000000  1.000000  1.000000
 FoFCou: FMM=F IPFlag=           0 FMFlag=      100000 FMFlg1=           0
         NFxFlg=           0 DoJE=T BraDBF=F KetDBF=T FulRan=T
         Omega=  0.000000  0.000000  1.000000  0.000000  0.000000 ICntrl=     500 IOpCl=  0
         NMat0=    1 NMatS0=    1 NMatT0=    0 NMatD0=    1 NMtDS0=    0 NMtDT0=    0
         I1Cent=           4 NGrid=           0.
 Petite list used in FoFCou.
 Requested convergence on RMS density matrix=1.00D-08 within 128 cycles.
 Requested convergence on MAX density matrix=1.00D-06.
 Requested convergence on             energy=1.00D-06.
 No special actions if energy rises.
 Integral accuracy reduced to 1.0D-05 until final iterations.
 Initial convergence to 1.0D-05 achieved.  Increase integral accuracy.
 SCF Done:  E(RB3LYP) =  -495.826471138     A.U. after   12 cycles
             Convg  =    0.4337D-08             -V/T =  2.0087
 Calling FoFJK, ICntrl=      2127 FMM=F ISym2X=0 I1Cent= 0 IOpClX= 0 NMat=1 NMatS=1 NMatT=0.
 ***** Axes restored to original set *****
 -------------------------------------------------------------------
 Center     Atomic                   Forces (Hartrees/Bohr)
 Number     Number              X              Y              Z
 -------------------------------------------------------------------
      1        1           0.002192880    0.001908767   -0.000193408
      2        6           0.008277795   -0.000432166    0.002170615
      3        1          -0.002419076   -0.004058993   -0.000821579
      4        1          -0.003068605   -0.004222910    0.001873095
      5        6          -0.032847794    0.015013133   -0.011639714
      6        8          -0.010543428   -0.009425424   -0.010370031
      7        7           0.010711218   -0.008808763    0.013095455
      8        1          -0.000278187   -0.000685524   -0.000697482
      9        6           0.009136003   -0.002437393   -0.012329752
     10        1          -0.000436183   -0.001510667    0.005489907
     11        6           0.000823283   -0.003657297    0.001927736
     12        1           0.001270071    0.000836275   -0.001239296
     13        1           0.001090801   -0.000178655   -0.002081803
     14        1           0.001249876   -0.003645749   -0.001157185
     15        6           0.000147465    0.010798470   -0.014333016
     16        8           0.004594175   -0.000535736    0.003563683
     17        7           0.016255322    0.010459698    0.024956728
     18        1          -0.001113632    0.000108097   -0.001750707
     19        6          -0.002935893   -0.003183224    0.001933915
     20        1           0.000311125   -0.002499449   -0.000388192
     21        1          -0.002823619    0.002532375   -0.000766533
     22        1           0.000406403    0.003625134    0.002757563
 -------------------------------------------------------------------
 Cartesian Forces:  Max     0.032847794 RMS     0.007772471

 GradGradGradGradGradGradGradGradGradGradGradGradGradGradGradGradGradGrad
 Berny optimization.
 Using GEDIIS/GDIIS optimizer.
 Internal  Forces:  Max     0.058246897 RMS     0.011623557
 Search for a local minimum.
 Step number   2 out of a maximum of  132
 All quantities printed in internal units (Hartrees-Bohrs-Radians)
 Mixed Optimization -- RFO/linear search
 Update second derivatives using D2CorX and points    1    2
 DE= -6.03D-03 DEPred=-6.01D-03 R= 1.00D+00
 SS=  1.41D+00  RLast= 3.00D-01 DXNew= 5.0454D-01 8.9997D-01
 Trust test= 1.00D+00 RLast= 3.00D-01 DXMaxT set to 5.05D-01
 Use linear search instead of GDIIS.
 Linear search step of   0.594 exceeds DXMaxT=   0.505 but not scaled.
 Quartic linear search produced a step of  2.00000.
 Iteration  1 RMS(Cart)=  0.09899252 RMS(Int)=  0.01492052
 Iteration  2 RMS(Cart)=  0.02218863 RMS(Int)=  0.00100329
 Iteration  3 RMS(Cart)=  0.00062718 RMS(Int)=  0.00083064
 Iteration  4 RMS(Cart)=  0.00000051 RMS(Int)=  0.00083064
 Iteration  1 RMS(Cart)=  0.00004812 RMS(Int)=  0.00001542
 Iteration  2 RMS(Cart)=  0.00002763 RMS(Int)=  0.00001718
 Iteration  3 RMS(Cart)=  0.00001629 RMS(Int)=  0.00001942
 Iteration  4 RMS(Cart)=  0.00000987 RMS(Int)=  0.00002097
 Iteration  5 RMS(Cart)=  0.00000613 RMS(Int)=  0.00002195
 Iteration  6 RMS(Cart)=  0.00000390 RMS(Int)=  0.00002255
 Iteration  7 RMS(Cart)=  0.00000252 RMS(Int)=  0.00002293
 Iteration  8 RMS(Cart)=  0.00000165 RMS(Int)=  0.00002317
 Iteration  9 RMS(Cart)=  0.00000109 RMS(Int)=  0.00002333
 Iteration 10 RMS(Cart)=  0.00000073 RMS(Int)=  0.00002342
 Variable       Old X    -DE/DX   Delta X   Delta X   Delta X     New X
                                 (Linear)    (Quad)   (Total)
    R1        2.05979  -0.00063   0.00008   0.00000   0.00008   2.05987
    R2        2.06273   0.00333   0.00582   0.00000   0.00582   2.06855
    R3        2.06289   0.00376   0.00607   0.00000   0.00607   2.06896
    R4        2.89049  -0.00035  -0.00171   0.00000  -0.00171   2.88878
    R5        2.31981  -0.00655  -0.00507   0.00000  -0.00507   2.31474
    R6        2.53894   0.03599   0.03225   0.00000   0.03225   2.57120
    R7        1.90927   0.00052   0.00114   0.00000   0.00114   1.91041
    R8        2.74707   0.02981   0.01779   0.00000   0.01779   2.76486
    R9        2.06405   0.00470   0.00861   0.00000   0.00861   2.07266
   R10        2.88553   0.00619   0.00729   0.00000   0.00729   2.89282
   R11        2.88920   0.02015   0.02604   0.00000   0.02604   2.91524
   R12        2.06080   0.00064   0.00216   0.00000   0.00216   2.06296
   R13        2.06103   0.00086   0.00236   0.00000   0.00236   2.06339
   R14        2.06273   0.00377   0.00614   0.00000   0.00614   2.06888
   R15        2.32010  -0.00114  -0.00484   0.00000  -0.00484   2.31525
   R16        2.53140   0.02055   0.01712   0.00000   0.01712   2.54851
   R17        1.90782  -0.00084  -0.00172   0.00000  -0.00172   1.90610
   R18        2.73788   0.00147  -0.00046   0.00000  -0.00046   2.73742
   R19        2.05972  -0.00072  -0.00007   0.00000  -0.00007   2.05965
   R20        2.06371   0.00335   0.00780   0.00000   0.00780   2.07151
   R21        2.06179   0.00374   0.00410   0.00000   0.00410   2.06589
    A1        1.90914  -0.00014  -0.00400   0.00000  -0.00394   1.90520
    A2        1.91075  -0.00026  -0.00079   0.00000  -0.00061   1.91014
    A3        1.92845  -0.00605  -0.02120   0.00000  -0.02107   1.90738
    A4        1.90364  -0.00417  -0.01289   0.00000  -0.01324   1.89040
    A5        1.90274   0.00476   0.01323   0.00000   0.01308   1.91582
    A6        1.90891   0.00587   0.02580   0.00000   0.02572   1.93463
    A7        2.11012  -0.00486   0.01402   0.00000   0.01402   2.12414
    A8        2.02213  -0.01842  -0.02589   0.00000  -0.02589   1.99624
    A9        2.15094   0.02327   0.01187   0.00000   0.01187   2.16281
   A10        2.08130  -0.02956  -0.02607   0.00000  -0.02613   2.05517
   A11        2.15104   0.05825   0.04681   0.00000   0.04675   2.19779
   A12        2.05082  -0.02873  -0.02080   0.00000  -0.02087   2.02995
   A13        1.90110  -0.00355  -0.02007   0.00000  -0.01995   1.88115
   A14        1.93588  -0.01915  -0.00633   0.00000  -0.00682   1.92906
   A15        1.94911   0.02916   0.02022   0.00000   0.02024   1.96935
   A16        1.89766   0.00620   0.00313   0.00000   0.00301   1.90067
   A17        1.89102  -0.01516  -0.01012   0.00000  -0.00997   1.88105
   A18        1.88792   0.00214   0.01309   0.00000   0.01295   1.90087
   A19        1.91339   0.00104   0.00448   0.00000   0.00446   1.91785
   A20        1.91534   0.00239   0.00855   0.00000   0.00852   1.92386
   A21        1.91393   0.00151   0.00567   0.00000   0.00563   1.91956
   A22        1.90489  -0.00228  -0.01044   0.00000  -0.01045   1.89444
   A23        1.90886  -0.00098  -0.00274   0.00000  -0.00277   1.90610
   A24        1.90735  -0.00171  -0.00560   0.00000  -0.00565   1.90170
   A25        2.10354   0.00026   0.00089   0.00000   0.00083   2.10437
   A26        2.03107  -0.00127  -0.00800   0.00000  -0.00807   2.02300
   A27        2.14854   0.00092   0.00705   0.00000   0.00699   2.15553
   A28        2.08922  -0.00207  -0.01026   0.00000  -0.01486   2.07437
   A29        2.13007   0.00339   0.00501   0.00000   0.00038   2.13045
   A30        2.06154  -0.00144   0.00054   0.00000  -0.00423   2.05731
   A31        1.90335  -0.00508  -0.01572   0.00000  -0.01569   1.88767
   A32        1.91904   0.00272   0.01569   0.00000   0.01567   1.93471
   A33        1.91228   0.00440   0.00226   0.00000   0.00220   1.91447
   A34        1.90617  -0.00006  -0.00767   0.00000  -0.00759   1.89858
   A35        1.91260  -0.00005   0.00490   0.00000   0.00489   1.91749
   A36        1.91035  -0.00195   0.00050   0.00000   0.00039   1.91074
    D1       -0.03241  -0.00182  -0.06455   0.00000  -0.06460  -0.09701
    D2        3.11024   0.00202  -0.06282   0.00000  -0.06287   3.04737
    D3        2.06619  -0.00271  -0.07413   0.00000  -0.07429   1.99190
    D4       -1.07435   0.00113  -0.07239   0.00000  -0.07255  -1.14690
    D5       -2.13693  -0.00146  -0.06696   0.00000  -0.06675  -2.20368
    D6        1.00572   0.00238  -0.06523   0.00000  -0.06502   0.94070
    D7       -0.00962   0.00688  -0.01906   0.00000  -0.01909  -0.02871
    D8        3.12312   0.00040  -0.03681   0.00000  -0.03677   3.08635
    D9        3.13305   0.01083  -0.01728   0.00000  -0.01731   3.11574
   D10       -0.01739   0.00436  -0.03503   0.00000  -0.03499  -0.05238
   D11        2.34967   0.01309  -0.01299   0.00000  -0.01310   2.33657
   D12       -1.84555   0.00677  -0.02595   0.00000  -0.02583  -1.87138
   D13        0.26177   0.01614   0.00000   0.00000   0.00000   0.26177
   D14       -0.80063   0.00671  -0.03044   0.00000  -0.03059  -0.83121
   D15        1.28733   0.00039  -0.04340   0.00000  -0.04331   1.24402
   D16       -2.88853   0.00976  -0.01746   0.00000  -0.01748  -2.90601
   D17        1.05960   0.01305   0.02473   0.00000   0.02470   1.08431
   D18       -3.13165   0.01237   0.01994   0.00000   0.01990  -3.11174
   D19       -1.03635   0.01268   0.02183   0.00000   0.02181  -1.01454
   D20       -3.13356   0.00096  -0.00194   0.00000  -0.00197  -3.13553
   D21       -1.04163   0.00028  -0.00673   0.00000  -0.00677  -1.04840
   D22        1.05367   0.00059  -0.00484   0.00000  -0.00487   1.04881
   D23       -1.08355  -0.01250  -0.00505   0.00000  -0.00498  -1.08852
   D24        1.00839  -0.01318  -0.00983   0.00000  -0.00978   0.99861
   D25        3.10369  -0.01287  -0.00794   0.00000  -0.00788   3.09581
   D26       -2.10261   0.00296  -0.01644   0.00000  -0.01648  -2.11909
   D27        1.04722   0.01377   0.00000   0.00000   0.00000   1.04722
   D28        2.08674  -0.00064   0.00252   0.00000   0.00250   2.08924
   D29       -1.04661   0.01017   0.01895   0.00000   0.01898  -1.02763
   D30        0.03246  -0.00090  -0.00287   0.00000  -0.00264   0.02982
   D31       -3.10089   0.00990   0.01356   0.00000   0.01384  -3.08706
   D32       -0.04828  -0.00587  -0.09633   0.00000  -0.09583  -0.14411
   D33       -3.11482  -0.00387   0.05355   0.00000   0.05290  -3.06192
   D34        3.10179   0.00525  -0.07944   0.00000  -0.07878   3.02301
   D35        0.03525   0.00725   0.07045   0.00000   0.06995   0.10520
   D36       -0.13886  -0.00085  -0.27779   0.00000  -0.27785  -0.41670
   D37        1.95072  -0.00241  -0.28729   0.00000  -0.28746   1.66326
   D38       -2.23221  -0.00035  -0.27556   0.00000  -0.27561  -2.50782
   D39        3.07665   0.00115  -0.13019   0.00000  -0.13006   2.94659
   D40       -1.11696  -0.00041  -0.13968   0.00000  -0.13967  -1.25663
   D41        0.98330   0.00166  -0.12795   0.00000  -0.12782   0.85548
         Item               Value     Threshold  Converged?
 Maximum Force            0.058270     0.000450     NO 
 RMS     Force            0.011108     0.000300     NO 
 Maximum Displacement     0.454803     0.001800     NO 
 RMS     Displacement     0.109690     0.001200     NO 
 Predicted change in Energy=-7.759742D-03
 GradGradGradGradGradGradGradGradGradGradGradGradGradGradGradGradGradGrad

                          Input orientation:                          
 ---------------------------------------------------------------------
 Center     Atomic      Atomic             Coordinates (Angstroms)
 Number     Number       Type             X           Y           Z
 ---------------------------------------------------------------------
      1          1           0        0.215836    4.311209   -0.365434
      2          6           0        1.121852    3.717419   -0.244072
      3          1           0        1.192493    2.997736   -1.065825
      4          1           0        1.069362    3.160697    0.697201
      5          6           0        2.338272    4.643096   -0.261490
      6          8           0        2.232477    5.840781   -0.495485
      7          7           0        3.520532    4.021758   -0.001711
      8          1           0        3.497295    3.031785    0.201805
      9          6           0        4.842067    4.649385   -0.018850
     10          1           0        5.376448    4.329681    0.884039
     11          6           0        5.634029    4.199539   -1.249228
     12          1           0        5.118761    4.515371   -2.158345
     13          1           0        6.630065    4.646853   -1.241389
     14          1           0        5.733745    3.109291   -1.251917
     15          6           0        4.773190    6.190457   -0.004540
     16          8           0        5.279256    6.845256   -0.907978
     17          7           0        4.158944    6.742998    1.061367
     18          1           0        3.676374    6.141062    1.711141
     19          6           0        3.933328    8.170174    1.164553
     20          1           0        4.667767    8.676274    0.538141
     21          1           0        2.928793    8.432807    0.813023
     22          1           0        4.050215    8.487371    2.204196
 ---------------------------------------------------------------------
                    Distance matrix (angstroms):
                    1          2          3          4          5
     1  H    0.000000
     2  C    1.090037   0.000000
     3  H    1.780342   1.094628   0.000000
     4  H    1.783642   1.094847   1.774818   0.000000
     5  C    2.150741   1.528679   2.160317   2.174104   0.000000
     6  O    2.534432   2.409433   3.080545   3.155660   1.224907
     7  N    3.337228   2.430026   2.756941   2.690379   1.360619
     8  H    3.567445   2.512296   2.630619   2.481309   2.038210
     9  C    4.651505   3.841782   4.140470   4.118522   2.515533
    10  H    5.309750   4.443995   4.804324   4.466814   3.262052
    11  C    5.490936   4.647851   4.604911   5.069907   3.469061
    12  H    5.224451   4.502938   4.348838   5.136820   3.368307
    13  H    6.482461   5.674408   5.684857   6.073567   4.402239
    14  H    5.716449   4.759741   4.546432   5.055509   3.855223
    15  C    4.942802   4.416510   4.913367   4.836344   2.896407
    16  O    5.688056   5.244821   5.615154   5.820291   3.730529
    17  N    4.847418   4.481320   5.229891   4.744577   3.078049
    18  H    4.431235   4.027715   4.874598   4.087439   2.815261
    19  C    5.572452   5.451207   6.264254   5.789264   4.125298
    20  H    6.299994   6.146187   6.848067   6.587519   4.725726
    21  H    5.073112   5.159203   6.007063   5.591605   3.983115
    22  H    6.224611   6.109154   6.999692   6.287286   4.877377
                    6          7          8          9         10
     6  O    0.000000
     7  N    2.282925   0.000000
     8  H    3.158551   1.010943   0.000000
     9  C    2.908018   1.463101   2.115120   0.000000
    10  H    3.751142   2.079374   2.383526   1.096806   0.000000
    11  C    3.851280   2.460645   2.834568   1.530815   2.152698
    12  H    3.585031   2.729297   3.224979   2.161471   3.058919
    13  H    4.617426   3.405400   3.808609   2.165998   2.487890
[...]
    14  H    5.710161   4.729614   4.990300   4.586593   3.862738
    15  C    5.020772   4.543909   5.090593   4.987176   3.035798
    16  O    5.979669   5.458581   5.835839   5.972199   3.942205
    17  N    4.817088   4.627096   5.346848   5.110291   3.228628
    18  H    4.021407   3.941650   4.783336   4.374345   2.717041
    19  C    5.589658   5.581396   6.212650   6.226906   4.233607
    20  H    6.542885   6.428809   6.995518   7.055353   4.995179
    21  H    5.260871   5.326482   5.822934   6.124810   4.056995
    22  H    5.901192   6.049494   6.784182   6.639752   4.839487
                    6          7          8          9         10
     6  O    0.000000
     7  N    2.293606   0.000000
     8  H    3.157879   1.010681   0.000000
     9  C    2.991240   1.473183   2.101462   0.000000
    10  H    3.804975   2.066905   2.346777   1.099580   0.000000
    11  C    3.962832   2.468876   2.794778   1.530990   2.155550
    12  H    3.732982   2.779705   3.242430   2.167583   3.066096
    13  H    4.779541   3.414848   3.754180   2.169406   2.479404
    14  H    4.549511   2.678157   2.591918   2.170161   2.508471
    15  C    2.813730   2.554471   3.439544   1.551758   2.129766
    16  O    3.533447   3.528103   4.398978   2.416854   3.051006
    17  N    2.859942   3.051161   3.911587   2.470407   2.671627
    18  H    2.540564   2.679974   3.449410   2.569504   2.677795
    19  C    3.494066   4.359583   5.276442   3.824758   4.095621
    20  H    4.261836   4.955586   5.875249   4.138681   4.397949
    21  H    3.073256   4.495118   5.465604   4.204445   4.695541
    22  H    4.175714   4.992511   5.828827   4.558720   4.630989
                   11         12         13         14         15
    11  C    0.000000
    12  H    1.092874   0.000000
    13  H    1.092670   1.768099   0.000000
    14  H    1.096394   1.782672   1.779403   0.000000
    15  C    2.528302   2.781396   2.750695   3.486909   0.000000
    16  O    2.733689   2.714160   2.639496   3.821491   1.221474
    17  N    3.773783   4.088813   4.011661   4.614018   1.368438
    18  H    4.049694   4.410620   4.483524   4.718983   2.020419
    19  C    4.964303   5.094016   5.087524   5.904061   2.436753
    20  H    5.035818   5.145106   4.939564   6.051688   2.624406
    21  H    5.268413   5.185831   5.527109   6.215218   2.858125
    22  H    5.824263   6.060107   5.939572   6.696775   3.323528
                   16         17         18         19         20
    16  O    0.000000
    17  N    2.280636   0.000000
    18  H    3.123531   1.011047   0.000000
    19  C    2.782402   1.456904   2.097572   0.000000
    20  H    2.519045   2.080416   2.961466   1.090677   0.000000
    21  H    3.090509   2.120667   2.544819   1.097511   1.777587
    22  H    3.798068   2.089658   2.402631   1.093535   1.781861
                   21         22
    21  H    0.000000
    22  H    1.789414   0.000000
 Stoichiometry    C6H12N2O2
 Framework group  C1[X(C6H12N2O2)]
 Deg. of freedom    60
 Full point group                 C1      NOp   1
 Largest Abelian subgroup         C1      NOp   1
 Largest concise Abelian subgroup C1      NOp   1
                         Standard orientation:                         
 ---------------------------------------------------------------------
 Center     Atomic      Atomic             Coordinates (Angstroms)
 Number     Number       Type             X           Y           Z
 ---------------------------------------------------------------------
      1          1           0       -3.225710   -1.952375   -0.213943
      2          6           0       -3.135907   -0.885130    0.005371
      3          1           0       -3.642859   -0.704483    0.959208
      4          1           0       -3.646577   -0.313707   -0.776374
      5          6           0       -1.657896   -0.544924    0.167118
      6          8           0       -0.921081   -1.229547    0.865912
      7          7           0       -1.255716    0.579903   -0.503226
      8          1           0       -1.963592    1.063941   -1.038106
      9          6           0        0.074132    1.212290   -0.546357
     10          1           0        0.288411    1.395047   -1.609259
     11          6           0        0.055614    2.551912    0.194589
     12          1           0       -0.105264    2.391428    1.263577
     13          1           0        1.009820    3.069688    0.070797
     14          1           0       -0.745356    3.190916   -0.195539
     15          6           0        1.242179    0.330687   -0.030219
     16          8           0        2.008303    0.745889    0.825736
     17          7           0        1.435792   -0.842684   -0.707224
     18          1           0        0.614950   -1.224125   -1.157710
     19          6           0        2.362393   -1.828949   -0.167537
     20          1           0        3.276945   -1.318376    0.136578
     21          1           0        1.939478   -2.341530    0.705924
     22          1           0        2.598353   -2.563017   -0.942963
 ---------------------------------------------------------------------
 Rotational constants (GHZ):      1.7194652      1.0567113      0.7469810

 **********************************************************************

            Population analysis using the SCF density.

 **********************************************************************

 Orbital symmetries:
       Occupied  (A) (A) (A) (A) (A) (A) (A) (A) (A) (A) (A) (A)
                 (A) (A) (A) (A) (A) (A) (A) (A) (A) (A) (A) (A)
                 (A) (A) (A) (A) (A) (A) (A) (A) (A) (A) (A) (A)
                 (A) (A) (A)
       Virtual   (A) (A) (A) (A) (A) (A) (A) (A) (A) (A) (A) (A)
                 (A) (A) (A) (A) (A) (A) (A) (A) (A) (A) (A) (A)
                 (A) (A) (A) (A) (A) (A) (A) (A) (A) (A) (A) (A)
                 (A) (A) (A) (A) (A) (A) (A) (A) (A) (A) (A) (A)
                 (A) (A) (A) (A) (A) (A) (A) (A) (A) (A) (A) (A)
                 (A) (A) (A) (A) (A) (A) (A) (A) (A) (A) (A) (A)
                 (A) (A) (A) (A) (A) (A) (A) (A) (A) (A) (A) (A)
                 (A) (A) (A) (A) (A) (A) (A) (A) (A) (A) (A) (A)
                 (A) (A) (A) (A) (A) (A) (A) (A) (A) (A) (A) (A)
                 (A) (A) (A) (A) (A) (A) (A) (A) (A) (A) (A) (A)
                 (A) (A) (A) (A) (A) (A) (A) (A) (A) (A) (A) (A)
                 (A) (A) (A)
 The electronic state is 1-A.
 Alpha  occ. eigenvalues --  -19.11448 -19.10695 -14.37266 -14.34630 -10.29635
 Alpha  occ. eigenvalues --  -10.28033 -10.24231 -10.20340 -10.19937 -10.17889
 Alpha  occ. eigenvalues --   -1.03711  -1.02409  -0.93124  -0.90709  -0.78165
 Alpha  occ. eigenvalues --   -0.73121  -0.70010  -0.63918  -0.59913  -0.56303
 Alpha  occ. eigenvalues --   -0.52278  -0.49802  -0.47021  -0.46259  -0.44668
 Alpha  occ. eigenvalues --   -0.43490  -0.41825  -0.41449  -0.40256  -0.39810
 Alpha  occ. eigenvalues --   -0.38061  -0.37376  -0.36622  -0.36116  -0.35183
 Alpha  occ. eigenvalues --   -0.26183  -0.25791  -0.24928  -0.23501
 Alpha virt. eigenvalues --    0.02217   0.02348   0.06314   0.10250   0.11089
 Alpha virt. eigenvalues --    0.13355   0.13586   0.15011   0.15463   0.16093
 Alpha virt. eigenvalues --    0.17142   0.17417   0.18011   0.18989   0.20210
 Alpha virt. eigenvalues --    0.20951   0.22684   0.24306   0.28105   0.32346
 Alpha virt. eigenvalues --    0.34552   0.38427   0.41747   0.49923   0.51838
 Alpha virt. eigenvalues --    0.52353   0.54033   0.55920   0.56016   0.57152
 Alpha virt. eigenvalues --    0.57811   0.59290   0.62332   0.63231   0.64748
 Alpha virt. eigenvalues --    0.65393   0.68347   0.72489   0.73126   0.74009
 Alpha virt. eigenvalues --    0.74763   0.75817   0.77801   0.81844   0.83579
 Alpha virt. eigenvalues --    0.84636   0.86644   0.87377   0.88231   0.88960
 Alpha virt. eigenvalues --    0.89669   0.90546   0.91578   0.92794   0.93234
 Alpha virt. eigenvalues --    0.94395   0.96670   0.97629   0.98274   0.99826
 Alpha virt. eigenvalues --    1.03857   1.07256   1.08211   1.10097   1.17177
 Alpha virt. eigenvalues --    1.19988   1.24509   1.26595   1.30980   1.33882
 Alpha virt. eigenvalues --    1.35627   1.39414   1.40324   1.45981   1.49154
 Alpha virt. eigenvalues --    1.50962   1.58788   1.60329   1.67292   1.67962
 Alpha virt. eigenvalues --    1.71246   1.77523   1.78092   1.80861   1.82494
 Alpha virt. eigenvalues --    1.83043   1.87253   1.87398   1.88628   1.90669
 Alpha virt. eigenvalues --    1.94098   1.95502   1.97263   1.98819   2.02175
 Alpha virt. eigenvalues --    2.04012   2.05483   2.08742   2.14604   2.15862
 Alpha virt. eigenvalues --    2.20063   2.20953   2.22055   2.25404   2.28907
 Alpha virt. eigenvalues --    2.32499   2.33937   2.36555   2.37823   2.41335
 Alpha virt. eigenvalues --    2.44658   2.49275   2.49952   2.55556   2.60181
 Alpha virt. eigenvalues --    2.64257   2.68994   2.73386   2.76681   2.87657
 Alpha virt. eigenvalues --    2.91612   2.97773   3.01068   3.12859   3.17482
 Alpha virt. eigenvalues --    3.92493   3.95198   4.03471   4.14149   4.20181
 Alpha virt. eigenvalues --    4.25208   4.28710   4.42519   4.46782   4.63482
          Condensed to atoms (all electrons):
              1          2          3          4          5          6
     1  H    0.517415   0.361528  -0.022686  -0.025955  -0.020072   0.001595
     2  C    0.361528   5.326652   0.362974   0.336860   0.340800  -0.081616
     3  H   -0.022686   0.362974   0.513410  -0.025918  -0.019314   0.000206
     4  H   -0.025955   0.336860  -0.025918   0.585435  -0.025239   0.003153
     5  C   -0.020072   0.340800  -0.019314  -0.025239   4.324518   0.574847
     6  O    0.001595  -0.081616   0.000206   0.003153   0.574847   8.088201
     7  N    0.002424  -0.118999   0.000405   0.006571   0.267279  -0.088736
     8  H   -0.000114   0.002286   0.000021   0.002463  -0.015888   0.003536
     9  C   -0.000169   0.005892  -0.000133   0.000199  -0.027111  -0.002290
    10  H    0.000013  -0.000201  -0.000004  -0.000027   0.002597   0.000232
    11  C   -0.000003  -0.000300   0.000031   0.000004   0.000656  -0.000139
    12  H    0.000001  -0.000016  -0.000005  -0.000003   0.001476   0.000094
    13  H    0.000000   0.000005   0.000000   0.000000  -0.000040  -0.000001
    14  H    0.000000  -0.000008  -0.000001  -0.000006  -0.000066  -0.000006
    15  C    0.000011   0.000159   0.000000  -0.000019   0.003108   0.015102
    16  O    0.000000  -0.000008   0.000000   0.000000  -0.000387  -0.001286
    17  N    0.000012  -0.000021  -0.000001   0.000004   0.002342  -0.012742
    18  H   -0.000017  -0.000150   0.000009  -0.000005   0.005048   0.003793
    19  C    0.000000   0.000001   0.000000   0.000000  -0.000104  -0.000829
    20  H    0.000000   0.000000   0.000000   0.000000   0.000012   0.000009
    21  H   -0.000001   0.000011   0.000000   0.000000  -0.000197   0.003739
    22  H    0.000000   0.000000   0.000000   0.000000   0.000003  -0.000032
              7          8          9         10         11         12
     1  H    0.002424  -0.000114  -0.000169   0.000013  -0.000003   0.000001
     2  C   -0.118999   0.002286   0.005892  -0.000201  -0.000300  -0.000016
     3  H    0.000405   0.000021  -0.000133  -0.000004   0.000031  -0.000005
     4  H    0.006571   0.002463   0.000199  -0.000027   0.000004  -0.000003
     5  C    0.267279  -0.015888  -0.027111   0.002597   0.000656   0.001476
     6  O   -0.088736   0.003536  -0.002290   0.000232  -0.000139   0.000094
     7  N    7.151512   0.294164   0.218445  -0.044397  -0.063197  -0.001279
     8  H    0.294164   0.417062  -0.028136  -0.004012  -0.000297  -0.000220
     9  C    0.218445  -0.028136   5.148057   0.367483   0.360664  -0.030541
    10  H   -0.044397  -0.004012   0.367483   0.596366  -0.049450   0.005131
    11  C   -0.063197  -0.000297   0.360664  -0.049450   5.100052   0.377769
    12  H   -0.001279  -0.000220  -0.030541   0.005131   0.377769   0.524471
    13  H    0.004671  -0.000154  -0.024259  -0.000869   0.364568  -0.022181
    14  H   -0.001878   0.002749  -0.032749  -0.002913   0.355380  -0.030492
    15  C   -0.027555   0.003021   0.306608  -0.032414  -0.032508  -0.004981
    16  O    0.001271  -0.000072  -0.089449   0.001040   0.005328   0.003679
    17  N    0.002833  -0.000316  -0.127766   0.001857   0.005239   0.000185
    18  H    0.002312  -0.000003  -0.000507  -0.000231   0.000110  -0.000016
    19  C   -0.000124   0.000012   0.006856  -0.000064  -0.000165  -0.000003
    20  H   -0.000014   0.000000   0.000551  -0.000036  -0.000010  -0.000002
    21  H   -0.000025  -0.000001   0.000106   0.000004   0.000004  -0.000001
    22  H   -0.000002   0.000000  -0.000119  -0.000004   0.000001   0.000000
             13         14         15         16         17         18
     1  H    0.000000   0.000000   0.000011   0.000000   0.000012  -0.000017
     2  C    0.000005  -0.000008   0.000159  -0.000008  -0.000021  -0.000150
     3  H    0.000000  -0.000001   0.000000   0.000000  -0.000001   0.000009
     4  H    0.000000  -0.000006  -0.000019   0.000000   0.000004  -0.000005
     5  C   -0.000040  -0.000066   0.003108  -0.000387   0.002342   0.005048
     6  O   -0.000001  -0.000006   0.015102  -0.001286  -0.012742   0.003793
     7  N    0.004671  -0.001878  -0.027555   0.001271   0.002833   0.002312
     8  H   -0.000154   0.002749   0.003021  -0.000072  -0.000316  -0.000003
     9  C   -0.024259  -0.032749   0.306608  -0.089449  -0.127766  -0.000507
    10  H   -0.000869  -0.002913  -0.032414   0.001040   0.001857  -0.000231
    11  C    0.364568   0.355380  -0.032508   0.005328   0.005239   0.000110
    12  H   -0.022181  -0.030492  -0.004981   0.003679   0.000185  -0.000016
    13  H    0.536872  -0.028871  -0.002847   0.004012   0.000063  -0.000014
    14  H   -0.028871   0.609479   0.005132   0.000744  -0.000042  -0.000017
    15  C   -0.002847   0.005132   4.322685   0.593342   0.282869  -0.024096
    16  O    0.004012   0.000744   0.593342   8.069954  -0.094073   0.003626
    17  N    0.000063  -0.000042   0.282869  -0.094073   7.044577   0.300666
    18  H   -0.000014  -0.000017  -0.024096   0.003626   0.300666   0.416976
    19  C   -0.000006   0.000001  -0.025305   0.000510   0.281805  -0.034428
    20  H    0.000001   0.000000  -0.004046   0.011423  -0.037581   0.004450
    21  H    0.000000   0.000000  -0.001076   0.001125  -0.047766  -0.000241
    22  H    0.000000   0.000000   0.004368   0.000518  -0.035801  -0.002568
             19         20         21         22
     1  H    0.000000   0.000000  -0.000001   0.000000
     2  C    0.000001   0.000000   0.000011   0.000000
     3  H    0.000000   0.000000   0.000000   0.000000
     4  H    0.000000   0.000000   0.000000   0.000000
     5  C   -0.000104   0.000012  -0.000197   0.000003
     6  O   -0.000829   0.000009   0.003739  -0.000032
     7  N   -0.000124  -0.000014  -0.000025  -0.000002
     8  H    0.000012   0.000000  -0.000001   0.000000
     9  C    0.006856   0.000551   0.000106  -0.000119
    10  H   -0.000064  -0.000036   0.000004  -0.000004
    11  C   -0.000165  -0.000010   0.000004   0.000001
    12  H   -0.000003  -0.000002  -0.000001   0.000000
    13  H   -0.000006   0.000001   0.000000   0.000000
    14  H    0.000001   0.000000   0.000000   0.000000
    15  C   -0.025305  -0.004046  -0.001076   0.004368
    16  O    0.000510   0.011423   0.001125   0.000518
    17  N    0.281805  -0.037581  -0.047766  -0.035801
    18  H   -0.034428   0.004450  -0.000241  -0.002568
    19  C    4.943045   0.381394   0.383275   0.372573
    20  H    0.381394   0.513664  -0.032180  -0.025065
    21  H    0.383275  -0.032180   0.554671  -0.036890
    22  H    0.372573  -0.025065  -0.036890   0.578409
 Mulliken atomic charges:
              1
     1  H    0.186017
     2  C   -0.535850
     3  H    0.191007
     4  H    0.142483
     5  C    0.585731
     6  O   -0.506829
     7  N   -0.605682
     8  H    0.323900
     9  C   -0.051631
    10  H    0.159899
    11  C   -0.423739
    12  H    0.176933
    13  H    0.169050
    14  H    0.123562
    15  C    0.618443
    16  O   -0.511297
    17  N   -0.566340
    18  H    0.325303
    19  C   -0.308444
    20  H    0.187429
    21  H    0.175445
    22  H    0.144611
 Sum of Mulliken atomic charges =   0.00000
 Mulliken charges with hydrogens summed into heavy atoms:
              1
     2  C   -0.016342
     5  C    0.585731
     6  O   -0.506829
     7  N   -0.281782
     9  C    0.108268
    11  C    0.045806
    15  C    0.618443
    16  O   -0.511297
    17  N   -0.241037
    19  C    0.199040
 Sum of Mulliken charges with hydrogens summed into heavy atoms =   0.00000
 Electronic spatial extent (au):  <R**2>=           1639.7412
 Charge=              0.0000 electrons
 Dipole moment (field-independent basis, Debye):
    X=             -3.5215    Y=              0.3429    Z=             -3.8171  Tot=              5.2047
 Quadrupole moment (field-independent basis, Debye-Ang):
   XX=            -56.4015   YY=            -57.3792   ZZ=            -61.3367
   XY=             -5.4089   XZ=             -0.5010   YZ=              0.2672
 Traceless Quadrupole moment (field-independent basis, Debye-Ang):
   XX=              1.9710   YY=              0.9933   ZZ=             -2.9643
   XY=             -5.4089   XZ=             -0.5010   YZ=              0.2672
 Octapole moment (field-independent basis, Debye-Ang**2):
  XXX=            -23.7252  YYY=             -3.5645  ZZZ=              0.4049  XYY=              3.8765
  XXY=            -11.9854  XXZ=             -5.9052  XZZ=             -5.3333  YZZ=              1.0126
  YYZ=             -7.5539  XYZ=             -2.2579
 Hexadecapole moment (field-independent basis, Debye-Ang**3):
 XXXX=          -1154.5915 YYYY=           -737.0592 ZZZZ=           -176.9551 XXXY=            -14.7916
 XXXZ=             -7.3290 YYYX=             -2.9257 YYYZ=              4.7228 ZZZX=              3.4603
 ZZZY=             -0.7385 XXYY=           -306.8698 XXZZ=           -232.8266 YYZZ=           -151.4843
 XXYZ=            -12.7717 YYXZ=              3.5176 ZZXY=             -7.0311
 N-N= 5.657776906418D+02 E-N=-2.287767532486D+03  KE= 4.912255846086D+02
 1\1\GINC-NODE007\FOpt\RB3LYP\6-31G(d)\C6H12N2O2\MANAGER\10-Feb-2017\0\
 \# b3lyp/6-31G* Opt=(ModRedundant, maxcycles=1000, calcfc) geom=nocrow
 d\\Phi Psi fixed scan\\0,1\H,0.3044667848,4.0766772467,0.3949807747\C,
 1.1047097175,3.6269560471,-0.1987668558\H,0.7160864341,3.4808078372,-1
 .2122030827\H,1.358911126,2.6493263363,0.2231993109\C,2.27248949,4.606
 137976,-0.2613162641\O,2.0971528813,5.7877220079,-0.5315625334\N,3.498
 9110832,4.0461029819,-0.0192476415\H,3.5111183049,3.0557229711,0.18193
 65824\C,4.8292088373,4.6789602723,-0.0275415103\H,5.3203321485,4.36414
 24116,0.9045331662\C,5.6535960485,4.179682344,-1.2170950889\H,5.211981
 6958,4.5244029753,-2.1554539935\H,6.6744593397,4.5654297403,-1.1626546
 841\H,5.6905715487,3.0839174223,-1.2206428481\C,4.8232237031,6.2303294
 846,0.0066852622\O,5.4460704775,6.8766610632,-0.8217560918\N,4.2209202
 466,6.7912173655,1.0999632351\H,3.504457585,6.2276679715,1.5373520139\
 C,3.9776691851,8.227563875,1.1174763453\H,4.8797535819,8.7381424969,0.
 7781681118\H,3.1479909472,8.5024751817,0.4537077006\H,3.7470188332,8.5
 409539916,2.1394380912\\Version=EM64L-G09RevA.02\State=1-A\HF=-495.839
 4679\RMSD=1.951e-09\RMSF=1.240e-03\Dipole=-0.4821536,-1.6459648,1.1186
 091\Quadrupole=-2.8623836,3.8797255,-1.0173419,-0.1805011,0.180293,2.8
 141222\PG=C01 [X(C6H12N2O2)]\\@


 THE WHOLE OF SCIENCE IS NOTHING MORE THAN A REFINEMENT OF EVEYDAY THINKING.
                                                              -- A. EINSTEIN
 Job cpu time:  0 days  1 hours 10 minutes 31.2 seconds.
 File lengths (MBytes):  RWF=    186 Int=      0 D2E=      0 Chk=      4 Scr=      2
 Normal termination of Gaussian 09 at Fri Feb 10 20:11:19 2017.
