 Entering Gaussian System, Link 0=g09
 Initial command:
 /home/steboss/Software/g09/l1.exe /home/steboss/projects/phi_psi_scan/alanine/15/4230/Gau-10792.inp -scrdir=/home/steboss/projects/phi_psi_scan/alanine/15/4230/
 Entering Link 1 = /home/steboss/Software/g09/l1.exe PID=     10794.
  
 Copyright (c) 1988,1990,1992,1993,1995,1998,2003,2009, Gaussian, Inc.
                  All Rights Reserved.
  
 This is part of the Gaussian(R) 09 program.  It is based on
 the Gaussian(R) 03 system (copyright 2003, Gaussian, Inc.),
 the Gaussian(R) 98 system (copyright 1998, Gaussian, Inc.),
 the Gaussian(R) 94 system (copyright 1995, Gaussian, Inc.),
 the Gaussian 92(TM) system (copyright 1992, Gaussian, Inc.),
 the Gaussian 90(TM) system (copyright 1990, Gaussian, Inc.),
 the Gaussian 88(TM) system (copyright 1988, Gaussian, Inc.),
 the Gaussian 86(TM) system (copyright 1986, Carnegie Mellon
 University), and the Gaussian 82(TM) system (copyright 1983,
 Carnegie Mellon University). Gaussian is a federally registered
 trademark of Gaussian, Inc.
  
 This software contains proprietary and confidential information,
 including trade secrets, belonging to Gaussian, Inc.
  
 This software is provided under written license and may be
 used, copied, transmitted, or stored only in accord with that
 written license.
  
 The following legend is applicable only to US Government
 contracts under FAR:
  
                    RESTRICTED RIGHTS LEGEND
  
 Use, reproduction and disclosure by the US Government is
 subject to restrictions as set forth in subparagraphs (a)
 and (c) of the Commercial Computer Software - Restricted
 Rights clause in FAR 52.227-19.
  
 Gaussian, Inc.
 340 Quinnipiac St., Bldg. 40, Wallingford CT 06492
  
  
 ---------------------------------------------------------------
 Warning -- This program may not be used in any manner that
 competes with the business of Gaussian, Inc. or will provide
 assistance to any competitor of Gaussian, Inc.  The licensee
 of this program is prohibited from giving any competitor of
 Gaussian, Inc. access to this program.  By using this program,
 the user acknowledges that Gaussian, Inc. is engaged in the
 business of creating and licensing software in the field of
 computational chemistry and represents and warrants to the
 licensee that it is not a competitor of Gaussian, Inc. and that
 it will not use this program in any manner prohibited above.
 ---------------------------------------------------------------
  

 Cite this work as:
 Gaussian 09, Revision A.02,
 M. J. Frisch, G. W. Trucks, H. B. Schlegel, G. E. Scuseria, 
 M. A. Robb, J. R. Cheeseman, G. Scalmani, V. Barone, B. Mennucci, 
 G. A. Petersson, H. Nakatsuji, M. Caricato, X. Li, H. P. Hratchian, 
 A. F. Izmaylov, J. Bloino, G. Zheng, J. L. Sonnenberg, M. Hada, 
 M. Ehara, K. Toyota, R. Fukuda, J. Hasegawa, M. Ishida, T. Nakajima, 
 Y. Honda, O. Kitao, H. Nakai, T. Vreven, J. A. Montgomery, Jr., 
 J. E. Peralta, F. Ogliaro, M. Bearpark, J. J. Heyd, E. Brothers, 
 K. N. Kudin, V. N. Staroverov, R. Kobayashi, J. Normand, 
 K. Raghavachari, A. Rendell, J. C. Burant, S. S. Iyengar, J. Tomasi, 
 M. Cossi, N. Rega, J. M. Millam, M. Klene, J. E. Knox, J. B. Cross, 
 V. Bakken, C. Adamo, J. Jaramillo, R. Gomperts, R. E. Stratmann, 
 O. Yazyev, A. J. Austin, R. Cammi, C. Pomelli, J. W. Ochterski, 
 R. L. Martin, K. Morokuma, V. G. Zakrzewski, G. A. Voth, 
 P. Salvador, J. J. Dannenberg, S. Dapprich, A. D. Daniels, 
 O. Farkas, J. B. Foresman, J. V. Ortiz, J. Cioslowski, 
 and D. J. Fox, Gaussian, Inc., Wallingford CT, 2009.
 
 ******************************************
 Gaussian 09:  EM64L-G09RevA.02 11-Jun-2009
                10-Feb-2017 
 ******************************************
 %chk=structure_180.chk
 %NProcShared=8
 Will use up to    8 processors via shared memory.
 ----------------------------------------------------------------------
 # b3lyp/6-31G* Opt=(ModRedundant, maxcycles=1000, calcfc) geom=nocrowd
 ----------------------------------------------------------------------
 1/6=1000,10=4,14=-1,18=120,19=15,26=3,38=1/1,3;
 2/9=110,12=1,17=6,18=5,40=1/2;
 3/5=1,6=6,7=1,11=2,16=1,25=1,30=1,71=2,74=-5/1,2,3;
 4//1;
 5/5=2,38=5/2;
 8/6=4,10=90,11=11/1;
 11/6=1,8=1,9=11,15=111,16=1/1,2,10;
 10/6=1,7=6,13=1/2;
 6/7=2,8=2,9=2,10=2,28=1/1;
 7/10=1,18=20,25=1/1,2,3,16;
 1/6=1000,10=4,14=-1,18=20,19=15/3(2);
 2/9=110,12=1/2;
 99//99;
 2/9=110,12=1/2;
 3/5=1,6=6,7=1,11=2,16=1,25=1,30=1,71=1,74=-5/1,2,3;
 4/5=5,16=3/1;
 5/5=2,38=5/2;
 7//1,2,3,16;
 1/6=1000,14=-1,18=20,19=15/3(-5);
 2/9=110,12=1/2;
 6/7=2,8=2,9=2,10=2,19=2,28=1/1;
 99/9=1/99;
 ------------------
 Phi Psi fixed scan
 ------------------
 Symbolic Z-matrix:
 Charge =  0 Multiplicity = 1
 H                     0.2794    4.4661   -0.5095 
 C                     1.1328    3.8369   -0.2568 
 H                     1.206     3.0183   -0.9728 
 H                     1.0012    3.4309    0.7462 
 C                     2.4367    4.6366   -0.2933 
 O                     2.4278    5.8313   -0.5812 
 N                     3.5554    3.9697    0. 
 H                     3.5119    2.9873    0.2306 
 C                     4.8533    4.6139    0. 
 H                     5.4076    4.3155    0.8898 
 C                     5.6613    4.2208   -1.2322 
 H                     5.1233    4.5214   -2.1312 
 H                     6.6305    4.7189   -1.2058 
 H                     5.8085    3.1409   -1.2414 
 C                     4.7127    6.1294    0. 
 O                     3.6006    6.6527    0. 
 N                     5.846     6.8349    0. 
 H                     6.737     6.3592    0. 
 C                     5.8461    8.2839    0. 
 H                     4.8186    8.6477    0. 
 H                     6.3598    8.6477    0.8898 
 H                     6.3598    8.6477   -0.8898 
 
 The following ModRedundant input section has been read:
 D    5    7    9   15 F                                                       
 D    7    9   15   17 F                                                       

 GradGradGradGradGradGradGradGradGradGradGradGradGradGradGradGradGradGrad
 Berny optimization.
 Initialization pass.
                           ----------------------------
                           !    Initial Parameters    !
                           ! (Angstroms and Degrees)  !
 --------------------------                            --------------------------
 ! Name  Definition              Value          Derivative Info.                !
 --------------------------------------------------------------------------------
 ! R1    R(1,2)                  1.09           calculate D2E/DX2 analytically  !
 ! R2    R(2,3)                  1.09           calculate D2E/DX2 analytically  !
 ! R3    R(2,4)                  1.09           calculate D2E/DX2 analytically  !
 ! R4    R(2,5)                  1.53           calculate D2E/DX2 analytically  !
 ! R5    R(5,6)                  1.2289         calculate D2E/DX2 analytically  !
 ! R6    R(5,7)                  1.335          calculate D2E/DX2 analytically  !
 ! R7    R(6,16)                 1.5453         calculate D2E/DX2 analytically  !
 ! R8    R(7,8)                  1.01           calculate D2E/DX2 analytically  !
 ! R9    R(7,9)                  1.449          calculate D2E/DX2 analytically  !
 ! R10   R(9,10)                 1.09           calculate D2E/DX2 analytically  !
 ! R11   R(9,11)                 1.525          calculate D2E/DX2 analytically  !
 ! R12   R(9,15)                 1.522          calculate D2E/DX2 analytically  !
 ! R13   R(11,12)                1.09           calculate D2E/DX2 analytically  !
 ! R14   R(11,13)                1.09           calculate D2E/DX2 analytically  !
 ! R15   R(11,14)                1.0899         calculate D2E/DX2 analytically  !
 ! R16   R(15,16)                1.2291         calculate D2E/DX2 analytically  !
 ! R17   R(15,17)                1.335          calculate D2E/DX2 analytically  !
 ! R18   R(17,18)                1.01           calculate D2E/DX2 analytically  !
 ! R19   R(17,19)                1.449          calculate D2E/DX2 analytically  !
 ! R20   R(19,20)                1.09           calculate D2E/DX2 analytically  !
 ! R21   R(19,21)                1.0899         calculate D2E/DX2 analytically  !
 ! R22   R(19,22)                1.0899         calculate D2E/DX2 analytically  !
 ! A1    A(1,2,3)              109.5005         calculate D2E/DX2 analytically  !
 ! A2    A(1,2,4)              109.5005         calculate D2E/DX2 analytically  !
 ! A3    A(1,2,5)              111.0996         calculate D2E/DX2 analytically  !
 ! A4    A(3,2,4)              109.4396         calculate D2E/DX2 analytically  !
 ! A5    A(3,2,5)              108.6402         calculate D2E/DX2 analytically  !
 ! A6    A(4,2,5)              108.6336         calculate D2E/DX2 analytically  !
 ! A7    A(2,5,6)              120.4992         calculate D2E/DX2 analytically  !
 ! A8    A(2,5,7)              116.6014         calculate D2E/DX2 analytically  !
 ! A9    A(6,5,7)              122.8994         calculate D2E/DX2 analytically  !
 ! A10   A(5,6,16)             115.0326         calculate D2E/DX2 analytically  !
 ! A11   A(5,7,8)              119.9963         calculate D2E/DX2 analytically  !
 ! A12   A(5,7,9)              121.9044         calculate D2E/DX2 analytically  !
 ! A13   A(8,7,9)              118.0993         calculate D2E/DX2 analytically  !
 ! A14   A(7,9,10)             109.5            calculate D2E/DX2 analytically  !
 ! A15   A(7,9,11)             111.0992         calculate D2E/DX2 analytically  !
 ! A16   A(7,9,15)             111.0966         calculate D2E/DX2 analytically  !
 ! A17   A(10,9,11)            108.6382         calculate D2E/DX2 analytically  !
 ! A18   A(10,9,15)            108.6373         calculate D2E/DX2 analytically  !
 ! A19   A(11,9,15)            107.7947         calculate D2E/DX2 analytically  !
 ! A20   A(9,11,12)            109.5007         calculate D2E/DX2 analytically  !
 ! A21   A(9,11,13)            109.4959         calculate D2E/DX2 analytically  !
 ! A22   A(9,11,14)            109.4978         calculate D2E/DX2 analytically  !
 ! A23   A(12,11,13)           109.441          calculate D2E/DX2 analytically  !
 ! A24   A(12,11,14)           109.4482         calculate D2E/DX2 analytically  !
 ! A25   A(13,11,14)           109.4436         calculate D2E/DX2 analytically  !
 ! A26   A(9,15,16)            120.4998         calculate D2E/DX2 analytically  !
 ! A27   A(9,15,17)            116.6026         calculate D2E/DX2 analytically  !
 ! A28   A(16,15,17)           122.8976         calculate D2E/DX2 analytically  !
 ! A29   A(6,16,15)            117.4131         calculate D2E/DX2 analytically  !
 ! A30   A(15,17,18)           119.9995         calculate D2E/DX2 analytically  !
 ! A31   A(15,17,19)           121.907          calculate D2E/DX2 analytically  !
 ! A32   A(18,17,19)           118.0936         calculate D2E/DX2 analytically  !
 ! A33   A(17,19,20)           109.4932         calculate D2E/DX2 analytically  !
 ! A34   A(17,19,21)           109.5002         calculate D2E/DX2 analytically  !
 ! A35   A(17,19,22)           109.5002         calculate D2E/DX2 analytically  !
 ! A36   A(20,19,21)           109.4437         calculate D2E/DX2 analytically  !
 ! A37   A(20,19,22)           109.4437         calculate D2E/DX2 analytically  !
 ! A38   A(21,19,22)           109.4463         calculate D2E/DX2 analytically  !
 ! D1    D(1,2,5,6)             -0.0077         calculate D2E/DX2 analytically  !
 ! D2    D(1,2,5,7)           -179.9969         calculate D2E/DX2 analytically  !
 ! D3    D(3,2,5,6)            120.5076         calculate D2E/DX2 analytically  !
 ! D4    D(3,2,5,7)            -59.4816         calculate D2E/DX2 analytically  !
 ! D5    D(4,2,5,6)           -120.5187         calculate D2E/DX2 analytically  !
 ! D6    D(4,2,5,7)             59.4921         calculate D2E/DX2 analytically  !
 ! D7    D(2,5,6,16)           153.8641         calculate D2E/DX2 analytically  !
 ! D8    D(7,5,6,16)           -26.1474         calculate D2E/DX2 analytically  !
 ! D9    D(2,5,7,8)             -0.0054         calculate D2E/DX2 analytically  !
 ! D10   D(2,5,7,9)            179.9958         calculate D2E/DX2 analytically  !
 ! D11   D(6,5,7,8)           -179.9943         calculate D2E/DX2 analytically  !
 ! D12   D(6,5,7,9)              0.0069         calculate D2E/DX2 analytically  !
 ! D13   D(5,6,16,15)           40.0968         calculate D2E/DX2 analytically  !
 ! D14   D(5,7,9,10)           134.9983         calculate D2E/DX2 analytically  !
 ! D15   D(5,7,9,11)          -104.9991         calculate D2E/DX2 analytically  !
 ! D16   D(5,7,9,15)            14.9985         frozen, calculate D2E/DX2 analyt!
 ! D17   D(8,7,9,10)           -45.0005         calculate D2E/DX2 analytically  !
 ! D18   D(8,7,9,11)            75.0021         calculate D2E/DX2 analytically  !
 ! D19   D(8,7,9,15)          -165.0003         calculate D2E/DX2 analytically  !
 ! D20   D(7,9,11,12)           60.0024         calculate D2E/DX2 analytically  !
 ! D21   D(7,9,11,13)          179.9986         calculate D2E/DX2 analytically  !
 ! D22   D(7,9,11,14)          -60.0038         calculate D2E/DX2 analytically  !
 ! D23   D(10,9,11,12)        -179.4843         calculate D2E/DX2 analytically  !
 ! D24   D(10,9,11,13)         -59.4881         calculate D2E/DX2 analytically  !
 ! D25   D(10,9,11,14)          60.5095         calculate D2E/DX2 analytically  !
 ! D26   D(15,9,11,12)         -61.938          calculate D2E/DX2 analytically  !
 ! D27   D(15,9,11,13)          58.0582         calculate D2E/DX2 analytically  !
 ! D28   D(15,9,11,14)         178.0558         calculate D2E/DX2 analytically  !
 ! D29   D(7,9,15,16)            0.0            calculate D2E/DX2 analytically  !
 ! D30   D(7,9,15,17)          180.0            frozen, calculate D2E/DX2 analyt!
 ! D31   D(10,9,15,16)        -120.5111         calculate D2E/DX2 analytically  !
 ! D32   D(10,9,15,17)          59.4889         calculate D2E/DX2 analytically  !
 ! D33   D(11,9,15,16)         121.942          calculate D2E/DX2 analytically  !
 ! D34   D(11,9,15,17)         -58.058          calculate D2E/DX2 analytically  !
 ! D35   D(9,15,16,6)          -25.0674         calculate D2E/DX2 analytically  !
 ! D36   D(17,15,16,6)         154.9326         calculate D2E/DX2 analytically  !
 ! D37   D(9,15,17,18)           0.0            calculate D2E/DX2 analytically  !
 ! D38   D(9,15,17,19)         180.0            calculate D2E/DX2 analytically  !
 ! D39   D(16,15,17,18)        180.0            calculate D2E/DX2 analytically  !
 ! D40   D(16,15,17,19)          0.0            calculate D2E/DX2 analytically  !
 ! D41   D(15,17,19,20)          0.0            calculate D2E/DX2 analytically  !
 ! D42   D(15,17,19,21)        119.9975         calculate D2E/DX2 analytically  !
 ! D43   D(15,17,19,22)       -119.9975         calculate D2E/DX2 analytically  !
 ! D44   D(18,17,19,20)        180.0            calculate D2E/DX2 analytically  !
 ! D45   D(18,17,19,21)        -60.0025         calculate D2E/DX2 analytically  !
 ! D46   D(18,17,19,22)         60.0025         calculate D2E/DX2 analytically  !
 --------------------------------------------------------------------------------
 Trust Radius=3.00D-01 FncErr=1.00D-07 GrdErr=1.00D-06
 Number of steps in this run= 132 maximum allowed number of steps= 132.
 GradGradGradGradGradGradGradGradGradGradGradGradGradGradGradGradGradGrad

                          Input orientation:                          
 ---------------------------------------------------------------------
 Center     Atomic      Atomic             Coordinates (Angstroms)
 Number     Number       Type             X           Y           Z
 ---------------------------------------------------------------------
      1          1           0        0.279400    4.466100   -0.509500
      2          6           0        1.132800    3.836900   -0.256800
      3          1           0        1.206000    3.018300   -0.972800
      4          1           0        1.001200    3.430900    0.746200
      5          6           0        2.436700    4.636600   -0.293300
      6          8           0        2.427800    5.831300   -0.581200
      7          7           0        3.555400    3.969700    0.000000
      8          1           0        3.511900    2.987300    0.230600
      9          6           0        4.853300    4.613900    0.000000
     10          1           0        5.407600    4.315500    0.889800
     11          6           0        5.661300    4.220800   -1.232200
     12          1           0        5.123300    4.521400   -2.131200
     13          1           0        6.630500    4.718900   -1.205800
     14          1           0        5.808500    3.140900   -1.241400
     15          6           0        4.712700    6.129400    0.000000
     16          8           0        3.600600    6.652700    0.000000
     17          7           0        5.846000    6.834900    0.000000
     18          1           0        6.737000    6.359200    0.000000
     19          6           0        5.846100    8.283900    0.000000
     20          1           0        4.818600    8.647700    0.000000
     21          1           0        6.359800    8.647700    0.889800
     22          1           0        6.359800    8.647700   -0.889800
 ---------------------------------------------------------------------
                    Distance matrix (angstroms):
                    1          2          3          4          5
     1  H    0.000000
     2  C    1.089973   0.000000
     3  H    1.780269   1.090009   0.000000
     4  H    1.780286   1.090029   1.779647   0.000000
     5  C    2.174800   1.530035   2.143651   2.143579   0.000000
     6  O    2.546475   2.399977   3.091782   3.091779   1.228932
     7  N    3.352339   2.439790   2.714992   2.714969   1.335017
     8  H    3.630930   2.572838   2.601213   2.601199   2.037331
     9  C    4.604563   3.809435   4.098180   4.098168   2.434440
    10  H    5.317815   4.451704   4.775505   4.496610   3.213888
    11  C    5.435744   4.648236   4.622012   5.123918   3.384150
    12  H    5.108457   4.461615   4.352751   5.143960   3.257141
    13  H    6.394155   5.648294   5.689598   6.095758   4.292713
    14  H    5.732607   4.828667   4.611961   5.210066   3.808549
    15  C    4.762384   4.258778   4.787716   4.649080   2.737636
    16  O    4.008888   3.752961   4.459744   4.206387   2.346348
    17  N    6.071066   5.591798   6.086245   5.967924   4.067170
    18  H    6.748631   6.151016   6.534517   6.483144   4.641762
    19  C    6.769294   6.485133   7.085437   6.897933   5.001283
    20  H    6.192714   6.065877   6.759243   6.507254   4.674227
    21  H    7.510997   7.195833   7.856276   7.479988   5.734053
    22  H    7.389294   7.132041   7.632738   7.655462   5.642291
                    6          7          8          9         10
     6  O    0.000000
     7  N    2.252738   0.000000
     8  H    3.150020   1.010039   0.000000
     9  C    2.775411   1.448978   2.120933   0.000000
    10  H    3.652492   2.083739   2.406728   1.089970   0.000000
    11  C    3.670563   2.452791   2.877712   1.525027   2.139209
    12  H    3.374027   2.702720   3.244714   2.150225   3.041326
    13  H    4.392066   3.386959   3.845432   2.150214   2.459625
    14  H    4.370726   2.702673   2.732169   2.150165   2.466256
    15  C    2.376431   2.450234   3.371630   1.522008   2.136554
    16  O    1.545300   2.683381   3.673718   2.392898   3.085368
    17  N    3.609584   3.668272   4.506132   2.432754   2.707640
    18  H    4.380146   3.978981   4.671633   2.567956   2.595334
    19  C    4.247095   4.884632   5.792723   3.801914   4.090504
    20  H    3.739763   4.845550   5.813843   4.033949   4.461684
    21  H    5.055351   5.526309   6.370652   4.396911   4.435611
    22  H    4.846439   5.526309   6.434746   4.396911   4.779291
                   11         12         13         14         15
    11  C    0.000000
    12  H    1.089957   0.000000
    13  H    1.090023   1.779613   0.000000
    14  H    1.089925   1.779613   1.779617   0.000000
    15  C    2.461892   2.701161   2.668599   3.416575   0.000000
    16  O    3.417446   3.376843   3.791283   4.329969   1.229068
    17  N    2.895850   3.227474   2.558681   3.897193   1.334953
    18  H    2.692248   3.244002   2.038598   3.572204   2.037302
    19  C    4.249853   4.384160   3.844277   5.290835   2.434433
    20  H    4.671820   4.654160   4.491370   5.731127   2.520526
    21  H    4.958652   5.261343   4.460974   5.930497   3.137916
    22  H    4.494728   4.482896   3.950773   5.545485   3.137916
                   16         17         18         19         20
    16  O    0.000000
    17  N    2.252780   0.000000
    18  H    3.150103   1.010035   0.000000
    19  C    2.775443   1.449000   2.120890   0.000000
    20  H    2.337424   2.083697   2.986217   1.090003   0.000000
    21  H    3.519226   2.083741   2.484201   1.089946   1.779618
    22  H    3.519226   2.083741   2.484201   1.089946   1.779618
                   21         22
    21  H    0.000000
    22  H    1.779600   0.000000
 Stoichiometry    C6H12N2O2
 Framework group  C1[X(C6H12N2O2)]
 Deg. of freedom    60
 Full point group                 C1      NOp   1
 Largest Abelian subgroup         C1      NOp   1
 Largest concise Abelian subgroup C1      NOp   1
                         Standard orientation:                         
 ---------------------------------------------------------------------
 Center     Atomic      Atomic             Coordinates (Angstroms)
 Number     Number       Type             X           Y           Z
 ---------------------------------------------------------------------
      1          1           0       -3.556915   -1.570190    0.394620
      2          6           0       -3.294384   -0.595451   -0.016479
      3          1           0       -3.787926    0.187304    0.559568
      4          1           0       -3.618009   -0.539770   -1.055869
      5          6           0       -1.782998   -0.363615    0.038041
      6          8           0       -1.036670   -1.222132    0.503032
      7          7           0       -1.339304    0.801408   -0.439587
      8          1           0       -1.992266    1.476088   -0.811910
      9          6           0        0.069407    1.140599   -0.444069
     10          1           0        0.337208    1.569904   -1.409478
     11          6           0        0.393215    2.155390    0.647287
     12          1           0        0.139001    1.736316    1.620816
     13          1           0        1.457035    2.391437    0.620503
     14          1           0       -0.184461    3.064653    0.481555
     15          6           0        0.930298   -0.091356   -0.203940
     16          8           0        0.410691   -1.192689   -0.037552
     17          7           0        2.251776    0.097007   -0.186237
     18          1           0        2.631996    1.021932   -0.328076
     19          6           0        3.178218   -0.995389    0.032796
     20          1           0        2.621618   -1.922701    0.168433
     21          1           0        3.838188   -1.091148   -0.829324
     22          1           0        3.772517   -0.795234    0.924272
 ---------------------------------------------------------------------
 Rotational constants (GHZ):      2.5078727      0.9497949      0.7379312
 Standard basis: 6-31G(d) (6D, 7F)
 There are   174 symmetry adapted basis functions of A   symmetry.
 Integral buffers will be    131072 words long.
 Raffenetti 2 integral format.
 Two-electron integral symmetry is turned on.
   174 basis functions,   328 primitive gaussians,   174 cartesian basis functions
    39 alpha electrons       39 beta electrons
       nuclear repulsion energy       585.2649991062 Hartrees.
 NAtoms=   22 NActive=   22 NUniq=   22 SFac= 7.50D-01 NAtFMM=   80 NAOKFM=F Big=F
 One-electron integrals computed using PRISM.
 NBasis=   174 RedAO= T  NBF=   174
 NBsUse=   174 1.00D-06 NBFU=   174
 Harris functional with IExCor=  402 diagonalized for initial guess.
 ExpMin= 1.61D-01 ExpMax= 5.48D+03 ExpMxC= 8.25D+02 IAcc=1 IRadAn=         1 AccDes= 0.00D+00
 HarFok:  IExCor=  402 AccDes= 0.00D+00 IRadAn=         1 IDoV= 1
 ScaDFX=  1.000000  1.000000  1.000000  1.000000
 FoFCou: FMM=F IPFlag=           0 FMFlag=      100000 FMFlg1=           0
         NFxFlg=           0 DoJE=T BraDBF=F KetDBF=T FulRan=T
         Omega=  0.000000  0.000000  1.000000  0.000000  0.000000 ICntrl=     500 IOpCl=  0
         NMat0=    1 NMatS0=    1 NMatT0=    0 NMatD0=    1 NMtDS0=    0 NMtDT0=    0
         I1Cent=           4 NGrid=           0.
 Petite list used in FoFCou.
 Initial guess orbital symmetries:
       Occupied  (A) (A) (A) (A) (A) (A) (A) (A) (A) (A) (A) (A)
                 (A) (A) (A) (A) (A) (A) (A) (A) (A) (A) (A) (A)
                 (A) (A) (A) (A) (A) (A) (A) (A) (A) (A) (A) (A)
                 (A) (A) (A)
       Virtual   (A) (A) (A) (A) (A) (A) (A) (A) (A) (A) (A) (A)
                 (A) (A) (A) (A) (A) (A) (A) (A) (A) (A) (A) (A)
                 (A) (A) (A) (A) (A) (A) (A) (A) (A) (A) (A) (A)
                 (A) (A) (A) (A) (A) (A) (A) (A) (A) (A) (A) (A)
                 (A) (A) (A) (A) (A) (A) (A) (A) (A) (A) (A) (A)
                 (A) (A) (A) (A) (A) (A) (A) (A) (A) (A) (A) (A)
                 (A) (A) (A) (A) (A) (A) (A) (A) (A) (A) (A) (A)
                 (A) (A) (A) (A) (A) (A) (A) (A) (A) (A) (A) (A)
                 (A) (A) (A) (A) (A) (A) (A) (A) (A) (A) (A) (A)
                 (A) (A) (A) (A) (A) (A) (A) (A) (A) (A) (A) (A)
                 (A) (A) (A) (A) (A) (A) (A) (A) (A) (A) (A) (A)
                 (A) (A) (A)
 The electronic state of the initial guess is 1-A.
 Requested convergence on RMS density matrix=1.00D-08 within 128 cycles.
 Requested convergence on MAX density matrix=1.00D-06.
 Requested convergence on             energy=1.00D-06.
 No special actions if energy rises.
 Integral accuracy reduced to 1.0D-05 until final iterations.
 EnCoef did     3 forward-backward iterations
 Initial convergence to 1.0D-05 achieved.  Increase integral accuracy.
 SCF Done:  E(RB3LYP) =  -495.618754151     A.U. after   19 cycles
             Convg  =    0.8138D-08             -V/T =  2.0065
 Range of M.O.s used for correlation:     1   174
 NBasis=   174 NAE=    39 NBE=    39 NFC=     0 NFV=     0
 NROrb=    174 NOA=    39 NOB=    39 NVA=   135 NVB=   135
 Symmetrizing basis deriv contribution to polar:
 IMax=3 JMax=2 DiffMx= 0.00D+00
 G2DrvN: will do    23 centers at a time, making    1 passes doing MaxLOS=2.
 Calling FoFCou, ICntrl=  3107 FMM=F I1Cent=   0 AccDes= 0.00D+00.
 FoFDir/FoFCou used for L=0 through L=2.
 End of G2Drv Frequency-dependent properties file   721 does not exist.
 End of G2Drv Frequency-dependent properties file   722 does not exist.
          IDoAtm=1111111111111111111111
          Differentiating once with respect to nuclear coordinates.
          There are    69 degrees of freedom in the 1st order CPHF.  IDoFFX=5.
     63 vectors produced by pass  0 Test12= 7.63D-11 1.45D-07 XBig12= 6.99D-01 5.75D-01.
 AX will form    63 AO Fock derivatives at one time.
     63 vectors produced by pass  1 Test12= 7.63D-11 1.45D-07 XBig12= 5.18D-02 7.12D-02.
     63 vectors produced by pass  2 Test12= 7.63D-11 1.45D-07 XBig12= 1.12D-04 1.78D-03.
     63 vectors produced by pass  3 Test12= 7.63D-11 1.45D-07 XBig12= 3.23D-07 8.31D-05.
     33 vectors produced by pass  4 Test12= 7.63D-11 1.45D-07 XBig12= 4.37D-10 2.35D-06.
 Inverted reduced A of dimension   285 with in-core refinement.
 End of Minotr Frequency-dependent properties file   721 does not exist.
 End of Minotr Frequency-dependent properties file   722 does not exist.

 **********************************************************************

            Population analysis using the SCF density.

 **********************************************************************

 Orbital symmetries:
       Occupied  (A) (A) (A) (A) (A) (A) (A) (A) (A) (A) (A) (A)
                 (A) (A) (A) (A) (A) (A) (A) (A) (A) (A) (A) (A)
                 (A) (A) (A) (A) (A) (A) (A) (A) (A) (A) (A) (A)
                 (A) (A) (A)
       Virtual   (A) (A) (A) (A) (A) (A) (A) (A) (A) (A) (A) (A)
                 (A) (A) (A) (A) (A) (A) (A) (A) (A) (A) (A) (A)
                 (A) (A) (A) (A) (A) (A) (A) (A) (A) (A) (A) (A)
                 (A) (A) (A) (A) (A) (A) (A) (A) (A) (A) (A) (A)
                 (A) (A) (A) (A) (A) (A) (A) (A) (A) (A) (A) (A)
                 (A) (A) (A) (A) (A) (A) (A) (A) (A) (A) (A) (A)
                 (A) (A) (A) (A) (A) (A) (A) (A) (A) (A) (A) (A)
                 (A) (A) (A) (A) (A) (A) (A) (A) (A) (A) (A) (A)
                 (A) (A) (A) (A) (A) (A) (A) (A) (A) (A) (A) (A)
                 (A) (A) (A) (A) (A) (A) (A) (A) (A) (A) (A) (A)
                 (A) (A) (A) (A) (A) (A) (A) (A) (A) (A) (A) (A)
                 (A) (A) (A)
 The electronic state is 1-A.
 Alpha  occ. eigenvalues --  -19.10226 -19.09350 -14.34714 -14.34052 -10.24648
 Alpha  occ. eigenvalues --  -10.24260 -10.23210 -10.20436 -10.18664 -10.16998
 Alpha  occ. eigenvalues --   -1.08023  -0.98854  -0.93078  -0.90239  -0.77983
 Alpha  occ. eigenvalues --   -0.71593  -0.69654  -0.64163  -0.60652  -0.57501
 Alpha  occ. eigenvalues --   -0.52384  -0.51080  -0.48766  -0.45175  -0.43821
 Alpha  occ. eigenvalues --   -0.43413  -0.42550  -0.41084  -0.40108  -0.38888
 Alpha  occ. eigenvalues --   -0.37994  -0.37677  -0.36888  -0.34840  -0.31390
 Alpha  occ. eigenvalues --   -0.29748  -0.25242  -0.22655  -0.07697
 Alpha virt. eigenvalues --    0.04163   0.06256   0.07318   0.08619   0.12930
 Alpha virt. eigenvalues --    0.13675   0.14188   0.15244   0.16519   0.16919
 Alpha virt. eigenvalues --    0.17609   0.18051   0.18757   0.18916   0.20549
 Alpha virt. eigenvalues --    0.21916   0.24039   0.27281   0.28310   0.33640
 Alpha virt. eigenvalues --    0.37882   0.42175   0.45170   0.51741   0.52337
 Alpha virt. eigenvalues --    0.52820   0.54271   0.55177   0.56549   0.57354
 Alpha virt. eigenvalues --    0.57915   0.60795   0.61733   0.62798   0.66445
 Alpha virt. eigenvalues --    0.67790   0.69681   0.73490   0.74308   0.75321
 Alpha virt. eigenvalues --    0.76228   0.78606   0.80498   0.82563   0.83314
 Alpha virt. eigenvalues --    0.85416   0.87682   0.88243   0.88324   0.89562
 Alpha virt. eigenvalues --    0.90419   0.91451   0.92006   0.93691   0.95126
 Alpha virt. eigenvalues --    0.95648   0.97000   0.97545   1.01036   1.02204
 Alpha virt. eigenvalues --    1.05943   1.12402   1.14915   1.18568   1.24006
 Alpha virt. eigenvalues --    1.28382   1.30986   1.33561   1.37545   1.39134
 Alpha virt. eigenvalues --    1.40274   1.42760   1.45198   1.49201   1.51481
 Alpha virt. eigenvalues --    1.53653   1.55789   1.67715   1.69670   1.72219
 Alpha virt. eigenvalues --    1.73021   1.75875   1.78071   1.80278   1.83540
 Alpha virt. eigenvalues --    1.85545   1.89327   1.90789   1.92995   1.94966
 Alpha virt. eigenvalues --    1.96366   1.98308   2.01073   2.03323   2.05779
 Alpha virt. eigenvalues --    2.11849   2.13593   2.18126   2.21000   2.22457
 Alpha virt. eigenvalues --    2.24807   2.26288   2.29807   2.31629   2.31653
 Alpha virt. eigenvalues --    2.33540   2.36309   2.37886   2.43167   2.45315
 Alpha virt. eigenvalues --    2.52405   2.56143   2.61483   2.65222   2.67309
 Alpha virt. eigenvalues --    2.69457   2.72031   2.79204   2.87523   2.92178
 Alpha virt. eigenvalues --    2.97529   3.04769   3.08825   3.27851   3.38001
 Alpha virt. eigenvalues --    3.99016   4.03571   4.07339   4.18235   4.24715
 Alpha virt. eigenvalues --    4.27243   4.34166   4.50456   4.55392   4.67163
          Condensed to atoms (all electrons):
              1          2          3          4          5          6
     1  H    0.512037   0.361258  -0.023598  -0.019934  -0.016616   0.004385
     2  C    0.361258   5.361513   0.363964   0.302107   0.338926  -0.056545
     3  H   -0.023598   0.363964   0.569343  -0.036133  -0.029318   0.000691
     4  H   -0.019934   0.302107  -0.036133   0.639072  -0.036997   0.000662
     5  C   -0.016616   0.338926  -0.029318  -0.036997   4.541168   0.466613
     6  O    0.004385  -0.056545   0.000691   0.000662   0.466613   8.529635
     7  N    0.004402  -0.146597   0.001246   0.016301   0.217208  -0.116485
     8  H   -0.000168   0.002099   0.001946  -0.001601  -0.013968   0.004854
     9  C   -0.000171   0.007651  -0.000128  -0.000198  -0.012579   0.025302
    10  H    0.000004  -0.000422  -0.000005   0.000083  -0.001140  -0.000764
    11  C    0.000002   0.000127   0.000030  -0.000029   0.000581   0.001336
    12  H    0.000002  -0.000112  -0.000012   0.000005   0.002670  -0.000204
    13  H    0.000000   0.000012   0.000000  -0.000001   0.000080   0.000199
    14  H    0.000000  -0.000010   0.000004   0.000000  -0.000084  -0.000011
    15  C    0.000037  -0.000517  -0.000017   0.000005  -0.007091   0.007204
    16  O    0.000089  -0.004945  -0.000101   0.000714   0.005020  -0.488573
    17  N    0.000000  -0.000019   0.000000   0.000002  -0.000506  -0.002151
    18  H    0.000000   0.000002   0.000000   0.000000   0.000088   0.000344
    19  C    0.000000   0.000000   0.000000   0.000000   0.000016  -0.000151
    20  H    0.000000   0.000002   0.000000   0.000000   0.000001   0.000901
    21  H    0.000000   0.000000   0.000000   0.000000   0.000002   0.000017
    22  H    0.000000   0.000000   0.000000   0.000000  -0.000001  -0.000002
              7          8          9         10         11         12
     1  H    0.004402  -0.000168  -0.000171   0.000004   0.000002   0.000002
     2  C   -0.146597   0.002099   0.007651  -0.000422   0.000127  -0.000112
     3  H    0.001246   0.001946  -0.000128  -0.000005   0.000030  -0.000012
     4  H    0.016301  -0.001601  -0.000198   0.000083  -0.000029   0.000005
     5  C    0.217208  -0.013968  -0.012579  -0.001140   0.000581   0.002670
     6  O   -0.116485   0.004854   0.025302  -0.000764   0.001336  -0.000204
     7  N    7.206039   0.300364   0.220841  -0.032474  -0.070380  -0.003066
     8  H    0.300364   0.419421  -0.030406  -0.004668   0.000994  -0.000318
     9  C    0.220841  -0.030406   5.120441   0.356462   0.349553  -0.032605
    10  H   -0.032474  -0.004668   0.356462   0.608310  -0.054338   0.005910
    11  C   -0.070380   0.000994   0.349553  -0.054338   5.174753   0.376649
    12  H   -0.003066  -0.000318  -0.032605   0.005910   0.376649   0.534774
    13  H    0.006188  -0.000006  -0.022720  -0.002552   0.334210  -0.026950
    14  H   -0.002088   0.002508  -0.030527  -0.004911   0.363682  -0.028812
    15  C   -0.016685   0.002056   0.331435  -0.027742  -0.042306  -0.001807
    16  O    0.028353  -0.000794  -0.114687   0.003496  -0.001593   0.001149
    17  N    0.003738  -0.000143  -0.144448   0.005169   0.007390  -0.000221
    18  H    0.000041   0.000021   0.013293  -0.001554  -0.006815  -0.000360
    19  C   -0.000086   0.000003   0.006790  -0.000305  -0.000188  -0.000082
    20  H   -0.000027   0.000001   0.001660  -0.000062  -0.000094  -0.000012
    21  H   -0.000002   0.000000  -0.000013  -0.000013  -0.000019   0.000000
    22  H    0.000002   0.000000  -0.000026  -0.000005  -0.000004   0.000002
             13         14         15         16         17         18
     1  H    0.000000   0.000000   0.000037   0.000089   0.000000   0.000000
     2  C    0.000012  -0.000010  -0.000517  -0.004945  -0.000019   0.000002
     3  H    0.000000   0.000004  -0.000017  -0.000101   0.000000   0.000000
     4  H   -0.000001   0.000000   0.000005   0.000714   0.000002   0.000000
     5  C    0.000080  -0.000084  -0.007091   0.005020  -0.000506   0.000088
     6  O    0.000199  -0.000011   0.007204  -0.488573  -0.002151   0.000344
     7  N    0.006188  -0.002088  -0.016685   0.028353   0.003738   0.000041
     8  H   -0.000006   0.002508   0.002056  -0.000794  -0.000143   0.000021
     9  C   -0.022720  -0.030527   0.331435  -0.114687  -0.144448   0.013293
    10  H   -0.002552  -0.004911  -0.027742   0.003496   0.005169  -0.001554
    11  C    0.334210   0.363682  -0.042306  -0.001593   0.007390  -0.006815
    12  H   -0.026950  -0.028812  -0.001807   0.001149  -0.000221  -0.000360
    13  H    0.606588  -0.025711  -0.015409  -0.000376  -0.000789   0.016318
    14  H   -0.025711   0.579014   0.004521  -0.000086   0.000320  -0.000196
    15  C   -0.015409   0.004521   4.570623   0.440205   0.223715  -0.022377
    16  O   -0.000376  -0.000086   0.440205   8.577389  -0.070020   0.002529
    17  N   -0.000789   0.000320   0.223715  -0.070020   7.180058   0.259503
    18  H    0.016318  -0.000196  -0.022377   0.002529   0.259503   0.465762
    19  C    0.000316   0.000005  -0.030860  -0.009919   0.280331  -0.029872
    20  H    0.000048   0.000001   0.006250   0.019033  -0.041804   0.005387
    21  H    0.000051   0.000001   0.005158   0.000858  -0.054676   0.001889
    22  H   -0.000039  -0.000003   0.001010   0.000525  -0.044585  -0.000924
             19         20         21         22
     1  H    0.000000   0.000000   0.000000   0.000000
     2  C    0.000000   0.000002   0.000000   0.000000
     3  H    0.000000   0.000000   0.000000   0.000000
     4  H    0.000000   0.000000   0.000000   0.000000
     5  C    0.000016   0.000001   0.000002  -0.000001
     6  O   -0.000151   0.000901   0.000017  -0.000002
     7  N   -0.000086  -0.000027  -0.000002   0.000002
     8  H    0.000003   0.000001   0.000000   0.000000
     9  C    0.006790   0.001660  -0.000013  -0.000026
    10  H   -0.000305  -0.000062  -0.000013  -0.000005
    11  C   -0.000188  -0.000094  -0.000019  -0.000004
    12  H   -0.000082  -0.000012   0.000000   0.000002
    13  H    0.000316   0.000048   0.000051  -0.000039
    14  H    0.000005   0.000001   0.000001  -0.000003
    15  C   -0.030860   0.006250   0.005158   0.001010
    16  O   -0.009919   0.019033   0.000858   0.000525
    17  N    0.280331  -0.041804  -0.054676  -0.044585
    18  H   -0.029872   0.005387   0.001889  -0.000924
    19  C    4.964009   0.366233   0.373226   0.385157
    20  H    0.366233   0.488350  -0.019707  -0.026644
    21  H    0.373226  -0.019707   0.588761  -0.041571
    22  H    0.385157  -0.026644  -0.041571   0.576236
 Mulliken atomic charges:
              1
     1  H    0.178270
     2  C   -0.528494
     3  H    0.152089
     4  H    0.135944
     5  C    0.545926
     6  O   -0.377258
     7  N   -0.616831
     8  H    0.317804
     9  C   -0.044918
    10  H    0.151521
    11  C   -0.433540
    12  H    0.173399
    13  H    0.130543
    14  H    0.142385
    15  C    0.572596
    16  O   -0.388263
    17  N   -0.600863
    18  H    0.296922
    19  C   -0.304625
    20  H    0.200484
    21  H    0.146037
    22  H    0.150872
 Sum of Mulliken atomic charges =   0.00000
 Mulliken charges with hydrogens summed into heavy atoms:
              1
     2  C   -0.062192
     5  C    0.545926
     6  O   -0.377258
     7  N   -0.299027
     9  C    0.106602
    11  C    0.012787
    15  C    0.572596
    16  O   -0.388263
    17  N   -0.303941
    19  C    0.192769
 Sum of Mulliken charges with hydrogens summed into heavy atoms =   0.00000
 APT atomic charges:
              1
     1  H    0.536156
     2  C   -1.208698
     3  H    0.462446
     4  H    0.319345
     5  C    0.171848
     6  O   -0.401232
     7  N   -0.835209
     8  H    0.728693
     9  C   -0.419452
    10  H    0.444043
    11  C   -1.146538
    12  H    0.288227
    13  H    0.378609
    14  H    0.505381
    15  C    0.123455
    16  O   -0.115390
    17  N   -0.533849
    18  H    0.578999
    19  C   -1.282606
    20  H    0.300523
    21  H    0.572493
    22  H    0.532757
 Sum of APT charges=   0.00000
 APT Atomic charges with hydrogens summed into heavy atoms:
              1
     1  H    0.000000
     2  C    0.109249
     3  H    0.000000
     4  H    0.000000
     5  C    0.171848
     6  O   -0.401232
     7  N   -0.106516
     8  H    0.000000
     9  C    0.024591
    10  H    0.000000
    11  C    0.025679
    12  H    0.000000
    13  H    0.000000
    14  H    0.000000
    15  C    0.123455
    16  O   -0.115390
    17  N    0.045150
    18  H    0.000000
    19  C    0.123167
    20  H    0.000000
    21  H    0.000000
    22  H    0.000000
 Sum of APT charges=   0.00000
 Electronic spatial extent (au):  <R**2>=           1624.2967
 Charge=              0.0000 electrons
 Dipole moment (field-independent basis, Debye):
    X=              0.9123    Y=              4.1821    Z=             -1.1809  Tot=              4.4404
 Quadrupole moment (field-independent basis, Debye-Ang):
   XX=            -50.1919   YY=            -59.7125   ZZ=            -60.2946
   XY=             -2.0846   XZ=              1.2324   YZ=             -1.0756
 Traceless Quadrupole moment (field-independent basis, Debye-Ang):
   XX=              6.5411   YY=             -2.9795   ZZ=             -3.5616
   XY=             -2.0846   XZ=              1.2324   YZ=             -1.0756
 Octapole moment (field-independent basis, Debye-Ang**2):
  XXX=             12.5256  YYY=              0.8440  ZZZ=              0.2042  XYY=              0.8894
  XXY=              2.1048  XXZ=             -1.7828  XZZ=             -0.3287  YZZ=             -0.1688
  YYZ=             -4.6270  XYZ=             -0.2152
 Hexadecapole moment (field-independent basis, Debye-Ang**3):
 XXXX=          -1403.4185 YYYY=           -533.8525 ZZZZ=           -130.1015 XXXY=             -6.7981
 XXXZ=             -9.0449 YYYX=            -10.2355 YYYZ=            -11.8840 ZZZX=              0.4579
 ZZZY=             -5.0413 XXYY=           -309.2822 XXZZ=           -265.1304 YYZZ=           -111.6702
 XXYZ=             -9.8752 YYXZ=              2.5062 ZZXY=             -3.6471
 N-N= 5.852649991062D+02 E-N=-2.328116414356D+03  KE= 4.924157148561D+02
  Exact polarizability:   0.000   0.000   0.000   0.000   0.000   0.000
 Approx polarizability: 195.439  13.096 140.458  -7.560 -16.916  89.462
 Calling FoFJK, ICntrl=    100147 FMM=F ISym2X=0 I1Cent= 0 IOpClX= 0 NMat=1 NMatS=1 NMatT=0.
 ***** Axes restored to original set *****
 -------------------------------------------------------------------
 Center     Atomic                   Forces (Hartrees/Bohr)
 Number     Number              X              Y              Z
 -------------------------------------------------------------------
      1        1           0.002717664    0.002206518   -0.000000139
      2        6           0.011076732    0.003571899    0.019037921
      3        1          -0.001157295   -0.004004106   -0.001722005
      4        1          -0.009159824   -0.009785120    0.005162234
      5        6          -0.067665804    0.006122228   -0.019988857
      6        8          -0.187437922   -0.130609226   -0.142779398
      7        7           0.033758901   -0.017311617    0.006576251
      8        1           0.000010649    0.000210474   -0.002426474
      9        6           0.006034962    0.002212503    0.002259555
     10        1           0.001454260   -0.002934444    0.006113416
     11        6          -0.000103797   -0.005705357    0.001497411
     12        1           0.000512495    0.000242522   -0.003517156
     13        1           0.005218191   -0.001869532   -0.004559323
     14        1           0.002671799   -0.003585024   -0.003155990
     15        6          -0.020995315   -0.008134519    0.023931966
     16        8           0.177579734    0.145808275    0.129596390
     17        7           0.032837065    0.018485809   -0.012026322
     18        1           0.003933828    0.000830144   -0.005334337
     19        6           0.005118010   -0.003451724    0.000170427
     20        1          -0.000432859   -0.003149679    0.000299175
     21        1           0.002986680    0.005289205    0.003372794
     22        1           0.001041844    0.005560769   -0.002507539
 -------------------------------------------------------------------
 Cartesian Forces:  Max     0.187437922 RMS     0.048061814

 GradGradGradGradGradGradGradGradGradGradGradGradGradGradGradGradGradGrad
 Berny optimization.
 Internal  Forces:  Max     0.265232601 RMS     0.028446025
 Search for a local minimum.
 Step number   1 out of a maximum of  132
 All quantities printed in internal units (Hartrees-Bohrs-Radians)
 Mixed Optimization -- RFO/linear search
 Second derivative matrix not updated -- analytic derivatives used.
     Eigenvalues ---   -0.01217  -0.00236  -0.00028   0.00017   0.00296
     Eigenvalues ---    0.00344   0.00563   0.01190   0.02024   0.03084
     Eigenvalues ---    0.04602   0.04828   0.04942   0.05819   0.06061
     Eigenvalues ---    0.06085   0.06408   0.06603   0.07478   0.10401
     Eigenvalues ---    0.11713   0.12309   0.12460   0.13228   0.13381
     Eigenvalues ---    0.13445   0.14547   0.14806   0.15773   0.16834
     Eigenvalues ---    0.17769   0.18554   0.19598   0.20513   0.21606
     Eigenvalues ---    0.22392   0.23471   0.27750   0.29671   0.33396
     Eigenvalues ---    0.34055   0.34278   0.34370   0.34639   0.35012
     Eigenvalues ---    0.35238   0.35366   0.35748   0.35816   0.36014
     Eigenvalues ---    0.38159   0.39507   0.45538   0.46497   0.50062
     Eigenvalues ---    0.53613   0.70979   0.775481000.000001000.00000
     Eigenvalues --- 1000.000001000.000001000.000001000.000001000.00000
     Eigenvalues --- 1000.000001000.000001000.000001000.000001000.00000
     Eigenvalues --- 1000.000001000.000001000.000001000.000001000.00000
     Eigenvalues --- 1000.000001000.000001000.000001000.000001000.00000
     Eigenvalues --- 1000.000001000.000001000.000001000.000001000.00000
     Eigenvalues --- 1000.000001000.000001000.000001000.000001000.00000
     Eigenvalues --- 1000.000001000.000001000.000001000.000001000.00000
     Eigenvalues --- 1000.000001000.000001000.000001000.000001000.00000
     Eigenvalues --- 1000.000001000.000001000.000001000.000001000.00000
     Eigenvalues --- 1000.00000
 RFO step:  Lambda=-2.30812215D-01 EMin=-1.21672745D-02
 Linear search not attempted -- first point.
 Maximum step size (   0.300) exceeded in Quadratic search.
    -- Step size scaled by   0.223
 Iteration  1 RMS(Cart)=  0.05331113 RMS(Int)=  0.00317280
 Iteration  2 RMS(Cart)=  0.00465395 RMS(Int)=  0.00023434
 Iteration  3 RMS(Cart)=  0.00000789 RMS(Int)=  0.00023427
 Iteration  4 RMS(Cart)=  0.00000000 RMS(Int)=  0.00023427
 Iteration  1 RMS(Cart)=  0.00005441 RMS(Int)=  0.00007207
 Iteration  2 RMS(Cart)=  0.00004733 RMS(Int)=  0.00007697
 Iteration  3 RMS(Cart)=  0.00004089 RMS(Int)=  0.00008732
 Iteration  4 RMS(Cart)=  0.00003504 RMS(Int)=  0.00009893
 Iteration  5 RMS(Cart)=  0.00002984 RMS(Int)=  0.00011002
 Iteration  6 RMS(Cart)=  0.00002527 RMS(Int)=  0.00011998
 Iteration  7 RMS(Cart)=  0.00002132 RMS(Int)=  0.00012867
 Iteration  8 RMS(Cart)=  0.00001793 RMS(Int)=  0.00013614
 Iteration  9 RMS(Cart)=  0.00001506 RMS(Int)=  0.00014250
 Iteration 10 RMS(Cart)=  0.00001262 RMS(Int)=  0.00014789
 Iteration 11 RMS(Cart)=  0.00001057 RMS(Int)=  0.00015244
 Iteration 12 RMS(Cart)=  0.00000884 RMS(Int)=  0.00015627
 Iteration 13 RMS(Cart)=  0.00000739 RMS(Int)=  0.00015948
 Iteration 14 RMS(Cart)=  0.00000618 RMS(Int)=  0.00016218
 Iteration 15 RMS(Cart)=  0.00000517 RMS(Int)=  0.00016445
 Iteration 16 RMS(Cart)=  0.00000432 RMS(Int)=  0.00016634
 Iteration 17 RMS(Cart)=  0.00000361 RMS(Int)=  0.00016793
 Iteration 18 RMS(Cart)=  0.00000301 RMS(Int)=  0.00016926
 Iteration 19 RMS(Cart)=  0.00000252 RMS(Int)=  0.00017037
 Iteration 20 RMS(Cart)=  0.00000210 RMS(Int)=  0.00017129
 Iteration 21 RMS(Cart)=  0.00000175 RMS(Int)=  0.00017207
 Iteration 22 RMS(Cart)=  0.00000147 RMS(Int)=  0.00017272
 Iteration 23 RMS(Cart)=  0.00000122 RMS(Int)=  0.00017326
 Iteration 24 RMS(Cart)=  0.00000102 RMS(Int)=  0.00017372
 Iteration 25 RMS(Cart)=  0.00000085 RMS(Int)=  0.00017409
 Variable       Old X    -DE/DX   Delta X   Delta X   Delta X     New X
                                 (Linear)    (Quad)   (Total)
    R1        2.05975  -0.00085   0.00000  -0.00089  -0.00089   2.05886
    R2        2.05982   0.00406   0.00000   0.00135   0.00135   2.06117
    R3        2.05986   0.00950   0.00000  -0.00151  -0.00151   2.05835
    R4        2.89135   0.00176   0.00000   0.01939   0.01939   2.91074
    R5        2.32234   0.01095   0.00000  -0.04069  -0.04093   2.28141
    R6        2.52282   0.05361   0.00000   0.01405   0.01391   2.53672
    R7        2.92019   0.26523   0.00000   0.23322   0.23351   3.15371
    R8        1.90870  -0.00076   0.00000   0.00260   0.00260   1.91130
    R9        2.73817   0.02604   0.00000   0.01124   0.01133   2.74950
   R10        2.05975   0.00654   0.00000   0.00189   0.00189   2.06164
   R11        2.88188   0.01507   0.00000   0.00792   0.00792   2.88980
   R12        2.87618   0.02447   0.00000   0.02892   0.02891   2.90508
   R13        2.05972   0.00271   0.00000   0.00104   0.00104   2.06075
   R14        2.05984   0.00368   0.00000  -0.00064  -0.00064   2.05921
   R15        2.05966   0.00394   0.00000   0.00188   0.00188   2.06154
   R16        2.32260   0.02037   0.00000  -0.03930  -0.03939   2.28321
   R17        2.52270   0.05106   0.00000   0.00532   0.00532   2.52801
   R18        1.90869   0.00308   0.00000  -0.00019  -0.00019   1.90850
   R19        2.73821   0.00425   0.00000   0.00245   0.00245   2.74066
   R20        2.05981  -0.00064   0.00000   0.00001   0.00001   2.05982
   R21        2.05970   0.00592   0.00000   0.00067   0.00067   2.06037
   R22        2.05970   0.00440   0.00000   0.00086   0.00086   2.06056
    A1        1.91114   0.00063   0.00000   0.00237   0.00238   1.91353
    A2        1.91114  -0.00317   0.00000   0.00247   0.00245   1.91359
    A3        1.93905  -0.00825   0.00000  -0.00894  -0.00895   1.93010
    A4        1.91008  -0.00683   0.00000  -0.00041  -0.00041   1.90967
    A5        1.89613   0.00085   0.00000   0.00688   0.00689   1.90302
    A6        1.89601   0.01684   0.00000  -0.00231  -0.00232   1.89370
    A7        2.10311   0.01773   0.00000   0.02596   0.02599   2.12910
    A8        2.03508  -0.00481   0.00000  -0.02722  -0.02719   2.00789
    A9        2.14500  -0.01292   0.00000   0.00126   0.00116   2.14616
   A10        2.00770  -0.02952   0.00000  -0.01195  -0.01231   1.99539
   A11        2.09433  -0.01764   0.00000  -0.00993  -0.01005   2.08428
   A12        2.12763   0.03473   0.00000   0.02665   0.02688   2.15451
   A13        2.06122  -0.01709   0.00000  -0.01672  -0.01684   2.04438
   A14        1.91114   0.00132   0.00000   0.00027   0.00006   1.91120
   A15        1.93905  -0.01896   0.00000  -0.00818  -0.00797   1.93107
   A16        1.93900   0.01606   0.00000   0.01165   0.01173   1.95073
   A17        1.89609   0.00328   0.00000   0.00050   0.00051   1.89661
   A18        1.89608  -0.01282   0.00000  -0.00682  -0.00674   1.88934
   A19        1.88137   0.01102   0.00000   0.00238   0.00221   1.88358
   A20        1.91115   0.00120   0.00000   0.00013   0.00012   1.91127
   A21        1.91106   0.00767   0.00000   0.00698   0.00697   1.91804
   A22        1.91110   0.00360   0.00000   0.00009   0.00009   1.91119
   A23        1.91011  -0.00407   0.00000  -0.00234  -0.00235   1.90775
   A24        1.91023  -0.00291   0.00000  -0.00290  -0.00290   1.90734
   A25        1.91015  -0.00549   0.00000  -0.00197  -0.00197   1.90818
   A26        2.10312   0.00098   0.00000   0.00439   0.00435   2.10747
   A27        2.03510  -0.00793   0.00000  -0.02829  -0.02827   2.00683
   A28        2.14497   0.00695   0.00000   0.02390   0.02391   2.16888
   A29        2.04924  -0.01961   0.00000  -0.00858  -0.00931   2.03994
   A30        2.09439   0.00007   0.00000   0.00578   0.00517   2.09956
   A31        2.12768   0.00480   0.00000  -0.00677  -0.00738   2.12030
   A32        2.06112  -0.00487   0.00000   0.00099   0.00040   2.06152
   A33        1.91102  -0.00687   0.00000  -0.00832  -0.00832   1.90269
   A34        1.91114   0.00518   0.00000   0.00458   0.00459   1.91573
   A35        1.91114   0.00657   0.00000  -0.00247  -0.00248   1.90866
   A36        1.91015  -0.00015   0.00000   0.00048   0.00049   1.91064
   A37        1.91015  -0.00076   0.00000   0.00540   0.00539   1.91554
   A38        1.91020  -0.00397   0.00000   0.00034   0.00034   1.91054
    D1       -0.00013   0.00230   0.00000   0.00657   0.00676   0.00662
    D2       -3.14154   0.00041   0.00000   0.01577   0.01561  -3.12593
    D3        2.10325  -0.00148   0.00000   0.00841   0.00858   2.11184
    D4       -1.03815  -0.00337   0.00000   0.01762   0.01744  -1.02071
    D5       -2.10345   0.00044   0.00000   0.01054   0.01071  -2.09274
    D6        1.03833  -0.00145   0.00000   0.01974   0.01956   1.05789
    D7        2.68543  -0.00783   0.00000   0.03631   0.03601   2.72144
    D8       -0.45636  -0.00582   0.00000   0.02651   0.02645  -0.42991
    D9       -0.00009   0.01402   0.00000  -0.00481  -0.00505  -0.00514
   D10        3.14152   0.01134   0.00000   0.00052  -0.00008   3.14144
   D11       -3.14149   0.01207   0.00000   0.00463   0.00390  -3.13760
   D12        0.00012   0.00940   0.00000   0.00996   0.00887   0.00899
   D13        0.69982   0.01202   0.00000  -0.04535  -0.04504   0.65478
   D14        2.35617   0.01090   0.00000  -0.00096  -0.00093   2.35523
   D15       -1.83258   0.00386   0.00000  -0.00533  -0.00526  -1.83784
   D16        0.26177   0.01584   0.00000   0.00000  -0.00001   0.26177
   D17       -0.78541   0.00827   0.00000   0.00427   0.00394  -0.78147
   D18        1.30903   0.00123   0.00000  -0.00010  -0.00040   1.30864
   D19       -2.87980   0.01321   0.00000   0.00523   0.00486  -2.87494
   D20        1.04724   0.00771   0.00000   0.00798   0.00804   1.05528
   D21        3.14157   0.00816   0.00000   0.00947   0.00953  -3.13209
   D22       -1.04726   0.00834   0.00000   0.01140   0.01146  -1.03580
   D23       -3.13259  -0.00027   0.00000   0.00357   0.00354  -3.12905
   D24       -1.03826   0.00018   0.00000   0.00506   0.00503  -1.03324
   D25        1.05609   0.00035   0.00000   0.00699   0.00696   1.06305
   D26       -1.08102  -0.00765   0.00000  -0.00294  -0.00297  -1.08399
   D27        1.01331  -0.00720   0.00000  -0.00145  -0.00148   1.01183
   D28        3.10766  -0.00703   0.00000   0.00048   0.00045   3.10811
   D29        0.00000   0.00754   0.00000  -0.00406  -0.00483  -0.00483
   D30        3.14159   0.01160   0.00000   0.00000  -0.00001   3.14159
   D31       -2.10332   0.00425   0.00000  -0.00719  -0.00777  -2.11108
   D32        1.03828   0.00832   0.00000  -0.00313  -0.00294   1.03533
   D33        2.12829   0.00123   0.00000  -0.00541  -0.00596   2.12233
   D34       -1.01330   0.00529   0.00000  -0.00135  -0.00113  -1.01443
   D35       -0.43751  -0.00531   0.00000   0.04259   0.04205  -0.39546
   D36        2.70408  -0.00963   0.00000   0.03826   0.03676   2.74084
   D37        0.00000   0.00217   0.00000  -0.06513  -0.06561  -0.06561
   D38        3.14159   0.00093   0.00000   0.00057   0.00019  -3.14140
   D39        3.14159   0.00633   0.00000  -0.06097  -0.06059   3.08100
   D40        0.00000   0.00510   0.00000   0.00473   0.00521   0.00521
   D41        0.00000   0.00114   0.00000  -0.05211  -0.05206  -0.05206
   D42        2.09435  -0.00008   0.00000  -0.05382  -0.05377   2.04058
   D43       -2.09435   0.00226   0.00000  -0.05211  -0.05207  -2.14642
   D44        3.14159  -0.00007   0.00000   0.01239   0.01235  -3.12924
   D45       -1.04724  -0.00129   0.00000   0.01069   0.01064  -1.03660
   D46        1.04724   0.00105   0.00000   0.01239   0.01234   1.05959
         Item               Value     Threshold  Converged?
 Maximum Force            0.259744     0.000450     NO 
 RMS     Force            0.028326     0.000300     NO 
 Maximum Displacement     0.239677     0.001800     NO 
 RMS     Displacement     0.057295     0.001200     NO 
 Predicted change in Energy=-6.317499D-02
 GradGradGradGradGradGradGradGradGradGradGradGradGradGradGradGradGradGrad

                          Input orientation:                          
 ---------------------------------------------------------------------
 Center     Atomic      Atomic             Coordinates (Angstroms)
 Number     Number       Type             X           Y           Z
 ---------------------------------------------------------------------
      1          1           0        0.237526    4.351145   -0.512913
      2          6           0        1.117851    3.765824   -0.249400
      3          1           0        1.228542    2.935514   -0.947981
      4          1           0        1.009126    3.376126    0.761904
      5          6           0        2.385160    4.639659   -0.302853
      6          8           0        2.343157    5.809940   -0.596418
      7          7           0        3.528879    4.000423   -0.010867
      8          1           0        3.502290    3.017218    0.224854
      9          6           0        4.831353    4.648873   -0.006511
     10          1           0        5.383854    4.350389    0.885604
     11          6           0        5.638980    4.244581   -1.240526
     12          1           0        5.104427    4.548370   -2.141174
     13          1           0        6.614844    4.729026   -1.220104
     14          1           0        5.773348    3.162005   -1.249243
     15          6           0        4.705438    6.181010   -0.004678
     16          8           0        3.619991    6.711635   -0.011812
     17          7           0        5.867682    6.843425   -0.000665
     18          1           0        6.741020    6.339650    0.058104
     19          6           0        5.913324    8.293002    0.001741
     20          1           0        4.896023    8.680469   -0.053867
     21          1           0        6.386857    8.645416    0.918432
     22          1           0        6.486632    8.638000   -0.859226
 ---------------------------------------------------------------------
                    Distance matrix (angstroms):
                    1          2          3          4          5
     1  H    0.000000
     2  C    1.089501   0.000000
     3  H    1.781968   1.090726   0.000000
     4  H    1.780783   1.089230   1.779323   0.000000
     5  C    2.177085   1.540297   2.158255   2.150277   0.000000
     6  O    2.562955   2.408362   3.102948   3.090004   1.207271
     7  N    3.347844   2.434130   2.702547   2.708518   1.342375
     8  H    3.603103   2.543792   2.559716   2.575481   2.039306
     9  C    4.631235   3.824770   4.099050   4.101190   2.464095
    10  H    5.332968   4.452946   4.757154   4.483606   3.238560
    11  C    5.451283   4.653187   4.609902   5.118543   3.409203
    12  H    5.135841   4.481515   4.364343   5.154950   3.283622
    13  H    6.427527   5.664535   5.683571   6.097767   4.328922
    14  H    5.709778   4.799785   4.560407   5.175748   3.815618
    15  C    4.854786   4.331719   4.848904   4.702950   2.801493
    16  O    4.155007   3.872332   4.566676   4.305911   2.429526
    17  N    6.178391   5.665191   6.139282   6.017411   4.132295
    18  H    6.824636   6.191864   6.556505   6.490949   4.689753
    19  C    6.929487   6.599619   7.179960   6.986033   5.087989
    20  H    6.376156   6.202140   6.874180   6.626424   4.763882
    21  H    7.635691   7.275759   7.917997   7.530597   5.792340
    22  H    7.586065   7.275561   7.757173   7.766495   5.754855
                    6          7          8          9         10
     6  O    0.000000
     7  N    2.241241   0.000000
     8  H    3.133269   1.011416   0.000000
     9  C    2.808414   1.454973   2.117129   0.000000
    10  H    3.684090   2.089753   2.398795   1.090971   0.000000
    11  C    3.705088   2.454425   2.866915   1.529218   2.143995
    12  H    3.406236   2.705699   3.241814   2.154404   3.046089
    13  H    4.450244   3.393567   3.834864   2.158720   2.468341
    14  H    4.382232   2.697066   2.711389   2.154650   2.474173
    15  C    2.463376   2.477759   3.392614   1.537304   2.145699
    16  O    1.668869   2.712743   3.703860   2.392156   3.080917
    17  N    3.720926   3.681408   4.503976   2.426947   2.689757
    18  H    4.477745   3.974242   4.642816   2.551418   2.546334
    19  C    4.389702   4.910394   5.804891   3.801369   4.075015
    20  H    3.879616   4.875834   5.838885   4.032393   4.457597
    21  H    5.165869   5.532413   6.362263   4.387194   4.410709
    22  H    5.023482   5.565532   6.455596   4.402296   4.758589
                   11         12         13         14         15
    11  C    0.000000
    12  H    1.090505   0.000000
    13  H    1.089685   1.778304   0.000000
    14  H    1.090919   1.779046   1.778910   0.000000
    15  C    2.479633   2.718331   2.689117   3.435662   0.000000
    16  O    3.416490   3.378972   3.789439   4.332212   1.208225
    17  N    2.888520   3.229801   2.552639   3.888535   1.337767
    18  H    2.700046   3.274744   2.060060   3.569731   2.042720
    19  C    4.243607   4.389609   3.832357   5.283151   2.433010
    20  H    4.651585   4.634061   4.464118   5.714199   2.507196
    21  H    4.958605   5.271774   4.468045   5.928154   3.122915
    22  H    4.490661   4.503216   3.927690   5.536011   3.152730
                   16         17         18         19         20
    16  O    0.000000
    17  N    2.251578   0.000000
    18  H    3.143896   1.009932   0.000000
    19  C    2.785728   1.450297   2.122225   0.000000
    20  H    2.346558   2.078865   2.982613   1.090011   0.000000
    21  H    3.501486   2.088409   2.486393   1.090298   1.780219
    22  H    3.556209   2.083441   2.487694   1.090400   1.783380
                   21         22
    21  H    0.000000
    22  H    1.780471   0.000000
 Stoichiometry    C6H12N2O2
 Framework group  C1[X(C6H12N2O2)]
 Deg. of freedom    60
 Full point group                 C1      NOp   1
 Largest Abelian subgroup         C1      NOp   1
 Largest concise Abelian subgroup C1      NOp   1
                         Standard orientation:                         
 ---------------------------------------------------------------------
 Center     Atomic      Atomic             Coordinates (Angstroms)
 Number     Number       Type             X           Y           Z
 ---------------------------------------------------------------------
      1          1           0       -3.665617   -1.487318    0.374832
      2          6           0       -3.350999   -0.532049   -0.044081
      3          1           0       -3.821489    0.282854    0.507512
      4          1           0       -3.644559   -0.477163   -1.091569
      5          6           0       -1.820712   -0.380033    0.043259
      6          8           0       -1.118436   -1.240866    0.515785
      7          7           0       -1.336630    0.778013   -0.432729
      8          1           0       -1.974686    1.463876   -0.814096
      9          6           0        0.079294    1.112755   -0.439777
     10          1           0        0.348280    1.537757   -1.407887
     11          6           0        0.396362    2.137755    0.649879
     12          1           0        0.144247    1.721557    1.625798
     13          1           0        1.456989    2.386721    0.627483
     14          1           0       -0.190425    3.041840    0.481310
     15          6           0        0.958812   -0.124292   -0.195918
     16          8           0        0.461205   -1.211432   -0.021795
     17          7           0        2.275687    0.111124   -0.189440
     18          1           0        2.629106    1.034910   -0.393593
     19          6           0        3.234663   -0.954990    0.027644
     20          1           0        2.696436   -1.882683    0.222120
     21          1           0        3.858591   -1.075674   -0.858301
     22          1           0        3.863052   -0.707146    0.883607
 ---------------------------------------------------------------------
 Rotational constants (GHZ):      2.5460339      0.9175057      0.7217499
 Standard basis: 6-31G(d) (6D, 7F)
 There are   174 symmetry adapted basis functions of A   symmetry.
 Integral buffers will be    131072 words long.
 Raffenetti 2 integral format.
 Two-electron integral symmetry is turned on.
   174 basis functions,   328 primitive gaussians,   174 cartesian basis functions
    39 alpha electrons       39 beta electrons
       nuclear repulsion energy       581.0066697809 Hartrees.
 NAtoms=   22 NActive=   22 NUniq=   22 SFac= 7.50D-01 NAtFMM=   80 NAOKFM=F Big=F
 One-electron integrals computed using PRISM.
 NBasis=   174 RedAO= T  NBF=   174
 NBsUse=   174 1.00D-06 NBFU=   174
 Initial guess read from the read-write file.
 B after Tr=     0.000000    0.000000    0.000000
         Rot=    1.000000    0.000000    0.000000    0.000000 Ang=   0.00 deg.
 Initial guess orbital symmetries:
       Occupied  (A) (A) (A) (A) (A) (A) (A) (A) (A) (A) (A) (A)
                 (A) (A) (A) (A) (A) (A) (A) (A) (A) (A) (A) (A)
                 (A) (A) (A) (A) (A) (A) (A) (A) (A) (A) (A) (A)
                 (A) (A) (A)
       Virtual   (A) (A) (A) (A) (A) (A) (A) (A) (A) (A) (A) (A)
                 (A) (A) (A) (A) (A) (A) (A) (A) (A) (A) (A) (A)
                 (A) (A) (A) (A) (A) (A) (A) (A) (A) (A) (A) (A)
                 (A) (A) (A) (A) (A) (A) (A) (A) (A) (A) (A) (A)
                 (A) (A) (A) (A) (A) (A) (A) (A) (A) (A) (A) (A)
                 (A) (A) (A) (A) (A) (A) (A) (A) (A) (A) (A) (A)
                 (A) (A) (A) (A) (A) (A) (A) (A) (A) (A) (A) (A)
                 (A) (A) (A) (A) (A) (A) (A) (A) (A) (A) (A) (A)
                 (A) (A) (A) (A) (A) (A) (A) (A) (A) (A) (A) (A)
                 (A) (A) (A) (A) (A) (A) (A) (A) (A) (A) (A) (A)
                 (A) (A) (A) (A) (A) (A) (A) (A) (A) (A) (A) (A)
                 (A) (A) (A)
 Harris functional with IExCor=  402 diagonalized for initial guess.
 ExpMin= 1.61D-01 ExpMax= 5.48D+03 ExpMxC= 8.25D+02 IAcc=1 IRadAn=         1 AccDes= 0.00D+00
 HarFok:  IExCor=  402 AccDes= 0.00D+00 IRadAn=         1 IDoV= 1
 ScaDFX=  1.000000  1.000000  1.000000  1.000000
 FoFCou: FMM=F IPFlag=           0 FMFlag=      100000 FMFlg1=           0
         NFxFlg=           0 DoJE=T BraDBF=F KetDBF=T FulRan=T
         Omega=  0.000000  0.000000  1.000000  0.000000  0.000000 ICntrl=     500 IOpCl=  0
         NMat0=    1 NMatS0=    1 NMatT0=    0 NMatD0=    1 NMtDS0=    0 NMtDT0=    0
         I1Cent=           4 NGrid=           0.
 Petite list used in FoFCou.
 Requested convergence on RMS density matrix=1.00D-08 within 128 cycles.
 Requested convergence on MAX density matrix=1.00D-06.
 Requested convergence on             energy=1.00D-06.
 No special actions if energy rises.
 Integral accuracy reduced to 1.0D-05 until final iterations.
 Initial convergence to 1.0D-05 achieved.  Increase integral accuracy.
 SCF Done:  E(RB3LYP) =  -495.678957137     A.U. after   16 cycles
             Convg  =    0.2355D-08             -V/T =  2.0068
 Calling FoFJK, ICntrl=      2127 FMM=F ISym2X=0 I1Cent= 0 IOpClX= 0 NMat=1 NMatS=1 NMatT=0.
 ***** Axes restored to original set *****
 -------------------------------------------------------------------
 Center     Atomic                   Forces (Hartrees/Bohr)
 Number     Number              X              Y              Z
 -------------------------------------------------------------------
      1        1           0.002203274    0.002256611   -0.000156530
      2        6           0.010183493    0.002028751    0.012894970
      3        1          -0.001420279   -0.003991533   -0.001227367
      4        1          -0.006921891   -0.008017599    0.004489506
      5        6          -0.054408501   -0.002351492   -0.014735477
      6        8          -0.162937780   -0.102375110   -0.107555373
      7        7           0.029751580   -0.014136061    0.010292103
      8        1           0.000239502    0.000462394   -0.001563130
      9        6           0.004700430    0.001280121   -0.004601820
     10        1           0.001006918   -0.002437329    0.005507843
     11        6           0.000064440   -0.005141837    0.002248735
     12        1           0.000481659    0.000230271   -0.003022106
     13        1           0.004683408   -0.002157016   -0.004113811
     14        1           0.002240031   -0.003240514   -0.003059430
     15        6          -0.015007085   -0.012199305    0.017784358
     16        8           0.145497198    0.130617544    0.095672157
     17        7           0.029281649    0.014770368   -0.007094091
     18        1           0.002702524    0.000675450   -0.003127982
     19        6           0.004720393   -0.003165607    0.000296503
     20        1          -0.000572746   -0.002766286    0.000117660
     21        1           0.002196767    0.004711266    0.003041637
     22        1           0.001315014    0.004946912   -0.002088353
 -------------------------------------------------------------------
 Cartesian Forces:  Max     0.162937780 RMS     0.039490319

 GradGradGradGradGradGradGradGradGradGradGradGradGradGradGradGradGradGrad
 Berny optimization.
 Using GEDIIS/GDIIS optimizer.
 Internal  Forces:  Max     0.220431892 RMS     0.023757267
 Search for a local minimum.
 Step number   2 out of a maximum of  132
 All quantities printed in internal units (Hartrees-Bohrs-Radians)
 Mixed Optimization -- RFO/linear search
 Update second derivatives using D2CorX and points    1    2
 DE= -6.02D-02 DEPred=-6.32D-02 R= 9.53D-01
 SS=  1.41D+00  RLast= 3.00D-01 DXNew= 5.0454D-01 8.9985D-01
 Trust test= 9.53D-01 RLast= 3.00D-01 DXMaxT set to 5.05D-01
 Use linear search instead of GDIIS.
     Eigenvalues ---   -0.03427  -0.00235  -0.00023   0.00017   0.00299
     Eigenvalues ---    0.00347   0.00596   0.01224   0.02043   0.03119
     Eigenvalues ---    0.04600   0.04828   0.04939   0.05856   0.06063
     Eigenvalues ---    0.06086   0.06407   0.06604   0.10296   0.11654
     Eigenvalues ---    0.11912   0.12383   0.12611   0.13244   0.13407
     Eigenvalues ---    0.13684   0.14713   0.15727   0.16779   0.17740
     Eigenvalues ---    0.18503   0.18785   0.19125   0.20367   0.21553
     Eigenvalues ---    0.21710   0.22848   0.27784   0.29593   0.33543
     Eigenvalues ---    0.33949   0.34281   0.34377   0.34617   0.35025
     Eigenvalues ---    0.35236   0.35399   0.35743   0.35802   0.35877
     Eigenvalues ---    0.37708   0.39471   0.45303   0.46380   0.48569
     Eigenvalues ---    0.52855   0.64105   0.711871000.000001000.00000
     Eigenvalues --- 1000.000001000.000001000.000001000.000001000.00000
     Eigenvalues --- 1000.000001000.000001000.000001000.000001000.00000
     Eigenvalues --- 1000.000001000.000001000.000001000.000001000.00000
     Eigenvalues --- 1000.000001000.000001000.000001000.000001000.00000
     Eigenvalues --- 1000.000001000.000001000.000001000.000001000.00000
     Eigenvalues --- 1000.000001000.000001000.000001000.000001000.00000
     Eigenvalues --- 1000.000001000.000001000.000001000.000001000.00000
     Eigenvalues --- 1000.000001000.000001000.000001000.000001000.00000
     Eigenvalues --- 1000.000001000.000001000.000001000.000001000.00000
     Eigenvalues --- 1000.00000
 RFO step:  Lambda=-9.71299653D-02 EMin=-3.42713241D-02
 Quartic linear search produced a step of  1.47582.
 Maximum step size (   0.505) exceeded in Quadratic search.
    -- Step size scaled by   0.431
 Iteration  1 RMS(Cart)=  0.05768283 RMS(Int)=  0.01646183
 Iteration  2 RMS(Cart)=  0.02420812 RMS(Int)=  0.00052559
 Iteration  3 RMS(Cart)=  0.00019392 RMS(Int)=  0.00050947
 Iteration  4 RMS(Cart)=  0.00000007 RMS(Int)=  0.00050947
 Iteration  1 RMS(Cart)=  0.00009018 RMS(Int)=  0.00004991
 Iteration  2 RMS(Cart)=  0.00005977 RMS(Int)=  0.00005454
 Iteration  3 RMS(Cart)=  0.00004099 RMS(Int)=  0.00006206
 Iteration  4 RMS(Cart)=  0.00002913 RMS(Int)=  0.00006886
 Iteration  5 RMS(Cart)=  0.00002142 RMS(Int)=  0.00007446
 Iteration  6 RMS(Cart)=  0.00001623 RMS(Int)=  0.00007901
 Iteration  7 RMS(Cart)=  0.00001259 RMS(Int)=  0.00008272
 Iteration  8 RMS(Cart)=  0.00000995 RMS(Int)=  0.00008576
 Iteration  9 RMS(Cart)=  0.00000797 RMS(Int)=  0.00008828
 Iteration 10 RMS(Cart)=  0.00000644 RMS(Int)=  0.00009036
 Iteration 11 RMS(Cart)=  0.00000525 RMS(Int)=  0.00009209
 Iteration 12 RMS(Cart)=  0.00000430 RMS(Int)=  0.00009353
 Iteration 13 RMS(Cart)=  0.00000353 RMS(Int)=  0.00009473
 Iteration 14 RMS(Cart)=  0.00000290 RMS(Int)=  0.00009572
 Iteration 15 RMS(Cart)=  0.00000239 RMS(Int)=  0.00009655
 Iteration 16 RMS(Cart)=  0.00000198 RMS(Int)=  0.00009724
 Iteration 17 RMS(Cart)=  0.00000163 RMS(Int)=  0.00009781
 Iteration 18 RMS(Cart)=  0.00000135 RMS(Int)=  0.00009829
 Iteration 19 RMS(Cart)=  0.00000112 RMS(Int)=  0.00009868
 Iteration 20 RMS(Cart)=  0.00000092 RMS(Int)=  0.00009901
 Variable       Old X    -DE/DX   Delta X   Delta X   Delta X     New X
                                 (Linear)    (Quad)   (Total)
    R1        2.05886  -0.00053  -0.00132   0.00076  -0.00056   2.05830
    R2        2.06117   0.00368   0.00200   0.00849   0.01049   2.07166
    R3        2.05835   0.00773  -0.00223   0.02032   0.01809   2.07643
    R4        2.91074   0.00161   0.02862  -0.05835  -0.02973   2.88101
    R5        2.28141   0.01767  -0.06041   0.07373   0.01336   2.29477
    R6        2.53672   0.04599   0.02052   0.05335   0.07380   2.61052
    R7        3.15371   0.22043   0.34462   0.03372   0.37831   3.53201
    R8        1.91130  -0.00082   0.00384  -0.00595  -0.00211   1.90919
    R9        2.74950   0.02023   0.01672   0.00930   0.02593   2.77543
   R10        2.06164   0.00568   0.00279   0.00891   0.01170   2.07334
   R11        2.88980   0.01308   0.01169   0.01667   0.02836   2.91816
   R12        2.90508   0.02130   0.04266  -0.02999   0.01273   2.91781
   R13        2.06075   0.00232   0.00153   0.00278   0.00431   2.06507
   R14        2.05921   0.00316  -0.00094   0.00943   0.00849   2.06770
   R15        2.06154   0.00352   0.00277   0.00396   0.00673   2.06827
   R16        2.28321   0.02471  -0.05813   0.07179   0.01380   2.29701
   R17        2.52801   0.04391   0.00785   0.05361   0.06146   2.58947
   R18        1.90850   0.00182  -0.00029   0.00286   0.00257   1.91107
   R19        2.74066   0.00396   0.00362  -0.00294   0.00068   2.74134
   R20        2.05982  -0.00046   0.00002  -0.00010  -0.00008   2.05974
   R21        2.06037   0.00503   0.00098   0.00961   0.01059   2.07096
   R22        2.06056   0.00391   0.00127   0.00830   0.00956   2.07012
    A1        1.91353   0.00033   0.00352  -0.01016  -0.00662   1.90690
    A2        1.91359  -0.00233   0.00361  -0.01205  -0.00840   1.90519
    A3        1.93010  -0.00739  -0.01321  -0.00428  -0.01746   1.91265
    A4        1.90967  -0.00587  -0.00060  -0.02353  -0.02448   1.88519
    A5        1.90302   0.00214   0.01016  -0.00096   0.00903   1.91205
    A6        1.89370   0.01322  -0.00342   0.05129   0.04772   1.94141
    A7        2.12910   0.01452   0.03836  -0.02384   0.01485   2.14395
    A8        2.00789  -0.00569  -0.04013   0.04972   0.00992   2.01781
    A9        2.14616  -0.00881   0.00172  -0.02570  -0.02473   2.12143
   A10        1.99539  -0.02620  -0.01817  -0.04121  -0.06010   1.93529
   A11        2.08428  -0.01479  -0.01484  -0.01094  -0.02543   2.05885
   A12        2.15451   0.02977   0.03967   0.00935   0.04791   2.20243
   A13        2.04438  -0.01497  -0.02485   0.00148  -0.02306   2.02132
   A14        1.91120  -0.00022   0.00009  -0.00426  -0.00400   1.90719
   A15        1.93107  -0.01469  -0.01177  -0.01657  -0.02837   1.90270
   A16        1.95073   0.01297   0.01731   0.00429   0.02100   1.97173
   A17        1.89661   0.00258   0.00076   0.00285   0.00328   1.89989
   A18        1.88934  -0.01062  -0.00995  -0.00147  -0.01137   1.87797
   A19        1.88358   0.00993   0.00326   0.01568   0.01958   1.90316
   A20        1.91127   0.00088   0.00018   0.00010   0.00026   1.91153
   A21        1.91804   0.00716   0.01029   0.00759   0.01782   1.93585
   A22        1.91119   0.00334   0.00013   0.01117   0.01123   1.92242
   A23        1.90775  -0.00364  -0.00347  -0.00662  -0.01011   1.89764
   A24        1.90734  -0.00268  -0.00427   0.00033  -0.00396   1.90338
   A25        1.90818  -0.00514  -0.00291  -0.01265  -0.01568   1.89250
   A26        2.10747   0.00278   0.00642  -0.00013   0.00508   2.11254
   A27        2.00683  -0.00716  -0.04173   0.04802   0.00664   2.01346
   A28        2.16888   0.00436   0.03529  -0.04771  -0.01204   2.15684
   A29        2.03994  -0.01725  -0.01373  -0.02512  -0.04112   1.99882
   A30        2.09956   0.00002   0.00764  -0.01438  -0.00817   2.09139
   A31        2.12030   0.00386  -0.01089   0.02644   0.01413   2.13443
   A32        2.06152  -0.00385   0.00058  -0.00332  -0.00416   2.05735
   A33        1.90269  -0.00621  -0.01228   0.00027  -0.01196   1.89073
   A34        1.91573   0.00483   0.00677   0.00558   0.01227   1.92800
   A35        1.90866   0.00591  -0.00365   0.02611   0.02238   1.93105
   A36        1.91064  -0.00026   0.00072  -0.00306  -0.00230   1.90834
   A37        1.91554  -0.00068   0.00795  -0.01681  -0.00882   1.90672
   A38        1.91054  -0.00357   0.00050  -0.01203  -0.01171   1.89882
    D1        0.00662   0.00165   0.00998  -0.01460  -0.00449   0.00213
    D2       -3.12593   0.00029   0.02304  -0.03560  -0.01272  -3.13864
    D3        2.11184  -0.00118   0.01267  -0.03044  -0.01778   2.09406
    D4       -1.02071  -0.00254   0.02573  -0.05145  -0.02600  -1.04672
    D5       -2.09274   0.00066   0.01580  -0.02952  -0.01342  -2.10616
    D6        1.05789  -0.00070   0.02887  -0.05053  -0.02165   1.03625
    D7        2.72144  -0.00477   0.05314  -0.14512  -0.09017   2.63127
    D8       -0.42991  -0.00327   0.03903  -0.12205  -0.08127  -0.51118
    D9       -0.00514   0.01001  -0.00745   0.05676   0.04991   0.04477
   D10        3.14144   0.00753  -0.00012   0.08273   0.08352  -3.05822
   D11       -3.13760   0.00850   0.00575   0.03550   0.04157  -3.09602
   D12        0.00899   0.00601   0.01309   0.06147   0.07519   0.08418
   D13        0.65478   0.00663  -0.06647   0.15278   0.08718   0.74196
   D14        2.35523   0.00822  -0.00137  -0.00194  -0.00352   2.35171
   D15       -1.83784   0.00212  -0.00777  -0.01145  -0.01914  -1.85698
   D16        0.26177   0.01337  -0.00001   0.00000   0.00000   0.26177
   D17       -0.78147   0.00579   0.00581   0.02352   0.02947  -0.75200
   D18        1.30864  -0.00031  -0.00058   0.01400   0.01385   1.32249
   D19       -2.87494   0.01094   0.00717   0.02545   0.03299  -2.84195
   D20        1.05528   0.00698   0.01187  -0.00378   0.00770   1.06298
   D21       -3.13209   0.00748   0.01406  -0.00716   0.00649  -3.12560
   D22       -1.03580   0.00767   0.01691  -0.01107   0.00548  -1.03032
   D23       -3.12905  -0.00063   0.00522  -0.01735  -0.01211  -3.14116
   D24       -1.03324  -0.00013   0.00742  -0.02073  -0.01332  -1.04656
   D25        1.06305   0.00007   0.01027  -0.02464  -0.01433   1.04872
   D26       -1.08399  -0.00640  -0.00438  -0.00900  -0.01301  -1.09700
   D27        1.01183  -0.00589  -0.00218  -0.01238  -0.01422   0.99761
   D28        3.10811  -0.00570   0.00067  -0.01629  -0.01523   3.09289
   D29       -0.00483   0.00426  -0.00713   0.03918   0.03181   0.02698
   D30        3.14159   0.00624  -0.00001   0.00000   0.00000   3.14159
   D31       -2.11108   0.00349  -0.01147   0.04279   0.03140  -2.07969
   D32        1.03533   0.00547  -0.00434   0.00360  -0.00042   1.03492
[...]
    13  H    6.652398   5.849187   6.043958   6.123653   4.521072
    14  H    5.801057   4.999593   4.936689   5.490294   3.831063
    15  C    4.907644   4.180407   4.801057   4.108406   2.983613
    16  O    4.298882   3.727053   4.556606   3.507955   2.743815
    17  N    6.277660   5.539599   6.118839   5.400694   4.345079
    18  H    6.872882   6.089884   6.546638   6.056351   4.823014
    19  C    7.065036   6.446126   7.166104   6.183134   5.329067
    20  H    6.666258   6.100078   6.897259   5.693590   5.170375
    21  H    8.031103   7.347718   8.003068   7.027048   6.268767
    22  H    7.344717   6.846345   7.628036   6.698069   5.624943
                    6          7          8          9         10
     6  O    0.000000
     7  N    2.302782   0.000000
     8  H    3.116859   1.014031   0.000000
     9  C    3.074846   1.474200   2.044949   0.000000
    10  H    4.009606   2.073482   2.122724   1.096758   0.000000
    11  C    3.760506   2.455506   3.079356   1.544512   2.160213
    12  H    3.356462   2.762597   3.599379   2.174262   3.066672
    13  H    4.697314   3.428920   3.962751   2.220028   2.511040
    14  H    4.228977   2.620884   3.001236   2.168831   2.516032
    15  C    3.103771   2.552630   3.208093   1.552487   2.122291
    16  O    2.729209   2.880344   3.504152   2.449342   3.003619
    17  N    4.386470   3.762206   4.337065   2.449299   2.683349
    18  H    4.895666   4.017574   4.569330   2.572656   2.719445
    19  C    5.183793   5.008886   5.602126   3.826840   4.055932
    20  H    5.057403   5.053281   5.580212   4.081758   4.279026
    21  H    6.213794   5.802599   6.300747   4.508869   4.528700
    22  H    5.244161   5.444812   6.173011   4.336217   4.776192
                   11         12         13         14         15
    11  C    0.000000
    12  H    1.094208   0.000000
    13  H    1.096756   1.781700   0.000000
    14  H    1.093857   1.769990   1.765430   0.000000
    15  C    2.572520   2.820652   2.876174   3.511094   0.000000
    16  O    3.625117   3.689075   4.061474   4.497201   1.220007
    17  N    2.962194   3.291661   2.729223   3.974149   1.373881
    18  H    2.585437   3.020444   2.016068   3.546717   2.058782
    19  C    4.343879   4.494642   4.040523   5.390396   2.459983
    20  H    4.912350   5.067849   4.793174   5.928740   2.592385
    21  H    4.923759   5.205137   4.413326   5.915540   3.318682
    22  H    4.616664   4.516204   4.324003   5.705088   2.969730
                   16         17         18         19         20
    16  O    0.000000
    17  N    2.265737   0.000000
    18  H    3.148792   1.009345   0.000000
    19  C    2.774728   1.455313   2.116408   0.000000
    20  H    2.438936   2.073662   2.962464   1.090743   0.000000
    21  H    3.753690   2.089953   2.403949   1.093834   1.784569
    22  H    3.190319   2.131746   2.612206   1.098083   1.773475
                   21         22
    21  H    0.000000
    22  H    1.784717   0.000000
 Stoichiometry    C6H12N2O2
 Framework group  C1[X(C6H12N2O2)]
 Deg. of freedom    60
 Full point group                 C1      NOp   1
 Largest Abelian subgroup         C1      NOp   1
 Largest concise Abelian subgroup C1      NOp   1
                         Standard orientation:                         
 ---------------------------------------------------------------------
 Center     Atomic      Atomic             Coordinates (Angstroms)
 Number     Number       Type             X           Y           Z
 ---------------------------------------------------------------------
      1          1           0       -3.774824   -1.391107    0.070805
      2          6           0       -3.129825   -0.804677   -0.585040
      3          1           0       -3.721853   -0.018578   -1.069232
      4          1           0       -2.732093   -1.461029   -1.368786
      5          6           0       -1.975539   -0.241053    0.231525
      6          8           0       -1.705919   -0.635281    1.347715
      7          7           0       -1.324709    0.850320   -0.369979
      8          1           0       -1.738110    1.049794   -1.274173
      9          6           0        0.133905    1.048116   -0.451147
     10          1           0        0.358618    1.296077   -1.495607
     11          6           0        0.524140    2.251685    0.434661
     12          1           0        0.362861    2.004084    1.488213
     13          1           0        1.565461    2.569028    0.301181
     14          1           0       -0.112412    3.106162    0.187289
     15          6           0        0.984598   -0.212965   -0.140963
     16          8           0        0.521647   -1.339054   -0.063396
     17          7           0        2.338452    0.005042   -0.225235
     18          1           0        2.684493    0.948423   -0.130022
     19          6           0        3.282957   -1.076733    0.010577
     20          1           0        2.848533   -1.999181   -0.376832
     21          1           0        4.217342   -0.862694   -0.516286
     22          1           0        3.498535   -1.220065    1.077709
 ---------------------------------------------------------------------
 Rotational constants (GHZ):      2.2100576      0.8417616      0.6970383

 **********************************************************************

            Population analysis using the SCF density.

 **********************************************************************

 Orbital symmetries:
       Occupied  (A) (A) (A) (A) (A) (A) (A) (A) (A) (A) (A) (A)
                 (A) (A) (A) (A) (A) (A) (A) (A) (A) (A) (A) (A)
                 (A) (A) (A) (A) (A) (A) (A) (A) (A) (A) (A) (A)
                 (A) (A) (A)
       Virtual   (A) (A) (A) (A) (A) (A) (A) (A) (A) (A) (A) (A)
                 (A) (A) (A) (A) (A) (A) (A) (A) (A) (A) (A) (A)
                 (A) (A) (A) (A) (A) (A) (A) (A) (A) (A) (A) (A)
                 (A) (A) (A) (A) (A) (A) (A) (A) (A) (A) (A) (A)
                 (A) (A) (A) (A) (A) (A) (A) (A) (A) (A) (A) (A)
                 (A) (A) (A) (A) (A) (A) (A) (A) (A) (A) (A) (A)
                 (A) (A) (A) (A) (A) (A) (A) (A) (A) (A) (A) (A)
                 (A) (A) (A) (A) (A) (A) (A) (A) (A) (A) (A) (A)
                 (A) (A) (A) (A) (A) (A) (A) (A) (A) (A) (A) (A)
                 (A) (A) (A) (A) (A) (A) (A) (A) (A) (A) (A) (A)
                 (A) (A) (A) (A) (A) (A) (A) (A) (A) (A) (A) (A)
                 (A) (A) (A)
 The electronic state is 1-A.
 Alpha  occ. eigenvalues --  -19.11164 -19.09897 -14.36138 -14.34697 -10.28642
 Alpha  occ. eigenvalues --  -10.27688 -10.24537 -10.21759 -10.19093 -10.18233
 Alpha  occ. eigenvalues --   -1.03522  -1.01476  -0.91934  -0.91158  -0.77848
 Alpha  occ. eigenvalues --   -0.72265  -0.70328  -0.64584  -0.58743  -0.56563
 Alpha  occ. eigenvalues --   -0.51709  -0.49356  -0.45735  -0.45434  -0.44255
 Alpha  occ. eigenvalues --   -0.43811  -0.42753  -0.41377  -0.40190  -0.39222
 Alpha  occ. eigenvalues --   -0.38674  -0.38040  -0.37552  -0.35791  -0.33296
 Alpha  occ. eigenvalues --   -0.26455  -0.24993  -0.24331  -0.22784
 Alpha virt. eigenvalues --    0.01875   0.03035   0.06054   0.07894   0.11804
 Alpha virt. eigenvalues --    0.12844   0.14289   0.15294   0.15591   0.16174
 Alpha virt. eigenvalues --    0.16629   0.17140   0.17874   0.19161   0.19562
 Alpha virt. eigenvalues --    0.20623   0.23867   0.26929   0.27052   0.33196
 Alpha virt. eigenvalues --    0.34936   0.39004   0.40569   0.50330   0.51444
 Alpha virt. eigenvalues --    0.52735   0.53442   0.54969   0.55609   0.56354
 Alpha virt. eigenvalues --    0.58242   0.59537   0.61847   0.64201   0.65034
 Alpha virt. eigenvalues --    0.67100   0.69798   0.71401   0.72586   0.73914
 Alpha virt. eigenvalues --    0.75298   0.77787   0.78762   0.81547   0.85455
 Alpha virt. eigenvalues --    0.85868   0.86467   0.86701   0.87751   0.87902
 Alpha virt. eigenvalues --    0.89155   0.90228   0.91036   0.92445   0.93070
 Alpha virt. eigenvalues --    0.94228   0.95325   0.96441   0.97676   1.00537
 Alpha virt. eigenvalues --    1.02028   1.06742   1.07210   1.11232   1.15817
 Alpha virt. eigenvalues --    1.16845   1.22104   1.26112   1.32879   1.34017
 Alpha virt. eigenvalues --    1.37759   1.38932   1.44041   1.45316   1.50313
 Alpha virt. eigenvalues --    1.53233   1.56560   1.59727   1.65964   1.68519
 Alpha virt. eigenvalues --    1.72533   1.75866   1.77997   1.79878   1.82647
 Alpha virt. eigenvalues --    1.83426   1.84222   1.87014   1.87598   1.91220
 Alpha virt. eigenvalues --    1.91966   1.96764   1.98936   2.00865   2.03012
 Alpha virt. eigenvalues --    2.04060   2.08315   2.09419   2.11748   2.13781
 Alpha virt. eigenvalues --    2.19335   2.19857   2.22106   2.26950   2.30223
 Alpha virt. eigenvalues --    2.32666   2.34231   2.35901   2.38546   2.44107
 Alpha virt. eigenvalues --    2.46676   2.47882   2.53220   2.57014   2.57934
 Alpha virt. eigenvalues --    2.63689   2.65733   2.74101   2.74775   2.84298
 Alpha virt. eigenvalues --    2.94339   2.98986   3.00736   3.12074   3.14375
 Alpha virt. eigenvalues --    3.90336   4.00028   4.05805   4.12493   4.19324
 Alpha virt. eigenvalues --    4.24083   4.25498   4.43764   4.47564   4.60882
          Condensed to atoms (all electrons):
              1          2          3          4          5          6
     1  H    0.515536   0.352826  -0.024015  -0.019993  -0.019493   0.005381
     2  C    0.352826   5.385588   0.342133   0.351001   0.327761  -0.081988
     3  H   -0.024015   0.342133   0.574257  -0.028586  -0.022657   0.001970
     4  H   -0.019993   0.351001  -0.028586   0.533953  -0.018431   0.000049
     5  C   -0.019493   0.327761  -0.022657  -0.018431   4.307433   0.598136
     6  O    0.005381  -0.081988   0.001970   0.000049   0.598136   8.032789
     7  N    0.004898  -0.133565   0.004708   0.000985   0.243490  -0.088992
     8  H   -0.000021   0.004181   0.000982  -0.000158  -0.023958   0.004375
     9  C   -0.000147   0.006882   0.000095  -0.000377  -0.025663   0.005306
    10  H    0.000000  -0.000208  -0.000010   0.000022   0.003595   0.000053
    11  C    0.000006  -0.000225  -0.000010   0.000006  -0.001980  -0.000935
    12  H    0.000000   0.000038  -0.000003   0.000000   0.001618   0.001576
    13  H    0.000000   0.000004   0.000000   0.000000   0.000049   0.000011
    14  H    0.000000   0.000002   0.000000   0.000000   0.000145   0.000003
    15  C   -0.000001   0.000118   0.000009   0.000011   0.005230   0.004715
    16  O    0.000021  -0.002173   0.000013   0.001103   0.017264  -0.012122
    17  N    0.000000  -0.000013   0.000000   0.000002   0.000329  -0.000074
    18  H    0.000000   0.000000   0.000000   0.000000  -0.000013   0.000005
    19  C    0.000000   0.000000   0.000000   0.000000  -0.000008   0.000004
    20  H    0.000000   0.000000   0.000000   0.000000  -0.000002   0.000004
    21  H    0.000000   0.000000   0.000000   0.000000   0.000000   0.000000
    22  H    0.000000   0.000000   0.000000   0.000000   0.000000   0.000000
              7          8          9         10         11         12
     1  H    0.004898  -0.000021  -0.000147   0.000000   0.000006   0.000000
     2  C   -0.133565   0.004181   0.006882  -0.000208  -0.000225   0.000038
     3  H    0.004708   0.000982   0.000095  -0.000010  -0.000010  -0.000003
     4  H    0.000985  -0.000158  -0.000377   0.000022   0.000006   0.000000
     5  C    0.243490  -0.023958  -0.025663   0.003595  -0.001980   0.001618
     6  O   -0.088992   0.004375   0.005306   0.000053  -0.000935   0.001576
     7  N    7.157711   0.285775   0.256764  -0.038078  -0.066995  -0.002527
     8  H    0.285775   0.451669  -0.031864  -0.009124   0.004189  -0.000025
     9  C    0.256764  -0.031864   5.087358   0.378829   0.316851  -0.030827
    10  H   -0.038078  -0.009124   0.378829   0.588055  -0.050878   0.004912
    11  C   -0.066995   0.004189   0.316851  -0.050878   5.189518   0.375251
    12  H   -0.002527  -0.000025  -0.030827   0.004912   0.375251   0.520115
    13  H    0.005010  -0.000249  -0.026776  -0.001008   0.340085  -0.027279
    14  H   -0.000971   0.000532  -0.023426  -0.003344   0.365001  -0.025654
    15  C   -0.036967   0.002351   0.332314  -0.034504  -0.039244  -0.002417
    16  O   -0.001673   0.000057  -0.071371  -0.000213   0.001496   0.000242
    17  N    0.002901  -0.000094  -0.119149   0.001404   0.006492   0.000234
    18  H    0.000099  -0.000006  -0.000053  -0.000101   0.003676  -0.000262
    19  C   -0.000077   0.000002   0.006151  -0.000129  -0.000256  -0.000068
    20  H   -0.000007   0.000000   0.000512  -0.000043  -0.000012  -0.000001
    21  H    0.000000   0.000000  -0.000154   0.000005   0.000004   0.000000
    22  H    0.000004   0.000000   0.000194  -0.000004  -0.000057   0.000000
             13         14         15         16         17         18
     1  H    0.000000   0.000000  -0.000001   0.000021   0.000000   0.000000
     2  C    0.000004   0.000002   0.000118  -0.002173  -0.000013   0.000000
     3  H    0.000000   0.000000   0.000009   0.000013   0.000000   0.000000
     4  H    0.000000   0.000000   0.000011   0.001103   0.000002   0.000000
     5  C    0.000049   0.000145   0.005230   0.017264   0.000329  -0.000013
     6  O    0.000011   0.000003   0.004715  -0.012122  -0.000074   0.000005
     7  N    0.005010  -0.000971  -0.036967  -0.001673   0.002901   0.000099
     8  H   -0.000249   0.000532   0.002351   0.000057  -0.000094  -0.000006
     9  C   -0.026776  -0.023426   0.332314  -0.071371  -0.119149  -0.000053
    10  H   -0.001008  -0.003344  -0.034504  -0.000213   0.001404  -0.000101
    11  C    0.340085   0.365001  -0.039244   0.001496   0.006492   0.003676
    12  H   -0.027279  -0.025654  -0.002417   0.000242   0.000234  -0.000262
    13  H    0.609474  -0.027977  -0.003978  -0.000041  -0.001323   0.008476
    14  H   -0.027977   0.552630   0.003261  -0.000063  -0.000008  -0.000163
    15  C   -0.003978   0.003261   4.372660   0.575833   0.253322  -0.021115
    16  O   -0.000041  -0.000063   0.575833   8.066976  -0.096351   0.003617
    17  N   -0.001323  -0.000008   0.253322  -0.096351   7.101205   0.295731
    18  H    0.008476  -0.000163  -0.021115   0.003617   0.295731   0.415144
    19  C    0.000158   0.000005  -0.022335  -0.001702   0.271387  -0.031838
    20  H   -0.000003   0.000001  -0.002613   0.015435  -0.040166   0.004250
    21  H   -0.000015   0.000000   0.004447   0.000599  -0.036966  -0.002153
    22  H    0.000016  -0.000001  -0.002809   0.000730  -0.043842   0.000013
             19         20         21         22
     1  H    0.000000   0.000000   0.000000   0.000000
     2  C    0.000000   0.000000   0.000000   0.000000
     3  H    0.000000   0.000000   0.000000   0.000000
     4  H    0.000000   0.000000   0.000000   0.000000
     5  C   -0.000008  -0.000002   0.000000   0.000000
     6  O    0.000004   0.000004   0.000000   0.000000
     7  N   -0.000077  -0.000007   0.000000   0.000004
     8  H    0.000002   0.000000   0.000000   0.000000
     9  C    0.006151   0.000512  -0.000154   0.000194
    10  H   -0.000129  -0.000043   0.000005  -0.000004
    11  C   -0.000256  -0.000012   0.000004  -0.000057
    12  H   -0.000068  -0.000001   0.000000   0.000000
    13  H    0.000158  -0.000003  -0.000015   0.000016
    14  H    0.000005   0.000001   0.000000  -0.000001
    15  C   -0.022335  -0.002613   0.004447  -0.002809
    16  O   -0.001702   0.015435   0.000599   0.000730
    17  N    0.271387  -0.040166  -0.036966  -0.043842
    18  H   -0.031838   0.004250  -0.002153   0.000013
    19  C    4.941621   0.380391   0.373072   0.386857
    20  H    0.380391   0.499457  -0.022113  -0.032922
    21  H    0.373072  -0.022113   0.571535  -0.038746
    22  H    0.386857  -0.032922  -0.038746   0.567102
 Mulliken atomic charges:
              1
     1  H    0.185004
     2  C   -0.552364
     3  H    0.151114
     4  H    0.180413
     5  C    0.607152
     6  O   -0.470265
     7  N   -0.592494
     8  H    0.311383
     9  C   -0.061448
    10  H    0.160771
    11  C   -0.441983
    12  H    0.185077
    13  H    0.125364
    14  H    0.160027
    15  C    0.611712
    16  O   -0.497676
    17  N   -0.595023
    18  H    0.324692
    19  C   -0.303237
    20  H    0.197830
    21  H    0.150484
    22  H    0.163466
 Sum of Mulliken atomic charges =   0.00000
 Mulliken charges with hydrogens summed into heavy atoms:
              1
     2  C   -0.035832
     5  C    0.607152
     6  O   -0.470265
     7  N   -0.281111
     9  C    0.099322
    11  C    0.028486
    15  C    0.611712
    16  O   -0.497676
    17  N   -0.270331
    19  C    0.208543
 Sum of Mulliken charges with hydrogens summed into heavy atoms =   0.00000
 Electronic spatial extent (au):  <R**2>=           1748.0331
 Charge=              0.0000 electrons
 Dipole moment (field-independent basis, Debye):
    X=              2.2774    Y=              3.3001    Z=             -3.3480  Tot=              5.2236
 Quadrupole moment (field-independent basis, Debye-Ang):
   XX=            -48.2879   YY=            -60.7638   ZZ=            -61.4681
   XY=              0.5991   XZ=              6.5625   YZ=              0.4310
 Traceless Quadrupole moment (field-independent basis, Debye-Ang):
   XX=              8.5520   YY=             -3.9239   ZZ=             -4.6282
   XY=              0.5991   XZ=              6.5625   YZ=              0.4310
 Octapole moment (field-independent basis, Debye-Ang**2):
  XXX=             16.4714  YYY=             -0.8615  ZZZ=             -4.4968  XYY=              4.0899
  XXY=             -4.3719  XXZ=             -8.3181  XZZ=              1.8734  YZZ=              2.8601
  YYZ=             -3.0048  XYZ=             -1.0774
 Hexadecapole moment (field-independent basis, Debye-Ang**3):
 XXXX=          -1394.1935 YYYY=           -547.1352 ZZZZ=           -191.3610 XXXY=              0.4897
 XXXZ=              6.2025 YYYX=              0.0510 YYYZ=             -4.3465 ZZZX=              9.8533
 ZZZY=             -3.1403 XXYY=           -328.3275 XXZZ=           -295.9840 YYZZ=           -120.8078
 XXYZ=             -3.8799 YYXZ=              1.4105 ZZXY=             -9.3053
 N-N= 5.598600980475D+02 E-N=-2.276095152113D+03  KE= 4.912137136268D+02
 1\1\GINC-NODE007\FOpt\RB3LYP\6-31G(d)\C6H12N2O2\MANAGER\10-Feb-2017\0\
 \# b3lyp/6-31G* Opt=(ModRedundant, maxcycles=1000, calcfc) geom=nocrow
 d\\Phi Psi fixed scan\\0,1\H,0.207933661,4.1295080451,-0.5160911924\C,
 1.1340058221,3.9072301741,0.0159238353\H,1.210388216,2.8249658771,0.17
 64264968\H,1.1030409893,4.394397233,0.9982453703\C,2.3071665111,4.4591
 239442,-0.7815298491\O,2.1685507001,5.2471245129,-1.6946739803\N,3.548
 5065103,3.8906543273,-0.446269358\H,3.4346926244,3.2183783136,0.304296
 7606\C,4.8102519354,4.626957115,-0.2484764066\H,5.2341378494,4.2729380
 802,0.6990836692\C,5.7849082386,4.2620568068,-1.389708383\H,5.40959835
 53,4.6578613968,-2.3382712126\H,6.8026423701,4.6373297377,-1.227658566
 1\H,5.8480568983,3.1737029861,-1.4792647765\C,4.653219262,6.1617079766
 ,-0.0749965599\O,3.5833114758,6.7145331506,0.1201944159\N,5.8466703743
 ,6.8174927772,0.1071311704\H,6.6960647242,6.3765432553,-0.2136027925\C
 ,5.8811985925,8.2580589952,0.3108744442\H,5.0028596627,8.5413409307,0.
 8922457358\H,6.7871083125,8.5238726113,0.8632720671\H,5.8619869146,8.8
 159217533,-0.6347508885\\Version=EM64L-G09RevA.02\State=1-A\HF=-495.82
 23616\RMSD=4.227e-09\RMSF=4.873e-03\Dipole=1.6256763,-0.7813995,0.9849
 716\Quadrupole=2.362271,1.8747028,-4.2369738,5.3357276,-3.0614254,-1.7
 690936\PG=C01 [X(C6H12N2O2)]\\@


 A leading authority is anyone who has guessed right more than once.
 -- Frank A. Clark
 Job cpu time:  0 days  2 hours  5 minutes 45.7 seconds.
 File lengths (MBytes):  RWF=    186 Int=      0 D2E=      0 Chk=      4 Scr=      2
 Normal termination of Gaussian 09 at Fri Feb 10 19:59:30 2017.
