 Entering Gaussian System, Link 0=g09
 Initial command:
 /home/steboss/Software/g09/l1.exe /tmp/Gau-2287.inp -scrdir=/tmp/
 Entering Link 1 = /home/steboss/Software/g09/l1.exe PID=      2291.
  
 Copyright (c) 1988,1990,1992,1993,1995,1998,2003,2009, Gaussian, Inc.
                  All Rights Reserved.
  
 This is part of the Gaussian(R) 09 program.  It is based on
 the Gaussian(R) 03 system (copyright 2003, Gaussian, Inc.),
 the Gaussian(R) 98 system (copyright 1998, Gaussian, Inc.),
 the Gaussian(R) 94 system (copyright 1995, Gaussian, Inc.),
 the Gaussian 92(TM) system (copyright 1992, Gaussian, Inc.),
 the Gaussian 90(TM) system (copyright 1990, Gaussian, Inc.),
 the Gaussian 88(TM) system (copyright 1988, Gaussian, Inc.),
 the Gaussian 86(TM) system (copyright 1986, Carnegie Mellon
 University), and the Gaussian 82(TM) system (copyright 1983,
 Carnegie Mellon University). Gaussian is a federally registered
 trademark of Gaussian, Inc.
  
 This software contains proprietary and confidential information,
 including trade secrets, belonging to Gaussian, Inc.
  
 This software is provided under written license and may be
 used, copied, transmitted, or stored only in accord with that
 written license.
  
 The following legend is applicable only to US Government
 contracts under FAR:
  
                    RESTRICTED RIGHTS LEGEND
  
 Use, reproduction and disclosure by the US Government is
 subject to restrictions as set forth in subparagraphs (a)
 and (c) of the Commercial Computer Software - Restricted
 Rights clause in FAR 52.227-19.
  
 Gaussian, Inc.
 340 Quinnipiac St., Bldg. 40, Wallingford CT 06492
  
  
 ---------------------------------------------------------------
 Warning -- This program may not be used in any manner that
 competes with the business of Gaussian, Inc. or will provide
 assistance to any competitor of Gaussian, Inc.  The licensee
 of this program is prohibited from giving any competitor of
 Gaussian, Inc. access to this program.  By using this program,
 the user acknowledges that Gaussian, Inc. is engaged in the
 business of creating and licensing software in the field of
 computational chemistry and represents and warrants to the
 licensee that it is not a competitor of Gaussian, Inc. and that
 it will not use this program in any manner prohibited above.
 ---------------------------------------------------------------
  

 Cite this work as:
 Gaussian 09, Revision A.02,
 M. J. Frisch, G. W. Trucks, H. B. Schlegel, G. E. Scuseria, 
 M. A. Robb, J. R. Cheeseman, G. Scalmani, V. Barone, B. Mennucci, 
 G. A. Petersson, H. Nakatsuji, M. Caricato, X. Li, H. P. Hratchian, 
 A. F. Izmaylov, J. Bloino, G. Zheng, J. L. Sonnenberg, M. Hada, 
 M. Ehara, K. Toyota, R. Fukuda, J. Hasegawa, M. Ishida, T. Nakajima, 
 Y. Honda, O. Kitao, H. Nakai, T. Vreven, J. A. Montgomery, Jr., 
 J. E. Peralta, F. Ogliaro, M. Bearpark, J. J. Heyd, E. Brothers, 
 K. N. Kudin, V. N. Staroverov, R. Kobayashi, J. Normand, 
 K. Raghavachari, A. Rendell, J. C. Burant, S. S. Iyengar, J. Tomasi, 
 M. Cossi, N. Rega, J. M. Millam, M. Klene, J. E. Knox, J. B. Cross, 
 V. Bakken, C. Adamo, J. Jaramillo, R. Gomperts, R. E. Stratmann, 
 O. Yazyev, A. J. Austin, R. Cammi, C. Pomelli, J. W. Ochterski, 
 R. L. Martin, K. Morokuma, V. G. Zakrzewski, G. A. Voth, 
 P. Salvador, J. J. Dannenberg, S. Dapprich, A. D. Daniels, 
 O. Farkas, J. B. Foresman, J. V. Ortiz, J. Cioslowski, 
 and D. J. Fox, Gaussian, Inc., Wallingford CT, 2009.
 
 ******************************************
 Gaussian 09:  EM64L-G09RevA.02 11-Jun-2009
                11-Feb-2017 
 ******************************************
 %chk=structure_120.chk
 %NProcShared=8
 Will use up to    8 processors via shared memory.
 -------------------------------------------
 # HF/6-31G* Opt=(ModRedundant) geom=nocrowd
 -------------------------------------------
 1/18=120,19=15,38=1/1,3;
 2/9=110,12=1,17=6,18=5,40=1/2;
 3/5=1,6=6,7=1,11=9,16=1,25=1,30=1,71=1/1,2,3;
 4//1;
 5/5=2,38=5/2;
 6/7=2,8=2,9=2,10=2,28=1/1;
 7//1,2,3,16;
 1/18=20,19=15/3(2);
 2/9=110,12=1/2;
 99//99;
 2/9=110,12=1/2;
 3/5=1,6=6,7=1,11=9,16=1,25=1,30=1,71=1/1,2,3;
 4/5=5,16=3/1;
 5/5=2,38=5/2;
 7//1,2,3,16;
 1/18=20,19=15/3(-5);
 2/9=110,12=1/2;
 6/7=2,8=2,9=2,10=2,19=2,28=1/1;
 99/9=1/99;
 ------------------
 Phi Psi fixed scan
 ------------------
 Symbolic Z-matrix:
 Charge =  0 Multiplicity = 1
 H                     1.5624    1.8816    1.7047 
 C                     1.7794    2.5343    0.8591 
 H                     1.0463    3.3401    0.824 
 H                     1.7316    1.9596   -0.0658 
 C                     3.1755    3.1484    0.9815 
 O                     3.8914    2.883     1.9446 
 N                     3.5554    3.9697    0. 
 H                     2.9312    4.1571   -0.7716 
 C                     4.8533    4.6139    0. 
 H                     5.4076    4.3155    0.8898 
 C                     5.6613    4.2208   -1.2322 
 H                     5.1233    4.5214   -2.1312 
 H                     6.6305    4.7189   -1.2058 
 H                     5.8085    3.1409   -1.2414 
 C                     4.7127    6.1294    0. 
 O                     4.1278    6.7016   -0.9171 
 N                     5.2518    6.7797    1.0338 
 H                     5.7229    6.2651    1.764 
 C                     5.1851    8.2226    1.1497 
 H                     4.6503    8.6321    0.2928 
 H                     4.6601    8.4901    2.0667 
 H                     6.1948    8.6324    1.1769 
 
 The following ModRedundant input section has been read:
 D    5    7    9   15 F                                                       
 D    7    9   15   17 F                                                       

 GradGradGradGradGradGradGradGradGradGradGradGradGradGradGradGradGradGrad
 Berny optimization.
 Initialization pass.
                           ----------------------------
                           !    Initial Parameters    !
                           ! (Angstroms and Degrees)  !
 --------------------------                            --------------------------
 ! Name  Definition              Value          Derivative Info.                !
 --------------------------------------------------------------------------------
 ! R1    R(1,2)                  1.09           estimate D2E/DX2                !
 ! R2    R(2,3)                  1.0899         estimate D2E/DX2                !
 ! R3    R(2,4)                  1.09           estimate D2E/DX2                !
 ! R4    R(2,5)                  1.5301         estimate D2E/DX2                !
 ! R5    R(5,6)                  1.229          estimate D2E/DX2                !
 ! R6    R(5,7)                  1.335          estimate D2E/DX2                !
 ! R7    R(7,8)                  1.01           estimate D2E/DX2                !
 ! R8    R(7,9)                  1.449          estimate D2E/DX2                !
 ! R9    R(9,10)                 1.09           estimate D2E/DX2                !
 ! R10   R(9,11)                 1.525          estimate D2E/DX2                !
 ! R11   R(9,15)                 1.522          estimate D2E/DX2                !
 ! R12   R(11,12)                1.09           estimate D2E/DX2                !
 ! R13   R(11,13)                1.09           estimate D2E/DX2                !
 ! R14   R(11,14)                1.0899         estimate D2E/DX2                !
 ! R15   R(15,16)                1.2291         estimate D2E/DX2                !
 ! R16   R(15,17)                1.335          estimate D2E/DX2                !
 ! R17   R(17,18)                1.0099         estimate D2E/DX2                !
 ! R18   R(17,19)                1.4491         estimate D2E/DX2                !
 ! R19   R(19,20)                1.0899         estimate D2E/DX2                !
 ! R20   R(19,21)                1.09           estimate D2E/DX2                !
 ! R21   R(19,22)                1.09           estimate D2E/DX2                !
 ! A1    A(1,2,3)              109.4979         estimate D2E/DX2                !
 ! A2    A(1,2,4)              109.5015         estimate D2E/DX2                !
 ! A3    A(1,2,5)              111.0948         estimate D2E/DX2                !
 ! A4    A(3,2,4)              109.4502         estimate D2E/DX2                !
 ! A5    A(3,2,5)              108.6362         estimate D2E/DX2                !
 ! A6    A(4,2,5)              108.6335         estimate D2E/DX2                !
 ! A7    A(2,5,6)              120.4974         estimate D2E/DX2                !
 ! A8    A(2,5,7)              116.5994         estimate D2E/DX2                !
 ! A9    A(6,5,7)              122.9032         estimate D2E/DX2                !
 ! A10   A(5,7,8)              119.9965         estimate D2E/DX2                !
 ! A11   A(5,7,9)              121.8985         estimate D2E/DX2                !
 ! A12   A(8,7,9)              118.105          estimate D2E/DX2                !
 ! A13   A(7,9,10)             109.5            estimate D2E/DX2                !
 ! A14   A(7,9,11)             111.0992         estimate D2E/DX2                !
 ! A15   A(7,9,15)             111.0966         estimate D2E/DX2                !
 ! A16   A(10,9,11)            108.6382         estimate D2E/DX2                !
 ! A17   A(10,9,15)            108.6373         estimate D2E/DX2                !
 ! A18   A(11,9,15)            107.7947         estimate D2E/DX2                !
 ! A19   A(9,11,12)            109.5007         estimate D2E/DX2                !
 ! A20   A(9,11,13)            109.4959         estimate D2E/DX2                !
 ! A21   A(9,11,14)            109.4978         estimate D2E/DX2                !
 ! A22   A(12,11,13)           109.441          estimate D2E/DX2                !
 ! A23   A(12,11,14)           109.4482         estimate D2E/DX2                !
 ! A24   A(13,11,14)           109.4436         estimate D2E/DX2                !
 ! A25   A(9,15,16)            120.4994         estimate D2E/DX2                !
 ! A26   A(9,15,17)            116.5978         estimate D2E/DX2                !
 ! A27   A(16,15,17)           122.9028         estimate D2E/DX2                !
 ! A28   A(15,17,18)           120.0038         estimate D2E/DX2                !
 ! A29   A(15,17,19)           121.8961         estimate D2E/DX2                !
 ! A30   A(18,17,19)           118.1001         estimate D2E/DX2                !
 ! A31   A(17,19,20)           109.5001         estimate D2E/DX2                !
 ! A32   A(17,19,21)           109.5012         estimate D2E/DX2                !
 ! A33   A(17,19,22)           109.4939         estimate D2E/DX2                !
 ! A34   A(20,19,21)           109.4435         estimate D2E/DX2                !
 ! A35   A(20,19,22)           109.4435         estimate D2E/DX2                !
 ! A36   A(21,19,22)           109.4451         estimate D2E/DX2                !
 ! D1    D(1,2,5,6)              0.0016         estimate D2E/DX2                !
 ! D2    D(1,2,5,7)           -179.9943         estimate D2E/DX2                !
 ! D3    D(3,2,5,6)            120.5083         estimate D2E/DX2                !
 ! D4    D(3,2,5,7)            -59.4876         estimate D2E/DX2                !
 ! D5    D(4,2,5,6)           -120.5076         estimate D2E/DX2                !
 ! D6    D(4,2,5,7)             59.4965         estimate D2E/DX2                !
 ! D7    D(2,5,7,8)             -0.0085         estimate D2E/DX2                !
 ! D8    D(2,5,7,9)           -179.9978         estimate D2E/DX2                !
 ! D9    D(6,5,7,8)            179.9958         estimate D2E/DX2                !
 ! D10   D(6,5,7,9)              0.0064         estimate D2E/DX2                !
 ! D11   D(5,7,9,10)            -0.0045         estimate D2E/DX2                !
 ! D12   D(5,7,9,11)           119.9981         estimate D2E/DX2                !
 ! D13   D(5,7,9,15)          -120.0043         Frozen                          !
 ! D14   D(8,7,9,10)          -179.994          estimate D2E/DX2                !
 ! D15   D(8,7,9,11)           -59.9914         estimate D2E/DX2                !
 ! D16   D(8,7,9,15)            60.0061         estimate D2E/DX2                !
 ! D17   D(7,9,11,12)           60.0024         estimate D2E/DX2                !
 ! D18   D(7,9,11,13)          179.9986         estimate D2E/DX2                !
 ! D19   D(7,9,11,14)          -60.0038         estimate D2E/DX2                !
 ! D20   D(10,9,11,12)        -179.4843         estimate D2E/DX2                !
 ! D21   D(10,9,11,13)         -59.4881         estimate D2E/DX2                !
 ! D22   D(10,9,11,14)          60.5095         estimate D2E/DX2                !
 ! D23   D(15,9,11,12)         -61.938          estimate D2E/DX2                !
 ! D24   D(15,9,11,13)          58.0582         estimate D2E/DX2                !
 ! D25   D(15,9,11,14)         178.0558         estimate D2E/DX2                !
 ! D26   D(7,9,15,16)          -59.9975         estimate D2E/DX2                !
 ! D27   D(7,9,15,17)          120.0001         Frozen                          !
 ! D28   D(10,9,15,16)         179.4914         estimate D2E/DX2                !
 ! D29   D(10,9,15,17)          -0.5109         estimate D2E/DX2                !
 ! D30   D(11,9,15,16)          61.9445         estimate D2E/DX2                !
 ! D31   D(11,9,15,17)        -118.0578         estimate D2E/DX2                !
 ! D32   D(9,15,17,18)          -0.002          estimate D2E/DX2                !
 ! D33   D(9,15,17,19)        -179.9985         estimate D2E/DX2                !
 ! D34   D(16,15,17,18)        179.9956         estimate D2E/DX2                !
 ! D35   D(16,15,17,19)         -0.0008         estimate D2E/DX2                !
 ! D36   D(15,17,19,20)         -0.0037         estimate D2E/DX2                !
 ! D37   D(15,17,19,21)        119.9984         estimate D2E/DX2                !
 ! D38   D(15,17,19,22)       -120.0013         estimate D2E/DX2                !
 ! D39   D(18,17,19,20)        179.9998         estimate D2E/DX2                !
 ! D40   D(18,17,19,21)        -59.9981         estimate D2E/DX2                !
 ! D41   D(18,17,19,22)         60.0022         estimate D2E/DX2                !
 --------------------------------------------------------------------------------
 Trust Radius=3.00D-01 FncErr=1.00D-07 GrdErr=1.00D-07
 Number of steps in this run= 108 maximum allowed number of steps= 132.
 GradGradGradGradGradGradGradGradGradGradGradGradGradGradGradGradGradGrad

                          Input orientation:                          
 ---------------------------------------------------------------------
 Center     Atomic      Atomic             Coordinates (Angstroms)
 Number     Number       Type             X           Y           Z
 ---------------------------------------------------------------------
      1          1           0        1.562400    1.881600    1.704700
      2          6           0        1.779400    2.534300    0.859100
      3          1           0        1.046300    3.340100    0.824000
      4          1           0        1.731600    1.959600   -0.065800
      5          6           0        3.175500    3.148400    0.981500
      6          8           0        3.891400    2.883000    1.944600
      7          7           0        3.555400    3.969700    0.000000
      8          1           0        2.931200    4.157100   -0.771600
      9          6           0        4.853300    4.613900    0.000000
     10          1           0        5.407600    4.315500    0.889800
     11          6           0        5.661300    4.220800   -1.232200
     12          1           0        5.123300    4.521400   -2.131200
     13          1           0        6.630500    4.718900   -1.205800
     14          1           0        5.808500    3.140900   -1.241400
     15          6           0        4.712700    6.129400    0.000000
     16          8           0        4.127800    6.701600   -0.917100
     17          7           0        5.251800    6.779700    1.033800
     18          1           0        5.722900    6.265100    1.764000
     19          6           0        5.185100    8.222600    1.149700
     20          1           0        4.650300    8.632100    0.292800
     21          1           0        4.660100    8.490100    2.066700
     22          1           0        6.194800    8.632400    1.176900
 ---------------------------------------------------------------------
                    Distance matrix (angstroms):
                    1          2          3          4          5
     1  H    0.000000
     2  C    1.090021   0.000000
     3  H    1.780229   1.089946   0.000000
     4  H    1.780276   1.089956   1.779652   0.000000
     5  C    2.174832   1.530097   2.143606   2.143579   0.000000
     6  O    2.546487   2.400093   3.091808   3.091781   1.229029
     7  N    3.352344   2.439795   2.714950   2.714973   1.334991
     8  H    3.630919   2.572801   2.601207   2.601192   2.037282
     9  C    4.604507   3.809416   4.098145   4.098128   2.434347
    10  H    4.623148   4.041961   4.469527   4.469498   2.520476
    11  C    5.558617   4.720907   5.128530   4.681459   3.497100
    12  H    5.861969   4.906335   5.172099   4.725709   3.920198
    13  H    6.496685   5.706966   6.099546   5.736947   4.380385
    14  H    5.319277   4.584071   5.194623   4.404386   3.445871
    15  C    5.556455   4.718797   4.679921   5.126258   3.494666
    16  O    6.057022   5.102574   4.881266   5.380804   4.139660
    17  N    6.168725   5.487395   5.437012   6.069126   4.183312
    18  H    6.043869   5.503536   5.595517   6.149469   4.100655
    19  C    7.323951   6.636264   6.408943   7.254603   5.460246
    20  H    7.556311   6.763574   6.424660   7.291753   5.720167
    21  H    7.307466   6.725198   6.412983   7.468005   5.649377
    22  H    8.204328   7.535488   7.391889   8.123467   6.263275
                    6          7          8          9         10
     6  O    0.000000
     7  N    2.252839   0.000000
     8  H    3.150088   1.010005   0.000000
     9  C    2.775380   1.448978   2.120967   0.000000
    10  H    2.337418   2.083739   2.986285   1.089970   0.000000
    11  C    3.874831   2.452791   2.769414   1.525027   2.139209
    12  H    4.562245   2.702720   2.605097   2.150225   3.041326
    13  H    4.560506   3.386959   3.766825   2.150214   2.459625
    14  H    3.727248   2.702673   3.087431   2.150165   2.466256
    15  C    3.872353   2.450234   2.767504   1.522008   2.136554
    16  O    4.777752   2.938025   2.815582   2.392888   3.255188
    17  N    4.226644   3.441310   3.939884   2.432742   2.473316
    18  H    3.850404   3.616437   4.320477   2.567949   2.159764
    19  C    5.551293   4.697328   5.029886   3.801923   3.922051
    20  H    6.029637   4.798178   4.910588   4.033965   4.423002
    21  H    5.660864   5.091721   5.460763   4.396988   4.401265
    22  H    6.241043   5.485645   5.871631   4.396937   4.397469
                   11         12         13         14         15
    11  C    0.000000
    12  H    1.089957   0.000000
    13  H    1.090023   1.779613   0.000000
    14  H    1.089925   1.779613   1.779617   0.000000
    15  C    2.461892   2.701161   2.668599   3.416575   0.000000
    16  O    2.933476   2.686695   3.205925   3.950760   1.229062
    17  N    3.442443   3.890200   3.341185   4.327507   1.335014
    18  H    3.627695   4.309593   3.469032   4.335941   2.037306
    19  C    4.681305   4.946413   4.462452   5.650634   2.434432
    20  H    4.775700   4.795556   4.634666   5.817944   2.520542
    21  H    5.487446   5.795472   5.367838   6.393457   3.137980
    22  H    5.054760   5.384418   4.602453   6.012818   3.137949
                   16         17         18         19         20
    16  O    0.000000
    17  N    2.252884   0.000000
    18  H    3.150107   1.009921   0.000000
    19  C    2.775425   1.449083   2.120943   0.000000
    20  H    2.337455   2.083811   2.986233   1.089944   0.000000
    21  H    3.519252   2.083857   2.484310   1.089986   1.779601
    22  H    3.519277   2.083800   2.484247   1.090032   1.779638
                   21         22
    21  H    0.000000
    22  H    1.779690   0.000000
 Stoichiometry    C6H12N2O2
 Framework group  C1[X(C6H12N2O2)]
 Deg. of freedom    60
 Full point group                 C1      NOp   1
 Largest Abelian subgroup         C1      NOp   1
 Largest concise Abelian subgroup C1      NOp   1
                         Standard orientation:                         
 ---------------------------------------------------------------------
 Center     Atomic      Atomic             Coordinates (Angstroms)
 Number     Number       Type             X           Y           Z
 ---------------------------------------------------------------------
      1          1           0       -4.036140   -1.328577    0.372783
      2          6           0       -3.280965   -0.705859    0.852450
      3          1           0       -2.892694   -1.218004    1.732754
      4          1           0       -3.727656    0.242258    1.151691
      5          6           0       -2.117706   -0.419419   -0.099378
      6          8           0       -2.119324   -0.874601   -1.241007
      7          7           0       -1.126899    0.337106    0.378295
      8          1           0       -1.170831    0.688446    1.324203
      9          6           0        0.030091    0.679505   -0.423999
     10          1           0       -0.066919    0.230719   -1.412541
     11          6           0        0.158663    2.190528   -0.585209
     12          1           0        0.265821    2.653293    0.395796
     13          1           0        1.035345    2.418396   -1.191553
     14          1           0       -0.732988    2.581264   -1.075331
     15          6           0        1.312334    0.169449    0.218033
     16          8           0        1.641172    0.547449    1.340340
     17          7           0        2.037571   -0.692625   -0.498292
     18          1           0        1.725785   -0.973761   -1.416820
     19          6           0        3.277993   -1.250373    0.001819
     20          1           0        3.479410   -0.855029    0.997366
     21          1           0        3.194469   -2.335968    0.052587
     22          1           0        4.094454   -0.980168   -0.667920
 ---------------------------------------------------------------------
 Rotational constants (GHZ):      2.1422781      0.7252821      0.6682719
 Standard basis: 6-31G(d) (6D, 7F)
 There are   174 symmetry adapted basis functions of A   symmetry.
 Integral buffers will be    131072 words long.
 Raffenetti 1 integral format.
 Two-electron integral symmetry is turned on.
   174 basis functions,   328 primitive gaussians,   174 cartesian basis functions
    39 alpha electrons       39 beta electrons
       nuclear repulsion energy       552.9239162865 Hartrees.
 NAtoms=   22 NActive=   22 NUniq=   22 SFac= 7.50D-01 NAtFMM=   80 NAOKFM=F Big=F
 One-electron integrals computed using PRISM.
 NBasis=   174 RedAO= T  NBF=   174
 NBsUse=   174 1.00D-06 NBFU=   174
 Harris functional with IExCor=  205 diagonalized for initial guess.
 ExpMin= 1.61D-01 ExpMax= 5.48D+03 ExpMxC= 8.25D+02 IAcc=1 IRadAn=         1 AccDes= 0.00D+00
 HarFok:  IExCor=  205 AccDes= 0.00D+00 IRadAn=         1 IDoV= 1
 ScaDFX=  1.000000  1.000000  1.000000  1.000000
 FoFCou: FMM=F IPFlag=           0 FMFlag=      100000 FMFlg1=           0
         NFxFlg=           0 DoJE=T BraDBF=F KetDBF=T FulRan=T
         Omega=  0.000000  0.000000  1.000000  0.000000  0.000000 ICntrl=     500 IOpCl=  0
         NMat0=    1 NMatS0=    1 NMatT0=    0 NMatD0=    1 NMtDS0=    0 NMtDT0=    0
         I1Cent=           4 NGrid=           0.
 Petite list used in FoFCou.
 Initial guess orbital symmetries:
       Occupied  (A) (A) (A) (A) (A) (A) (A) (A) (A) (A) (A) (A)
                 (A) (A) (A) (A) (A) (A) (A) (A) (A) (A) (A) (A)
                 (A) (A) (A) (A) (A) (A) (A) (A) (A) (A) (A) (A)
                 (A) (A) (A)
       Virtual   (A) (A) (A) (A) (A) (A) (A) (A) (A) (A) (A) (A)
                 (A) (A) (A) (A) (A) (A) (A) (A) (A) (A) (A) (A)
                 (A) (A) (A) (A) (A) (A) (A) (A) (A) (A) (A) (A)
                 (A) (A) (A) (A) (A) (A) (A) (A) (A) (A) (A) (A)
                 (A) (A) (A) (A) (A) (A) (A) (A) (A) (A) (A) (A)
                 (A) (A) (A) (A) (A) (A) (A) (A) (A) (A) (A) (A)
                 (A) (A) (A) (A) (A) (A) (A) (A) (A) (A) (A) (A)
                 (A) (A) (A) (A) (A) (A) (A) (A) (A) (A) (A) (A)
                 (A) (A) (A) (A) (A) (A) (A) (A) (A) (A) (A) (A)
                 (A) (A) (A) (A) (A) (A) (A) (A) (A) (A) (A) (A)
                 (A) (A) (A) (A) (A) (A) (A) (A) (A) (A) (A) (A)
                 (A) (A) (A)
 The electronic state of the initial guess is 1-A.
 Requested convergence on RMS density matrix=1.00D-08 within 128 cycles.
 Requested convergence on MAX density matrix=1.00D-06.
 Requested convergence on             energy=1.00D-06.
 No special actions if energy rises.
 Integral accuracy reduced to 1.0D-05 until final iterations.
 Initial convergence to 1.0D-05 achieved.  Increase integral accuracy.
 SCF Done:  E(RHF) =  -492.852319418     A.U. after   15 cycles
             Convg  =    0.4208D-08             -V/T =  2.0021

 **********************************************************************

            Population analysis using the SCF density.

 **********************************************************************

 Orbital symmetries:
       Occupied  (A) (A) (A) (A) (A) (A) (A) (A) (A) (A) (A) (A)
                 (A) (A) (A) (A) (A) (A) (A) (A) (A) (A) (A) (A)
                 (A) (A) (A) (A) (A) (A) (A) (A) (A) (A) (A) (A)
                 (A) (A) (A)
       Virtual   (A) (A) (A) (A) (A) (A) (A) (A) (A) (A) (A) (A)
                 (A) (A) (A) (A) (A) (A) (A) (A) (A) (A) (A) (A)
                 (A) (A) (A) (A) (A) (A) (A) (A) (A) (A) (A) (A)
                 (A) (A) (A) (A) (A) (A) (A) (A) (A) (A) (A) (A)
                 (A) (A) (A) (A) (A) (A) (A) (A) (A) (A) (A) (A)
                 (A) (A) (A) (A) (A) (A) (A) (A) (A) (A) (A) (A)
                 (A) (A) (A) (A) (A) (A) (A) (A) (A) (A) (A) (A)
                 (A) (A) (A) (A) (A) (A) (A) (A) (A) (A) (A) (A)
                 (A) (A) (A) (A) (A) (A) (A) (A) (A) (A) (A) (A)
                 (A) (A) (A) (A) (A) (A) (A) (A) (A) (A) (A) (A)
                 (A) (A) (A) (A) (A) (A) (A) (A) (A) (A) (A) (A)
                 (A) (A) (A)
 The electronic state is 1-A.
 Alpha  occ. eigenvalues --  -20.51915 -20.51654 -15.59824 -15.59563 -11.35143
 Alpha  occ. eigenvalues --  -11.34789 -11.28166 -11.26201 -11.23703 -11.22619
 Alpha  occ. eigenvalues --   -1.38070  -1.37095  -1.24248  -1.23674  -1.06038
 Alpha  occ. eigenvalues --   -0.99056  -0.96425  -0.87583  -0.80473  -0.79254
 Alpha  occ. eigenvalues --   -0.73254  -0.66956  -0.65781  -0.64066  -0.62615
 Alpha  occ. eigenvalues --   -0.62010  -0.59610  -0.58209  -0.57071  -0.56357
 Alpha  occ. eigenvalues --   -0.55150  -0.53841  -0.52035  -0.51674  -0.50075
 Alpha  occ. eigenvalues --   -0.42668  -0.41257  -0.39172  -0.38411
 Alpha virt. eigenvalues --    0.19027   0.20954   0.21647   0.22427   0.26591
 Alpha virt. eigenvalues --    0.26812   0.28467   0.30071   0.31025   0.31708
 Alpha virt. eigenvalues --    0.32203   0.32678   0.33523   0.33964   0.36839
 Alpha virt. eigenvalues --    0.39128   0.40669   0.42864   0.46185   0.50006
 Alpha virt. eigenvalues --    0.51771   0.57359   0.62858   0.71077   0.71682
 Alpha virt. eigenvalues --    0.73818   0.74302   0.76519   0.77454   0.78081
 Alpha virt. eigenvalues --    0.81018   0.81594   0.84086   0.86448   0.88734
 Alpha virt. eigenvalues --    0.90088   0.93973   0.95445   0.96032   0.98488
 Alpha virt. eigenvalues --    1.00737   1.02135   1.04741   1.07237   1.08518
 Alpha virt. eigenvalues --    1.09803   1.10649   1.12557   1.14287   1.15107
 Alpha virt. eigenvalues --    1.16329   1.17951   1.18039   1.18861   1.20005
 Alpha virt. eigenvalues --    1.20600   1.21821   1.22420   1.22948   1.24576
 Alpha virt. eigenvalues --    1.30289   1.34153   1.36556   1.39250   1.40900
 Alpha virt. eigenvalues --    1.44992   1.47106   1.53308   1.59226   1.60083
 Alpha virt. eigenvalues --    1.64826   1.66764   1.69971   1.74149   1.78136
 Alpha virt. eigenvalues --    1.80626   1.82302   1.85833   1.87874   1.93022
 Alpha virt. eigenvalues --    1.98738   2.03453   2.07069   2.11095   2.11929
 Alpha virt. eigenvalues --    2.13947   2.15517   2.17282   2.19742   2.23593
 Alpha virt. eigenvalues --    2.25428   2.26835   2.27476   2.31606   2.35898
 Alpha virt. eigenvalues --    2.37900   2.40482   2.43044   2.47379   2.48113
 Alpha virt. eigenvalues --    2.52690   2.54743   2.57369   2.61592   2.62697
 Alpha virt. eigenvalues --    2.63665   2.66564   2.67928   2.72034   2.73609
 Alpha virt. eigenvalues --    2.77229   2.81913   2.84921   2.95441   2.98780
 Alpha virt. eigenvalues --    3.02836   3.04165   3.07749   3.10826   3.24836
 Alpha virt. eigenvalues --    3.29113   3.34963   3.38453   3.52665   3.56280
 Alpha virt. eigenvalues --    4.38698   4.42649   4.47181   4.60474   4.63626
 Alpha virt. eigenvalues --    4.66523   4.71296   4.80634   4.89842   5.09109
          Condensed to atoms (all electrons):
              1          2          3          4          5          6
     1  H    0.455321   0.385426  -0.018475  -0.018574  -0.030132   0.003611
     2  C    0.385426   5.259737   0.373838   0.373319   0.372978  -0.070911
     3  H   -0.018475   0.373838   0.509047  -0.023685  -0.033968   0.001303
     4  H   -0.018574   0.373319  -0.023685   0.513858  -0.034253   0.001327
     5  C   -0.030132   0.372978  -0.033968  -0.034253   4.176869   0.602689
     6  O    0.003611  -0.070911   0.001303   0.001327   0.602689   8.192542
     7  N    0.003773  -0.120065   0.003483   0.003523   0.244064  -0.106170
     8  H   -0.000011  -0.000935   0.000551   0.000563  -0.016951   0.002094
     9  C   -0.000077   0.004625  -0.000242  -0.000272  -0.023974  -0.000498
    10  H   -0.000004   0.000570  -0.000021  -0.000025  -0.000844   0.012138
    11  C    0.000002  -0.000128  -0.000004   0.000032   0.000648   0.000153
    12  H    0.000000  -0.000009   0.000000   0.000001  -0.000031  -0.000017
    13  H    0.000000   0.000002   0.000000   0.000000  -0.000032  -0.000010
    14  H    0.000000  -0.000016   0.000000  -0.000002   0.000367   0.000170
    15  C    0.000001  -0.000065   0.000021  -0.000004   0.000860   0.000604
    16  O    0.000000  -0.000006  -0.000001   0.000000   0.000264  -0.000002
    17  N    0.000000  -0.000004   0.000001   0.000000   0.000186  -0.000125
    18  H    0.000000   0.000001   0.000000   0.000000   0.000018   0.000023
    19  C    0.000000   0.000000   0.000000   0.000000  -0.000006   0.000000
    20  H    0.000000   0.000000   0.000000   0.000000   0.000000   0.000000
    21  H    0.000000   0.000000   0.000000   0.000000   0.000000   0.000000
    22  H    0.000000   0.000000   0.000000   0.000000   0.000000   0.000000
              7          8          9         10         11         12
     1  H    0.003773  -0.000011  -0.000077  -0.000004   0.000002   0.000000
     2  C   -0.120065  -0.000935   0.004625   0.000570  -0.000128  -0.000009
     3  H    0.003483   0.000551  -0.000242  -0.000021  -0.000004   0.000000
     4  H    0.003523   0.000563  -0.000272  -0.000025   0.000032   0.000001
     5  C    0.244064  -0.016951  -0.023974  -0.000844   0.000648  -0.000031
     6  O   -0.106170   0.002094  -0.000498   0.012138   0.000153  -0.000017
     7  N    7.387817   0.319407   0.190648  -0.032748  -0.068924  -0.001821
     8  H    0.319407   0.306053  -0.023404   0.002541  -0.000459   0.002218
     9  C    0.190648  -0.023404   5.109531   0.400797   0.348075  -0.035760
    10  H   -0.032748   0.002541   0.400797   0.453777  -0.032370   0.003575
    11  C   -0.068924  -0.000459   0.348075  -0.032370   5.134251   0.388539
    12  H   -0.001821   0.002218  -0.035760   0.003575   0.388539   0.500119
    13  H    0.004768  -0.000025  -0.039227  -0.000775   0.385550  -0.021237
    14  H   -0.000639  -0.000149  -0.039193  -0.003710   0.391376  -0.024939
    15  C   -0.051648  -0.001665   0.337301  -0.050530  -0.062312  -0.006562
    16  O    0.001981   0.005284  -0.084078   0.002509   0.001077   0.005959
    17  N    0.001308   0.000198  -0.089835   0.006313  -0.000782   0.000475
    18  H   -0.000003  -0.000008   0.000627   0.002576   0.000013  -0.000012
    19  C   -0.000140   0.000002   0.004659  -0.000065  -0.000212   0.000001
    20  H   -0.000012  -0.000003   0.000560  -0.000023  -0.000016  -0.000005
    21  H    0.000015   0.000000  -0.000120  -0.000006  -0.000004   0.000000
    22  H   -0.000002   0.000000  -0.000125  -0.000013   0.000030   0.000000
             13         14         15         16         17         18
     1  H    0.000000   0.000000   0.000001   0.000000   0.000000   0.000000
     2  C    0.000002  -0.000016  -0.000065  -0.000006  -0.000004   0.000001
     3  H    0.000000   0.000000   0.000021  -0.000001   0.000001   0.000000
     4  H    0.000000  -0.000002  -0.000004   0.000000   0.000000   0.000000
     5  C   -0.000032   0.000367   0.000860   0.000264   0.000186   0.000018
     6  O   -0.000010   0.000170   0.000604  -0.000002  -0.000125   0.000023
     7  N    0.004768  -0.000639  -0.051648   0.001981   0.001308  -0.000003
     8  H   -0.000025  -0.000149  -0.001665   0.005284   0.000198  -0.000008
     9  C   -0.039227  -0.039193   0.337301  -0.084078  -0.089835   0.000627
    10  H   -0.000775  -0.003710  -0.050530   0.002509   0.006313   0.002576
    11  C    0.385550   0.391376  -0.062312   0.001077  -0.000782   0.000013
    12  H   -0.021237  -0.024939  -0.006562   0.005959   0.000475  -0.000012
    13  H    0.525047  -0.022191  -0.001333  -0.000327   0.000903   0.000008
    14  H   -0.022191   0.512284   0.005672   0.000043  -0.000096  -0.000009
    15  C   -0.001333   0.005672   4.212482   0.576974   0.291934  -0.016331
    16  O   -0.000327   0.000043   0.576974   8.241212  -0.098468   0.002303
    17  N    0.000903  -0.000096   0.291934  -0.098468   7.295411   0.321196
    18  H    0.000008  -0.000009  -0.016331   0.002303   0.321196   0.314608
    19  C   -0.000034   0.000003  -0.030619  -0.004981   0.188031  -0.021753
    20  H   -0.000001   0.000000  -0.001818   0.010525  -0.031810   0.002269
    21  H    0.000001   0.000000   0.000965   0.000371  -0.046982  -0.001044
    22  H   -0.000006   0.000000   0.001313   0.000393  -0.047578  -0.001055
             19         20         21         22
     1  H    0.000000   0.000000   0.000000   0.000000
     2  C    0.000000   0.000000   0.000000   0.000000
     3  H    0.000000   0.000000   0.000000   0.000000
     4  H    0.000000   0.000000   0.000000   0.000000
     5  C   -0.000006   0.000000   0.000000   0.000000
     6  O    0.000000   0.000000   0.000000   0.000000
     7  N   -0.000140  -0.000012   0.000015  -0.000002
     8  H    0.000002  -0.000003   0.000000   0.000000
     9  C    0.004659   0.000560  -0.000120  -0.000125
    10  H   -0.000065  -0.000023  -0.000006  -0.000013
    11  C   -0.000212  -0.000016  -0.000004   0.000030
    12  H    0.000001  -0.000005   0.000000   0.000000
    13  H   -0.000034  -0.000001   0.000001  -0.000006
    14  H    0.000003   0.000000   0.000000   0.000000
    15  C   -0.030619  -0.001818   0.000965   0.001313
    16  O   -0.004981   0.010525   0.000371   0.000393
    17  N    0.188031  -0.031810  -0.046982  -0.047578
    18  H   -0.021753   0.002269  -0.001044  -0.001055
    19  C    4.959798   0.396206   0.402264   0.401758
    20  H    0.396206   0.432091  -0.022326  -0.022543
    21  H    0.402264  -0.022326   0.528453  -0.035998
    22  H    0.401758  -0.022543  -0.035998   0.533039
 Mulliken atomic charges:
              1
     1  H    0.219140
     2  C   -0.578356
     3  H    0.188153
     4  H    0.184191
     5  C    0.741247
     6  O   -0.638923
     7  N   -0.778614
     8  H    0.404701
     9  C   -0.060018
    10  H    0.236341
    11  C   -0.484536
    12  H    0.189505
    13  H    0.168921
    14  H    0.181028
    15  C    0.794760
    16  O   -0.661033
    17  N   -0.790276
    18  H    0.396574
    19  C   -0.294912
    20  H    0.236907
    21  H    0.174411
    22  H    0.170788
 Sum of Mulliken atomic charges =   0.00000
 Mulliken charges with hydrogens summed into heavy atoms:
              1
     2  C    0.013128
     5  C    0.741247
     6  O   -0.638923
     7  N   -0.373913
     9  C    0.176322
    11  C    0.054919
    15  C    0.794760
    16  O   -0.661033
    17  N   -0.393702
    19  C    0.287195
 Sum of Mulliken charges with hydrogens summed into heavy atoms =   0.00000
 Electronic spatial extent (au):  <R**2>=           1871.8287
 Charge=              0.0000 electrons
 Dipole moment (field-independent basis, Debye):
    X=              0.5617    Y=              0.0820    Z=             -0.0350  Tot=              0.5688
 Quadrupole moment (field-independent basis, Debye-Ang):
   XX=            -56.6256   YY=            -59.8232   ZZ=            -64.3011
   XY=             -7.5646   XZ=            -14.4969   YZ=             -3.3619
 Traceless Quadrupole moment (field-independent basis, Debye-Ang):
   XX=              3.6243   YY=              0.4268   ZZ=             -4.0511
   XY=             -7.5646   XZ=            -14.4969   YZ=             -3.3619
 Octapole moment (field-independent basis, Debye-Ang**2):
  XXX=              7.4210  YYY=             -2.9927  ZZZ=             -2.0548  XYY=              4.4433
  XXY=            -10.5178  XXZ=              9.5077  XZZ=              3.1991  YZZ=             -0.4358
  YYZ=              1.6331  XYZ=              3.9813
 Hexadecapole moment (field-independent basis, Debye-Ang**3):
 XXXX=          -1555.8104 YYYY=           -480.7491 ZZZZ=           -282.7607 XXXY=            -30.2093
 XXXZ=            -36.9885 YYYX=             -5.9187 YYYZ=              6.2392 ZZZX=            -22.9465
 ZZZY=              4.6220 XXYY=           -348.1837 XXZZ=           -346.5462 YYZZ=           -126.1483
 XXYZ=            -15.9587 YYXZ=             -8.5254 ZZXY=            -18.4841
 N-N= 5.529239162865D+02 E-N=-2.261067736503D+03  KE= 4.918293368175D+02
 Calling FoFJK, ICntrl=      2127 FMM=F ISym2X=0 I1Cent= 0 IOpClX= 0 NMat=1 NMatS=1 NMatT=0.
 ***** Axes restored to original set *****
 -------------------------------------------------------------------
 Center     Atomic                   Forces (Hartrees/Bohr)
 Number     Number              X              Y              Z
 -------------------------------------------------------------------
      1        1           0.005494740    0.005910796   -0.005124380
      2        6           0.007043729    0.005745561   -0.004000665
      3        1          -0.000433392   -0.004758609   -0.001800843
      4        1          -0.004047438    0.001943230    0.002616423
      5        6           0.009981912   -0.027152512    0.051377942
      6        8          -0.021802925    0.010476277   -0.032254615
      7        7          -0.001303112    0.010991301   -0.013236993
      8        1           0.009472591    0.000022225    0.010698273
      9        6           0.013505893    0.002561025    0.000251299
     10        1          -0.011570503   -0.003961897   -0.005482350
     11        6          -0.001045930   -0.003373186   -0.002506040
     12        1           0.005333720   -0.001276064    0.002598807
     13        1          -0.002488327   -0.002877896   -0.003441962
     14        1           0.000983653    0.004570740   -0.001073434
     15        6          -0.028384328    0.015625442   -0.028584974
     16        8           0.016243516   -0.020256991    0.026193235
     17        7           0.007871472   -0.001560231    0.009143251
     18        1          -0.008880990    0.006510888   -0.011277169
     19        6           0.001507537    0.003815786    0.002083287
     20        1           0.004755088   -0.005609751    0.007277581
     21        1           0.002673566    0.001449454   -0.003944591
     22        1          -0.004910471    0.001204411    0.000487918
 -------------------------------------------------------------------
 Cartesian Forces:  Max     0.051377942 RMS     0.012384693

 GradGradGradGradGradGradGradGradGradGradGradGradGradGradGradGradGradGrad
 Berny optimization.
 Internal  Forces:  Max     0.040237903 RMS     0.007173740
 Search for a local minimum.
 Step number   1 out of a maximum of  108
 All quantities printed in internal units (Hartrees-Bohrs-Radians)
 Mixed Optimization -- RFO/linear search
 Second derivative matrix not updated -- first step.
     Eigenvalues ---    0.00368   0.00435   0.00999   0.01043   0.01269
     Eigenvalues ---    0.01422   0.01659   0.02551   0.02552   0.03503
     Eigenvalues ---    0.05232   0.05841   0.05844   0.05844   0.07165
     Eigenvalues ---    0.07463   0.07685   0.07685   0.15421   0.16000
     Eigenvalues ---    0.16000   0.16000   0.16000   0.16000   0.16000
     Eigenvalues ---    0.16000   0.16000   0.16000   0.16000   0.16000
     Eigenvalues ---    0.16180   0.22000   0.22000   0.25000   0.25000
     Eigenvalues ---    0.25000   0.25000   0.29414   0.29887   0.30174
     Eigenvalues ---    0.34809   0.34810   0.34810   0.34814   0.34816
     Eigenvalues ---    0.34818   0.34818   0.34819   0.34819   0.34821
     Eigenvalues ---    0.38365   0.38379   0.45972   0.45986   0.58337
     Eigenvalues ---    0.58342   0.91478   0.914921000.000001000.00000
     Eigenvalues --- 1000.000001000.000001000.000001000.000001000.00000
     Eigenvalues --- 1000.000001000.000001000.000001000.000001000.00000
     Eigenvalues --- 1000.000001000.000001000.000001000.000001000.00000
     Eigenvalues --- 1000.000001000.000001000.000001000.000001000.00000
     Eigenvalues --- 1000.000001000.000001000.000001000.000001000.00000
     Eigenvalues --- 1000.000001000.000001000.000001000.000001000.00000
     Eigenvalues --- 1000.000001000.000001000.000001000.000001000.00000
     Eigenvalues --- 1000.000001000.000001000.00000
 RFO step:  Lambda=-1.16120003D-02 EMin= 3.67826363D-03
 Linear search not attempted -- first point.
 Iteration  1 RMS(Cart)=  0.04709889 RMS(Int)=  0.00094570
 Iteration  2 RMS(Cart)=  0.00156493 RMS(Int)=  0.00043128
 Iteration  3 RMS(Cart)=  0.00000123 RMS(Int)=  0.00043128
 Iteration  4 RMS(Cart)=  0.00000000 RMS(Int)=  0.00043128
 Iteration  1 RMS(Cart)=  0.00015416 RMS(Int)=  0.00007931
 Iteration  2 RMS(Cart)=  0.00009337 RMS(Int)=  0.00008775
 Iteration  3 RMS(Cart)=  0.00005828 RMS(Int)=  0.00010071
 Iteration  4 RMS(Cart)=  0.00003730 RMS(Int)=  0.00011141
 Iteration  5 RMS(Cart)=  0.00002432 RMS(Int)=  0.00011917
 Iteration  6 RMS(Cart)=  0.00001606 RMS(Int)=  0.00012457
 Iteration  7 RMS(Cart)=  0.00001069 RMS(Int)=  0.00012827
 Iteration  8 RMS(Cart)=  0.00000715 RMS(Int)=  0.00013077
 Iteration  9 RMS(Cart)=  0.00000480 RMS(Int)=  0.00013246
 Iteration 10 RMS(Cart)=  0.00000322 RMS(Int)=  0.00013359
 Iteration 11 RMS(Cart)=  0.00000217 RMS(Int)=  0.00013436
 Iteration 12 RMS(Cart)=  0.00000146 RMS(Int)=  0.00013487
 Iteration 13 RMS(Cart)=  0.00000098 RMS(Int)=  0.00013522
 Variable       Old X    -DE/DX   Delta X   Delta X   Delta X     New X
                                 (Linear)    (Quad)   (Total)
    R1        2.05984  -0.00861   0.00000  -0.02393  -0.02393   2.03591
    R2        2.05970  -0.00317   0.00000  -0.00881  -0.00881   2.05089
    R3        2.05972  -0.00307   0.00000  -0.00853  -0.00853   2.05119
    R4        2.89146  -0.01024   0.00000  -0.03348  -0.03348   2.85799
    R5        2.32253  -0.04024   0.00000  -0.04343  -0.04343   2.27910
    R6        2.52277   0.01384   0.00000   0.02326   0.02326   2.54603
    R7        1.90863  -0.01402   0.00000  -0.02975  -0.02975   1.87888
    R8        2.73817  -0.00536   0.00000  -0.01356  -0.01356   2.72462
    R9        2.05975  -0.00928   0.00000  -0.02578  -0.02578   2.03397
   R10        2.88188   0.00581   0.00000   0.01871   0.01871   2.90060
   R11        2.87618   0.00202   0.00000   0.00644   0.00644   2.88261
   R12        2.05972  -0.00513   0.00000  -0.01425  -0.01425   2.04547
   R13        2.05984  -0.00361   0.00000  -0.01004  -0.01004   2.04981
   R14        2.05966  -0.00439   0.00000  -0.01219  -0.01219   2.04747
   R15        2.32259  -0.03671   0.00000  -0.03962  -0.03962   2.28297
   R16        2.52281   0.00697   0.00000   0.01171   0.01171   2.53452
   R17        1.90847  -0.01561   0.00000  -0.03312  -0.03312   1.87536
   R18        2.73837   0.00114   0.00000   0.00289   0.00289   2.74126
   R19        2.05970  -0.01016   0.00000  -0.02824  -0.02824   2.03145
   R20        2.05978  -0.00425   0.00000  -0.01182  -0.01182   2.04796
   R21        2.05986  -0.00408   0.00000  -0.01135  -0.01135   2.04851
    A1        1.91110   0.00062   0.00000   0.00148   0.00183   1.91293
    A2        1.91116   0.00042   0.00000   0.00033   0.00071   1.91187
    A3        1.93897  -0.00804   0.00000  -0.04898  -0.04861   1.89036
    A4        1.91027  -0.00462   0.00000  -0.02247  -0.02323   1.88703
    A5        1.89606   0.00564   0.00000   0.03391   0.03369   1.92975
    A6        1.89601   0.00602   0.00000   0.03612   0.03591   1.93192
    A7        2.10308   0.00704   0.00000   0.02690   0.02690   2.12998
    A8        2.03504  -0.00828   0.00000  -0.03164  -0.03164   2.00340
    A9        2.14506   0.00124   0.00000   0.00474   0.00474   2.14980
   A10        2.09433  -0.00135   0.00000  -0.00276  -0.00280   2.09153
   A11        2.12753   0.00680   0.00000   0.02934   0.02931   2.15684
   A12        2.06132  -0.00544   0.00000  -0.02658  -0.02661   2.03471
   A13        1.91114  -0.00338   0.00000  -0.05757  -0.05696   1.85417
   A14        1.93905   0.00373   0.00000   0.01275   0.01317   1.95222
   A15        1.93900  -0.00775   0.00000  -0.05112  -0.05117   1.88783
   A16        1.89609  -0.00043   0.00000   0.02149   0.02017   1.91627
   A17        1.89608   0.00384   0.00000   0.04690   0.04420   1.94028
   A18        1.88137   0.00426   0.00000   0.03139   0.03125   1.91263
   A19        1.91115   0.00319   0.00000   0.01916   0.01899   1.93014
   A20        1.91106   0.00406   0.00000   0.02217   0.02204   1.93310
   A21        1.91110   0.00132   0.00000   0.00860   0.00849   1.91959
   A22        1.91011  -0.00390   0.00000  -0.02458  -0.02476   1.88535
   A23        1.91023  -0.00181   0.00000  -0.00754  -0.00768   1.90256
   A24        1.91015  -0.00287   0.00000  -0.01787  -0.01795   1.89220
   A25        2.10311  -0.00336   0.00000  -0.01286  -0.01290   2.09021
   A26        2.03502  -0.00147   0.00000  -0.00562  -0.00566   2.02935
   A27        2.14506   0.00483   0.00000   0.01848   0.01843   2.16349
   A28        2.09446  -0.00533   0.00000  -0.02524  -0.02527   2.06920
   A29        2.12749   0.00771   0.00000   0.03328   0.03326   2.16075
   A30        2.06124  -0.00238   0.00000  -0.00804  -0.00806   2.05317
   A31        1.91114  -0.00440   0.00000  -0.02808  -0.02792   1.88322
   A32        1.91116   0.00368   0.00000   0.02244   0.02227   1.93342
   A33        1.91103   0.00445   0.00000   0.02739   0.02723   1.93826
   A34        1.91015  -0.00029   0.00000  -0.00458  -0.00445   1.90570
   A35        1.91015  -0.00050   0.00000  -0.00496  -0.00478   1.90537
   A36        1.91018  -0.00294   0.00000  -0.01224  -0.01269   1.89749
    D1        0.00003  -0.00001   0.00000  -0.00058  -0.00060  -0.00057
    D2       -3.14149  -0.00001   0.00000  -0.00057  -0.00058   3.14111
    D3        2.10327  -0.00057   0.00000  -0.00713  -0.00758   2.09568
    D4       -1.03825  -0.00057   0.00000  -0.00712  -0.00757  -1.04582
    D5       -2.10326   0.00056   0.00000   0.00597   0.00643  -2.09683
    D6        1.03841   0.00056   0.00000   0.00598   0.00644   1.04485
    D7       -0.00015   0.00076   0.00000   0.01767   0.01798   0.01783
    D8       -3.14155  -0.00002   0.00000   0.00235   0.00204  -3.13951
    D9        3.14152   0.00076   0.00000   0.01769   0.01800  -3.12367
   D10        0.00011  -0.00002   0.00000   0.00236   0.00206   0.00217
   D11       -0.00008  -0.00032   0.00000  -0.01136  -0.00989  -0.00997
   D12        2.09436  -0.00070   0.00000  -0.01400  -0.01361   2.08075
   D13       -2.09447   0.00199   0.00000   0.00000   0.00000  -2.09447
   D14       -3.14149  -0.00109   0.00000  -0.02642  -0.02535   3.11635
   D15       -1.04705  -0.00147   0.00000  -0.02906  -0.02907  -1.07612
   D16        1.04730   0.00122   0.00000  -0.01505  -0.01547   1.03184
   D17        1.04724  -0.00046   0.00000   0.01117   0.01118   1.05842
   D18        3.14157  -0.00079   0.00000   0.00640   0.00644  -3.13517
   D19       -1.04726  -0.00100   0.00000   0.00338   0.00338  -1.04388
   D20       -3.13259  -0.00261   0.00000  -0.03830  -0.03829   3.11230
   D21       -1.03826  -0.00294   0.00000  -0.04308  -0.04303  -1.08130
   D22        1.05609  -0.00315   0.00000  -0.04610  -0.04609   1.01000
   D23       -1.08102   0.00404   0.00000   0.04600   0.04596  -1.03507
   D24        1.01331   0.00371   0.00000   0.04123   0.04122   1.05452
   D25        3.10766   0.00350   0.00000   0.03821   0.03816  -3.13737
   D26       -1.04715  -0.00296   0.00000  -0.01693  -0.01705  -1.06420
   D27        2.09440  -0.00253   0.00000   0.00000   0.00000   2.09439
   D28        3.13272   0.00353   0.00000   0.05564   0.05694  -3.09353
   D29       -0.00892   0.00397   0.00000   0.07257   0.07399   0.06507
   D30        1.08113  -0.00035   0.00000  -0.01223  -0.01292   1.06822
   D31       -2.06050   0.00008   0.00000   0.00470   0.00413  -2.05637
   D32       -0.00004  -0.00121   0.00000  -0.03676  -0.03696  -0.03700
   D33       -3.14157  -0.00085   0.00000  -0.02397  -0.02425   3.11737
   D34        3.14152  -0.00076   0.00000  -0.01939  -0.01912   3.12240
   D35       -0.00001  -0.00040   0.00000  -0.00660  -0.00641  -0.00642
   D36       -0.00006  -0.00011   0.00000  -0.00565  -0.00569  -0.00575
   D37        2.09437  -0.00091   0.00000  -0.01471  -0.01497   2.07940
   D38       -2.09442   0.00047   0.00000   0.00085   0.00108  -2.09334
   D39        3.14159   0.00025   0.00000   0.00691   0.00692  -3.13468
   D40       -1.04716  -0.00055   0.00000  -0.00216  -0.00237  -1.04953
   D41        1.04724   0.00082   0.00000   0.01341   0.01368   1.06092
         Item               Value     Threshold  Converged?
 Maximum Force            0.040238     0.000450     NO 
 RMS     Force            0.007232     0.000300     NO 
 Maximum Displacement     0.127826     0.001800     NO 
 RMS     Displacement     0.047637     0.001200     NO 
 Predicted change in Energy=-6.189590D-03
 GradGradGradGradGradGradGradGradGradGradGradGradGradGradGradGradGradGrad

                          Input orientation:                          
 ---------------------------------------------------------------------
 Center     Atomic      Atomic             Coordinates (Angstroms)
 Number     Number       Type             X           Y           Z
 ---------------------------------------------------------------------
      1          1           0        1.584422    1.945966    1.687459
      2          6           0        1.793193    2.591261    0.850377
      3          1           0        1.067077    3.397362    0.822065
      4          1           0        1.707592    2.027243   -0.073065
      5          6           0        3.192380    3.142011    1.012401
      6          8           0        3.888390    2.853648    1.954189
      7          7           0        3.590363    3.971555    0.028183
      8          1           0        2.969739    4.187397   -0.718003
      9          6           0        4.887052    4.600875   -0.008647
     10          1           0        5.404510    4.276002    0.877455
     11          6           0        5.684673    4.193479   -1.255177
     12          1           0        5.160908    4.488301   -2.155384
     13          1           0        6.658417    4.671365   -1.261690
     14          1           0        5.830209    3.119891   -1.267137
     15          6           0        4.682328    6.112482   -0.004033
     16          8           0        4.072090    6.637725   -0.904712
     17          7           0        5.227491    6.782298    1.022120
     18          1           0        5.698268    6.267590    1.728019
     19          6           0        5.157987    8.223349    1.173192
     20          1           0        4.613981    8.617690    0.334041
     21          1           0        4.642662    8.489508    2.088658
     22          1           0        6.149468    8.661202    1.192189
 ---------------------------------------------------------------------
                    Distance matrix (angstroms):
                    1          2          3          4          5
     1  H    0.000000
     2  C    1.077357   0.000000
     3  H    1.767230   1.085285   0.000000
     4  H    1.766699   1.085445   1.757482   0.000000
     5  C    2.114652   1.512382   2.149033   2.150707   0.000000
     6  O    2.490643   2.382666   3.088226   3.090079   1.206047
     7  N    3.298486   2.410608   2.706828   2.708400   1.347300
     8  H    3.567824   2.528186   2.572175   2.583646   2.033887
     9  C    4.564283   3.787932   4.090321   4.091051   2.458197
    10  H    4.547334   3.985059   4.425878   4.430306   2.489511
    11  C    5.524715   4.705749   5.125517   4.680507   3.529733
    12  H    5.832852   4.896413   5.178301   4.724220   3.965156
    13  H    6.470758   5.697198   6.101492   5.737150   4.418578
    14  H    5.304191   4.589206   5.208568   4.428957   3.486391
    15  C    5.460588   4.634232   4.596123   5.054008   3.475166
    16  O    5.909352   4.964632   4.744661   5.247765   4.082796
    17  N    6.091365   5.421133   5.367202   6.016616   4.170547
    18  H    5.966725   5.434634   5.523304   6.095076   4.069500
    19  C    7.241572   6.568596   6.336322   7.200703   5.450638
    20  H    7.451299   6.673926   6.330127   7.214349   5.697734
    21  H    7.234067   6.666493   6.349725   7.419472   5.644233
    22  H    8.135067   7.479180   7.326369   8.083350   6.264037
                    6          7          8          9         10
     6  O    0.000000
     7  N    2.246784   0.000000
     8  H    3.124647   0.994261   0.000000
     9  C    2.811201   1.441805   2.085723   0.000000
    10  H    2.341168   2.026100   2.912293   1.076328   0.000000
    11  C    3.914308   2.466252   2.767573   1.534930   2.152538
    12  H    4.602171   2.738905   2.637770   2.167060   3.050004
    13  H    4.617253   3.400951   3.759810   2.170904   2.510883
    14  H    3.770741   2.723985   3.102162   2.160244   2.473274
    15  C    3.883937   2.403537   2.673699   1.525414   2.161302
    16  O    4.746188   2.865452   2.693352   2.369779   3.244873
    17  N    4.253967   3.401231   3.854735   2.436593   2.516701
    18  H    3.870634   3.550279   4.213680   2.540082   2.185446
    19  C    5.572748   4.673996   4.965275   3.820009   3.966079
    20  H    6.031214   4.767380   4.841263   4.040644   4.446402
    21  H    5.687699   5.075903   5.402238   4.424916   4.449838
    22  H    6.278598   5.467788   5.811578   4.418365   4.459147
                   11         12         13         14         15
    11  C    0.000000
    12  H    1.082414   0.000000
    13  H    1.084710   1.753492   0.000000
    14  H    1.083474   1.763375   1.758702   0.000000
    15  C    2.500526   2.737757   2.750172   3.445092   0.000000
    16  O    2.949167   2.714724   3.268500   3.949365   1.208095
    17  N    3.478086   3.919615   3.423357   4.360870   1.341211
    18  H    3.633398   4.305281   3.522525   4.346996   2.014000
    19  C    4.734366   5.003000   4.560321   5.696698   2.463305
    20  H    4.821373   4.852651   4.722240   5.853954   2.528840
    21  H    5.542823   5.855777   5.465008   6.442392   3.167204
    22  H    5.115289   5.440275   4.711618   6.070941   3.174810
                   16         17         18         19         20
    16  O    0.000000
    17  N    2.251340   0.000000
    18  H    3.116525   0.992396   0.000000
    19  C    2.830382   1.450614   2.103504   0.000000
    20  H    2.397586   2.053901   2.939698   1.074998   0.000000
    21  H    3.565799   2.096209   2.486219   1.083734   1.759527
    22  H    3.578680   2.099820   2.494007   1.084024   1.759554
                   21         22
    21  H    0.000000
    22  H    1.761703   0.000000
 Stoichiometry    C6H12N2O2
 Framework group  C1[X(C6H12N2O2)]
 Deg. of freedom    60
 Full point group                 C1      NOp   1
 Largest Abelian subgroup         C1      NOp   1
 Largest concise Abelian subgroup C1      NOp   1
                         Standard orientation:                         
 ---------------------------------------------------------------------
 Center     Atomic      Atomic             Coordinates (Angstroms)
 Number     Number       Type             X           Y           Z
 ---------------------------------------------------------------------
      1          1           0       -3.949842   -1.354176    0.366324
      2          6           0       -3.205920   -0.752969    0.862135
      3          1           0       -2.807365   -1.295619    1.713328
      4          1           0       -3.662802    0.161005    1.228333
      5          6           0       -2.108262   -0.441188   -0.130457
      6          8           0       -2.141674   -0.840967   -1.267827
      7          7           0       -1.102709    0.311285    0.357259
      8          1           0       -1.118217    0.601398    1.308127
      9          6           0        0.037514    0.721673   -0.423941
     10          1           0       -0.102690    0.301329   -1.404826
     11          6           0        0.141876    2.249821   -0.523356
     12          1           0        0.253775    2.688474    0.459844
     13          1           0        1.000928    2.538537   -1.119401
     14          1           0       -0.749315    2.652258   -0.989980
     15          6           0        1.293502    0.165445    0.239379
     16          8           0        1.572416    0.495936    1.367419
     17          7           0        2.039479   -0.664938   -0.504146
     18          1           0        1.725700   -0.895758   -1.416897
     19          6           0        3.279337   -1.263580   -0.047355
     20          1           0        3.465405   -0.915798    0.952669
     21          1           0        3.204540   -2.344707   -0.040358
     22          1           0        4.108267   -0.976335   -0.684124
 ---------------------------------------------------------------------
 Rotational constants (GHZ):      2.0937755      0.7356733      0.6746999
 Standard basis: 6-31G(d) (6D, 7F)
 There are   174 symmetry adapted basis functions of A   symmetry.
 Integral buffers will be    131072 words long.
 Raffenetti 1 integral format.
 Two-electron integral symmetry is turned on.
   174 basis functions,   328 primitive gaussians,   174 cartesian basis functions
    39 alpha electrons       39 beta electrons
       nuclear repulsion energy       554.4281004228 Hartrees.
 NAtoms=   22 NActive=   22 NUniq=   22 SFac= 7.50D-01 NAtFMM=   80 NAOKFM=F Big=F
 One-electron integrals computed using PRISM.
 NBasis=   174 RedAO= T  NBF=   174
 NBsUse=   174 1.00D-06 NBFU=   174
 Initial guess read from the read-write file.
 B after Tr=     0.000000    0.000000    0.000000
         Rot=    1.000000    0.000000    0.000000    0.000000 Ang=   0.00 deg.
 Initial guess orbital symmetries:
       Occupied  (A) (A) (A) (A) (A) (A) (A) (A) (A) (A) (A) (A)
                 (A) (A) (A) (A) (A) (A) (A) (A) (A) (A) (A) (A)
                 (A) (A) (A) (A) (A) (A) (A) (A) (A) (A) (A) (A)
                 (A) (A) (A)
       Virtual   (A) (A) (A) (A) (A) (A) (A) (A) (A) (A) (A) (A)
                 (A) (A) (A) (A) (A) (A) (A) (A) (A) (A) (A) (A)
                 (A) (A) (A) (A) (A) (A) (A) (A) (A) (A) (A) (A)
                 (A) (A) (A) (A) (A) (A) (A) (A) (A) (A) (A) (A)
                 (A) (A) (A) (A) (A) (A) (A) (A) (A) (A) (A) (A)
                 (A) (A) (A) (A) (A) (A) (A) (A) (A) (A) (A) (A)
                 (A) (A) (A) (A) (A) (A) (A) (A) (A) (A) (A) (A)
                 (A) (A) (A) (A) (A) (A) (A) (A) (A) (A) (A) (A)
                 (A) (A) (A) (A) (A) (A) (A) (A) (A) (A) (A) (A)
                 (A) (A) (A) (A) (A) (A) (A) (A) (A) (A) (A) (A)
                 (A) (A) (A) (A) (A) (A) (A) (A) (A) (A) (A) (A)
                 (A) (A) (A)
 Harris functional with IExCor=  205 diagonalized for initial guess.
 ExpMin= 1.61D-01 ExpMax= 5.48D+03 ExpMxC= 8.25D+02 IAcc=1 IRadAn=         1 AccDes= 0.00D+00
 HarFok:  IExCor=  205 AccDes= 0.00D+00 IRadAn=         1 IDoV= 1
 ScaDFX=  1.000000  1.000000  1.000000  1.000000
 FoFCou: FMM=F IPFlag=           0 FMFlag=      100000 FMFlg1=           0
         NFxFlg=           0 DoJE=T BraDBF=F KetDBF=T FulRan=T
         Omega=  0.000000  0.000000  1.000000  0.000000  0.000000 ICntrl=     500 IOpCl=  0
         NMat0=    1 NMatS0=    1 NMatT0=    0 NMatD0=    1 NMtDS0=    0 NMtDT0=    0
         I1Cent=           4 NGrid=           0.
 Petite list used in FoFCou.
 Requested convergence on RMS density matrix=1.00D-08 within 128 cycles.
 Requested convergence on MAX density matrix=1.00D-06.
 Requested convergence on             energy=1.00D-06.
 No special actions if energy rises.
 Integral accuracy reduced to 1.0D-05 until final iterations.
 Initial convergence to 1.0D-05 achieved.  Increase integral accuracy.
 SCF Done:  E(RHF) =  -492.858126727     A.U. after   13 cycles
             Convg  =    0.8195D-08             -V/T =  2.0015
 Calling FoFJK, ICntrl=      2127 FMM=F ISym2X=0 I1Cent= 0 IOpClX= 0 NMat=1 NMatS=1 NMatT=0.
 ***** Axes restored to original set *****
 -------------------------------------------------------------------
 Center     Atomic                   Forces (Hartrees/Bohr)
 Number     Number              X              Y              Z
 -------------------------------------------------------------------
      1        1          -0.001328754   -0.001193881    0.000941504
      2        6           0.000259577    0.000528989   -0.000694603
      3        1          -0.000125892   -0.000188691   -0.000067291
      4        1          -0.000106740    0.000126163    0.000132740
      5        6           0.001671356   -0.005157595    0.009451520
      6        8          -0.003109568    0.002244156   -0.005392284
      7        7           0.001120977    0.000928993   -0.005792004
      8        1          -0.001854000    0.000932718   -0.000092043
      9        6           0.004400593    0.000469700   -0.001874744
     10        1           0.001112133   -0.000449130    0.001419784
     11        6          -0.001701593    0.000181695    0.002703188
     12        1          -0.000552933    0.000362140   -0.000194661
     13        1           0.000503311    0.000463396    0.000248651
     14        1          -0.000189461   -0.000323488    0.000508210
     15        6          -0.002432838    0.002832589   -0.008717543
     16        8           0.001097265   -0.002050285    0.004973691
     17        7           0.003011843    0.004640633    0.003234427
     18        1          -0.000037838   -0.001818093    0.001049969
     19        6          -0.000793347   -0.003027789   -0.000327256
     20        1          -0.001063235    0.001548128   -0.001435729
     21        1          -0.000349432   -0.000249121    0.000182176
     22        1           0.000468576   -0.000801227   -0.000257701
 -------------------------------------------------------------------
 Cartesian Forces:  Max     0.009451520 RMS     0.002546212

 GradGradGradGradGradGradGradGradGradGradGradGradGradGradGradGradGradGrad
 Berny optimization.
 Using GEDIIS/GDIIS optimizer.
 Internal  Forces:  Max     0.006541882 RMS     0.001431292
 Search for a local minimum.
 Step number   2 out of a maximum of  108
 All quantities printed in internal units (Hartrees-Bohrs-Radians)
 Mixed Optimization -- RFO/linear search
 Update second derivatives using D2CorX and points    1    2
 DE= -5.81D-03 DEPred=-6.19D-03 R= 9.38D-01
 SS=  1.41D+00  RLast= 2.47D-01 DXNew= 5.0454D-01 7.4117D-01
 Trust test= 9.38D-01 RLast= 2.47D-01 DXMaxT set to 5.05D-01
 Use linear search instead of GDIIS.
     Eigenvalues ---    0.00368   0.00435   0.01011   0.01043   0.01255
     Eigenvalues ---    0.01425   0.01650   0.02552   0.02557   0.03659
     Eigenvalues ---    0.05167   0.05649   0.05694   0.06029   0.07156
     Eigenvalues ---    0.07339   0.07459   0.07767   0.14902   0.15767
     Eigenvalues ---    0.15999   0.16000   0.16000   0.16000   0.16000
     Eigenvalues ---    0.16000   0.16000   0.16000   0.16000   0.16300
     Eigenvalues ---    0.16875   0.21949   0.22404   0.24746   0.24997
     Eigenvalues ---    0.25000   0.25235   0.29438   0.30141   0.30452
     Eigenvalues ---    0.34751   0.34810   0.34811   0.34812   0.34815
     Eigenvalues ---    0.34817   0.34818   0.34819   0.34821   0.35796
     Eigenvalues ---    0.38355   0.39293   0.45978   0.46966   0.56582
     Eigenvalues ---    0.58343   0.83792   0.914951000.000001000.00000
     Eigenvalues --- 1000.000001000.000001000.000001000.000001000.00000
     Eigenvalues --- 1000.000001000.000001000.000001000.000001000.00000
     Eigenvalues --- 1000.000001000.000001000.000001000.000001000.00000
     Eigenvalues --- 1000.000001000.000001000.000001000.000001000.00000
     Eigenvalues --- 1000.000001000.000001000.000001000.000001000.00000
     Eigenvalues --- 1000.000001000.000001000.000001000.000001000.00000
     Eigenvalues --- 1000.000001000.000001000.000001000.000001000.00000
     Eigenvalues --- 1000.000001000.000001000.00000
 RFO step:  Lambda=-8.08614682D-04 EMin= 3.67828431D-03
 Quartic linear search produced a step of -0.00698.
 Iteration  1 RMS(Cart)=  0.03051187 RMS(Int)=  0.00060139
 Iteration  2 RMS(Cart)=  0.00091201 RMS(Int)=  0.00016340
 Iteration  3 RMS(Cart)=  0.00000051 RMS(Int)=  0.00016340
 Iteration  1 RMS(Cart)=  0.00000911 RMS(Int)=  0.00000262
 Iteration  2 RMS(Cart)=  0.00000490 RMS(Int)=  0.00000292
 Iteration  3 RMS(Cart)=  0.00000266 RMS(Int)=  0.00000331
 Iteration  4 RMS(Cart)=  0.00000146 RMS(Int)=  0.00000360
 Iteration  5 RMS(Cart)=  0.00000082 RMS(Int)=  0.00000378
 Variable       Old X    -DE/DX   Delta X   Delta X   Delta X     New X
                                 (Linear)    (Quad)   (Total)
    R1        2.03591   0.00170   0.00017   0.00307   0.00323   2.03914
    R2        2.05089  -0.00005   0.00006  -0.00081  -0.00075   2.05014
    R3        2.05119  -0.00017   0.00006  -0.00112  -0.00106   2.05014
    R4        2.85799   0.00144   0.00023   0.00234   0.00257   2.86056
    R5        2.27910  -0.00654   0.00030  -0.01032  -0.01001   2.26909
    R6        2.54603   0.00624  -0.00016   0.01234   0.01218   2.55820
    R7        1.87888   0.00143   0.00021   0.00087   0.00108   1.87996
    R8        2.72462   0.00386   0.00009   0.00896   0.00905   2.73367
    R9        2.03397   0.00184   0.00018   0.00331   0.00349   2.03746
   R10        2.90060  -0.00384  -0.00013  -0.01133  -0.01146   2.88913
   R11        2.88261   0.00107  -0.00004   0.00400   0.00396   2.88657
   R12        2.04547   0.00053   0.00010   0.00044   0.00054   2.04601
   R13        2.04981   0.00065   0.00007   0.00112   0.00119   2.05099
   R14        2.04747   0.00029   0.00009  -0.00008   0.00000   2.04747
   R15        2.28297  -0.00515   0.00028  -0.00853  -0.00825   2.27471
   R16        2.53452   0.00252  -0.00008   0.00515   0.00507   2.53959
   R17        1.87536   0.00167   0.00023   0.00114   0.00137   1.87673
   R18        2.74126  -0.00262  -0.00002  -0.00655  -0.00657   2.73469
   R19        2.03145   0.00223   0.00020   0.00423   0.00443   2.03588
   R20        2.04796   0.00026   0.00008  -0.00014  -0.00006   2.04790
   R21        2.04851   0.00010   0.00008  -0.00056  -0.00048   2.04803
    A1        1.91293  -0.00065  -0.00001  -0.00283  -0.00286   1.91007
    A2        1.91187  -0.00056   0.00000  -0.00245  -0.00247   1.90940
    A3        1.89036   0.00159   0.00034   0.00719   0.00751   1.89787
    A4        1.88703  -0.00024   0.00016  -0.00517  -0.00500   1.88203
    A5        1.92975   0.00002  -0.00024   0.00213   0.00189   1.93164
    A6        1.93192  -0.00018  -0.00025   0.00100   0.00075   1.93267
    A7        2.12998   0.00091  -0.00019   0.00561   0.00542   2.13540
    A8        2.00340   0.00042   0.00022  -0.00070  -0.00048   2.00293
    A9        2.14980  -0.00133  -0.00003  -0.00491  -0.00494   2.14486
   A10        2.09153  -0.00058   0.00002  -0.00412  -0.00428   2.08725
   A11        2.15684  -0.00015  -0.00020   0.00140   0.00101   2.15785
   A12        2.03471   0.00073   0.00019   0.00224   0.00224   2.03695
   A13        1.85417   0.00061   0.00040   0.00091   0.00132   1.85549
   A14        1.95222  -0.00058  -0.00009  -0.00274  -0.00284   1.94938
   A15        1.88783  -0.00027   0.00036  -0.00641  -0.00604   1.88179
   A16        1.91627  -0.00029  -0.00014  -0.00083  -0.00097   1.91530
   A17        1.94028   0.00001  -0.00031   0.00512   0.00484   1.94512
   A18        1.91263   0.00052  -0.00022   0.00381   0.00357   1.91620
   A19        1.93014  -0.00043  -0.00013  -0.00122  -0.00136   1.92878
   A20        1.93310  -0.00024  -0.00015   0.00018   0.00003   1.93313
   A21        1.91959  -0.00063  -0.00006  -0.00330  -0.00336   1.91622
   A22        1.88535   0.00036   0.00017   0.00043   0.00060   1.88595
   A23        1.90256   0.00055   0.00005   0.00277   0.00282   1.90537
   A24        1.89220   0.00044   0.00013   0.00132   0.00144   1.89364
   A25        2.09021   0.00103   0.00009   0.00346   0.00264   2.09285
   A26        2.02935  -0.00104   0.00004  -0.00414  -0.00500   2.02435
   A27        2.16349   0.00002  -0.00013   0.00189   0.00086   2.16434
   A28        2.06920  -0.00008   0.00018  -0.00400  -0.00391   2.06528
   A29        2.16075  -0.00179  -0.00023  -0.00563  -0.00595   2.15480
   A30        2.05317   0.00187   0.00006   0.00936   0.00932   2.06250
   A31        1.88322   0.00147   0.00019   0.00780   0.00800   1.89121
   A32        1.93342  -0.00041  -0.00016  -0.00098  -0.00114   1.93228
   A33        1.93826  -0.00153  -0.00019  -0.00810  -0.00829   1.92998
   A34        1.90570  -0.00029   0.00003  -0.00077  -0.00074   1.90496
   A35        1.90537   0.00002   0.00003  -0.00006  -0.00001   1.90536
   A36        1.89749   0.00075   0.00009   0.00218   0.00226   1.89975
    D1       -0.00057  -0.00003   0.00000  -0.00153  -0.00154  -0.00210
    D2        3.14111   0.00003   0.00000   0.00287   0.00288  -3.13919
    D3        2.09568   0.00018   0.00005   0.00078   0.00083   2.09652
    D4       -1.04582   0.00024   0.00005   0.00518   0.00525  -1.04057
    D5       -2.09683  -0.00023  -0.00004  -0.00365  -0.00371  -2.10053
    D6        1.04485  -0.00017  -0.00004   0.00076   0.00071   1.04557
    D7        0.01783   0.00035  -0.00013   0.01969   0.01953   0.03736
    D8       -3.13951  -0.00027  -0.00001  -0.01759  -0.01755   3.12612
    D9       -3.12367   0.00041  -0.00013   0.02415   0.02397  -3.09970
   D10        0.00217  -0.00021  -0.00001  -0.01313  -0.01311  -0.01094
   D11       -0.00997   0.00029   0.00007   0.00318   0.00325  -0.00671
   D12        2.08075  -0.00002   0.00010   0.00120   0.00130   2.08205
   D13       -2.09447   0.00009   0.00000   0.00000   0.00001  -2.09447
   D14        3.11635  -0.00032   0.00018  -0.03304  -0.03289   3.08346
   D15       -1.07612  -0.00063   0.00020  -0.03502  -0.03485  -1.11097
   D16        1.03184  -0.00052   0.00011  -0.03622  -0.03614   0.99570
   D17        1.05842  -0.00021  -0.00008  -0.00366  -0.00374   1.05468
   D18       -3.13517  -0.00019  -0.00004  -0.00380  -0.00385  -3.13903
   D19       -1.04388  -0.00020  -0.00002  -0.00418  -0.00421  -1.04809
   D20        3.11230   0.00000   0.00027  -0.00475  -0.00448   3.10782
   D21       -1.08130   0.00001   0.00030  -0.00489  -0.00459  -1.08588
   D22        1.01000   0.00000   0.00032  -0.00526  -0.00494   1.00506
   D23       -1.03507   0.00016  -0.00032   0.00358   0.00327  -1.03180
   D24        1.05452   0.00017  -0.00029   0.00344   0.00316   1.05768
   D25       -3.13737   0.00016  -0.00027   0.00307   0.00280  -3.13456
   D26       -1.06420   0.00118   0.00012   0.07588   0.07601  -0.98820
   D27        2.09439   0.00022   0.00000   0.00000   0.00000   2.09440
   D28       -3.09353   0.00060  -0.00040   0.07572   0.07533  -3.01820
   D29        0.06507  -0.00036  -0.00052  -0.00015  -0.00068   0.06440
   D30        1.06822   0.00062   0.00009   0.07084   0.07093   1.13914
   D31       -2.05637  -0.00035  -0.00003  -0.00504  -0.00507  -2.06145
   D32       -0.03700   0.00022   0.00026   0.02229   0.02257  -0.01443
   D33        3.11737   0.00064   0.00017   0.04786   0.04794  -3.11787
   D34        3.12240  -0.00080   0.00013  -0.05714  -0.05692   3.06547
   D35       -0.00642  -0.00038   0.00004  -0.03157  -0.03155  -0.03797
   D36       -0.00575  -0.00031   0.00004  -0.01439  -0.01440  -0.02015
   D37        2.07940   0.00000   0.00010  -0.01108  -0.01101   2.06838
   D38       -2.09334  -0.00035  -0.00001  -0.01443  -0.01446  -2.10780
   D39       -3.13468   0.00012  -0.00005   0.01105   0.01103  -3.12365
   D40       -1.04953   0.00043   0.00002   0.01436   0.01441  -1.03512
   D41        1.06092   0.00008  -0.00010   0.01101   0.01096   1.07188
         Item               Value     Threshold  Converged?
 Maximum Force            0.006542     0.000450     NO 
 RMS     Force            0.001446     0.000300     NO 
 Maximum Displacement     0.095358     0.001800     NO 
 RMS     Displacement     0.030533     0.001200     NO 
 Predicted change in Energy=-4.170862D-04
 GradGradGradGradGradGradGradGradGradGradGradGradGradGradGradGradGradGrad

                          Input orientation:                          
 ---------------------------------------------------------------------
 Center     Atomic      Atomic             Coordinates (Angstroms)
 Number     Number       Type             X           Y           Z
 ---------------------------------------------------------------------
      1          1           0        1.564315    1.976874    1.694924
      2          6           0        1.787800    2.619019    0.857014
      3          1           0        1.075662    3.436979    0.828957
      4          1           0        1.684775    2.057040   -0.065234
      5          6           0        3.199264    3.144260    1.009697
      6          8           0        3.896646    2.850833    1.942089
      7          7           0        3.606858    3.971092    0.018316
      8          1           0        2.975912    4.209706   -0.712887
      9          6           0        4.910970    4.596056   -0.018441
     10          1           0        5.427864    4.270645    0.870037
     11          6           0        5.702585    4.179256   -1.258219
     12          1           0        5.177442    4.470288   -2.159199
     13          1           0        6.678386    4.654280   -1.269263
     14          1           0        5.843211    3.104948   -1.259664
     15          6           0        4.704103    6.109489   -0.021563
     16          8           0        4.031992    6.621689   -0.878813
     17          7           0        5.249302    6.780458    1.007326
     18          1           0        5.734386    6.263629    1.702934
     19          6           0        5.128287    8.212149    1.179999
     20          1           0        4.563520    8.607259    0.351994
     21          1           0        4.613144    8.444479    2.104694
     22          1           0        6.106775    8.677771    1.197802
 ---------------------------------------------------------------------
                    Distance matrix (angstroms):
                    1          2          3          4          5
     1  H    0.000000
     2  C    1.079069   0.000000
     3  H    1.766519   1.084890   0.000000
     4  H    1.766096   1.084885   1.753519   0.000000
     5  C    2.122589   1.513744   2.151288   2.152022   0.000000
     6  O    2.502930   2.382931   3.088784   3.090603   1.200748
     7  N    3.310575   2.416711   2.710972   2.713850   1.353743
     8  H    3.574311   2.531104   2.566192   2.592385   2.037733
     9  C    4.582121   3.798591   4.095257   4.105743   2.468748
    10  H    4.568242   3.997262   4.431518   4.448089   2.500981
    11  C    5.540471   4.715304   5.129883   4.697852   3.532885
    12  H    5.841752   4.900450   5.178938   4.733622   3.964018
    13  H    6.489117   5.707993   6.105315   5.755996   4.424716
    14  H    5.320817   4.600306   5.215564   4.451670   3.484537
    15  C    5.466544   4.632505   4.585988   5.053770   3.481469
    16  O    5.855583   4.906206   4.668912   5.196861   4.043812
    17  N    6.093138   5.414994   5.350695   6.013893   4.174278
    18  H    5.980453   5.438226   5.518831   6.100914   4.078956
    19  C    7.200395   6.522751   6.272898   7.161965   5.425277
    20  H    7.400047   6.619569   6.254954   7.167051   5.669050
    21  H    7.161925   6.593576   6.262295   7.354135   5.593782
    22  H    8.110677   7.448366   7.274204   8.061229   6.253699
                    6          7          8          9         10
     6  O    0.000000
     7  N    2.244964   0.000000
     8  H    3.121408   0.994830   0.000000
     9  C    2.813954   1.446595   2.091882   0.000000
    10  H    2.347295   2.032541   2.919149   1.078177   0.000000
    11  C    3.907441   2.462711   2.780838   1.528864   2.147859
    12  H    4.591693   2.730842   2.646971   2.160942   3.046119
    13  H    4.615549   3.399837   3.770347   2.166035   2.507506
    14  H    3.755651   2.717483   3.121035   2.152467   2.463126
    15  C    3.889314   2.403805   2.659653   1.527509   2.167978
    16  O    4.711175   2.830414   2.638276   2.369817   3.245665
    17  N    4.259743   3.401219   3.838775   2.436858   2.519899
    18  H    3.883511   3.552469   4.202853   2.534156   2.181664
    19  C    5.553506   4.653043   4.922935   3.815706   3.965006
    20  H    6.009124   4.745586   4.795096   4.043228   4.452155
    21  H    5.641692   5.037536   5.343462   4.405310   4.428209
    22  H    6.276292   5.458351   5.780713   4.423753   4.471142
                   11         12         13         14         15
    11  C    0.000000
    12  H    1.082701   0.000000
    13  H    1.085338   1.754615   0.000000
    14  H    1.083474   1.765380   1.760125   0.000000
    15  C    2.500416   2.735054   2.751760   3.443506   0.000000
    16  O    2.983338   2.753175   3.320625   3.974045   1.203727
    17  N    3.479139   3.920322   3.427210   4.359053   1.343894
    18  H    3.621332   4.294454   3.509288   4.331986   2.014729
    19  C    4.747520   5.015395   4.589131   5.704961   2.458630
    20  H    4.847418   4.878271   4.767303   5.874563   2.529459
    21  H    5.539692   5.856057   5.478541   6.429818   3.159338
    22  H    5.141210   5.462237   4.754117   6.096308   3.170238
                   16         17         18         19         20
    16  O    0.000000
    17  N    2.250459   0.000000
    18  H    3.113161   0.993122   0.000000
    19  C    2.823142   1.447135   2.106549   0.000000
    20  H    2.395808   2.058388   2.947638   1.077342   0.000000
    21  H    3.544236   2.092338   2.484894   1.083702   1.760942
[...]
     19          6           0        5.122150    8.194602    1.176685
     20          1           0        5.261740    8.701774    0.233460
     21          1           0        4.133555    8.434735    1.552656
     22          1           0        5.862907    8.547934    1.881468
 ---------------------------------------------------------------------
                    Distance matrix (angstroms):
                    1          2          3          4          5
     1  H    0.000000
     2  C    1.079801   0.000000
     3  H    1.768585   1.085109   0.000000
     4  H    1.765021   1.085419   1.755556   0.000000
     5  C    2.126501   1.515160   2.158300   2.145195   0.000000
     6  O    2.522223   2.401707   3.149429   3.061712   1.220824
     7  N    3.314908   2.419349   2.674879   2.750801   1.359989
     8  H    3.573554   2.535184   2.478711   2.689229   2.044209
     9  C    4.586545   3.801580   4.067661   4.136468   2.472636
    10  H    4.573140   3.999568   4.423857   4.457232   2.502876
    11  C    5.569750   4.722781   5.086586   4.732394   3.535066
    12  H    5.873446   4.911937   5.123649   4.790311   3.970254
    13  H    6.512759   5.713662   6.066909   5.786606   4.425191
    14  H    5.367078   4.606544   5.171137   4.465251   3.482149
    15  C    5.440466   4.629182   4.555345   5.100539   3.484138
    16  O    5.878880   4.954059   4.677082   5.308127   4.092499
    17  N    6.058026   5.413801   5.343334   6.053417   4.181573
    18  H    5.879588   5.375587   5.451313   6.078007   4.036026
    19  C    7.118351   6.484502   6.223637   7.174285   5.407837
    20  H    7.762880   7.023046   6.723026   7.600661   5.982236
    21  H    6.879664   6.288762   5.875318   7.050317   5.408304
    22  H    7.779525   7.239180   7.048005   7.979681   6.082776
                    6          7          8          9         10
     6  O    0.000000
     7  N    2.270253   0.000000
     8  H    3.146720   0.995749   0.000000
     9  C    2.830254   1.448189   2.092575   0.000000
    10  H    2.355920   2.035354   2.918554   1.078786   0.000000
    11  C    3.907439   2.464283   2.818880   1.527943   2.147917
    12  H    4.599604   2.733720   2.691865   2.160430   3.046741
    13  H    4.611202   3.401557   3.799528   2.165243   2.504481
    14  H    3.741630   2.716426   3.173178   2.151731   2.466108
    15  C    3.914738   2.403122   2.623495   1.527426   2.163491
    16  O    4.780056   2.867579   2.638318   2.385343   3.258799
    17  N    4.291344   3.407144   3.800439   2.444180   2.521438
    18  H    3.862651   3.531394   4.142271   2.555589   2.199176
    19  C    5.575667   4.631086   4.837555   3.810479   3.966593
    20  H    6.281168   5.014259   5.073100   4.131522   4.483514
    21  H    5.664254   4.745534   4.844676   4.235011   4.443955
    22  H    6.058379   5.428806   5.756980   4.503771   4.438515
                   11         12         13         14         15
    11  C    0.000000
    12  H    1.083267   0.000000
    13  H    1.085775   1.756648   0.000000
    14  H    1.083706   1.764780   1.761189   0.000000
    15  C    2.504430   2.739750   2.758240   3.446424   0.000000
    16  O    2.978615   2.743418   3.304768   3.974486   1.215386
    17  N    3.487614   3.928305   3.436522   4.368142   1.347702
    18  H    3.681590   4.346642   3.597806   4.389040   2.021795
    19  C    4.751887   5.010207   4.608910   5.711233   2.442165
    20  H    4.788442   4.862183   4.557187   5.829002   2.664066
    21  H    5.349260   5.526942   5.386557   6.280713   2.867944
    22  H    5.415192   5.804356   5.124461   6.321302   3.303808
                   16         17         18         19         20
    16  O    0.000000
    17  N    2.256302   0.000000
    18  H    3.122217   0.993489   0.000000
    19  C    2.784755   1.447806   2.111502   0.000000
    20  H    2.626272   2.077241   2.912321   1.079991   0.000000
    21  H    3.014300   2.106388   2.704782   1.084591   1.756242
    22  H    3.808882   2.067815   2.315944   1.081797   1.760966
                   21         22
    21  H    0.000000
    22  H    1.763970   0.000000
 Stoichiometry    C6H12N2O2
 Framework group  C1[X(C6H12N2O2)]
 Deg. of freedom    60
 Full point group                 C1      NOp   1
 Largest Abelian subgroup         C1      NOp   1
 Largest concise Abelian subgroup C1      NOp   1
                         Standard orientation:                         
 ---------------------------------------------------------------------
 Center     Atomic      Atomic             Coordinates (Angstroms)
 Number     Number       Type             X           Y           Z
 ---------------------------------------------------------------------
      1          1           0       -3.868882   -1.501049    0.388058
      2          6           0       -3.167464   -0.833730    0.866251
      3          1           0       -2.725317   -1.326696    1.725873
      4          1           0       -3.695808    0.045964    1.219981
      5          6           0       -2.106873   -0.433615   -0.139117
      6          8           0       -2.175678   -0.739218   -1.319069
      7          7           0       -1.089710    0.305809    0.378766
      8          1           0       -1.041790    0.455811    1.361985
      9          6           0        0.041365    0.762156   -0.402044
     10          1           0       -0.107498    0.385991   -1.402104
     11          6           0        0.131093    2.287179   -0.431483
     12          1           0        0.252646    2.679495    0.570905
     13          1           0        0.979364    2.610936   -1.026904
     14          1           0       -0.772195    2.699453   -0.865671
     15          6           0        1.304730    0.173825    0.223101
     16          8           0        1.596336    0.427056    1.375491
     17          7           0        2.048149   -0.623014   -0.569790
     18          1           0        1.681626   -0.891819   -1.453207
     19          6           0        3.231299   -1.296635   -0.077315
     20          1           0        3.841008   -0.600146    0.479048
     21          1           0        2.979690   -2.127824    0.572420
     22          1           0        3.797917   -1.667455   -0.920951
 ---------------------------------------------------------------------
 Rotational constants (GHZ):      2.0538254      0.7384402      0.6773113

 **********************************************************************

            Population analysis using the SCF density.

 **********************************************************************

 Orbital symmetries:
       Occupied  (A) (A) (A) (A) (A) (A) (A) (A) (A) (A) (A) (A)
                 (A) (A) (A) (A) (A) (A) (A) (A) (A) (A) (A) (A)
                 (A) (A) (A) (A) (A) (A) (A) (A) (A) (A) (A) (A)
                 (A) (A) (A)
       Virtual   (A) (A) (A) (A) (A) (A) (A) (A) (A) (A) (A) (A)
                 (A) (A) (A) (A) (A) (A) (A) (A) (A) (A) (A) (A)
                 (A) (A) (A) (A) (A) (A) (A) (A) (A) (A) (A) (A)
                 (A) (A) (A) (A) (A) (A) (A) (A) (A) (A) (A) (A)
                 (A) (A) (A) (A) (A) (A) (A) (A) (A) (A) (A) (A)
                 (A) (A) (A) (A) (A) (A) (A) (A) (A) (A) (A) (A)
                 (A) (A) (A) (A) (A) (A) (A) (A) (A) (A) (A) (A)
                 (A) (A) (A) (A) (A) (A) (A) (A) (A) (A) (A) (A)
                 (A) (A) (A) (A) (A) (A) (A) (A) (A) (A) (A) (A)
                 (A) (A) (A) (A) (A) (A) (A) (A) (A) (A) (A) (A)
                 (A) (A) (A) (A) (A) (A) (A) (A) (A) (A) (A) (A)
                 (A) (A) (A)
 The electronic state is 1-A.
 Alpha  occ. eigenvalues --  -20.52625 -20.52368 -15.59466 -15.58841 -11.35430
 Alpha  occ. eigenvalues --  -11.34900 -11.27951 -11.26180 -11.23428 -11.22325
 Alpha  occ. eigenvalues --   -1.38966  -1.37769  -1.24126  -1.23597  -1.05748
 Alpha  occ. eigenvalues --   -0.99358  -0.96535  -0.87846  -0.80293  -0.79229
 Alpha  occ. eigenvalues --   -0.73193  -0.67195  -0.65816  -0.64437  -0.62545
 Alpha  occ. eigenvalues --   -0.62111  -0.60042  -0.58382  -0.57603  -0.56637
 Alpha  occ. eigenvalues --   -0.55760  -0.53776  -0.52279  -0.51720  -0.50364
 Alpha  occ. eigenvalues --   -0.43030  -0.41906  -0.39608  -0.38323
 Alpha virt. eigenvalues --    0.18642   0.20742   0.21910   0.22987   0.26440
 Alpha virt. eigenvalues --    0.26992   0.28799   0.30410   0.30817   0.31773
 Alpha virt. eigenvalues --    0.32513   0.33440   0.33815   0.34503   0.37748
 Alpha virt. eigenvalues --    0.39247   0.41157   0.42147   0.46103   0.49334
 Alpha virt. eigenvalues --    0.51664   0.56996   0.63213   0.70908   0.72129
 Alpha virt. eigenvalues --    0.73643   0.74048   0.75829   0.76741   0.77633
 Alpha virt. eigenvalues --    0.80767   0.81940   0.83473   0.86314   0.89001
 Alpha virt. eigenvalues --    0.89854   0.94529   0.95793   0.96882   0.99319
 Alpha virt. eigenvalues --    1.01809   1.02972   1.04734   1.06989   1.08709
 Alpha virt. eigenvalues --    1.09179   1.12221   1.13204   1.13917   1.15549
 Alpha virt. eigenvalues --    1.17212   1.17619   1.18955   1.19614   1.20728
 Alpha virt. eigenvalues --    1.21215   1.22139   1.22859   1.23827   1.24748
 Alpha virt. eigenvalues --    1.29349   1.34766   1.35530   1.37228   1.39903
 Alpha virt. eigenvalues --    1.44174   1.46657   1.52423   1.56644   1.59770
 Alpha virt. eigenvalues --    1.64750   1.66429   1.72188   1.74445   1.76370
 Alpha virt. eigenvalues --    1.79543   1.84456   1.86663   1.88432   1.94433
 Alpha virt. eigenvalues --    1.99703   2.03211   2.06276   2.10691   2.10908
 Alpha virt. eigenvalues --    2.15285   2.16834   2.18755   2.19706   2.22013
 Alpha virt. eigenvalues --    2.24657   2.27139   2.29099   2.33355   2.34848
 Alpha virt. eigenvalues --    2.37252   2.39995   2.40959   2.45259   2.48252
 Alpha virt. eigenvalues --    2.52176   2.54183   2.57367   2.59475   2.61517
 Alpha virt. eigenvalues --    2.64714   2.67550   2.70437   2.73503   2.76256
 Alpha virt. eigenvalues --    2.79755   2.83371   2.86084   2.95823   2.97451
 Alpha virt. eigenvalues --    3.02905   3.03189   3.05337   3.11304   3.25354
 Alpha virt. eigenvalues --    3.28999   3.35638   3.38910   3.52167   3.55480
 Alpha virt. eigenvalues --    4.37747   4.42401   4.47905   4.60175   4.63082
 Alpha virt. eigenvalues --    4.66834   4.73827   4.80495   4.90812   5.09118
          Condensed to atoms (all electrons):
              1          2          3          4          5          6
     1  H    0.460166   0.384555  -0.018951  -0.017581  -0.033433   0.003964
     2  C    0.384555   5.269636   0.374514   0.375403   0.371884  -0.069652
     3  H   -0.018951   0.374514   0.508869  -0.025109  -0.031531   0.001513
     4  H   -0.017581   0.375403  -0.025109   0.498506  -0.029313   0.000851
     5  C   -0.033433   0.371884  -0.031531  -0.029313   4.152329   0.607608
     6  O    0.003964  -0.069652   0.001513   0.000851   0.607608   8.169178
     7  N    0.004474  -0.124208   0.003148   0.001932   0.255534  -0.102750
     8  H    0.000001  -0.001133   0.000659   0.000232  -0.016240   0.002031
     9  C   -0.000083   0.004494  -0.000199  -0.000225  -0.023445  -0.000691
    10  H   -0.000006   0.000636  -0.000027  -0.000023  -0.000934   0.012977
    11  C    0.000001  -0.000160  -0.000003   0.000033   0.000574  -0.000019
    12  H    0.000000  -0.000008   0.000000   0.000001  -0.000039  -0.000013
    13  H    0.000000   0.000002   0.000000   0.000000  -0.000034  -0.000006
    14  H    0.000000  -0.000011   0.000000  -0.000003   0.000385   0.000162
    15  C    0.000002  -0.000085   0.000017  -0.000002   0.000978   0.000495
    16  O    0.000000  -0.000014  -0.000002   0.000000   0.000281  -0.000002
    17  N    0.000000  -0.000005   0.000001   0.000000   0.000189  -0.000097
    18  H    0.000000   0.000001   0.000000   0.000000   0.000037   0.000029
    19  C    0.000000   0.000000   0.000000   0.000000  -0.000009   0.000000
    20  H    0.000000   0.000000   0.000000   0.000000   0.000000   0.000000
    21  H    0.000000   0.000000   0.000000   0.000000   0.000000   0.000000
    22  H    0.000000   0.000000   0.000000   0.000000   0.000000   0.000000
              7          8          9         10         11         12
     1  H    0.004474   0.000001  -0.000083  -0.000006   0.000001   0.000000
     2  C   -0.124208  -0.001133   0.004494   0.000636  -0.000160  -0.000008
     3  H    0.003148   0.000659  -0.000199  -0.000027  -0.000003   0.000000
     4  H    0.001932   0.000232  -0.000225  -0.000023   0.000033   0.000001
     5  C    0.255534  -0.016240  -0.023445  -0.000934   0.000574  -0.000039
     6  O   -0.102750   0.002031  -0.000691   0.012977  -0.000019  -0.000013
     7  N    7.410108   0.318727   0.186273  -0.039313  -0.066915  -0.001693
     8  H    0.318727   0.308302  -0.025633   0.003057   0.000077   0.001824
     9  C    0.186273  -0.025633   5.086808   0.404323   0.350245  -0.034861
    10  H   -0.039313   0.003057   0.404323   0.454114  -0.031305   0.003364
    11  C   -0.066915   0.000077   0.350245  -0.031305   5.119656   0.390443
    12  H   -0.001693   0.001824  -0.034861   0.003364   0.390443   0.500243
    13  H    0.004560  -0.000038  -0.037588  -0.000598   0.385086  -0.023507
    14  H   -0.000719  -0.000170  -0.037147  -0.003377   0.392074  -0.024937
    15  C   -0.055498  -0.002315   0.354726  -0.045621  -0.058592  -0.005518
    16  O   -0.000874   0.008751  -0.082561   0.002366   0.001325   0.005148
    17  N    0.001566   0.000400  -0.093183   0.005430   0.000435   0.000406
    18  H   -0.000083  -0.000023   0.000315   0.002257   0.000136  -0.000007
    19  C   -0.000194  -0.000007   0.004990  -0.000042  -0.000206  -0.000004
    20  H   -0.000010  -0.000003   0.000090  -0.000012   0.000032  -0.000001
    21  H    0.000042   0.000004  -0.000237   0.000006  -0.000008   0.000000
    22  H    0.000000   0.000000  -0.000011  -0.000021   0.000004   0.000000
             13         14         15         16         17         18
     1  H    0.000000   0.000000   0.000002   0.000000   0.000000   0.000000
     2  C    0.000002  -0.000011  -0.000085  -0.000014  -0.000005   0.000001
     3  H    0.000000   0.000000   0.000017  -0.000002   0.000001   0.000000
     4  H    0.000000  -0.000003  -0.000002   0.000000   0.000000   0.000000
     5  C   -0.000034   0.000385   0.000978   0.000281   0.000189   0.000037
     6  O   -0.000006   0.000162   0.000495  -0.000002  -0.000097   0.000029
     7  N    0.004560  -0.000719  -0.055498  -0.000874   0.001566  -0.000083
     8  H   -0.000038  -0.000170  -0.002315   0.008751   0.000400  -0.000023
     9  C   -0.037588  -0.037147   0.354726  -0.082561  -0.093183   0.000315
    10  H   -0.000598  -0.003377  -0.045621   0.002366   0.005430   0.002257
    11  C    0.385086   0.392074  -0.058592   0.001325   0.000435   0.000136
    12  H   -0.023507  -0.024937  -0.005518   0.005148   0.000406  -0.000007
    13  H    0.526518  -0.023300  -0.001178  -0.000070   0.000685  -0.000023
    14  H   -0.023300   0.509436   0.005021  -0.000002  -0.000091  -0.000007
    15  C   -0.001178   0.005021   4.209642   0.581233   0.285997  -0.018239
    16  O   -0.000070  -0.000002   0.581233   8.213342  -0.101371   0.002379
    17  N    0.000685  -0.000091   0.285997  -0.101371   7.294590   0.325275
    18  H   -0.000023  -0.000007  -0.018239   0.002379   0.325275   0.315337
    19  C   -0.000017   0.000003  -0.033107   0.007387   0.197221  -0.022503
    20  H   -0.000007   0.000000  -0.002876   0.003889  -0.038892   0.002552
    21  H    0.000001   0.000000  -0.002751   0.001103  -0.046648   0.001109
    22  H   -0.000001   0.000000   0.004426   0.000338  -0.037829  -0.004225
             19         20         21         22
     1  H    0.000000   0.000000   0.000000   0.000000
     2  C    0.000000   0.000000   0.000000   0.000000
     3  H    0.000000   0.000000   0.000000   0.000000
     4  H    0.000000   0.000000   0.000000   0.000000
     5  C   -0.000009   0.000000   0.000000   0.000000
     6  O    0.000000   0.000000   0.000000   0.000000
     7  N   -0.000194  -0.000010   0.000042   0.000000
     8  H   -0.000007  -0.000003   0.000004   0.000000
     9  C    0.004990   0.000090  -0.000237  -0.000011
    10  H   -0.000042  -0.000012   0.000006  -0.000021
    11  C   -0.000206   0.000032  -0.000008   0.000004
    12  H   -0.000004  -0.000001   0.000000   0.000000
    13  H   -0.000017  -0.000007   0.000001  -0.000001
    14  H    0.000003   0.000000   0.000000   0.000000
    15  C   -0.033107  -0.002876  -0.002751   0.004426
    16  O    0.007387   0.003889   0.001103   0.000338
    17  N    0.197221  -0.038892  -0.046648  -0.037829
    18  H   -0.022503   0.002552   0.001109  -0.004225
    19  C    4.916099   0.403258   0.405709   0.397412
    20  H    0.403258   0.481865  -0.031978  -0.024217
    21  H    0.405709  -0.031978   0.525233  -0.032132
    22  H    0.397412  -0.024217  -0.032132   0.524543
 Mulliken atomic charges:
              1
     1  H    0.216891
     2  C   -0.585849
     3  H    0.187100
     4  H    0.195297
     5  C    0.745178
     6  O   -0.625577
     7  N   -0.794107
     8  H    0.401495
     9  C   -0.056402
    10  H    0.232746
    11  C   -0.482916
    12  H    0.189159
    13  H    0.169517
    14  H    0.182683
    15  C    0.783244
    16  O   -0.642646
    17  N   -0.794079
    18  H    0.395683
    19  C   -0.275988
    20  H    0.206310
    21  H    0.180547
    22  H    0.171713
 Sum of Mulliken atomic charges =   0.00000
 Mulliken charges with hydrogens summed into heavy atoms:
              1
     2  C    0.013440
     5  C    0.745178
     6  O   -0.625577
     7  N   -0.392612
     9  C    0.176344
    11  C    0.058443
    15  C    0.783244
    16  O   -0.642646
    17  N   -0.398396
    19  C    0.282581
 Sum of Mulliken charges with hydrogens summed into heavy atoms =   0.00000
 Electronic spatial extent (au):  <R**2>=           1858.0505
 Charge=              0.0000 electrons
 Dipole moment (field-independent basis, Debye):
    X=              0.6947    Y=             -0.3087    Z=              0.0524  Tot=              0.7620
 Quadrupole moment (field-independent basis, Debye-Ang):
   XX=            -57.6245   YY=            -58.5125   ZZ=            -64.9253
   XY=             -5.8970   XZ=            -14.7113   YZ=             -2.8332
 Traceless Quadrupole moment (field-independent basis, Debye-Ang):
   XX=              2.7296   YY=              1.8416   ZZ=             -4.5712
   XY=             -5.8970   XZ=            -14.7113   YZ=             -2.8332
 Octapole moment (field-independent basis, Debye-Ang**2):
  XXX=             10.1905  YYY=             -2.8351  ZZZ=             -1.8954  XYY=              4.9216
  XXY=            -11.8183  XXZ=             10.2017  XZZ=              2.8099  YZZ=             -1.1114
  YYZ=              0.5425  XYZ=              5.8676
 Hexadecapole moment (field-independent basis, Debye-Ang**3):
 XXXX=          -1513.4263 YYYY=           -502.3797 ZZZZ=           -290.3945 XXXY=            -32.3421
 XXXZ=            -44.5916 YYYX=             -2.1390 YYYZ=              3.7525 ZZZX=            -28.9781
 ZZZY=              4.5324 XXYY=           -336.7029 XXZZ=           -344.4755 YYZZ=           -129.2208
 XXYZ=             -8.6924 YYXZ=             -5.3553 ZZXY=            -17.8011
 N-N= 5.531881212729D+02 E-N=-2.261627299922D+03  KE= 4.919692995983D+02


 THERE ARE TWO THINGS THAT EVERYBODY THINKS THEY CAN DO BETTER THAN
 ANYONE ELSE - PUNCH THE FIRE, AND EDIT A DAILY PAPER.
 -- UNCLE ESEK, "CENTURY MAGAZINE", 1885
 Error termination request processed by link 9999.
 Error termination via Lnk1e in /home/steboss/Software/g09/l9999.exe at Sat Feb 11 16:54:26 2017.
 Job cpu time:  0 days  1 hours 49 minutes 15.2 seconds.
 File lengths (MBytes):  RWF=     25 Int=      0 D2E=      0 Chk=      3 Scr=      1
