 Entering Gaussian System, Link 0=g09
 Initial command:
 /home/steboss/Software/g09/l1.exe /tmp/Gau-2598.inp -scrdir=/tmp/
 Entering Link 1 = /home/steboss/Software/g09/l1.exe PID=      2600.
  
 Copyright (c) 1988,1990,1992,1993,1995,1998,2003,2009, Gaussian, Inc.
                  All Rights Reserved.
  
 This is part of the Gaussian(R) 09 program.  It is based on
 the Gaussian(R) 03 system (copyright 2003, Gaussian, Inc.),
 the Gaussian(R) 98 system (copyright 1998, Gaussian, Inc.),
 the Gaussian(R) 94 system (copyright 1995, Gaussian, Inc.),
 the Gaussian 92(TM) system (copyright 1992, Gaussian, Inc.),
 the Gaussian 90(TM) system (copyright 1990, Gaussian, Inc.),
 the Gaussian 88(TM) system (copyright 1988, Gaussian, Inc.),
 the Gaussian 86(TM) system (copyright 1986, Carnegie Mellon
 University), and the Gaussian 82(TM) system (copyright 1983,
 Carnegie Mellon University). Gaussian is a federally registered
 trademark of Gaussian, Inc.
  
 This software contains proprietary and confidential information,
 including trade secrets, belonging to Gaussian, Inc.
  
 This software is provided under written license and may be
 used, copied, transmitted, or stored only in accord with that
 written license.
  
 The following legend is applicable only to US Government
 contracts under FAR:
  
                    RESTRICTED RIGHTS LEGEND
  
 Use, reproduction and disclosure by the US Government is
 subject to restrictions as set forth in subparagraphs (a)
 and (c) of the Commercial Computer Software - Restricted
 Rights clause in FAR 52.227-19.
  
 Gaussian, Inc.
 340 Quinnipiac St., Bldg. 40, Wallingford CT 06492
  
  
 ---------------------------------------------------------------
 Warning -- This program may not be used in any manner that
 competes with the business of Gaussian, Inc. or will provide
 assistance to any competitor of Gaussian, Inc.  The licensee
 of this program is prohibited from giving any competitor of
 Gaussian, Inc. access to this program.  By using this program,
 the user acknowledges that Gaussian, Inc. is engaged in the
 business of creating and licensing software in the field of
 computational chemistry and represents and warrants to the
 licensee that it is not a competitor of Gaussian, Inc. and that
 it will not use this program in any manner prohibited above.
 ---------------------------------------------------------------
  

 Cite this work as:
 Gaussian 09, Revision A.02,
 M. J. Frisch, G. W. Trucks, H. B. Schlegel, G. E. Scuseria, 
 M. A. Robb, J. R. Cheeseman, G. Scalmani, V. Barone, B. Mennucci, 
 G. A. Petersson, H. Nakatsuji, M. Caricato, X. Li, H. P. Hratchian, 
 A. F. Izmaylov, J. Bloino, G. Zheng, J. L. Sonnenberg, M. Hada, 
 M. Ehara, K. Toyota, R. Fukuda, J. Hasegawa, M. Ishida, T. Nakajima, 
 Y. Honda, O. Kitao, H. Nakai, T. Vreven, J. A. Montgomery, Jr., 
 J. E. Peralta, F. Ogliaro, M. Bearpark, J. J. Heyd, E. Brothers, 
 K. N. Kudin, V. N. Staroverov, R. Kobayashi, J. Normand, 
 K. Raghavachari, A. Rendell, J. C. Burant, S. S. Iyengar, J. Tomasi, 
 M. Cossi, N. Rega, J. M. Millam, M. Klene, J. E. Knox, J. B. Cross, 
 V. Bakken, C. Adamo, J. Jaramillo, R. Gomperts, R. E. Stratmann, 
 O. Yazyev, A. J. Austin, R. Cammi, C. Pomelli, J. W. Ochterski, 
 R. L. Martin, K. Morokuma, V. G. Zakrzewski, G. A. Voth, 
 P. Salvador, J. J. Dannenberg, S. Dapprich, A. D. Daniels, 
 O. Farkas, J. B. Foresman, J. V. Ortiz, J. Cioslowski, 
 and D. J. Fox, Gaussian, Inc., Wallingford CT, 2009.
 
 ******************************************
 Gaussian 09:  EM64L-G09RevA.02 11-Jun-2009
                27-Dec-2016 
 ******************************************
 %chk=structure_300.chk
 -------------------------------------------------------------------
 # HF/6-31G* Opt=(ModRedundant, maxcycles=1000, calcfc) geom=nocrowd
 -------------------------------------------------------------------
 1/6=1000,10=4,18=120,19=15,38=1/1,3;
 2/9=110,12=1,17=6,18=5,40=1/2;
 3/5=1,6=6,7=1,11=9,16=1,25=1,30=1,71=2/1,2,3;
 4//1;
 5/5=2,38=5/2;
 8/6=4,10=90,11=11/1;
 11/6=1,8=1,9=11,15=111,16=1/1,2,10;
 10/6=1,7=6,13=1/2;
 6/7=2,8=2,9=2,10=2,28=1/1;
 7/10=1,18=20,25=1/1,2,3,16;
 1/6=1000,10=4,18=20,19=15/3(2);
 2/9=110,12=1/2;
 99//99;
 2/9=110,12=1/2;
 3/5=1,6=6,7=1,11=9,16=1,25=1,30=1,71=1/1,2,3;
 4/5=5,16=3/1;
 5/5=2,38=5/2;
 7//1,2,3,16;
 1/6=1000,18=20,19=15/3(-5);
 2/9=110,12=1/2;
 6/7=2,8=2,9=2,10=2,19=2,28=1/1;
 99/9=1/99;
 ------------------
 Phi Psi fixed scan
 ------------------
 Symbolic Z-matrix:
 Charge =  0 Multiplicity = 1
 H                     9.1768    1.        1.923 
 C                     9.1768    2.09      1.923 
 H                     10.0666   2.4538    1.4093 
 H                     9.1768    2.4538    2.9505 
 C                     7.9406    2.6408    1.2093 
 O                     7.1065    1.8774    0.7277 
 N                     7.8298    3.9696    1.1453 
 H                     8.5419    4.5561    1.5565 
 C                     6.7058    4.6139    0.4964 
 H                     6.6707    4.3155   -0.5514 
 C                     5.39      4.2208    1.1594 
 H                     5.4064    4.5213    2.2071 
 H                     4.5638    4.7189    0.652 
 H                     5.2578    3.1409    1.0938 
 C                     6.8276    6.1294    0.5667 
 O                     7.7906    6.6527    1.1227 
 N                     5.846     6.8349    0. 
 H                     5.0745    6.3592   -0.4455 
 C                     5.8461    8.2839    0. 
 H                     5.3323    8.6477   -0.8898 
 C                     5.1347    8.8329    1.2322 
 H                     5.6431    8.4846    2.1312 
 H                     5.1499    9.9224    1.2058 
 H                     4.1019    8.4846    1.2414 
 C                     7.266     8.8318    0. 
 O                     7.6573    9.5503   -0.9171 
 N                     8.0386    8.4902    1.0338 
 H                     7.6716    7.8967    1.764 
 C                     9.4087    8.9471    1.1497 
 H                     9.9824    8.5986    0.2909 
 C                     9.4775    10.4699   1.1962 
 H                     8.9152    10.8334   2.0563 
 H                     10.5174   10.7846   1.2833 
 H                     9.0492    10.8815   0.2824 
 C                     10.059    8.4131    2.418 
 O                     9.4267    7.693     3.1875 
 N                     11.3274   8.7685    2.6346 
 H                     11.8055   9.3628    1.9725 
 C                     12.0574   8.3257    3.8053 
 H                     11.413    7.6969    4.4196 
 H                     12.932    7.7544    3.4942 
 H                     12.3772   9.1923    4.3841 
 
 The following ModRedundant input section has been read:
 D   15   17   19   25 F                                                       
 D   17   19   25   27 F                                                       

 GradGradGradGradGradGradGradGradGradGradGradGradGradGradGradGradGradGrad
 Berny optimization.
 Initialization pass.
                           ----------------------------
                           !    Initial Parameters    !
                           ! (Angstroms and Degrees)  !
 --------------------------                            --------------------------
 ! Name  Definition              Value          Derivative Info.                !
 --------------------------------------------------------------------------------
 ! R1    R(1,2)                  1.09           calculate D2E/DX2 analytically  !
 ! R2    R(2,3)                  1.0899         calculate D2E/DX2 analytically  !
 ! R3    R(2,4)                  1.09           calculate D2E/DX2 analytically  !
 ! R4    R(2,5)                  1.53           calculate D2E/DX2 analytically  !
 ! R5    R(5,6)                  1.229          calculate D2E/DX2 analytically  !
 ! R6    R(5,7)                  1.3349         calculate D2E/DX2 analytically  !
 ! R7    R(7,8)                  1.01           calculate D2E/DX2 analytically  !
 ! R8    R(7,9)                  1.449          calculate D2E/DX2 analytically  !
 ! R9    R(9,10)                 1.09           calculate D2E/DX2 analytically  !
 ! R10   R(9,11)                 1.5249         calculate D2E/DX2 analytically  !
 ! R11   R(9,15)                 1.522          calculate D2E/DX2 analytically  !
 ! R12   R(11,12)                1.0901         calculate D2E/DX2 analytically  !
 ! R13   R(11,13)                1.09           calculate D2E/DX2 analytically  !
 ! R14   R(11,14)                1.0899         calculate D2E/DX2 analytically  !
 ! R15   R(15,16)                1.229          calculate D2E/DX2 analytically  !
 ! R16   R(15,17)                1.3351         calculate D2E/DX2 analytically  !
 ! R17   R(16,28)                1.4046         calculate D2E/DX2 analytically  !
 ! R18   R(17,18)                1.0099         calculate D2E/DX2 analytically  !
 ! R19   R(17,19)                1.449          calculate D2E/DX2 analytically  !
 ! R20   R(19,20)                1.09           calculate D2E/DX2 analytically  !
 ! R21   R(19,21)                1.5251         calculate D2E/DX2 analytically  !
 ! R22   R(19,25)                1.5219         calculate D2E/DX2 analytically  !
 ! R23   R(21,22)                1.0899         calculate D2E/DX2 analytically  !
 ! R24   R(21,23)                1.0899         calculate D2E/DX2 analytically  !
 ! R25   R(21,24)                1.09           calculate D2E/DX2 analytically  !
 ! R26   R(25,26)                1.229          calculate D2E/DX2 analytically  !
 ! R27   R(25,27)                1.335          calculate D2E/DX2 analytically  !
 ! R28   R(27,28)                1.01           calculate D2E/DX2 analytically  !
 ! R29   R(27,29)                1.4489         calculate D2E/DX2 analytically  !
 ! R30   R(29,30)                1.09           calculate D2E/DX2 analytically  !
 ! R31   R(29,31)                1.5251         calculate D2E/DX2 analytically  !
 ! R32   R(29,35)                1.522          calculate D2E/DX2 analytically  !
 ! R33   R(31,32)                1.09           calculate D2E/DX2 analytically  !
 ! R34   R(31,33)                1.09           calculate D2E/DX2 analytically  !
 ! R35   R(31,34)                1.0899         calculate D2E/DX2 analytically  !
 ! R36   R(35,36)                1.229          calculate D2E/DX2 analytically  !
 ! R37   R(35,37)                1.3349         calculate D2E/DX2 analytically  !
 ! R38   R(37,38)                1.01           calculate D2E/DX2 analytically  !
 ! R39   R(37,39)                1.449          calculate D2E/DX2 analytically  !
 ! R40   R(39,40)                1.09           calculate D2E/DX2 analytically  !
 ! R41   R(39,41)                1.09           calculate D2E/DX2 analytically  !
 ! R42   R(39,42)                1.0901         calculate D2E/DX2 analytically  !
 ! A1    A(1,2,3)              109.4982         calculate D2E/DX2 analytically  !
 ! A2    A(1,2,4)              109.4972         calculate D2E/DX2 analytically  !
 ! A3    A(1,2,5)              111.1            calculate D2E/DX2 analytically  !
 ! A4    A(3,2,4)              109.4437         calculate D2E/DX2 analytically  !
 ! A5    A(3,2,5)              108.6383         calculate D2E/DX2 analytically  !
 ! A6    A(4,2,5)              108.6367         calculate D2E/DX2 analytically  !
 ! A7    A(2,5,6)              120.4994         calculate D2E/DX2 analytically  !
 ! A8    A(2,5,7)              116.6003         calculate D2E/DX2 analytically  !
 ! A9    A(6,5,7)              122.9003         calculate D2E/DX2 analytically  !
 ! A10   A(5,7,8)              119.9979         calculate D2E/DX2 analytically  !
 ! A11   A(5,7,9)              121.9015         calculate D2E/DX2 analytically  !
 ! A12   A(8,7,9)              118.1005         calculate D2E/DX2 analytically  !
 ! A13   A(7,9,10)             109.4955         calculate D2E/DX2 analytically  !
 ! A14   A(7,9,11)             111.1003         calculate D2E/DX2 analytically  !
 ! A15   A(7,9,15)             111.0996         calculate D2E/DX2 analytically  !
 ! A16   A(10,9,11)            108.6373         calculate D2E/DX2 analytically  !
 ! A17   A(10,9,15)            108.6363         calculate D2E/DX2 analytically  !
 ! A18   A(11,9,15)            107.7971         calculate D2E/DX2 analytically  !
 ! A19   A(9,11,12)            109.5014         calculate D2E/DX2 analytically  !
 ! A20   A(9,11,13)            109.5016         calculate D2E/DX2 analytically  !
 ! A21   A(9,11,14)            109.5055         calculate D2E/DX2 analytically  !
 ! A22   A(12,11,13)           109.4408         calculate D2E/DX2 analytically  !
 ! A23   A(12,11,14)           109.4391         calculate D2E/DX2 analytically  !
 ! A24   A(13,11,14)           109.4389         calculate D2E/DX2 analytically  !
 ! A25   A(9,15,16)            120.5033         calculate D2E/DX2 analytically  !
 ! A26   A(9,15,17)            116.5982         calculate D2E/DX2 analytically  !
 ! A27   A(16,15,17)           122.8984         calculate D2E/DX2 analytically  !
 ! A28   A(15,17,18)           119.9997         calculate D2E/DX2 analytically  !
 ! A29   A(15,17,19)           121.8964         calculate D2E/DX2 analytically  !
 ! A30   A(18,17,19)           118.1039         calculate D2E/DX2 analytically  !
 ! A31   A(17,19,20)           109.4954         calculate D2E/DX2 analytically  !
 ! A32   A(17,19,21)           111.0974         calculate D2E/DX2 analytically  !
 ! A33   A(17,19,25)           111.1042         calculate D2E/DX2 analytically  !
 ! A34   A(20,19,21)           108.6349         calculate D2E/DX2 analytically  !
 ! A35   A(20,19,25)           108.6399         calculate D2E/DX2 analytically  !
 ! A36   A(21,19,25)           107.7944         calculate D2E/DX2 analytically  !
 ! A37   A(19,21,22)           109.4996         calculate D2E/DX2 analytically  !
 ! A38   A(19,21,23)           109.4977         calculate D2E/DX2 analytically  !
 ! A39   A(19,21,24)           109.4988         calculate D2E/DX2 analytically  !
 ! A40   A(22,21,23)           109.4452         calculate D2E/DX2 analytically  !
 ! A41   A(22,21,24)           109.4447         calculate D2E/DX2 analytically  !
 ! A42   A(23,21,24)           109.4412         calculate D2E/DX2 analytically  !
 ! A43   A(19,25,26)           120.4979         calculate D2E/DX2 analytically  !
 ! A44   A(19,25,27)           116.6021         calculate D2E/DX2 analytically  !
 ! A45   A(26,25,27)           122.8999         calculate D2E/DX2 analytically  !
 ! A46   A(25,27,28)           119.9937         calculate D2E/DX2 analytically  !
 ! A47   A(25,27,29)           121.9029         calculate D2E/DX2 analytically  !
 ! A48   A(28,27,29)           118.1034         calculate D2E/DX2 analytically  !
 ! A49   A(27,29,30)           109.5027         calculate D2E/DX2 analytically  !
 ! A50   A(27,29,31)           111.0983         calculate D2E/DX2 analytically  !
 ! A51   A(27,29,35)           111.1022         calculate D2E/DX2 analytically  !
 ! A52   A(30,29,31)           108.6343         calculate D2E/DX2 analytically  !
 ! A53   A(30,29,35)           108.6318         calculate D2E/DX2 analytically  !
 ! A54   A(31,29,35)           107.7967         calculate D2E/DX2 analytically  !
 ! A55   A(29,31,32)           109.4984         calculate D2E/DX2 analytically  !
 ! A56   A(29,31,33)           109.4981         calculate D2E/DX2 analytically  !
 ! A57   A(29,31,34)           109.4994         calculate D2E/DX2 analytically  !
 ! A58   A(32,31,33)           109.4411         calculate D2E/DX2 analytically  !
 ! A59   A(32,31,34)           109.4464         calculate D2E/DX2 analytically  !
 ! A60   A(33,31,34)           109.444          calculate D2E/DX2 analytically  !
 ! A61   A(29,35,36)           120.4962         calculate D2E/DX2 analytically  !
 ! A62   A(29,35,37)           116.5998         calculate D2E/DX2 analytically  !
 ! A63   A(36,35,37)           122.9039         calculate D2E/DX2 analytically  !
 ! A64   A(35,37,38)           120.0032         calculate D2E/DX2 analytically  !
 ! A65   A(35,37,39)           121.8994         calculate D2E/DX2 analytically  !
 ! A66   A(38,37,39)           118.0974         calculate D2E/DX2 analytically  !
 ! A67   A(37,39,40)           109.4999         calculate D2E/DX2 analytically  !
 ! A68   A(37,39,41)           109.5008         calculate D2E/DX2 analytically  !
 ! A69   A(37,39,42)           109.503          calculate D2E/DX2 analytically  !
 ! A70   A(40,39,41)           109.4432         calculate D2E/DX2 analytically  !
 ! A71   A(40,39,42)           109.4402         calculate D2E/DX2 analytically  !
 ! A72   A(41,39,42)           109.4403         calculate D2E/DX2 analytically  !
 ! D1    D(1,2,5,6)             -0.0022         calculate D2E/DX2 analytically  !
 ! D2    D(1,2,5,7)           -179.9987         calculate D2E/DX2 analytically  !
 ! D3    D(3,2,5,6)            120.5094         calculate D2E/DX2 analytically  !
 ! D4    D(3,2,5,7)            -59.4871         calculate D2E/DX2 analytically  !
 ! D5    D(4,2,5,6)           -120.5114         calculate D2E/DX2 analytically  !
 ! D6    D(4,2,5,7)             59.4921         calculate D2E/DX2 analytically  !
 ! D7    D(2,5,7,8)             -0.0058         calculate D2E/DX2 analytically  !
 ! D8    D(2,5,7,9)           -179.9989         calculate D2E/DX2 analytically  !
 ! D9    D(6,5,7,8)            179.9977         calculate D2E/DX2 analytically  !
 ! D10   D(6,5,7,9)              0.0046         calculate D2E/DX2 analytically  !
 ! D11   D(5,7,9,10)           -60.0034         calculate D2E/DX2 analytically  !
 ! D12   D(5,7,9,11)            59.9958         calculate D2E/DX2 analytically  !
 ! D13   D(5,7,9,15)           179.9991         calculate D2E/DX2 analytically  !
 ! D14   D(8,7,9,10)           120.0034         calculate D2E/DX2 analytically  !
 ! D15   D(8,7,9,11)          -119.9974         calculate D2E/DX2 analytically  !
 ! D16   D(8,7,9,15)             0.0059         calculate D2E/DX2 analytically  !
 ! D17   D(7,9,11,12)           60.0015         calculate D2E/DX2 analytically  !
 ! D18   D(7,9,11,13)         -179.9986         calculate D2E/DX2 analytically  !
 ! D19   D(7,9,11,14)          -59.9987         calculate D2E/DX2 analytically  !
 ! D20   D(10,9,11,12)        -179.4908         calculate D2E/DX2 analytically  !
 ! D21   D(10,9,11,13)         -59.4909         calculate D2E/DX2 analytically  !
 ! D22   D(10,9,11,14)          60.5091         calculate D2E/DX2 analytically  !
 ! D23   D(15,9,11,12)         -61.9448         calculate D2E/DX2 analytically  !
 ! D24   D(15,9,11,13)          58.055          calculate D2E/DX2 analytically  !
 ! D25   D(15,9,11,14)         178.055          calculate D2E/DX2 analytically  !
 ! D26   D(7,9,15,16)           -0.0028         calculate D2E/DX2 analytically  !
 ! D27   D(7,9,15,17)          179.9997         calculate D2E/DX2 analytically  !
 ! D28   D(10,9,15,16)        -120.5094         calculate D2E/DX2 analytically  !
 ! D29   D(10,9,15,17)          59.493          calculate D2E/DX2 analytically  !
 ! D30   D(11,9,15,16)         121.944          calculate D2E/DX2 analytically  !
 ! D31   D(11,9,15,17)         -58.0536         calculate D2E/DX2 analytically  !
 ! D32   D(9,15,17,18)          -0.0061         calculate D2E/DX2 analytically  !
 ! D33   D(9,15,17,19)        -179.9983         calculate D2E/DX2 analytically  !
 ! D34   D(16,15,17,18)        179.9964         calculate D2E/DX2 analytically  !
 ! D35   D(16,15,17,19)          0.0042         calculate D2E/DX2 analytically  !
 ! D36   D(15,17,19,20)        150.0024         calculate D2E/DX2 analytically  !
 ! D37   D(15,17,19,21)        -90.0034         calculate D2E/DX2 analytically  !
 ! D38   D(15,17,19,25)         29.9976         frozen, calculate D2E/DX2 analyt!
 ! D39   D(18,17,19,20)        -29.99           calculate D2E/DX2 analytically  !
 ! D40   D(18,17,19,21)         90.0043         calculate D2E/DX2 analytically  !
 ! D41   D(18,17,19,25)       -149.9948         calculate D2E/DX2 analytically  !
 ! D42   D(17,19,21,22)         60.0039         calculate D2E/DX2 analytically  !
 ! D43   D(17,19,21,23)       -179.9943         calculate D2E/DX2 analytically  !
 ! D44   D(17,19,21,24)        -59.998          calculate D2E/DX2 analytically  !
 ! D45   D(20,19,21,22)       -179.4919         calculate D2E/DX2 analytically  !
 ! D46   D(20,19,21,23)        -59.4901         calculate D2E/DX2 analytically  !
 ! D47   D(20,19,21,24)         60.5062         calculate D2E/DX2 analytically  !
 ! D48   D(25,19,21,22)        -61.9445         calculate D2E/DX2 analytically  !
 ! D49   D(25,19,21,23)         58.0573         calculate D2E/DX2 analytically  !
 ! D50   D(25,19,21,24)        178.0536         calculate D2E/DX2 analytically  !
 ! D51   D(17,19,25,26)        119.9986         calculate D2E/DX2 analytically  !
 ! D52   D(17,19,25,27)        -60.0013         frozen, calculate D2E/DX2 analyt!
 ! D53   D(20,19,25,26)         -0.5131         calculate D2E/DX2 analytically  !
 ! D54   D(20,19,25,27)        179.487          calculate D2E/DX2 analytically  !
 ! D55   D(21,19,25,26)       -118.0573         calculate D2E/DX2 analytically  !
 ! D56   D(21,19,25,27)         61.9428         calculate D2E/DX2 analytically  !
 ! D57   D(19,25,27,28)          0.0016         calculate D2E/DX2 analytically  !
 ! D58   D(19,25,27,29)        179.9976         calculate D2E/DX2 analytically  !
 ! D59   D(26,25,27,28)       -179.9983         calculate D2E/DX2 analytically  !
 ! D60   D(26,25,27,29)         -0.0023         calculate D2E/DX2 analytically  !
 ! D61   D(25,27,29,30)        -59.9983         calculate D2E/DX2 analytically  !
 ! D62   D(25,27,29,31)         60.0005         calculate D2E/DX2 analytically  !
 ! D63   D(25,27,29,35)       -179.9964         calculate D2E/DX2 analytically  !
 ! D64   D(28,27,29,30)        119.9978         calculate D2E/DX2 analytically  !
 ! D65   D(28,27,29,31)       -120.0034         calculate D2E/DX2 analytically  !
 ! D66   D(28,27,29,35)         -0.0003         calculate D2E/DX2 analytically  !
 ! D67   D(27,29,31,32)         60.0037         calculate D2E/DX2 analytically  !
 ! D68   D(27,29,31,33)        179.9999         calculate D2E/DX2 analytically  !
 ! D69   D(27,29,31,34)        -59.9998         calculate D2E/DX2 analytically  !
 ! D70   D(30,29,31,32)       -179.483          calculate D2E/DX2 analytically  !
 ! D71   D(30,29,31,33)        -59.4868         calculate D2E/DX2 analytically  !
 ! D72   D(30,29,31,34)         60.5135         calculate D2E/DX2 analytically  !
 ! D73   D(35,29,31,32)        -61.9443         calculate D2E/DX2 analytically  !
 ! D74   D(35,29,31,33)         58.0519         calculate D2E/DX2 analytically  !
 ! D75   D(35,29,31,34)        178.0522         calculate D2E/DX2 analytically  !
 ! D76   D(27,29,35,36)         -0.0034         calculate D2E/DX2 analytically  !
 ! D77   D(27,29,35,37)       -179.9977         calculate D2E/DX2 analytically  !
 ! D78   D(30,29,35,36)       -120.5175         calculate D2E/DX2 analytically  !
 ! D79   D(30,29,35,37)         59.4881         calculate D2E/DX2 analytically  !
 ! D80   D(31,29,35,36)        121.9422         calculate D2E/DX2 analytically  !
 ! D81   D(31,29,35,37)        -58.0522         calculate D2E/DX2 analytically  !
 ! D82   D(29,35,37,38)          0.0023         calculate D2E/DX2 analytically  !
 ! D83   D(29,35,37,39)        179.9984         calculate D2E/DX2 analytically  !
 ! D84   D(36,35,37,38)       -179.992          calculate D2E/DX2 analytically  !
 ! D85   D(36,35,37,39)          0.0042         calculate D2E/DX2 analytically  !
 ! D86   D(35,37,39,40)         -0.0008         calculate D2E/DX2 analytically  !
 ! D87   D(35,37,39,41)        120.0005         calculate D2E/DX2 analytically  !
 ! D88   D(35,37,39,42)       -119.9998         calculate D2E/DX2 analytically  !
 ! D89   D(38,37,39,40)        179.9955         calculate D2E/DX2 analytically  !
 ! D90   D(38,37,39,41)        -60.0033         calculate D2E/DX2 analytically  !
 ! D91   D(38,37,39,42)         59.9964         calculate D2E/DX2 analytically  !
 --------------------------------------------------------------------------------
 Trust Radius=3.00D-01 FncErr=1.00D-07 GrdErr=1.00D-07
 Number of steps in this run= 252 maximum allowed number of steps= 252.
 GradGradGradGradGradGradGradGradGradGradGradGradGradGradGradGradGradGrad

                          Input orientation:                          
 ---------------------------------------------------------------------
 Center     Atomic      Atomic             Coordinates (Angstroms)
 Number     Number       Type             X           Y           Z
 ---------------------------------------------------------------------
      1          1           0        9.176800    1.000000    1.923000
      2          6           0        9.176800    2.090000    1.923000
      3          1           0       10.066600    2.453800    1.409300
      4          1           0        9.176800    2.453800    2.950500
      5          6           0        7.940600    2.640800    1.209300
      6          8           0        7.106500    1.877400    0.727700
      7          7           0        7.829800    3.969600    1.145300
      8          1           0        8.541900    4.556100    1.556500
      9          6           0        6.705800    4.613900    0.496400
     10          1           0        6.670700    4.315500   -0.551400
     11          6           0        5.390000    4.220800    1.159400
     12          1           0        5.406400    4.521300    2.207100
     13          1           0        4.563800    4.718900    0.652000
     14          1           0        5.257800    3.140900    1.093800
     15          6           0        6.827600    6.129400    0.566700
     16          8           0        7.790600    6.652700    1.122700
     17          7           0        5.846000    6.834900    0.000000
     18          1           0        5.074500    6.359200   -0.445500
     19          6           0        5.846100    8.283900    0.000000
     20          1           0        5.332300    8.647700   -0.889800
     21          6           0        5.134700    8.832900    1.232200
     22          1           0        5.643100    8.484600    2.131200
     23          1           0        5.149900    9.922400    1.205800
     24          1           0        4.101900    8.484600    1.241400
     25          6           0        7.266000    8.831800    0.000000
     26          8           0        7.657300    9.550300   -0.917100
     27          7           0        8.038600    8.490200    1.033800
     28          1           0        7.671600    7.896700    1.764000
     29          6           0        9.408700    8.947100    1.149700
     30          1           0        9.982400    8.598600    0.290900
     31          6           0        9.477500   10.469900    1.196200
     32          1           0        8.915200   10.833400    2.056300
     33          1           0       10.517400   10.784600    1.283300
     34          1           0        9.049200   10.881500    0.282400
     35          6           0       10.059000    8.413100    2.418000
     36          8           0        9.426700    7.693000    3.187500
     37          7           0       11.327400    8.768500    2.634600
     38          1           0       11.805500    9.362800    1.972500
     39          6           0       12.057400    8.325700    3.805300
     40          1           0       11.413000    7.696900    4.419600
     41          1           0       12.932000    7.754400    3.494200
     42          1           0       12.377200    9.192300    4.384100
 ---------------------------------------------------------------------
                    Distance matrix (angstroms):
                    1          2          3          4          5
     1  H    0.000000
     2  C    1.090000   0.000000
     3  H    1.780215   1.089946   0.000000
     4  H    1.780250   1.090003   1.779618   0.000000
     5  C    2.174806   1.530013   2.143559   2.143580   0.000000
     6  O    2.546510   2.400017   3.091764   3.091799   1.229000
     7  N    3.352275   2.439697   2.714889   2.714923   1.334946
     8  H    3.630877   2.572755   2.601162   2.601153   2.037274
     9  C    4.604487   3.809344   4.098097   4.098107   2.434354
    10  H    4.836914   4.166058   4.340784   4.691457   2.741775
    11  C    5.029562   4.411717   5.005530   4.546447   3.000742
    12  H    5.166835   4.495314   5.160281   4.363842   3.309691
    13  H    6.060151   5.459517   5.998749   5.629702   4.003981
    14  H    4.541980   4.141319   4.867875   4.390672   2.731457
    15  C    5.802502   4.865701   4.971029   4.971044   3.717800
    16  O    5.874951   4.835314   4.784671   4.784680   4.015637
    17  N    6.988434   6.107883   6.244488   6.244495   4.841511
    18  H    7.152600   6.376890   6.604051   6.604077   4.977890
    19  C    8.236910   7.290809   7.334086   7.334104   6.139537
    20  H    9.009958   8.105273   8.127967   8.239689   6.876940
    21  C    8.841386   7.891925   8.065229   7.744937   6.798213
    22  H    8.279470   7.308987   7.513923   7.037673   6.346527
    23  H    9.815270   8.836107   8.944011   8.662557   7.798059
    24  H    9.068540   8.192075   8.483890   8.065121   6.991899
    25  C    8.287712   7.266426   7.106924   7.282547   6.343971
    26  O    9.136886   8.125954   7.847113   8.223595   7.234848
    27  N    7.628189   6.561154   6.379021   6.434855   5.852853
    28  H    7.060834   6.000723   5.957096   5.770491   5.291931
    29  C    7.988002   6.904462   6.531705   6.742374   6.475206
    30  H    7.813544   6.758300   6.246317   6.743963   6.364573
    31  C    9.502508   8.416732   8.040542   8.211324   7.978536
    32  H    9.837782   8.748328   8.483044   8.431235   8.293729
    33  H    9.896708   8.820572   8.343939   8.601104   8.542064
    34  H   10.017579   8.944178   8.563360   8.840880   8.366437
    35  C    7.481801   6.403506   6.044071   6.047734   6.266420
    36  O    6.815986   5.749349   5.569622   5.250508   5.625522
    37  N    8.092036   7.052221   6.554877   6.678346   7.144970
    38  H    8.766353   7.733443   7.146695   7.456596   7.791355
    39  C    8.093627   7.122139   6.647053   6.596040   7.483672
    40  H    7.488796   6.532299   6.193932   5.886335   6.922986
    41  H    7.886198   6.975358   6.376024   6.518704   7.502249
    42  H    9.133091   8.169592   7.719824   7.596391   8.525546
                    6          7          8          9         10
     6  O    0.000000
     7  N    2.252744   0.000000
     8  H    3.150034   1.010027   0.000000
     9  C    2.775336   1.448989   2.120947   0.000000
    10  H    2.787535   2.083735   2.828873   1.090027   0.000000
    11  C    2.936709   2.452738   3.194462   1.524935   2.139158
    12  H    3.474071   2.702713   3.202476   2.150235   3.041403
    13  H    3.813814   3.386968   4.082879   2.150209   2.459661
    14  H    2.268954   2.702699   3.605856   2.150191   2.466304
    15  C    4.264178   2.450290   2.528597   1.522011   2.136586
    16  O    4.840197   2.683482   2.269001   2.392854   3.085335
    17  N    5.166741   3.668395   3.857914   2.432799   2.707683
    18  H    5.058849   3.979009   4.391132   2.567954   2.595338
    19  C    6.569733   4.884666   4.856596   3.801894   4.090502
    20  H    7.183387   5.680120   5.746921   4.481026   4.546844
    21  C    7.247172   5.560828   5.477700   4.561767   5.093862
    22  H    6.911327   5.112620   4.915937   4.334077   5.062973
    23  H    8.293304   6.528503   6.358131   5.577118   6.069424
    24  H    7.276441   5.855911   5.936834   4.724155   5.214812
    25  C    6.994188   5.026984   4.725698   4.283797   4.588615
    26  O    7.866520   5.952097   5.642982   5.222201   5.339499
    27  N    6.685180   4.526793   4.000459   4.134109   4.670346
    28  H    6.133941   3.978685   3.458336   3.649158   4.380396
    29  C    7.447071   5.221920   4.494186   5.148698   5.642881
    30  H    7.323669   5.176034   4.474214   5.162962   5.479213
    31  C    8.925928   6.706072   5.998183   6.516500   6.986335
    32  H    9.232904   7.008549   6.308221   6.782103   7.370271
    33  H    9.554116   7.327105   6.539989   7.295550   7.746772
    34  H    9.222049   7.071485   6.472354   6.694784   7.033125
    35  C    7.368157   5.131646   4.233229   5.419448   6.090011
    36  O    6.727195   4.537001   3.644609   4.911840   5.743032
    37  N    8.302983   6.122145   5.163877   6.572046   7.187813
    38  H    8.925320   6.751078   5.824818   7.123051   7.629645
    39  C    8.692733   6.627504   5.623675   7.305197   8.004941
    40  H    8.126663   6.119896   5.128858   6.859601   7.657292
    41  H    8.725199   6.773071   5.766869   7.590462   8.209555
    42  H    9.729198   7.644950   6.648248   8.260795   8.983679
                   11         12         13         14         15
    11  C    0.000000
    12  H    1.090066   0.000000
    13  H    1.090030   1.779707   0.000000
    14  H    1.089938   1.779613   1.779581   0.000000
    15  C    2.461857   2.701242   2.668628   3.416612   0.000000
    16  O    3.417362   3.376862   3.791224   4.329971   1.228962
    17  N    2.895801   3.227582   2.558632   3.897180   1.335072
    18  H    2.692211   3.244121   2.038604   3.572184   2.037331
    19  C    4.249826   4.384266   3.844297   5.290836   2.434412
    20  H    4.878524   5.159792   4.289896   5.853637   3.270955
    21  C    4.619734   4.428786   4.193752   5.695013   3.258483
    22  H    4.380462   3.971087   4.187292   5.457086   3.065562
    23  H    5.706842   5.499116   5.265607   6.783283   4.196424
    24  H    4.454876   4.282761   3.839432   5.469280   3.664919
    25  C    5.111253   5.187467   4.964165   6.133156   2.795766
    26  O    6.152729   6.333879   5.947625   7.133143   3.820029
    27  N    5.025797   4.904822   5.142248   6.029217   2.694082
    28  H    4.368464   4.089107   4.581853   5.375243   2.295477
    29  C    6.203866   6.060050   6.449685   7.137580   3.865411
    30  H    6.403871   6.421524   6.674106   7.263125   4.015691
    31  C    7.467279   7.278847   7.583838   8.457576   5.124274
    32  H    7.547049   7.223367   7.635041   8.571904   5.357667
    33  H    8.330009   8.136624   8.522711   9.280380   5.983229
    34  H    7.650085   7.578034   7.631059   8.657365   5.253455
    35  C    6.399923   6.069372   6.852962   7.252663   4.368586
    36  O    5.697746   5.213797   6.238736   6.518046   4.008586
    37  N    7.623025   7.299295   8.128730   8.419263   5.611529
    38  H    8.261957   8.027680   8.703548   9.075050   6.100052
    39  C    8.264697   7.827101   8.894175   8.970448   6.531697
    40  H    7.680410   7.145547   8.365096   8.348926   6.190944
    41  H    8.649820   8.291213   9.344471   9.270364   6.962369
    42  H    9.161630   8.668888   9.746235   9.906128   7.399457
                   16         17         18         19         20
    16  O    0.000000
    17  N    2.252803   0.000000
    18  H    3.150015   1.009937   0.000000
    19  C    2.775311   1.449000   2.120921   0.000000
    20  H    3.751456   2.083717   2.345441   1.089993   0.000000
    21  C    3.437887   2.452808   2.989564   1.525060   2.139212
    22  H    2.997447   2.702719   3.388217   2.150233   3.041322
    23  H    4.203706   3.386911   3.927960   2.150193   2.459608
    24  H    4.120249   2.702678   2.882518   2.150253   2.466272
    25  C    2.506818   2.450308   3.333901   1.521943   2.136547
    26  O    3.546074   3.390469   4.132358   2.392757   2.494205
    27  N    1.856290   2.935346   3.938956   2.432768   3.324019
    28  H    1.404622   2.751714   3.740418   2.567892   3.616487
    29  C    2.807712   4.298375   5.294070   3.801811   4.567958
    30  H    3.046704   4.506114   5.444693   4.158442   4.797905
    31  C    4.173973   5.275596   6.243352   4.404152   4.985428
    32  H    4.428836   5.443929   6.405345   4.488618   5.127764
    33  H    4.953163   6.250517   7.224824   5.451734   6.014480
    34  H    4.491428   5.168676   6.064592   4.133658   4.492133
    35  C    3.149992   5.107525   6.104374   4.859212   5.773930
    36  O    2.832392   4.870103   5.824033   4.830115   5.856615
    37  N    4.389921   6.381667   7.374992   6.100869   6.955373
    38  H    4.917949   6.767324   7.757235   6.369398   7.113821
    39  C    5.310448   7.435340   8.408170   7.284388   8.208204
    40  H    5.008162   7.160125   8.101557   7.132167   8.128263
    41  H    5.768167   7.954012   8.899895   7.918319   8.818893
    42  H    6.174399   8.211835   9.202224   7.918383   8.817099
                   21         22         23         24         25
    21  C    0.000000
    22  H    1.089947   0.000000
    23  H    1.089926   1.779573   0.000000
    24  H    1.089988   1.779618   1.779562   0.000000
    25  C    2.461861   2.701179   2.668565   3.416599   0.000000
    26  O    3.390821   3.805897   3.306390   4.293682   1.228996
    27  N    2.930775   2.634908   3.228834   3.942174   1.335044
    28  H    2.755929   2.143659   3.282380   3.655338   2.037307
    29  C    4.276321   3.918800   4.369409   5.327705   2.434393
    30  H    4.943798   4.714788   5.093382   5.957913   2.741867
    31  C    4.641226   4.417948   4.362106   5.730666   3.000833
    32  H    4.355838   4.028537   3.966202   5.417451   3.309778
    33  H    5.725836   5.455982   5.436860   6.815453   4.003984
    34  H    4.519092   4.556831   4.120325   5.580375   2.731451
    35  C    5.082429   4.425781   5.276995   6.072606   3.717914
    36  O    4.852199   4.007247   5.214248   5.724284   4.015675
    37  N    6.349835   5.713605   6.444723   7.364065   4.841497
    38  H    6.732638   6.226684   6.722945   7.787888   4.977929
    39  C    7.402829   6.631071   7.551186   8.359953   6.139541
    40  H    7.132115   6.256916   7.382939   8.010843   6.165912
    41  H    8.190097   7.451109   8.396313   9.142153   6.743425
    42  H    7.906798   7.136140   7.928966   8.880202   6.743490
                   26         27         28         29         30
    26  O    0.000000
    27  N    2.252823   0.000000
    28  H    3.150063   1.010012   0.000000
    29  C    2.775412   1.448918   2.120901   0.000000
    30  H    2.787667   2.083749   2.828866   1.090010   0.000000
    31  C    2.936806   2.452757   3.194531   1.525062   2.139218
    32  H    3.474157   2.702688   3.202528   2.150254   3.041362
    33  H    3.813847   3.386882   4.082844   2.150226   2.459609
    34  H    2.268982   2.702634   3.605822   2.150198   2.466286
    35  C    4.264303   2.450300   2.528649   1.522048   2.136547
    36  O    4.840256   2.683426   2.268969   2.392848   3.085321
    37  N    5.166761   3.668272   3.857830   2.432742   2.707549
    38  H    5.058904   3.978960   4.391133   2.567967   2.595279
    39  C    6.569748   4.884570   4.856561   3.801837   4.090368
    40  H    6.783859   4.845569   4.592407   4.033914   4.461596
    41  H    7.106848   5.526331   5.539463   4.396914   4.435532
    42  H    7.106922   5.526383   5.539510   4.396983   4.779313
                   31         32         33         34         35
    31  C    0.000000
    32  H    1.089993   0.000000
    33  H    1.089961   1.779594   0.000000
    34  H    1.089902   1.779604   1.779551   0.000000
    35  C    2.461984   2.701288   2.668649   3.416648   0.000000
    36  O    3.417460   3.376886   3.791252   4.329970   1.229015
    37  N    2.895840   3.227530   2.558666   3.897154   1.334939
    38  H    2.692192   3.243998   2.038557   3.572125   2.037317
    39  C    4.249809   4.384174   3.844252   5.290766   2.434305
    40  H    4.671830   4.654226   4.491366   5.731113   2.520449
    41  H    4.958661   5.261414   4.460996   5.930476   3.137869
    42  H    4.494800   4.483002   3.950853   5.545532   3.137954
                   36         37         38         39         40
    36  O    0.000000
    37  N    2.252789   0.000000
    38  H    3.150103   1.010024   0.000000
    39  C    2.775350   1.448969   2.120893   0.000000
    40  H    2.337407   2.083718   2.986231   1.089957   0.000000
    41  H    3.519228   2.083759   2.484255   1.089996   1.779616
    42  H    3.519262   2.083851   2.484296   1.090081   1.779653
                   41         42
    41  H    0.000000
    42  H    1.779686   0.000000
 Stoichiometry    C12H22N4O4
 Framework group  C1[X(C12H22N4O4)]
 Deg. of freedom   120
 Full point group                 C1      NOp   1
 Largest Abelian subgroup         C1      NOp   1
 Largest concise Abelian subgroup C1      NOp   1
                         Standard orientation:                         
 ---------------------------------------------------------------------
 Center     Atomic      Atomic             Coordinates (Angstroms)
 Number     Number       Type             X           Y           Z
 ---------------------------------------------------------------------
      1          1           0        4.843138    3.412140   -0.410267
      2          6           0        3.837834    3.000674   -0.319936
      3          1           0        3.227522    3.344782   -1.154856
      4          1           0        3.391424    3.333349    0.617162
      5          6           0        3.865614    1.470964   -0.332366
      6          8           0        4.931209    0.867271   -0.434856
      7          7           0        2.688091    0.850868   -0.227478
      8          1           0        1.838523    1.390908   -0.145349
      9          6           0        2.581006   -0.594159   -0.226868
     10          1           0        2.982314   -0.989068   -1.160226
     11          6           0        3.360323   -1.201904    0.934483
     12          1           0        2.964029   -0.822890    1.876578
     13          1           0        3.262292   -2.287243    0.910108
     14          1           0        4.412452   -0.930699    0.848244
     15          6           0        1.130477   -1.036023   -0.095570
     16          8           0        0.230461   -0.203878   -0.006938
     17          7           0        0.905230   -2.351898   -0.083209
     18          1           0        1.678353   -2.997280   -0.158953
     19          6           0       -0.431216   -2.898803    0.036826
     20          1           0       -0.480052   -3.856837   -0.480736
     21          6           0       -0.806516   -3.115185    1.499063
     22          1           0       -0.770964   -2.163141    2.028528
     23          1           0       -1.814151   -3.526300    1.559018
     24          1           0       -0.102990   -3.811052    1.956112
     25          6           0       -1.463482   -1.962403   -0.574641
     26          8           0       -2.172403   -2.338083   -1.505622
     27          7           0       -1.546703   -0.738508   -0.047860
     28          1           0       -0.941918   -0.475942    0.717266
     29          6           0       -2.489065    0.245164   -0.541528
     30          1           0       -2.287877    0.445793   -1.593855
     31          6           0       -3.924090   -0.253016   -0.406114
     32          1           0       -4.143484   -0.449535    0.643330
     33          1           0       -4.609653    0.505301   -0.784231
     34          1           0       -4.046152   -1.171232   -0.980453
     35          6           0       -2.374754    1.550485    0.232874
     36          8           0       -1.558992    1.665213    1.144931
     37          7           0       -3.196628    2.536651   -0.133271
     38          1           0       -3.850730    2.394386   -0.889618
     39          6           0       -3.185476    3.827071    0.525669
     40          1           0       -2.432682    3.826599    1.313898
     41          1           0       -2.949570    4.604608   -0.200883
     42          1           0       -4.165879    4.022182    0.960433
 ---------------------------------------------------------------------
 Rotational constants (GHZ):      0.3976040      0.2276029      0.1576430
 Standard basis: 6-31G(d) (6D, 7F)
 There are   344 symmetry adapted basis functions of A   symmetry.
 Integral buffers will be    131072 words long.
 Raffenetti 1 integral format.
 Two-electron integral symmetry is turned on.
   344 basis functions,   648 primitive gaussians,   344 cartesian basis functions
    77 alpha electrons       77 beta electrons
       nuclear repulsion energy      1713.3947166304 Hartrees.
 NAtoms=   42 NActive=   42 NUniq=   42 SFac= 7.50D-01 NAtFMM=   80 NAOKFM=F Big=F
 One-electron integrals computed using PRISM.
 NBasis=   344 RedAO= T  NBF=   344
 NBsUse=   344 1.00D-06 NBFU=   344
 Harris functional with IExCor=  205 diagonalized for initial guess.
 ExpMin= 1.61D-01 ExpMax= 5.48D+03 ExpMxC= 8.25D+02 IAcc=1 IRadAn=         1 AccDes= 0.00D+00
 HarFok:  IExCor=  205 AccDes= 0.00D+00 IRadAn=         1 IDoV= 1
 ScaDFX=  1.000000  1.000000  1.000000  1.000000
 FoFCou: FMM=F IPFlag=           0 FMFlag=      100000 FMFlg1=           0
         NFxFlg=           0 DoJE=T BraDBF=F KetDBF=T FulRan=T
         Omega=  0.000000  0.000000  1.000000  0.000000  0.000000 ICntrl=     500 IOpCl=  0
         NMat0=    1 NMatS0=    1 NMatT0=    0 NMatD0=    1 NMtDS0=    0 NMtDT0=    0
         I1Cent=           4 NGrid=           0.
 Petite list used in FoFCou.
 Initial guess orbital symmetries:
       Occupied  (A) (A) (A) (A) (A) (A) (A) (A) (A) (A) (A) (A)
                 (A) (A) (A) (A) (A) (A) (A) (A) (A) (A) (A) (A)
                 (A) (A) (A) (A) (A) (A) (A) (A) (A) (A) (A) (A)
                 (A) (A) (A) (A) (A) (A) (A) (A) (A) (A) (A) (A)
                 (A) (A) (A) (A) (A) (A) (A) (A) (A) (A) (A) (A)
                 (A) (A) (A) (A) (A) (A) (A) (A) (A) (A) (A) (A)
                 (A) (A) (A) (A) (A)
       Virtual   (A) (A) (A) (A) (A) (A) (A) (A) (A) (A) (A) (A)
                 (A) (A) (A) (A) (A) (A) (A) (A) (A) (A) (A) (A)
                 (A) (A) (A) (A) (A) (A) (A) (A) (A) (A) (A) (A)
                 (A) (A) (A) (A) (A) (A) (A) (A) (A) (A) (A) (A)
                 (A) (A) (A) (A) (A) (A) (A) (A) (A) (A) (A) (A)
                 (A) (A) (A) (A) (A) (A) (A) (A) (A) (A) (A) (A)
                 (A) (A) (A) (A) (A) (A) (A) (A) (A) (A) (A) (A)
                 (A) (A) (A) (A) (A) (A) (A) (A) (A) (A) (A) (A)
                 (A) (A) (A) (A) (A) (A) (A) (A) (A) (A) (A) (A)
                 (A) (A) (A) (A) (A) (A) (A) (A) (A) (A) (A) (A)
                 (A) (A) (A) (A) (A) (A) (A) (A) (A) (A) (A) (A)
                 (A) (A) (A) (A) (A) (A) (A) (A) (A) (A) (A) (A)
                 (A) (A) (A) (A) (A) (A) (A) (A) (A) (A) (A) (A)
                 (A) (A) (A) (A) (A) (A) (A) (A) (A) (A) (A) (A)
                 (A) (A) (A) (A) (A) (A) (A) (A) (A) (A) (A) (A)
                 (A) (A) (A) (A) (A) (A) (A) (A) (A) (A) (A) (A)
                 (A) (A) (A) (A) (A) (A) (A) (A) (A) (A) (A) (A)
                 (A) (A) (A) (A) (A) (A) (A) (A) (A) (A) (A) (A)
                 (A) (A) (A) (A) (A) (A) (A) (A) (A) (A) (A) (A)
                 (A) (A) (A) (A) (A) (A) (A) (A) (A) (A) (A) (A)
                 (A) (A) (A) (A) (A) (A) (A) (A) (A) (A) (A) (A)
                 (A) (A) (A) (A) (A) (A) (A) (A) (A) (A) (A) (A)
                 (A) (A) (A)
 The electronic state of the initial guess is 1-A.
 Requested convergence on RMS density matrix=1.00D-08 within 128 cycles.
 Requested convergence on MAX density matrix=1.00D-06.
 Requested convergence on             energy=1.00D-06.
 No special actions if energy rises.
 Integral accuracy reduced to 1.0D-05 until final iterations.
 Initial convergence to 1.0D-05 achieved.  Increase integral accuracy.
 SCF Done:  E(RHF) =  -984.397204342     A.U. after   15 cycles
             Convg  =    0.8120D-08             -V/T =  2.0011
 Range of M.O.s used for correlation:     1   344
 NBasis=   344 NAE=    77 NBE=    77 NFC=     0 NFV=     0
 NROrb=    344 NOA=    77 NOB=    77 NVA=   267 NVB=   267
 Symmetrizing basis deriv contribution to polar:
 IMax=3 JMax=2 DiffMx= 0.00D+00
 G2DrvN: will do    43 centers at a time, making    1 passes doing MaxLOS=2.
 Calling FoFCou, ICntrl=  3107 FMM=F I1Cent=   0 AccDes= 0.00D+00.
 FoFDir/FoFCou used for L=0 through L=2.
 End of G2Drv Frequency-dependent properties file   721 does not exist.
 End of G2Drv Frequency-dependent properties file   722 does not exist.
          IDoAtm=111111111111111111111111111111111111111111
          Differentiating once with respect to nuclear coordinates.
          There are   129 degrees of freedom in the 1st order CPHF.  IDoFFX=5.
    123 vectors produced by pass  0 Test12= 2.06D-10 1.00D-07 XBig12= 1.02D-01 5.93D-02.
 AX will form   123 AO Fock derivatives at one time.
    123 vectors produced by pass  1 Test12= 2.06D-10 1.00D-07 XBig12= 1.29D-02 4.68D-02.
    123 vectors produced by pass  2 Test12= 2.06D-10 1.00D-07 XBig12= 1.55D-04 2.20D-03.
    123 vectors produced by pass  3 Test12= 2.06D-10 1.00D-07 XBig12= 1.81D-06 2.37D-04.
    123 vectors produced by pass  4 Test12= 2.06D-10 1.00D-07 XBig12= 1.10D-08 1.37D-05.
     44 vectors produced by pass  5 Test12= 2.06D-10 1.00D-07 XBig12= 5.65D-11 7.37D-07.
 Inverted reduced A of dimension   659 with in-core refinement.
 End of Minotr Frequency-dependent properties file   721 does not exist.
 End of Minotr Frequency-dependent properties file   722 does not exist.

 **********************************************************************

            Population analysis using the SCF density.

 **********************************************************************

 Orbital symmetries:
       Occupied  (A) (A) (A) (A) (A) (A) (A) (A) (A) (A) (A) (A)
                 (A) (A) (A) (A) (A) (A) (A) (A) (A) (A) (A) (A)
                 (A) (A) (A) (A) (A) (A) (A) (A) (A) (A) (A) (A)
                 (A) (A) (A) (A) (A) (A) (A) (A) (A) (A) (A) (A)
                 (A) (A) (A) (A) (A) (A) (A) (A) (A) (A) (A) (A)
                 (A) (A) (A) (A) (A) (A) (A) (A) (A) (A) (A) (A)
                 (A) (A) (A) (A) (A)
       Virtual   (A) (A) (A) (A) (A) (A) (A) (A) (A) (A) (A) (A)
                 (A) (A) (A) (A) (A) (A) (A) (A) (A) (A) (A) (A)
                 (A) (A) (A) (A) (A) (A) (A) (A) (A) (A) (A) (A)
                 (A) (A) (A) (A) (A) (A) (A) (A) (A) (A) (A) (A)
                 (A) (A) (A) (A) (A) (A) (A) (A) (A) (A) (A) (A)
                 (A) (A) (A) (A) (A) (A) (A) (A) (A) (A) (A) (A)
                 (A) (A) (A) (A) (A) (A) (A) (A) (A) (A) (A) (A)
                 (A) (A) (A) (A) (A) (A) (A) (A) (A) (A) (A) (A)
                 (A) (A) (A) (A) (A) (A) (A) (A) (A) (A) (A) (A)
                 (A) (A) (A) (A) (A) (A) (A) (A) (A) (A) (A) (A)
                 (A) (A) (A) (A) (A) (A) (A) (A) (A) (A) (A) (A)
                 (A) (A) (A) (A) (A) (A) (A) (A) (A) (A) (A) (A)
                 (A) (A) (A) (A) (A) (A) (A) (A) (A) (A) (A) (A)
                 (A) (A) (A) (A) (A) (A) (A) (A) (A) (A) (A) (A)
                 (A) (A) (A) (A) (A) (A) (A) (A) (A) (A) (A) (A)
                 (A) (A) (A) (A) (A) (A) (A) (A) (A) (A) (A) (A)
                 (A) (A) (A) (A) (A) (A) (A) (A) (A) (A) (A) (A)
                 (A) (A) (A) (A) (A) (A) (A) (A) (A) (A) (A) (A)
                 (A) (A) (A) (A) (A) (A) (A) (A) (A) (A) (A) (A)
                 (A) (A) (A) (A) (A) (A) (A) (A) (A) (A) (A) (A)
                 (A) (A) (A) (A) (A) (A) (A) (A) (A) (A) (A) (A)
                 (A) (A) (A) (A) (A) (A) (A) (A) (A) (A) (A) (A)
                 (A) (A) (A)
 The electronic state is 1-A.
 Alpha  occ. eigenvalues --  -20.52882 -20.51795 -20.51508 -20.49756 -15.62075
 Alpha  occ. eigenvalues --  -15.59357 -15.58895 -15.53871 -11.37754 -11.34827
 Alpha  occ. eigenvalues --  -11.34675 -11.32714 -11.29133 -11.29061 -11.26867
 Alpha  occ. eigenvalues --  -11.26266 -11.23405 -11.23351 -11.22743 -11.20943
 Alpha  occ. eigenvalues --   -1.43249  -1.37671  -1.37241  -1.35390  -1.27478
 Alpha  occ. eigenvalues --   -1.24065  -1.23645  -1.21242  -1.08510  -1.04837
 Alpha  occ. eigenvalues --   -1.02807  -0.98585  -0.95427  -0.91652  -0.89842
 Alpha  occ. eigenvalues --   -0.87287  -0.84076  -0.79975  -0.79194  -0.77909
 Alpha  occ. eigenvalues --   -0.74829  -0.72667  -0.69507  -0.68006  -0.67185
 Alpha  occ. eigenvalues --   -0.64964  -0.64329  -0.63448  -0.62746  -0.61838
 Alpha  occ. eigenvalues --   -0.61601  -0.61000  -0.59484  -0.58654  -0.58170
 Alpha  occ. eigenvalues --   -0.56689  -0.56143  -0.55820  -0.55577  -0.55272
 Alpha  occ. eigenvalues --   -0.55172  -0.54409  -0.53551  -0.52886  -0.52699
 Alpha  occ. eigenvalues --   -0.51684  -0.51261  -0.49400  -0.48567  -0.43901
 Alpha  occ. eigenvalues --   -0.42785  -0.41104  -0.40941  -0.39088  -0.38908
 Alpha  occ. eigenvalues --   -0.38119  -0.30236
 Alpha virt. eigenvalues --    0.16681   0.18271   0.19764   0.20738   0.21237
 Alpha virt. eigenvalues --    0.22000   0.23871   0.25093   0.26463   0.27075
 Alpha virt. eigenvalues --    0.28016   0.28841   0.29770   0.29901   0.30495
 Alpha virt. eigenvalues --    0.31064   0.31382   0.31733   0.31844   0.32270
 Alpha virt. eigenvalues --    0.32925   0.33376   0.34439   0.35165   0.35899
 Alpha virt. eigenvalues --    0.36747   0.37301   0.37792   0.39128   0.39863
 Alpha virt. eigenvalues --    0.40709   0.42560   0.43103   0.44090   0.46873
 Alpha virt. eigenvalues --    0.47988   0.50371   0.51990   0.53430   0.54606
 Alpha virt. eigenvalues --    0.57040   0.59835   0.61144   0.61763   0.66165
 Alpha virt. eigenvalues --    0.70106   0.72132   0.72170   0.72773   0.73590
 Alpha virt. eigenvalues --    0.74460   0.75205   0.75862   0.76277   0.76888
 Alpha virt. eigenvalues --    0.77742   0.78659   0.79029   0.80032   0.80699
 Alpha virt. eigenvalues --    0.82048   0.82762   0.83187   0.87129   0.87663
 Alpha virt. eigenvalues --    0.88809   0.89405   0.91485   0.92016   0.92536
 Alpha virt. eigenvalues --    0.93355   0.95374   0.96231   0.97338   0.98482
 Alpha virt. eigenvalues --    0.98905   0.99655   1.00576   1.01031   1.01683
 Alpha virt. eigenvalues --    1.02815   1.05924   1.06661   1.06939   1.09058
 Alpha virt. eigenvalues --    1.09972   1.10744   1.11493   1.11850   1.12042
 Alpha virt. eigenvalues --    1.13343   1.14010   1.14451   1.14839   1.15700
 Alpha virt. eigenvalues --    1.16303   1.16464   1.16699   1.17569   1.18185
 Alpha virt. eigenvalues --    1.18673   1.19238   1.19743   1.20366   1.20586
 Alpha virt. eigenvalues --    1.21587   1.21938   1.23071   1.23152   1.23946
 Alpha virt. eigenvalues --    1.24880   1.25406   1.26924   1.27574   1.29420
 Alpha virt. eigenvalues --    1.30713   1.33405   1.34456   1.36505   1.37866
 Alpha virt. eigenvalues --    1.40150   1.42975   1.43866   1.44739   1.45734
 Alpha virt. eigenvalues --    1.47546   1.49614   1.50507   1.52645   1.55645
 Alpha virt. eigenvalues --    1.55946   1.58539   1.59229   1.60638   1.61768
 Alpha virt. eigenvalues --    1.63114   1.63860   1.66534   1.68747   1.69375
 Alpha virt. eigenvalues --    1.72543   1.73509   1.74056   1.75562   1.77354
 Alpha virt. eigenvalues --    1.78207   1.80502   1.81178   1.86634   1.88250
 Alpha virt. eigenvalues --    1.93268   1.93816   1.95349   1.98317   2.00239
 Alpha virt. eigenvalues --    2.00812   2.03112   2.03386   2.04529   2.06575
 Alpha virt. eigenvalues --    2.08823   2.09746   2.10704   2.10845   2.11682
 Alpha virt. eigenvalues --    2.12916   2.14124   2.14990   2.15549   2.15951
 Alpha virt. eigenvalues --    2.16515   2.17660   2.19217   2.20504   2.21012
 Alpha virt. eigenvalues --    2.21654   2.23332   2.24514   2.27634   2.28210
 Alpha virt. eigenvalues --    2.29046   2.30526   2.31747   2.32440   2.35174
 Alpha virt. eigenvalues --    2.36951   2.37202   2.38126   2.38708   2.40216
 Alpha virt. eigenvalues --    2.42048   2.43897   2.46375   2.48475   2.49202
 Alpha virt. eigenvalues --    2.52040   2.53306   2.53739   2.56845   2.59485
 Alpha virt. eigenvalues --    2.61254   2.62005   2.62258   2.62490   2.63908
 Alpha virt. eigenvalues --    2.64329   2.65049   2.65906   2.67787   2.69121
 Alpha virt. eigenvalues --    2.71278   2.73257   2.74155   2.76471   2.77191
 Alpha virt. eigenvalues --    2.79825   2.81656   2.82622   2.85631   2.88586
 Alpha virt. eigenvalues --    2.89780   2.91723   2.94107   2.94836   2.97042
 Alpha virt. eigenvalues --    2.99215   3.01699   3.02908   3.05175   3.06996
 Alpha virt. eigenvalues --    3.07987   3.12094   3.16167   3.19511   3.23024
 Alpha virt. eigenvalues --    3.23879   3.27136   3.31879   3.32979   3.35788
 Alpha virt. eigenvalues --    3.40773   3.41614   3.43378   3.54750   3.56428
 Alpha virt. eigenvalues --    3.60130   3.66235   4.40068   4.41497   4.43814
 Alpha virt. eigenvalues --    4.48337   4.51865   4.54336   4.62113   4.62992
 Alpha virt. eigenvalues --    4.66581   4.66914   4.69880   4.71224   4.74726
 Alpha virt. eigenvalues --    4.86798   4.89202   4.91887   4.96034   5.03185
 Alpha virt. eigenvalues --    5.10676   5.18638
          Condensed to atoms (all electrons):
              1          2          3          4          5          6
     1  H    0.459258   0.385642  -0.018943  -0.018742  -0.030871   0.003464
     2  C    0.385642   5.243296   0.374618   0.375220   0.378715  -0.067205
     3  H   -0.018943   0.374618   0.511464  -0.023365  -0.034526   0.001284
     4  H   -0.018742   0.375220  -0.023365   0.507446  -0.035069   0.001179
     5  C   -0.030871   0.378715  -0.034526  -0.035069   4.186180   0.586492
     6  O    0.003464  -0.067205   0.001284   0.001179   0.586492   8.211930
     7  N    0.003856  -0.119613   0.003421   0.003615   0.246891  -0.107595
     8  H   -0.000014  -0.001178   0.000642   0.000466  -0.017299   0.001979
     9  C   -0.000077   0.004551  -0.000243  -0.000091  -0.029568   0.014411
    10  H    0.000002  -0.000007  -0.000004  -0.000002  -0.001527   0.002878
    11  C    0.000006  -0.000498   0.000008   0.000029  -0.003887  -0.015871
    12  H    0.000000  -0.000042   0.000000   0.000002   0.000031  -0.000031
    13  H    0.000000   0.000007   0.000000  -0.000001   0.000287   0.000274
    14  H    0.000001   0.000302  -0.000005  -0.000026   0.000342   0.011536
    15  C    0.000000   0.000022  -0.000011  -0.000006   0.004083   0.000593
    16  O    0.000000  -0.000036   0.000000  -0.000001   0.000240  -0.000003
    17  N    0.000000   0.000000   0.000000   0.000000  -0.000083  -0.000002
    18  H    0.000000   0.000000   0.000000   0.000000   0.000001   0.000001
    19  C    0.000000   0.000000   0.000000   0.000000   0.000001   0.000000
    20  H    0.000000   0.000000   0.000000   0.000000   0.000000   0.000000
    21  C    0.000000   0.000000   0.000000   0.000000   0.000000   0.000000
    22  H    0.000000   0.000000   0.000000   0.000000   0.000000   0.000000
    23  H    0.000000   0.000000   0.000000   0.000000   0.000000   0.000000
    24  H    0.000000   0.000000   0.000000   0.000000   0.000000   0.000000
    25  C    0.000000   0.000000   0.000000   0.000000   0.000000   0.000000
    26  O    0.000000   0.000000   0.000000   0.000000   0.000000   0.000000
    27  N    0.000000   0.000000   0.000000   0.000000   0.000001   0.000000
    28  H    0.000000   0.000000   0.000000   0.000000   0.000001   0.000000
    29  C    0.000000   0.000000   0.000000   0.000000   0.000000   0.000000
    30  H    0.000000   0.000000   0.000000   0.000000   0.000000   0.000000
    31  C    0.000000   0.000000   0.000000   0.000000   0.000000   0.000000
    32  H    0.000000   0.000000   0.000000   0.000000   0.000000   0.000000
    33  H    0.000000   0.000000   0.000000   0.000000   0.000000   0.000000
    34  H    0.000000   0.000000   0.000000   0.000000   0.000000   0.000000
    35  C    0.000000   0.000000   0.000000   0.000000   0.000000   0.000000
    36  O    0.000000   0.000000   0.000000   0.000000   0.000000   0.000000
    37  N    0.000000   0.000000   0.000000   0.000000   0.000000   0.000000
    38  H    0.000000   0.000000   0.000000   0.000000   0.000000   0.000000
    39  C    0.000000   0.000000   0.000000   0.000000   0.000000   0.000000
    40  H    0.000000   0.000000   0.000000   0.000000   0.000000   0.000000
    41  H    0.000000   0.000000   0.000000   0.000000   0.000000   0.000000
    42  H    0.000000   0.000000   0.000000   0.000000   0.000000   0.000000
              7          8          9         10         11         12
     1  H    0.003856  -0.000014  -0.000077   0.000002   0.000006   0.000000
     2  C   -0.119613  -0.001178   0.004551  -0.000007  -0.000498  -0.000042
     3  H    0.003421   0.000642  -0.000243  -0.000004   0.000008   0.000000
     4  H    0.003615   0.000466  -0.000091  -0.000002   0.000029   0.000002
     5  C    0.246891  -0.017299  -0.029568  -0.001527  -0.003887   0.000031
     6  O   -0.107595   0.001979   0.014411   0.002878  -0.015871  -0.000031
     7  N    7.417635   0.310834   0.201934  -0.041362  -0.063647   0.001656
     8  H    0.310834   0.282470  -0.025360   0.002376   0.002901   0.000246
     9  C    0.201934  -0.025360   4.987182   0.405921   0.338373  -0.042657
    10  H   -0.041362   0.002376   0.405921   0.498060  -0.045214   0.004494
    11  C   -0.063647   0.002901   0.338373  -0.045214   5.211733   0.385482
    12  H    0.001656   0.000246  -0.042657   0.004494   0.385482   0.521511
    13  H    0.004939  -0.000077  -0.042428   0.000278   0.376891  -0.024420
    14  H   -0.005627  -0.000189  -0.026440  -0.003981   0.387401  -0.019676
    15  C   -0.037996  -0.005299   0.391640  -0.041211  -0.065494  -0.002848
    16  O   -0.006592   0.016981  -0.065049   0.000967  -0.000243   0.000576
    17  N    0.002695   0.000629  -0.111179   0.002853   0.001700   0.000293
    18  H    0.000042  -0.000015   0.000199   0.000431   0.000338  -0.000032
    19  C   -0.000044  -0.000019   0.003299  -0.000184  -0.000107  -0.000056
    20  H    0.000000   0.000000  -0.000037   0.000006  -0.000004   0.000001
    21  C    0.000002   0.000001  -0.000139   0.000002   0.000035   0.000031
    22  H    0.000000  -0.000001  -0.000007   0.000000   0.000019   0.000024
    23  H    0.000000   0.000000   0.000002   0.000000   0.000000   0.000000
    24  H    0.000000   0.000000  -0.000012  -0.000001   0.000008  -0.000003
    25  C    0.000000   0.000009  -0.000581   0.000001   0.000002  -0.000001
    26  O    0.000000   0.000000  -0.000004  -0.000001   0.000000   0.000000
    27  N   -0.000037   0.000297  -0.001813   0.000080   0.000037   0.000010
    28  H   -0.000013   0.000049  -0.000219   0.000008  -0.000064   0.000012
    29  C    0.000002  -0.000034   0.000060  -0.000002   0.000000   0.000000
    30  H    0.000001  -0.000011   0.000000  -0.000001   0.000000   0.000000
    31  C    0.000000   0.000001   0.000000   0.000000   0.000000   0.000000
    32  H    0.000000   0.000000   0.000000   0.000000   0.000000   0.000000
    33  H    0.000000   0.000000   0.000000   0.000000   0.000000   0.000000
    34  H    0.000000   0.000000   0.000000   0.000000   0.000000   0.000000
    35  C   -0.000008   0.000112  -0.000009   0.000000   0.000000   0.000000
    36  O   -0.000047   0.000520   0.000001   0.000000   0.000000   0.000000
    37  N    0.000000  -0.000003   0.000000   0.000000   0.000000   0.000000
    38  H    0.000000   0.000000   0.000000   0.000000   0.000000   0.000000
    39  C    0.000000   0.000001   0.000000   0.000000   0.000000   0.000000
    40  H    0.000000   0.000000   0.000000   0.000000   0.000000   0.000000
    41  H    0.000000   0.000000   0.000000   0.000000   0.000000   0.000000
    42  H    0.000000   0.000000   0.000000   0.000000   0.000000   0.000000
             13         14         15         16         17         18
     1  H    0.000000   0.000001   0.000000   0.000000   0.000000   0.000000
     2  C    0.000007   0.000302   0.000022  -0.000036   0.000000   0.000000
     3  H    0.000000  -0.000005  -0.000011   0.000000   0.000000   0.000000
     4  H   -0.000001  -0.000026  -0.000006  -0.000001   0.000000   0.000000
     5  C    0.000287   0.000342   0.004083   0.000240  -0.000083   0.000001
     6  O    0.000274   0.011536   0.000593  -0.000003  -0.000002   0.000001
     7  N    0.004939  -0.005627  -0.037996  -0.006592   0.002695   0.000042
     8  H   -0.000077  -0.000189  -0.005299   0.016981   0.000629  -0.000015
     9  C   -0.042428  -0.026440   0.391640  -0.065049  -0.111179   0.000199
    10  H    0.000278  -0.003981  -0.041211   0.000967   0.002853   0.000431
    11  C    0.376891   0.387401  -0.065494  -0.000243   0.001700   0.000338
    12  H   -0.024420  -0.019676  -0.002848   0.000576   0.000293  -0.000032
    13  H    0.571721  -0.019831  -0.007607   0.000030   0.000505   0.003219
    14  H   -0.019831   0.419669   0.004319  -0.000057   0.000039  -0.000066
    15  C   -0.007607   0.004319   4.190638   0.497652   0.290540  -0.019915
    16  O    0.000030  -0.000057   0.497652   8.847980  -0.103874   0.002368
    17  N    0.000505   0.000039   0.290540  -0.103874   7.411325   0.321910
    18  H    0.003219  -0.000066  -0.019915   0.002368   0.321910   0.299446
    19  C    0.000178   0.000001  -0.031166   0.016024   0.133714  -0.018023
    20  H   -0.000006   0.000000   0.002910   0.000083  -0.034661  -0.003207
    21  C    0.000008  -0.000001  -0.000767  -0.001129  -0.081578   0.001101
    22  H    0.000001   0.000000   0.003314   0.000073  -0.003351  -0.000072
    23  H    0.000000   0.000000   0.000012  -0.000009   0.005080  -0.000087
    24  H    0.000034   0.000000  -0.000195   0.000065   0.000464   0.000748
    25  C   -0.000004   0.000000  -0.010836  -0.005818  -0.029218   0.002438
    26  O    0.000000   0.000000  -0.000134  -0.000153   0.001487  -0.000084
    27  N    0.000001   0.000000   0.031679  -0.507886   0.011081  -0.000269
    28  H    0.000000   0.000000   0.000722  -0.039755   0.000848  -0.000084
    29  C    0.000000   0.000000  -0.000510   0.020047  -0.000511   0.000007
    30  H    0.000000   0.000000  -0.000166   0.002467  -0.000022   0.000000
    31  C    0.000000   0.000000   0.000021  -0.000461   0.000013   0.000000
    32  H    0.000000   0.000000  -0.000004   0.000019   0.000001   0.000000
    33  H    0.000000   0.000000  -0.000001   0.000017   0.000000   0.000000
    34  H    0.000000   0.000000   0.000003  -0.000033  -0.000003   0.000000
    35  C    0.000000   0.000000   0.000084   0.000177   0.000007   0.000000
    36  O    0.000000   0.000000   0.000072  -0.003103   0.000004   0.000000
    37  N    0.000000   0.000000  -0.000002  -0.000037   0.000000   0.000000
    38  H    0.000000   0.000000   0.000000   0.000000   0.000000   0.000000
    39  C    0.000000   0.000000   0.000000   0.000001   0.000000   0.000000
    40  H    0.000000   0.000000   0.000000   0.000000   0.000000   0.000000
    41  H    0.000000   0.000000   0.000000   0.000000   0.000000   0.000000
    42  H    0.000000   0.000000   0.000000   0.000000   0.000000   0.000000
             19         20         21         22         23         24
     1  H    0.000000   0.000000   0.000000   0.000000   0.000000   0.000000
     2  C    0.000000   0.000000   0.000000   0.000000   0.000000   0.000000
     3  H    0.000000   0.000000   0.000000   0.000000   0.000000   0.000000
     4  H    0.000000   0.000000   0.000000   0.000000   0.000000   0.000000
     5  C    0.000001   0.000000   0.000000   0.000000   0.000000   0.000000
     6  O    0.000000   0.000000   0.000000   0.000000   0.000000   0.000000
     7  N   -0.000044   0.000000   0.000002   0.000000   0.000000   0.000000
     8  H   -0.000019   0.000000   0.000001  -0.000001   0.000000   0.000000
     9  C    0.003299  -0.000037  -0.000139  -0.000007   0.000002  -0.000012
    10  H   -0.000184   0.000006   0.000002   0.000000   0.000000  -0.000001
    11  C   -0.000107  -0.000004   0.000035   0.000019   0.000000   0.000008
    12  H   -0.000056   0.000001   0.000031   0.000024   0.000000  -0.000003
    13  H    0.000178  -0.000006   0.000008   0.000001   0.000000   0.000034
    14  H    0.000001   0.000000  -0.000001   0.000000   0.000000   0.000000
    15  C   -0.031166   0.002910  -0.000767   0.003314   0.000012  -0.000195
    16  O    0.016024   0.000083  -0.001129   0.000073  -0.000009   0.000065
    17  N    0.133714  -0.034661  -0.081578  -0.003351   0.005080   0.000464
    18  H   -0.018023  -0.003207   0.001101  -0.000072  -0.000087   0.000748
    19  C    5.103707   0.411065   0.341144  -0.031474  -0.038023  -0.038860
    20  H    0.411065   0.457416  -0.038301   0.003588  -0.000755  -0.003385
    21  C    0.341144  -0.038301   5.167031   0.387278   0.386992   0.384101
    22  H   -0.031474   0.003588   0.387278   0.511464  -0.021208  -0.024235
    23  H   -0.038023  -0.000755   0.386992  -0.021208   0.500911  -0.021851
    24  H   -0.038860  -0.003385   0.384101  -0.024235  -0.021851   0.531496
    25  C    0.382557  -0.034996  -0.076601  -0.008375  -0.000855   0.005989
    26  O   -0.058272   0.004963  -0.000161   0.000035   0.000628  -0.000083
    27  N   -0.134226   0.004173   0.006822   0.002217   0.000020  -0.000040
    28  H   -0.001274  -0.000075   0.001519   0.001861  -0.000225   0.000013
    29  C    0.005178  -0.000067  -0.000089   0.000186  -0.000066   0.000004
    30  H   -0.000115   0.000001   0.000005  -0.000001   0.000000   0.000000
    31  C   -0.000574   0.000003   0.000024  -0.000015   0.000050  -0.000001
    32  H   -0.000086   0.000000   0.000048   0.000012   0.000020   0.000001
    33  H    0.000008   0.000000   0.000000   0.000000   0.000000   0.000000
    34  H    0.000328   0.000001  -0.000064   0.000001   0.000003   0.000000
    35  C    0.000008  -0.000001  -0.000031  -0.000032  -0.000001   0.000000
    36  O   -0.000054   0.000000  -0.000004  -0.000050   0.000000   0.000000
    37  N    0.000000   0.000000   0.000000   0.000000   0.000000   0.000000
    38  H    0.000000   0.000000   0.000000   0.000000   0.000000   0.000000
    39  C    0.000000   0.000000   0.000000   0.000000   0.000000   0.000000
    40  H    0.000000   0.000000   0.000000   0.000000   0.000000   0.000000
    41  H    0.000000   0.000000   0.000000   0.000000   0.000000   0.000000
    42  H    0.000000   0.000000   0.000000   0.000000   0.000000   0.000000
             25         26         27         28         29         30
     1  H    0.000000   0.000000   0.000000   0.000000   0.000000   0.000000
     2  C    0.000000   0.000000   0.000000   0.000000   0.000000   0.000000
     3  H    0.000000   0.000000   0.000000   0.000000   0.000000   0.000000
     4  H    0.000000   0.000000   0.000000   0.000000   0.000000   0.000000
     5  C    0.000000   0.000000   0.000001   0.000001   0.000000   0.000000
     6  O    0.000000   0.000000   0.000000   0.000000   0.000000   0.000000
     7  N    0.000000   0.000000  -0.000037  -0.000013   0.000002   0.000001
     8  H    0.000009   0.000000   0.000297   0.000049  -0.000034  -0.000011
     9  C   -0.000581  -0.000004  -0.001813  -0.000219   0.000060   0.000000
    10  H    0.000001  -0.000001   0.000080   0.000008  -0.000002  -0.000001
    11  C    0.000002   0.000000   0.000037  -0.000064   0.000000   0.000000
    12  H   -0.000001   0.000000   0.000010   0.000012   0.000000   0.000000
    13  H   -0.000004   0.000000   0.000001   0.000000   0.000000   0.000000
    14  H    0.000000   0.000000   0.000000   0.000000   0.000000   0.000000
    15  C   -0.010836  -0.000134   0.031679   0.000722  -0.000510  -0.000166
    16  O   -0.005818  -0.000153  -0.507886  -0.039755   0.020047   0.002467
    17  N   -0.029218   0.001487   0.011081   0.000848  -0.000511  -0.000022
    18  H    0.002438  -0.000084  -0.000269  -0.000084   0.000007   0.000000
    19  C    0.382557  -0.058272  -0.134226  -0.001274   0.005178  -0.000115
    20  H   -0.034996   0.004963   0.004173  -0.000075  -0.000067   0.000001
    21  C   -0.076601  -0.000161   0.006822   0.001519  -0.000089   0.000005
    22  H   -0.008375   0.000035   0.002217   0.001861   0.000186  -0.000001
    23  H   -0.000855   0.000628   0.000020  -0.000225  -0.000066   0.000000
    24  H    0.005989  -0.000083  -0.000040   0.000013   0.000004   0.000000
    25  C    4.206714   0.580713   0.283615  -0.016802  -0.034311  -0.001529
    26  O    0.580713   8.256064  -0.120715   0.001808   0.013871   0.003457
    27  N    0.283615  -0.120715   7.854779   0.311935   0.188180  -0.045913
    28  H   -0.016802   0.001808   0.311935   0.254647  -0.026756   0.003284
    29  C   -0.034311   0.013871   0.188180  -0.026756   5.007297   0.401407
    30  H   -0.001529   0.003457  -0.045913   0.003284   0.401407   0.516558
    31  C   -0.004665  -0.016457  -0.056606   0.001042   0.340736  -0.046526
    32  H    0.000119  -0.000042   0.001231   0.000461  -0.042041   0.004654
    33  H    0.000400   0.000189   0.005616  -0.000029  -0.046348   0.001006
    34  H   -0.000031   0.012404  -0.007172  -0.000224  -0.025066  -0.004340
    35  C    0.004034   0.000518  -0.037345  -0.004802   0.381175  -0.037886
    36  O    0.000455  -0.000002  -0.005117   0.020083  -0.078727   0.001006
    37  N   -0.000085  -0.000002   0.002732   0.000671  -0.115205   0.002140
    38  H    0.000002   0.000001   0.000024  -0.000019   0.001093   0.000518
    39  C    0.000001   0.000000  -0.000053  -0.000009   0.003753  -0.000220
    40  H    0.000000   0.000000  -0.000005  -0.000010   0.000607  -0.000019
    41  H    0.000000   0.000000   0.000000   0.000000  -0.000105   0.000012
    42  H    0.000000   0.000000   0.000001   0.000000  -0.000003  -0.000002
             31         32         33         34         35         36
     1  H    0.000000   0.000000   0.000000   0.000000   0.000000   0.000000
     2  C    0.000000   0.000000   0.000000   0.000000   0.000000   0.000000
     3  H    0.000000   0.000000   0.000000   0.000000   0.000000   0.000000
     4  H    0.000000   0.000000   0.000000   0.000000   0.000000   0.000000
     5  C    0.000000   0.000000   0.000000   0.000000   0.000000   0.000000
     6  O    0.000000   0.000000   0.000000   0.000000   0.000000   0.000000
     7  N    0.000000   0.000000   0.000000   0.000000  -0.000008  -0.000047
     8  H    0.000001   0.000000   0.000000   0.000000   0.000112   0.000520
     9  C    0.000000   0.000000   0.000000   0.000000  -0.000009   0.000001
    10  H    0.000000   0.000000   0.000000   0.000000   0.000000   0.000000
    11  C    0.000000   0.000000   0.000000   0.000000   0.000000   0.000000
    12  H    0.000000   0.000000   0.000000   0.000000   0.000000   0.000000
    13  H    0.000000   0.000000   0.000000   0.000000   0.000000   0.000000
    14  H    0.000000   0.000000   0.000000   0.000000   0.000000   0.000000
    15  C    0.000021  -0.000004  -0.000001   0.000003   0.000084   0.000072
    16  O   -0.000461   0.000019   0.000017  -0.000033   0.000177  -0.003103
    17  N    0.000013   0.000001   0.000000  -0.000003   0.000007   0.000004
    18  H    0.000000   0.000000   0.000000   0.000000   0.000000   0.000000
    19  C   -0.000574  -0.000086   0.000008   0.000328   0.000008  -0.000054
    20  H    0.000003   0.000000   0.000000   0.000001  -0.000001   0.000000
    21  C    0.000024   0.000048   0.000000  -0.000064  -0.000031  -0.000004
    22  H   -0.000015   0.000012   0.000000   0.000001  -0.000032  -0.000050
    23  H    0.000050   0.000020   0.000000   0.000003  -0.000001   0.000000
    24  H   -0.000001   0.000001   0.000000   0.000000   0.000000   0.000000
    25  C   -0.004665   0.000119   0.000400  -0.000031   0.004034   0.000455
    26  O   -0.016457  -0.000042   0.000189   0.012404   0.000518  -0.000002
    27  N   -0.056606   0.001231   0.005616  -0.007172  -0.037345  -0.005117
    28  H    0.001042   0.000461  -0.000029  -0.000224  -0.004802   0.020083
    29  C    0.340736  -0.042041  -0.046348  -0.025066   0.381175  -0.078727
    30  H   -0.046526   0.004654   0.001006  -0.004340  -0.037886   0.001006
    31  C    5.196446   0.385484   0.373760   0.388505  -0.063012   0.000194
    32  H    0.385484   0.532012  -0.024846  -0.020949  -0.002765   0.000618
    33  H    0.373760  -0.024846   0.589889  -0.022244  -0.006407   0.000022
    34  H    0.388505  -0.020949  -0.022244   0.433527   0.003937  -0.000064
    35  C   -0.063012  -0.002765  -0.006407   0.003937   4.151243   0.589432
    36  O    0.000194   0.000618   0.000022  -0.000064   0.589432   8.221716
    37  N    0.002170   0.000245  -0.000050   0.000081   0.281332  -0.097612
    38  H    0.000119   0.000001   0.002590  -0.000089  -0.020665   0.002362
    39  C   -0.000097  -0.000044   0.000183   0.000003  -0.025084  -0.004938
    40  H   -0.000051  -0.000002  -0.000008   0.000000  -0.001718   0.010839
    41  H   -0.000005   0.000001   0.000003   0.000000   0.000802   0.000370
    42  H    0.000018   0.000001  -0.000004  -0.000001   0.000870   0.000370
             37         38         39         40         41         42
     1  H    0.000000   0.000000   0.000000   0.000000   0.000000   0.000000
     2  C    0.000000   0.000000   0.000000   0.000000   0.000000   0.000000
     3  H    0.000000   0.000000   0.000000   0.000000   0.000000   0.000000
     4  H    0.000000   0.000000   0.000000   0.000000   0.000000   0.000000
     5  C    0.000000   0.000000   0.000000   0.000000   0.000000   0.000000
     6  O    0.000000   0.000000   0.000000   0.000000   0.000000   0.000000
     7  N    0.000000   0.000000   0.000000   0.000000   0.000000   0.000000
     8  H   -0.000003   0.000000   0.000001   0.000000   0.000000   0.000000
     9  C    0.000000   0.000000   0.000000   0.000000   0.000000   0.000000
    10  H    0.000000   0.000000   0.000000   0.000000   0.000000   0.000000
    11  C    0.000000   0.000000   0.000000   0.000000   0.000000   0.000000
    12  H    0.000000   0.000000   0.000000   0.000000   0.000000   0.000000
    13  H    0.000000   0.000000   0.000000   0.000000   0.000000   0.000000
    14  H    0.000000   0.000000   0.000000   0.000000   0.000000   0.000000
    15  C   -0.000002   0.000000   0.000000   0.000000   0.000000   0.000000
    16  O   -0.000037   0.000000   0.000001   0.000000   0.000000   0.000000
    17  N    0.000000   0.000000   0.000000   0.000000   0.000000   0.000000
    18  H    0.000000   0.000000   0.000000   0.000000   0.000000   0.000000
    19  C    0.000000   0.000000   0.000000   0.000000   0.000000   0.000000
    20  H    0.000000   0.000000   0.000000   0.000000   0.000000   0.000000
    21  C    0.000000   0.000000   0.000000   0.000000   0.000000   0.000000
    22  H    0.000000   0.000000   0.000000   0.000000   0.000000   0.000000
    23  H    0.000000   0.000000   0.000000   0.000000   0.000000   0.000000
    24  H    0.000000   0.000000   0.000000   0.000000   0.000000   0.000000
    25  C   -0.000085   0.000002   0.000001   0.000000   0.000000   0.000000
    26  O   -0.000002   0.000001   0.000000   0.000000   0.000000   0.000000
    27  N    0.002732   0.000024  -0.000053  -0.000005   0.000000   0.000001
    28  H    0.000671  -0.000019  -0.000009  -0.000010   0.000000   0.000000
    29  C   -0.115205   0.001093   0.003753   0.000607  -0.000105  -0.000003
    30  H    0.002140   0.000518  -0.000220  -0.000019   0.000012  -0.000002
    31  C    0.002170   0.000119  -0.000097  -0.000051  -0.000005   0.000018
    32  H    0.000245   0.000001  -0.000044  -0.000002   0.000001   0.000001
    33  H   -0.000050   0.002590   0.000183  -0.000008   0.000003  -0.000004
    34  H    0.000081  -0.000089   0.000003   0.000000   0.000000  -0.000001
    35  C    0.281332  -0.020665  -0.025084  -0.001718   0.000802   0.000870
    36  O   -0.097612   0.002362  -0.004938   0.010839   0.000370   0.000370
[...]
    28  H    0.000000   0.000000  -0.002188   0.023916  -0.000539  -0.000022
    29  C    0.000000   0.000000  -0.000007   0.000474  -0.000148   0.000003
    30  H    0.000000   0.000000  -0.000014  -0.000005  -0.000012   0.000000
    31  C    0.000000   0.000000   0.000002  -0.000007   0.000003   0.000000
    32  H    0.000000   0.000000   0.000000  -0.000001   0.000000   0.000000
    33  H    0.000000   0.000000   0.000000   0.000000   0.000000   0.000000
    34  H    0.000000   0.000000   0.000000   0.000000  -0.000001   0.000000
    35  C    0.000000   0.000000   0.000018   0.000144  -0.000001   0.000000
    36  O    0.000000   0.000000   0.000008  -0.000168   0.000001   0.000000
    37  N    0.000000   0.000000   0.000000  -0.000002   0.000000   0.000000
    38  H    0.000000   0.000000   0.000000   0.000000   0.000000   0.000000
    39  C    0.000000   0.000000   0.000000   0.000000   0.000000   0.000000
    40  H    0.000000   0.000000   0.000000   0.000000   0.000000   0.000000
    41  H    0.000000   0.000000   0.000000   0.000000   0.000000   0.000000
    42  H    0.000000   0.000000   0.000000   0.000000   0.000000   0.000000
             19         20         21         22         23         24
     1  H    0.000000   0.000000   0.000000   0.000000   0.000000   0.000000
     2  C    0.000000   0.000000   0.000000   0.000000   0.000000   0.000000
     3  H    0.000000   0.000000   0.000000   0.000000   0.000000   0.000000
     4  H    0.000000   0.000000   0.000000   0.000000   0.000000   0.000000
     5  C    0.000001   0.000000   0.000000   0.000000   0.000000   0.000000
     6  O    0.000000   0.000000   0.000000   0.000000   0.000000   0.000000
     7  N   -0.000060   0.000001   0.000000   0.000000   0.000000   0.000000
     8  H   -0.000014   0.000000   0.000000   0.000000   0.000000   0.000000
     9  C    0.002820  -0.000035  -0.000181   0.000005   0.000003  -0.000014
    10  H   -0.000075  -0.000009   0.000004  -0.000001   0.000000  -0.000001
    11  C   -0.000229  -0.000001   0.000045   0.000000   0.000000   0.000002
    12  H    0.000003   0.000000   0.000004   0.000000   0.000000  -0.000001
    13  H   -0.000027  -0.000003   0.000004   0.000001   0.000000   0.000039
    14  H    0.000002   0.000000  -0.000001   0.000000   0.000000   0.000000
    15  C   -0.017293   0.002122  -0.000611   0.001325   0.000006  -0.000052
    16  O    0.007923   0.000036  -0.000704   0.000521   0.000002  -0.000007
    17  N    0.118521  -0.040019  -0.071825  -0.002586   0.004911  -0.000976
    18  H   -0.022686  -0.004817   0.001611  -0.000039  -0.000108   0.000460
    19  C    5.078554   0.416692   0.333176  -0.029927  -0.038162  -0.034374
    20  H    0.416692   0.471107  -0.037164   0.003429  -0.000648  -0.003546
    21  C    0.333176  -0.037164   5.148780   0.387500   0.385592   0.388135
    22  H   -0.029927   0.003429   0.387500   0.499497  -0.022329  -0.024277
    23  H   -0.038162  -0.000648   0.385592  -0.022329   0.508404  -0.024273
    24  H   -0.034374  -0.003546   0.388135  -0.024277  -0.024273   0.524611
    25  C    0.389128  -0.045984  -0.058979  -0.005715  -0.000270   0.004720
    26  O   -0.069305   0.008224  -0.001984   0.000067   0.001570  -0.000104
    27  N   -0.116389   0.004648   0.007415   0.002216  -0.000620   0.000012
    28  H   -0.000460  -0.000019   0.000109   0.000449   0.000011  -0.000012
    29  C    0.004891  -0.000123  -0.000420  -0.000035  -0.000030   0.000005
    30  H    0.000184   0.000002   0.000001   0.000001  -0.000003   0.000000
    31  C   -0.000349   0.000004   0.000091   0.000001   0.000051  -0.000002
    32  H   -0.000017   0.000000   0.000015   0.000018   0.000000   0.000000
    33  H    0.000004   0.000000   0.000000   0.000000   0.000000   0.000000
    34  H    0.000084   0.000000  -0.000060   0.000002   0.000060   0.000001
    35  C   -0.000004   0.000000  -0.000006  -0.000002   0.000000   0.000000
    36  O   -0.000016   0.000000   0.000000  -0.000006   0.000000   0.000000
    37  N    0.000000   0.000000   0.000000   0.000000   0.000000   0.000000
    38  H    0.000000   0.000000   0.000000   0.000000   0.000000   0.000000
    39  C    0.000000   0.000000   0.000000   0.000000   0.000000   0.000000
    40  H    0.000000   0.000000   0.000000   0.000000   0.000000   0.000000
    41  H    0.000000   0.000000   0.000000   0.000000   0.000000   0.000000
    42  H    0.000000   0.000000   0.000000   0.000000   0.000000   0.000000
             25         26         27         28         29         30
     1  H    0.000000   0.000000   0.000000   0.000000   0.000000   0.000000
     2  C    0.000000   0.000000   0.000000   0.000000   0.000000   0.000000
     3  H    0.000000   0.000000   0.000000   0.000000   0.000000   0.000000
     4  H    0.000000   0.000000   0.000000   0.000000   0.000000   0.000000
     5  C    0.000000   0.000000   0.000000   0.000000   0.000000   0.000000
     6  O    0.000000   0.000000   0.000000   0.000000   0.000000   0.000000
     7  N    0.000001   0.000000   0.000000  -0.000010   0.000000   0.000000
     8  H   -0.000001   0.000000   0.000009  -0.000020   0.000000   0.000000
     9  C   -0.000103  -0.000001  -0.000040   0.000362   0.000002   0.000000
    10  H   -0.000001   0.000000   0.000003  -0.000006   0.000000   0.000000
    11  C   -0.000002   0.000000   0.000000  -0.000015   0.000000   0.000000
    12  H   -0.000001   0.000000   0.000000  -0.000002   0.000000   0.000000
    13  H    0.000001   0.000000   0.000000   0.000000   0.000000   0.000000
    14  H    0.000000   0.000000   0.000000   0.000000   0.000000   0.000000
    15  C   -0.002064  -0.000064   0.003327  -0.002188  -0.000007  -0.000014
    16  O    0.001242   0.000019  -0.021362   0.023916   0.000474  -0.000005
    17  N   -0.023028   0.002289   0.004893  -0.000539  -0.000148  -0.000012
    18  H    0.002005  -0.000101  -0.000146  -0.000022   0.000003   0.000000
    19  C    0.389128  -0.069305  -0.116389  -0.000460   0.004891   0.000184
    20  H   -0.045984   0.008224   0.004648  -0.000019  -0.000123   0.000002
    21  C   -0.058979  -0.001984   0.007415   0.000109  -0.000420   0.000001
    22  H   -0.005715   0.000067   0.002216   0.000449  -0.000035   0.000001
    23  H   -0.000270   0.001570  -0.000620   0.000011  -0.000030  -0.000003
    24  H    0.004720  -0.000104   0.000012  -0.000012   0.000005   0.000000
    25  C    4.161729   0.585926   0.278947  -0.012436  -0.034218  -0.002355
    26  O    0.585926   8.201348  -0.113315   0.001583   0.008925   0.006981
    27  N    0.278947  -0.113315   7.457468   0.279715   0.195296  -0.044954
    28  H   -0.012436   0.001583   0.279715   0.231896  -0.023396   0.002288
    29  C   -0.034218   0.008925   0.195296  -0.023396   5.045660   0.413552
    30  H   -0.002355   0.006981  -0.044954   0.002288   0.413552   0.499647
    31  C   -0.001581  -0.004666  -0.062289   0.001671   0.335165  -0.042240
    32  H    0.000147  -0.000005   0.000292   0.000297  -0.038367   0.004069
    33  H    0.000018   0.000002   0.004584  -0.000012  -0.037536   0.000458
    34  H    0.002019   0.005126  -0.005658  -0.000172  -0.029825  -0.003830
    35  C    0.003865   0.000582  -0.035161  -0.005284   0.369116  -0.047607
    36  O    0.000385  -0.000004  -0.004596   0.017207  -0.077286   0.001965
    37  N   -0.000101  -0.000003   0.002353   0.000867  -0.113076   0.004644
    38  H   -0.000013  -0.000003  -0.000023  -0.000030   0.000687   0.001873
    39  C    0.000001   0.000000  -0.000083  -0.000024   0.004661  -0.000048
    40  H    0.000000   0.000000  -0.000005  -0.000003   0.000116  -0.000001
    41  H    0.000000   0.000000   0.000010   0.000002  -0.000162  -0.000005
    42  H    0.000000   0.000000   0.000000   0.000000  -0.000002  -0.000015
             31         32         33         34         35         36
     1  H    0.000000   0.000000   0.000000   0.000000   0.000000   0.000000
     2  C    0.000000   0.000000   0.000000   0.000000   0.000000   0.000000
     3  H    0.000000   0.000000   0.000000   0.000000   0.000000   0.000000
     4  H    0.000000   0.000000   0.000000   0.000000   0.000000   0.000000
     5  C    0.000000   0.000000   0.000000   0.000000   0.000000   0.000000
     6  O    0.000000   0.000000   0.000000   0.000000   0.000000   0.000000
     7  N    0.000000   0.000000   0.000000   0.000000   0.000000   0.000000
     8  H    0.000000   0.000000   0.000000   0.000000   0.000001   0.000000
     9  C    0.000000   0.000000   0.000000   0.000000  -0.000001  -0.000001
    10  H    0.000000   0.000000   0.000000   0.000000   0.000000   0.000000
    11  C    0.000000   0.000000   0.000000   0.000000   0.000000   0.000000
    12  H    0.000000   0.000000   0.000000   0.000000   0.000000   0.000000
    13  H    0.000000   0.000000   0.000000   0.000000   0.000000   0.000000
    14  H    0.000000   0.000000   0.000000   0.000000   0.000000   0.000000
    15  C    0.000002   0.000000   0.000000   0.000000   0.000018   0.000008
    16  O   -0.000007  -0.000001   0.000000   0.000000   0.000144  -0.000168
    17  N    0.000003   0.000000   0.000000  -0.000001  -0.000001   0.000001
    18  H    0.000000   0.000000   0.000000   0.000000   0.000000   0.000000
    19  C   -0.000349  -0.000017   0.000004   0.000084  -0.000004  -0.000016
    20  H    0.000004   0.000000   0.000000   0.000000   0.000000   0.000000
    21  C    0.000091   0.000015   0.000000  -0.000060  -0.000006   0.000000
    22  H    0.000001   0.000018   0.000000   0.000002  -0.000002  -0.000006
    23  H    0.000051   0.000000   0.000000   0.000060   0.000000   0.000000
    24  H   -0.000002   0.000000   0.000000   0.000001   0.000000   0.000000
    25  C   -0.001581   0.000147   0.000018   0.002019   0.003865   0.000385
    26  O   -0.004666  -0.000005   0.000002   0.005126   0.000582  -0.000004
    27  N   -0.062289   0.000292   0.004584  -0.005658  -0.035161  -0.004596
    28  H    0.001671   0.000297  -0.000012  -0.000172  -0.005284   0.017207
    29  C    0.335165  -0.038367  -0.037536  -0.029825   0.369116  -0.077286
    30  H   -0.042240   0.004069   0.000458  -0.003830  -0.047607   0.001965
    31  C    5.148863   0.388918   0.381441   0.391824  -0.049692  -0.000839
    32  H    0.388918   0.511319  -0.024144  -0.023307  -0.004358   0.002145
    33  H    0.381441  -0.024144   0.539674  -0.023457  -0.003277   0.000013
    34  H    0.391824  -0.023307  -0.023457   0.478428   0.004335  -0.000069
    35  C   -0.049692  -0.004358  -0.003277   0.004335   4.182254   0.598497
    36  O   -0.000839   0.002145   0.000013  -0.000069   0.598497   8.167344
    37  N    0.000272   0.000490   0.002541  -0.000069   0.274016  -0.104207
    38  H    0.000220   0.000004   0.000279  -0.000031  -0.021046   0.002534
    39  C   -0.000290  -0.000006  -0.000027   0.000003  -0.029103   0.008549
    40  H    0.000017   0.000002  -0.000015   0.000000  -0.002760   0.003448
    41  H   -0.000007   0.000000   0.000004   0.000000  -0.003710   0.001170
    42  H    0.000006   0.000000  -0.000007   0.000000   0.004547   0.000363
             37         38         39         40         41         42
     1  H    0.000000   0.000000   0.000000   0.000000   0.000000   0.000000
     2  C    0.000000   0.000000   0.000000   0.000000   0.000000   0.000000
     3  H    0.000000   0.000000   0.000000   0.000000   0.000000   0.000000
     4  H    0.000000   0.000000   0.000000   0.000000   0.000000   0.000000
     5  C    0.000000   0.000000   0.000000   0.000000   0.000000   0.000000
     6  O    0.000000   0.000000   0.000000   0.000000   0.000000   0.000000
     7  N    0.000000   0.000000   0.000000   0.000000   0.000000   0.000000
     8  H    0.000000   0.000000   0.000000   0.000000   0.000000   0.000000
     9  C    0.000000   0.000000   0.000000   0.000000   0.000000   0.000000
    10  H    0.000000   0.000000   0.000000   0.000000   0.000000   0.000000
    11  C    0.000000   0.000000   0.000000   0.000000   0.000000   0.000000
    12  H    0.000000   0.000000   0.000000   0.000000   0.000000   0.000000
    13  H    0.000000   0.000000   0.000000   0.000000   0.000000   0.000000
    14  H    0.000000   0.000000   0.000000   0.000000   0.000000   0.000000
    15  C    0.000000   0.000000   0.000000   0.000000   0.000000   0.000000
    16  O   -0.000002   0.000000   0.000000   0.000000   0.000000   0.000000
    17  N    0.000000   0.000000   0.000000   0.000000   0.000000   0.000000
    18  H    0.000000   0.000000   0.000000   0.000000   0.000000   0.000000
    19  C    0.000000   0.000000   0.000000   0.000000   0.000000   0.000000
    20  H    0.000000   0.000000   0.000000   0.000000   0.000000   0.000000
    21  C    0.000000   0.000000   0.000000   0.000000   0.000000   0.000000
    22  H    0.000000   0.000000   0.000000   0.000000   0.000000   0.000000
    23  H    0.000000   0.000000   0.000000   0.000000   0.000000   0.000000
    24  H    0.000000   0.000000   0.000000   0.000000   0.000000   0.000000
    25  C   -0.000101  -0.000013   0.000001   0.000000   0.000000   0.000000
    26  O   -0.000003  -0.000003   0.000000   0.000000   0.000000   0.000000
    27  N    0.002353  -0.000023  -0.000083  -0.000005   0.000010   0.000000
    28  H    0.000867  -0.000030  -0.000024  -0.000003   0.000002   0.000000
    29  C   -0.113076   0.000687   0.004661   0.000116  -0.000162  -0.000002
    30  H    0.004644   0.001873  -0.000048  -0.000001  -0.000005  -0.000015
    31  C    0.000272   0.000220  -0.000290   0.000017  -0.000007   0.000006
    32  H    0.000490   0.000004  -0.000006   0.000002   0.000000   0.000000
    33  H    0.002541   0.000279  -0.000027  -0.000015   0.000004  -0.000007
    34  H   -0.000069  -0.000031   0.000003   0.000000   0.000000   0.000000
    35  C    0.274016  -0.021046  -0.029103  -0.002760  -0.003710   0.004547
    36  O   -0.104207   0.002534   0.008549   0.003448   0.001170   0.000363
    37  N    7.332191   0.327777   0.197273  -0.040622  -0.046055  -0.037712
    38  H    0.327777   0.323521  -0.022658   0.002560   0.001313  -0.004537
    39  C    0.197273  -0.022658   4.905007   0.404379   0.406207   0.397314
    40  H   -0.040622   0.002560   0.404379   0.488162  -0.033113  -0.024795
    41  H   -0.046055   0.001313   0.406207  -0.033113   0.525672  -0.031841
    42  H   -0.037712  -0.004537   0.397314  -0.024795  -0.031841   0.527525
 Mulliken atomic charges:
              1
     1  H    0.208174
     2  C   -0.576252
     3  H    0.175105
     4  H    0.203518
     5  C    0.755922
     6  O   -0.622262
     7  N   -0.824322
     8  H    0.422691
     9  C   -0.036896
    10  H    0.217255
    11  C   -0.485757
    12  H    0.180991
    13  H    0.158374
    14  H    0.213362
    15  C    0.804754
    16  O   -0.644707
    17  N   -0.842171
    18  H    0.394736
    19  C   -0.022599
    20  H    0.226104
    21  C   -0.480546
    22  H    0.189885
    23  H    0.185833
    24  H    0.169652
    25  C    0.756716
    26  O   -0.633086
    27  N   -0.836545
    28  H    0.484278
    29  C   -0.023920
    30  H    0.205422
    31  C   -0.486589
    32  H    0.182489
    33  H    0.159455
    34  H    0.204596
    35  C    0.764638
    36  O   -0.616438
    37  N   -0.800577
    38  H    0.387572
    39  C   -0.271155
    40  H    0.202630
    41  H    0.180515
    42  H    0.169154
 Sum of Mulliken atomic charges =   0.00000
 Mulliken charges with hydrogens summed into heavy atoms:
              1
     2  C    0.010545
     5  C    0.755922
     6  O   -0.622262
     7  N   -0.401632
     9  C    0.180359
    11  C    0.066970
    15  C    0.804754
    16  O   -0.644707
    17  N   -0.447435
    19  C    0.203505
    21  C    0.064824
    25  C    0.756716
    26  O   -0.633086
    27  N   -0.352267
    29  C    0.181501
    31  C    0.059952
    35  C    0.764638
    36  O   -0.616438
    37  N   -0.413004
    39  C    0.281144
 Sum of Mulliken charges with hydrogens summed into heavy atoms =   0.00000
 Electronic spatial extent (au):  <R**2>=           7904.7284
 Charge=              0.0000 electrons
 Dipole moment (field-independent basis, Debye):
    X=              1.9518    Y=              0.6627    Z=             -0.0017  Tot=              2.0613
 Quadrupole moment (field-independent basis, Debye-Ang):
   XX=           -128.1064   YY=           -101.7994   ZZ=           -128.5426
   XY=             12.8768   XZ=             10.0312   YZ=              9.5750
 Traceless Quadrupole moment (field-independent basis, Debye-Ang):
   XX=             -8.6236   YY=             17.6834   ZZ=             -9.0598
   XY=             12.8768   XZ=             10.0312   YZ=              9.5750
 Octapole moment (field-independent basis, Debye-Ang**2):
  XXX=            204.3387  YYY=             33.3052  ZZZ=             -2.5677  XYY=            -20.9308
  XXY=             50.9484  XXZ=            -34.6344  XZZ=             -7.4387  YZZ=             12.7383
  YYZ=              1.8261  XYZ=             38.8249
 Hexadecapole moment (field-independent basis, Debye-Ang**3):
 XXXX=          -7519.5567 YYYY=          -2735.0975 ZZZZ=           -557.4855 XXXY=            202.3205
 XXXZ=            346.3478 YYYX=            104.4877 YYYZ=             12.7338 ZZZX=             -9.1030
 ZZZY=             25.8847 XXYY=          -1393.5434 XXZZ=          -1273.2168 YYZZ=           -610.4879
 XXYZ=             50.4655 YYXZ=            -30.9861 ZZXY=             42.8203
 N-N= 1.647820284727D+03 E-N=-5.603787663359D+03  KE= 9.830803273474D+02
 1\1\GINC-NODE005\FOpt\RHF\6-31G(d)\C12H22N4O4\MANAGER\27-Dec-2016\0\\#
  HF/6-31G* Opt=(ModRedundant, maxcycles=1000, calcfc) geom=nocrowd\\Ph
 i Psi fixed scan\\0,1\H,9.5055211428,1.0697299884,0.929897505\C,8.9289
 831728,1.6249737863,1.657597943\H,9.5742250188,2.3219445348,2.17828209
 4\H,8.5293696412,0.9168327166,2.3755385851\C,7.7730695374,2.2966998459
 ,0.9492237736\O,7.1227275514,1.7229620663,0.1145791368\N,7.508602853,3
 .5639633742,1.3283081347\H,8.0665555742,4.0286199826,2.0091182457\C,6.
 4301238679,4.3256627502,0.7499758589\H,6.3853464126,4.0953719851,-0.30
 68201634\C,5.07652578,3.990852235,1.3926775889\H,5.0942630501,4.226446
 7275,2.4511055315\H,4.2671812309,4.5460687365,0.9297791229\H,4.8804074
 346,2.9340180638,1.270345646\C,6.7581965572,5.8058452014,0.9460128901\
 O,7.5084579583,6.1534685963,1.8217146353\N,6.0869693398,6.6415204175,0
 .1316320745\H,5.5567087323,6.1909952292,-0.5799199495\C,6.2234687508,8
 .0854829703,-0.1060842108\H,6.0063959868,8.2192072795,-1.1535716975\C,
 5.1876078179,8.8562241772,0.7234487726\H,5.3657770907,8.7181599272,1.7
 83115239\H,5.2328218371,9.9161835944,0.4984871485\H,4.189462639,8.4990
 681069,0.4948154121\C,7.5886443217,8.7866170583,0.0439102521\O,7.95484
 67327,9.4549813082,-0.8926708233\N,8.2366614218,8.7697807506,1.2148578
 813\H,8.0240361602,8.0734417921,1.8990132666\C,9.4586718999,9.52673328
 71,1.380547687\H,10.0296347686,9.4667127502,0.4621707873\C,9.175087597
 8,11.0024752583,1.6902748305\H,8.6115464569,11.0878617354,2.612461776\
 H,10.0981078268,11.5637033551,1.7947409905\H,8.6003612614,11.435431815
 9,0.8822994518\C,10.2525006474,8.9067768633,2.5249096899\O,9.713957099
 1,8.335961131,3.4346390947\N,11.5860334599,9.0968819779,2.4687835043\H
 ,11.9852125585,9.4709696292,1.6398188787\C,12.468576132,8.5848132235,3
 .4955261106\H,12.0938014427,8.8556065583,4.4720130233\H,12.5537812964,
 7.5048790302,3.4490623508\H,13.4488699384,9.0219701821,3.360281931\\Ve
 rsion=EM64L-G09RevA.02\State=1-A\HF=-984.5497134\RMSD=6.231e-09\RMSF=1
 .911e-03\Dipole=0.5155959,0.5876982,0.2154918\Quadrupole=19.962372,-10
 .7237249,-9.2386471,-0.0194447,3.5179817,-3.9765493\PG=C01 [X(C12H22N4
 O4)]\\@


 A BIRD IN THE HAND IS SAFER THAN ONE OVERHEAD.

                       -- NEWTON'S SEVENTH LAW
 Job cpu time:  0 days  3 hours  9 minutes 44.5 seconds.
 File lengths (MBytes):  RWF=    553 Int=      0 D2E=      0 Chk=     11 Scr=      1
 Normal termination of Gaussian 09 at Tue Dec 27 07:59:19 2016.
