 Entering Gaussian System, Link 0=g09
 Initial command:
 /home/steboss/Software/g09/l1.exe /tmp/Gau-1507.inp -scrdir=/tmp/
 Entering Link 1 = /home/steboss/Software/g09/l1.exe PID=      1510.
  
 Copyright (c) 1988,1990,1992,1993,1995,1998,2003,2009, Gaussian, Inc.
                  All Rights Reserved.
  
 This is part of the Gaussian(R) 09 program.  It is based on
 the Gaussian(R) 03 system (copyright 2003, Gaussian, Inc.),
 the Gaussian(R) 98 system (copyright 1998, Gaussian, Inc.),
 the Gaussian(R) 94 system (copyright 1995, Gaussian, Inc.),
 the Gaussian 92(TM) system (copyright 1992, Gaussian, Inc.),
 the Gaussian 90(TM) system (copyright 1990, Gaussian, Inc.),
 the Gaussian 88(TM) system (copyright 1988, Gaussian, Inc.),
 the Gaussian 86(TM) system (copyright 1986, Carnegie Mellon
 University), and the Gaussian 82(TM) system (copyright 1983,
 Carnegie Mellon University). Gaussian is a federally registered
 trademark of Gaussian, Inc.
  
 This software contains proprietary and confidential information,
 including trade secrets, belonging to Gaussian, Inc.
  
 This software is provided under written license and may be
 used, copied, transmitted, or stored only in accord with that
 written license.
  
 The following legend is applicable only to US Government
 contracts under FAR:
  
                    RESTRICTED RIGHTS LEGEND
  
 Use, reproduction and disclosure by the US Government is
 subject to restrictions as set forth in subparagraphs (a)
 and (c) of the Commercial Computer Software - Restricted
 Rights clause in FAR 52.227-19.
  
 Gaussian, Inc.
 340 Quinnipiac St., Bldg. 40, Wallingford CT 06492
  
  
 ---------------------------------------------------------------
 Warning -- This program may not be used in any manner that
 competes with the business of Gaussian, Inc. or will provide
 assistance to any competitor of Gaussian, Inc.  The licensee
 of this program is prohibited from giving any competitor of
 Gaussian, Inc. access to this program.  By using this program,
 the user acknowledges that Gaussian, Inc. is engaged in the
 business of creating and licensing software in the field of
 computational chemistry and represents and warrants to the
 licensee that it is not a competitor of Gaussian, Inc. and that
 it will not use this program in any manner prohibited above.
 ---------------------------------------------------------------
  

 Cite this work as:
 Gaussian 09, Revision A.02,
 M. J. Frisch, G. W. Trucks, H. B. Schlegel, G. E. Scuseria, 
 M. A. Robb, J. R. Cheeseman, G. Scalmani, V. Barone, B. Mennucci, 
 G. A. Petersson, H. Nakatsuji, M. Caricato, X. Li, H. P. Hratchian, 
 A. F. Izmaylov, J. Bloino, G. Zheng, J. L. Sonnenberg, M. Hada, 
 M. Ehara, K. Toyota, R. Fukuda, J. Hasegawa, M. Ishida, T. Nakajima, 
 Y. Honda, O. Kitao, H. Nakai, T. Vreven, J. A. Montgomery, Jr., 
 J. E. Peralta, F. Ogliaro, M. Bearpark, J. J. Heyd, E. Brothers, 
 K. N. Kudin, V. N. Staroverov, R. Kobayashi, J. Normand, 
 K. Raghavachari, A. Rendell, J. C. Burant, S. S. Iyengar, J. Tomasi, 
 M. Cossi, N. Rega, J. M. Millam, M. Klene, J. E. Knox, J. B. Cross, 
 V. Bakken, C. Adamo, J. Jaramillo, R. Gomperts, R. E. Stratmann, 
 O. Yazyev, A. J. Austin, R. Cammi, C. Pomelli, J. W. Ochterski, 
 R. L. Martin, K. Morokuma, V. G. Zakrzewski, G. A. Voth, 
 P. Salvador, J. J. Dannenberg, S. Dapprich, A. D. Daniels, 
 O. Farkas, J. B. Foresman, J. V. Ortiz, J. Cioslowski, 
 and D. J. Fox, Gaussian, Inc., Wallingford CT, 2009.
 
 ******************************************
 Gaussian 09:  EM64L-G09RevA.02 11-Jun-2009
                27-Dec-2016 
 ******************************************
 %chk=structure_240.chk
 -------------------------------------------------------------------
 # HF/6-31G* Opt=(ModRedundant, maxcycles=1000, calcfc) geom=nocrowd
 -------------------------------------------------------------------
 1/6=1000,10=4,18=120,19=15,38=1/1,3;
 2/9=110,12=1,17=6,18=5,40=1/2;
 3/5=1,6=6,7=1,11=9,16=1,25=1,30=1,71=2/1,2,3;
 4//1;
 5/5=2,38=5/2;
 8/6=4,10=90,11=11/1;
 11/6=1,8=1,9=11,15=111,16=1/1,2,10;
 10/6=1,7=6,13=1/2;
 6/7=2,8=2,9=2,10=2,28=1/1;
 7/10=1,18=20,25=1/1,2,3,16;
 1/6=1000,10=4,18=20,19=15/3(2);
 2/9=110,12=1/2;
 99//99;
 2/9=110,12=1/2;
 3/5=1,6=6,7=1,11=9,16=1,25=1,30=1,71=1/1,2,3;
 4/5=5,16=3/1;
 5/5=2,38=5/2;
 7//1,2,3,16;
 1/6=1000,18=20,19=15/3(-5);
 2/9=110,12=1/2;
 6/7=2,8=2,9=2,10=2,19=2,28=1/1;
 99/9=1/99;
 ------------------
 Phi Psi fixed scan
 ------------------
 Symbolic Z-matrix:
 Charge =  0 Multiplicity = 1
 H                     9.1768    1.        1.923 
 C                     9.1768    2.09      1.923 
 H                     10.0666   2.4538    1.4093 
 H                     9.1768    2.4538    2.9505 
 C                     7.9406    2.6408    1.2093 
 O                     7.1065    1.8774    0.7277 
 N                     7.8298    3.9696    1.1453 
 H                     8.5419    4.5561    1.5565 
 C                     6.7058    4.6139    0.4964 
 H                     6.6707    4.3155   -0.5514 
 C                     5.39      4.2208    1.1594 
 H                     5.4064    4.5213    2.2071 
 H                     4.5638    4.7189    0.652 
 H                     5.2578    3.1409    1.0938 
 C                     6.8276    6.1294    0.5667 
 O                     7.7906    6.6527    1.1227 
 N                     5.846     6.8349    0. 
 H                     5.0745    6.3592   -0.4455 
 C                     5.8461    8.2839    0. 
 H                     5.3323    8.6477   -0.8898 
 C                     5.1347    8.8329    1.2322 
 H                     5.6431    8.4846    2.1312 
 H                     5.1499    9.9224    1.2058 
 H                     4.1019    8.4846    1.2414 
 C                     7.266     8.8318    0. 
 O                     8.0386    8.5624   -0.9171 
 N                     7.6088    9.6038    1.0338 
 H                     6.9383    9.797     1.764 
 C                     8.9308    10.1857   1.1497 
 H                     9.6765    9.3913    1.1807 
 C                     9.2363    11.0949  -0.0359 
 H                     8.5033    11.9006  -0.0749 
 H                     10.2346   11.5176   0.0776 
 H                     9.1898    10.5171  -0.959 
 C                     9.0538    11.018    2.418 
 O                     8.1017    11.1268   3.1875 
 N                     10.2322   11.6068   2.6346 
 H                     10.9856   11.4877   1.9725 
 C                     10.4756   12.4252   3.8053 
 H                     9.5758    12.4581   4.4197 
 H                     11.2946   11.998    4.3841 
 H                     10.7397   13.4359   3.4943 
 
 The following ModRedundant input section has been read:
 D   15   17   19   25 F                                                       
 D   17   19   25   27 F                                                       

 GradGradGradGradGradGradGradGradGradGradGradGradGradGradGradGradGradGrad
 Berny optimization.
 Initialization pass.
                           ----------------------------
                           !    Initial Parameters    !
                           ! (Angstroms and Degrees)  !
 --------------------------                            --------------------------
 ! Name  Definition              Value          Derivative Info.                !
 --------------------------------------------------------------------------------
 ! R1    R(1,2)                  1.09           calculate D2E/DX2 analytically  !
 ! R2    R(2,3)                  1.0899         calculate D2E/DX2 analytically  !
 ! R3    R(2,4)                  1.09           calculate D2E/DX2 analytically  !
 ! R4    R(2,5)                  1.53           calculate D2E/DX2 analytically  !
 ! R5    R(5,6)                  1.229          calculate D2E/DX2 analytically  !
 ! R6    R(5,7)                  1.3349         calculate D2E/DX2 analytically  !
 ! R7    R(7,8)                  1.01           calculate D2E/DX2 analytically  !
 ! R8    R(7,9)                  1.449          calculate D2E/DX2 analytically  !
 ! R9    R(9,10)                 1.09           calculate D2E/DX2 analytically  !
 ! R10   R(9,11)                 1.5249         calculate D2E/DX2 analytically  !
 ! R11   R(9,15)                 1.522          calculate D2E/DX2 analytically  !
 ! R12   R(11,12)                1.0901         calculate D2E/DX2 analytically  !
 ! R13   R(11,13)                1.09           calculate D2E/DX2 analytically  !
 ! R14   R(11,14)                1.0899         calculate D2E/DX2 analytically  !
 ! R15   R(15,16)                1.229          calculate D2E/DX2 analytically  !
 ! R16   R(15,17)                1.3351         calculate D2E/DX2 analytically  !
 ! R17   R(17,18)                1.0099         calculate D2E/DX2 analytically  !
 ! R18   R(17,19)                1.449          calculate D2E/DX2 analytically  !
 ! R19   R(19,20)                1.09           calculate D2E/DX2 analytically  !
 ! R20   R(19,21)                1.5251         calculate D2E/DX2 analytically  !
 ! R21   R(19,25)                1.5219         calculate D2E/DX2 analytically  !
 ! R22   R(21,22)                1.0899         calculate D2E/DX2 analytically  !
 ! R23   R(21,23)                1.0899         calculate D2E/DX2 analytically  !
 ! R24   R(21,24)                1.09           calculate D2E/DX2 analytically  !
 ! R25   R(25,26)                1.229          calculate D2E/DX2 analytically  !
 ! R26   R(25,27)                1.335          calculate D2E/DX2 analytically  !
 ! R27   R(27,28)                1.01           calculate D2E/DX2 analytically  !
 ! R28   R(27,29)                1.449          calculate D2E/DX2 analytically  !
 ! R29   R(29,30)                1.09           calculate D2E/DX2 analytically  !
 ! R30   R(29,31)                1.525          calculate D2E/DX2 analytically  !
 ! R31   R(29,35)                1.522          calculate D2E/DX2 analytically  !
 ! R32   R(31,32)                1.0899         calculate D2E/DX2 analytically  !
 ! R33   R(31,33)                1.09           calculate D2E/DX2 analytically  !
 ! R34   R(31,34)                1.09           calculate D2E/DX2 analytically  !
 ! R35   R(35,36)                1.229          calculate D2E/DX2 analytically  !
 ! R36   R(35,37)                1.335          calculate D2E/DX2 analytically  !
 ! R37   R(37,38)                1.01           calculate D2E/DX2 analytically  !
 ! R38   R(37,39)                1.449          calculate D2E/DX2 analytically  !
 ! R39   R(39,40)                1.0901         calculate D2E/DX2 analytically  !
 ! R40   R(39,41)                1.0901         calculate D2E/DX2 analytically  !
 ! R41   R(39,42)                1.0899         calculate D2E/DX2 analytically  !
 ! A1    A(1,2,3)              109.4982         calculate D2E/DX2 analytically  !
 ! A2    A(1,2,4)              109.4972         calculate D2E/DX2 analytically  !
 ! A3    A(1,2,5)              111.1            calculate D2E/DX2 analytically  !
 ! A4    A(3,2,4)              109.4437         calculate D2E/DX2 analytically  !
 ! A5    A(3,2,5)              108.6383         calculate D2E/DX2 analytically  !
 ! A6    A(4,2,5)              108.6367         calculate D2E/DX2 analytically  !
 ! A7    A(2,5,6)              120.4994         calculate D2E/DX2 analytically  !
 ! A8    A(2,5,7)              116.6003         calculate D2E/DX2 analytically  !
 ! A9    A(6,5,7)              122.9003         calculate D2E/DX2 analytically  !
 ! A10   A(5,7,8)              119.9979         calculate D2E/DX2 analytically  !
 ! A11   A(5,7,9)              121.9015         calculate D2E/DX2 analytically  !
 ! A12   A(8,7,9)              118.1005         calculate D2E/DX2 analytically  !
 ! A13   A(7,9,10)             109.4955         calculate D2E/DX2 analytically  !
 ! A14   A(7,9,11)             111.1003         calculate D2E/DX2 analytically  !
 ! A15   A(7,9,15)             111.0996         calculate D2E/DX2 analytically  !
 ! A16   A(10,9,11)            108.6373         calculate D2E/DX2 analytically  !
 ! A17   A(10,9,15)            108.6363         calculate D2E/DX2 analytically  !
 ! A18   A(11,9,15)            107.7971         calculate D2E/DX2 analytically  !
 ! A19   A(9,11,12)            109.5014         calculate D2E/DX2 analytically  !
 ! A20   A(9,11,13)            109.5016         calculate D2E/DX2 analytically  !
 ! A21   A(9,11,14)            109.5055         calculate D2E/DX2 analytically  !
 ! A22   A(12,11,13)           109.4408         calculate D2E/DX2 analytically  !
 ! A23   A(12,11,14)           109.4391         calculate D2E/DX2 analytically  !
 ! A24   A(13,11,14)           109.4389         calculate D2E/DX2 analytically  !
 ! A25   A(9,15,16)            120.5033         calculate D2E/DX2 analytically  !
 ! A26   A(9,15,17)            116.5982         calculate D2E/DX2 analytically  !
 ! A27   A(16,15,17)           122.8984         calculate D2E/DX2 analytically  !
 ! A28   A(15,17,18)           119.9997         calculate D2E/DX2 analytically  !
 ! A29   A(15,17,19)           121.8964         calculate D2E/DX2 analytically  !
 ! A30   A(18,17,19)           118.1039         calculate D2E/DX2 analytically  !
 ! A31   A(17,19,20)           109.4954         calculate D2E/DX2 analytically  !
 ! A32   A(17,19,21)           111.0974         calculate D2E/DX2 analytically  !
 ! A33   A(17,19,25)           111.1042         calculate D2E/DX2 analytically  !
 ! A34   A(20,19,21)           108.6349         calculate D2E/DX2 analytically  !
 ! A35   A(20,19,25)           108.6399         calculate D2E/DX2 analytically  !
 ! A36   A(21,19,25)           107.7944         calculate D2E/DX2 analytically  !
 ! A37   A(19,21,22)           109.4996         calculate D2E/DX2 analytically  !
 ! A38   A(19,21,23)           109.4977         calculate D2E/DX2 analytically  !
 ! A39   A(19,21,24)           109.4988         calculate D2E/DX2 analytically  !
 ! A40   A(22,21,23)           109.4452         calculate D2E/DX2 analytically  !
 ! A41   A(22,21,24)           109.4447         calculate D2E/DX2 analytically  !
 ! A42   A(23,21,24)           109.4412         calculate D2E/DX2 analytically  !
 ! A43   A(19,25,26)           120.5014         calculate D2E/DX2 analytically  !
 ! A44   A(19,25,27)           116.5988         calculate D2E/DX2 analytically  !
 ! A45   A(26,25,27)           122.8998         calculate D2E/DX2 analytically  !
 ! A46   A(25,27,28)           120.0005         calculate D2E/DX2 analytically  !
 ! A47   A(25,27,29)           121.8991         calculate D2E/DX2 analytically  !
 ! A48   A(28,27,29)           118.1005         calculate D2E/DX2 analytically  !
 ! A49   A(27,29,30)           109.4967         calculate D2E/DX2 analytically  !
 ! A50   A(27,29,31)           111.1002         calculate D2E/DX2 analytically  !
 ! A51   A(27,29,35)           111.0992         calculate D2E/DX2 analytically  !
 ! A52   A(30,29,31)           108.6371         calculate D2E/DX2 analytically  !
 ! A53   A(30,29,35)           108.6364         calculate D2E/DX2 analytically  !
 ! A54   A(31,29,35)           107.7965         calculate D2E/DX2 analytically  !
 ! A55   A(29,31,32)           109.5004         calculate D2E/DX2 analytically  !
 ! A56   A(29,31,33)           109.4945         calculate D2E/DX2 analytically  !
 ! A57   A(29,31,34)           109.5003         calculate D2E/DX2 analytically  !
 ! A58   A(32,31,33)           109.4503         calculate D2E/DX2 analytically  !
 ! A59   A(32,31,34)           109.4422         calculate D2E/DX2 analytically  !
 ! A60   A(33,31,34)           109.4395         calculate D2E/DX2 analytically  !
 ! A61   A(29,35,36)           120.5013         calculate D2E/DX2 analytically  !
 ! A62   A(29,35,37)           116.598          calculate D2E/DX2 analytically  !
 ! A63   A(36,35,37)           122.9008         calculate D2E/DX2 analytically  !
 ! A64   A(35,37,38)           120.0034         calculate D2E/DX2 analytically  !
 ! A65   A(35,37,39)           121.9021         calculate D2E/DX2 analytically  !
 ! A66   A(38,37,39)           118.0945         calculate D2E/DX2 analytically  !
 ! A67   A(37,39,40)           109.4983         calculate D2E/DX2 analytically  !
 ! A68   A(37,39,41)           109.5029         calculate D2E/DX2 analytically  !
 ! A69   A(37,39,42)           109.5063         calculate D2E/DX2 analytically  !
 ! A70   A(40,39,41)           109.4352         calculate D2E/DX2 analytically  !
 ! A71   A(40,39,42)           109.4421         calculate D2E/DX2 analytically  !
 ! A72   A(41,39,42)           109.4425         calculate D2E/DX2 analytically  !
 ! D1    D(1,2,5,6)             -0.0022         calculate D2E/DX2 analytically  !
 ! D2    D(1,2,5,7)           -179.9987         calculate D2E/DX2 analytically  !
 ! D3    D(3,2,5,6)            120.5094         calculate D2E/DX2 analytically  !
 ! D4    D(3,2,5,7)            -59.4871         calculate D2E/DX2 analytically  !
 ! D5    D(4,2,5,6)           -120.5114         calculate D2E/DX2 analytically  !
 ! D6    D(4,2,5,7)             59.4921         calculate D2E/DX2 analytically  !
 ! D7    D(2,5,7,8)             -0.0058         calculate D2E/DX2 analytically  !
 ! D8    D(2,5,7,9)           -179.9989         calculate D2E/DX2 analytically  !
 ! D9    D(6,5,7,8)            179.9977         calculate D2E/DX2 analytically  !
 ! D10   D(6,5,7,9)              0.0046         calculate D2E/DX2 analytically  !
 ! D11   D(5,7,9,10)           -60.0034         calculate D2E/DX2 analytically  !
 ! D12   D(5,7,9,11)            59.9958         calculate D2E/DX2 analytically  !
 ! D13   D(5,7,9,15)           179.9991         calculate D2E/DX2 analytically  !
 ! D14   D(8,7,9,10)           120.0034         calculate D2E/DX2 analytically  !
 ! D15   D(8,7,9,11)          -119.9974         calculate D2E/DX2 analytically  !
 ! D16   D(8,7,9,15)             0.0059         calculate D2E/DX2 analytically  !
 ! D17   D(7,9,11,12)           60.0015         calculate D2E/DX2 analytically  !
 ! D18   D(7,9,11,13)         -179.9986         calculate D2E/DX2 analytically  !
 ! D19   D(7,9,11,14)          -59.9987         calculate D2E/DX2 analytically  !
 ! D20   D(10,9,11,12)        -179.4908         calculate D2E/DX2 analytically  !
 ! D21   D(10,9,11,13)         -59.4909         calculate D2E/DX2 analytically  !
 ! D22   D(10,9,11,14)          60.5091         calculate D2E/DX2 analytically  !
 ! D23   D(15,9,11,12)         -61.9448         calculate D2E/DX2 analytically  !
 ! D24   D(15,9,11,13)          58.055          calculate D2E/DX2 analytically  !
 ! D25   D(15,9,11,14)         178.055          calculate D2E/DX2 analytically  !
 ! D26   D(7,9,15,16)           -0.0028         calculate D2E/DX2 analytically  !
 ! D27   D(7,9,15,17)          179.9997         calculate D2E/DX2 analytically  !
 ! D28   D(10,9,15,16)        -120.5094         calculate D2E/DX2 analytically  !
 ! D29   D(10,9,15,17)          59.493          calculate D2E/DX2 analytically  !
 ! D30   D(11,9,15,16)         121.944          calculate D2E/DX2 analytically  !
 ! D31   D(11,9,15,17)         -58.0536         calculate D2E/DX2 analytically  !
 ! D32   D(9,15,17,18)          -0.0061         calculate D2E/DX2 analytically  !
 ! D33   D(9,15,17,19)        -179.9983         calculate D2E/DX2 analytically  !
 ! D34   D(16,15,17,18)        179.9964         calculate D2E/DX2 analytically  !
 ! D35   D(16,15,17,19)          0.0042         calculate D2E/DX2 analytically  !
 ! D36   D(15,17,19,20)        150.0024         calculate D2E/DX2 analytically  !
 ! D37   D(15,17,19,21)        -90.0034         calculate D2E/DX2 analytically  !
 ! D38   D(15,17,19,25)         29.9976         frozen, calculate D2E/DX2 analyt!
 ! D39   D(18,17,19,20)        -29.99           calculate D2E/DX2 analytically  !
 ! D40   D(18,17,19,21)         90.0043         calculate D2E/DX2 analytically  !
 ! D41   D(18,17,19,25)       -149.9948         calculate D2E/DX2 analytically  !
 ! D42   D(17,19,21,22)         60.0039         calculate D2E/DX2 analytically  !
 ! D43   D(17,19,21,23)       -179.9943         calculate D2E/DX2 analytically  !
 ! D44   D(17,19,21,24)        -59.998          calculate D2E/DX2 analytically  !
 ! D45   D(20,19,21,22)       -179.4919         calculate D2E/DX2 analytically  !
 ! D46   D(20,19,21,23)        -59.4901         calculate D2E/DX2 analytically  !
 ! D47   D(20,19,21,24)         60.5062         calculate D2E/DX2 analytically  !
 ! D48   D(25,19,21,22)        -61.9445         calculate D2E/DX2 analytically  !
 ! D49   D(25,19,21,23)         58.0573         calculate D2E/DX2 analytically  !
 ! D50   D(25,19,21,24)        178.0536         calculate D2E/DX2 analytically  !
 ! D51   D(17,19,25,26)         60.0007         calculate D2E/DX2 analytically  !
 ! D52   D(17,19,25,27)       -119.9986         frozen, calculate D2E/DX2 analyt!
 ! D53   D(20,19,25,26)        -60.511          calculate D2E/DX2 analytically  !
 ! D54   D(20,19,25,27)        119.4897         calculate D2E/DX2 analytically  !
 ! D55   D(21,19,25,26)       -178.0552         calculate D2E/DX2 analytically  !
 ! D56   D(21,19,25,27)          1.9456         calculate D2E/DX2 analytically  !
 ! D57   D(19,25,27,28)         -0.0039         calculate D2E/DX2 analytically  !
 ! D58   D(19,25,27,29)       -179.9979         calculate D2E/DX2 analytically  !
 ! D59   D(26,25,27,28)        179.9968         calculate D2E/DX2 analytically  !
 ! D60   D(26,25,27,29)          0.0029         calculate D2E/DX2 analytically  !
 ! D61   D(25,27,29,30)        -60.0024         calculate D2E/DX2 analytically  !
 ! D62   D(25,27,29,31)         59.9972         calculate D2E/DX2 analytically  !
 ! D63   D(25,27,29,35)        179.9994         calculate D2E/DX2 analytically  !
 ! D64   D(28,27,29,30)        120.0035         calculate D2E/DX2 analytically  !
 ! D65   D(28,27,29,31)       -119.9968         calculate D2E/DX2 analytically  !
 ! D66   D(28,27,29,35)          0.0054         calculate D2E/DX2 analytically  !
 ! D67   D(27,29,31,32)         59.9986         calculate D2E/DX2 analytically  !
 ! D68   D(27,29,31,33)       -179.9949         calculate D2E/DX2 analytically  !
 ! D69   D(27,29,31,34)        -60.0016         calculate D2E/DX2 analytically  !
 ! D70   D(30,29,31,32)       -179.4924         calculate D2E/DX2 analytically  !
 ! D71   D(30,29,31,33)        -59.4859         calculate D2E/DX2 analytically  !
 ! D72   D(30,29,31,34)         60.5074         calculate D2E/DX2 analytically  !
 ! D73   D(35,29,31,32)        -61.9468         calculate D2E/DX2 analytically  !
 ! D74   D(35,29,31,33)         58.0597         calculate D2E/DX2 analytically  !
 ! D75   D(35,29,31,34)        178.053          calculate D2E/DX2 analytically  !
 ! D76   D(27,29,35,36)         -0.0026         calculate D2E/DX2 analytically  !
 ! D77   D(27,29,35,37)       -179.9999         calculate D2E/DX2 analytically  !
 ! D78   D(30,29,35,36)       -120.5105         calculate D2E/DX2 analytically  !
 ! D79   D(30,29,35,37)         59.4922         calculate D2E/DX2 analytically  !
 ! D80   D(31,29,35,36)        121.9434         calculate D2E/DX2 analytically  !
 ! D81   D(31,29,35,37)        -58.0539         calculate D2E/DX2 analytically  !
 ! D82   D(29,35,37,38)         -0.0074         calculate D2E/DX2 analytically  !
 ! D83   D(29,35,37,39)        179.9988         calculate D2E/DX2 analytically  !
 ! D84   D(36,35,37,38)        179.9954         calculate D2E/DX2 analytically  !
 ! D85   D(36,35,37,39)          0.0016         calculate D2E/DX2 analytically  !
 ! D86   D(35,37,39,40)          0.003          calculate D2E/DX2 analytically  !
 ! D87   D(35,37,39,41)        119.9949         calculate D2E/DX2 analytically  !
 ! D88   D(35,37,39,42)       -119.9995         calculate D2E/DX2 analytically  !
 ! D89   D(38,37,39,40)       -179.9909         calculate D2E/DX2 analytically  !
 ! D90   D(38,37,39,41)        -59.999          calculate D2E/DX2 analytically  !
 ! D91   D(38,37,39,42)         60.0067         calculate D2E/DX2 analytically  !
 --------------------------------------------------------------------------------
 Trust Radius=3.00D-01 FncErr=1.00D-07 GrdErr=1.00D-07
 Number of steps in this run= 252 maximum allowed number of steps= 252.
 GradGradGradGradGradGradGradGradGradGradGradGradGradGradGradGradGradGrad

                          Input orientation:                          
 ---------------------------------------------------------------------
 Center     Atomic      Atomic             Coordinates (Angstroms)
 Number     Number       Type             X           Y           Z
 ---------------------------------------------------------------------
      1          1           0        9.176800    1.000000    1.923000
      2          6           0        9.176800    2.090000    1.923000
      3          1           0       10.066600    2.453800    1.409300
      4          1           0        9.176800    2.453800    2.950500
      5          6           0        7.940600    2.640800    1.209300
      6          8           0        7.106500    1.877400    0.727700
      7          7           0        7.829800    3.969600    1.145300
      8          1           0        8.541900    4.556100    1.556500
      9          6           0        6.705800    4.613900    0.496400
     10          1           0        6.670700    4.315500   -0.551400
     11          6           0        5.390000    4.220800    1.159400
     12          1           0        5.406400    4.521300    2.207100
     13          1           0        4.563800    4.718900    0.652000
     14          1           0        5.257800    3.140900    1.093800
     15          6           0        6.827600    6.129400    0.566700
     16          8           0        7.790600    6.652700    1.122700
     17          7           0        5.846000    6.834900    0.000000
     18          1           0        5.074500    6.359200   -0.445500
     19          6           0        5.846100    8.283900    0.000000
     20          1           0        5.332300    8.647700   -0.889800
     21          6           0        5.134700    8.832900    1.232200
     22          1           0        5.643100    8.484600    2.131200
     23          1           0        5.149900    9.922400    1.205800
     24          1           0        4.101900    8.484600    1.241400
     25          6           0        7.266000    8.831800    0.000000
     26          8           0        8.038600    8.562400   -0.917100
     27          7           0        7.608800    9.603800    1.033800
     28          1           0        6.938300    9.797000    1.764000
     29          6           0        8.930800   10.185700    1.149700
     30          1           0        9.676500    9.391300    1.180700
     31          6           0        9.236300   11.094900   -0.035900
     32          1           0        8.503300   11.900600   -0.074900
     33          1           0       10.234600   11.517600    0.077600
     34          1           0        9.189800   10.517100   -0.959000
     35          6           0        9.053800   11.018000    2.418000
     36          8           0        8.101700   11.126800    3.187500
     37          7           0       10.232200   11.606800    2.634600
     38          1           0       10.985600   11.487700    1.972500
     39          6           0       10.475600   12.425200    3.805300
     40          1           0        9.575800   12.458100    4.419700
     41          1           0       11.294600   11.998000    4.384100
     42          1           0       10.739700   13.435900    3.494300
 ---------------------------------------------------------------------
                    Distance matrix (angstroms):
                    1          2          3          4          5
     1  H    0.000000
     2  C    1.090000   0.000000
     3  H    1.780215   1.089946   0.000000
     4  H    1.780250   1.090003   1.779618   0.000000
     5  C    2.174806   1.530013   2.143559   2.143580   0.000000
     6  O    2.546510   2.400017   3.091764   3.091799   1.229000
     7  N    3.352275   2.439697   2.714889   2.714923   1.334946
     8  H    3.630877   2.572755   2.601162   2.601153   2.037274
     9  C    4.604487   3.809344   4.098097   4.098107   2.434354
    10  H    4.836914   4.166058   4.340784   4.691457   2.741775
    11  C    5.029562   4.411717   5.005530   4.546447   3.000742
    12  H    5.166835   4.495314   5.160281   4.363842   3.309691
    13  H    6.060151   5.459517   5.998749   5.629702   4.003981
    14  H    4.541980   4.141319   4.867875   4.390672   2.731457
    15  C    5.802502   4.865701   4.971029   4.971044   3.717800
    16  O    5.874951   4.835314   4.784671   4.784680   4.015637
    17  N    6.988434   6.107883   6.244488   6.244495   4.841511
    18  H    7.152600   6.376890   6.604051   6.604077   4.977890
    19  C    8.236910   7.290809   7.334086   7.334104   6.139537
    20  H    9.009958   8.105273   8.127967   8.239689   6.876940
    21  C    8.841386   7.891925   8.065229   7.744937   6.798213
    22  H    8.279470   7.308987   7.513923   7.037673   6.346527
    23  H    9.815270   8.836107   8.944011   8.662557   7.798059
    24  H    9.068540   8.192075   8.483890   8.065121   6.991899
    25  C    8.287712   7.266426   7.106924   7.282547   6.343971
    26  O    8.157914   7.159164   6.843969   7.319073   6.292577
    27  N    8.790602   7.726998   7.569959   7.566694   6.973110
    28  H    9.078732   8.027080   7.989660   7.767963   7.247310
    29  C    9.221475   8.136269   7.819189   7.942649   7.609833
    30  H    8.438876   7.355929   6.952219   7.177102   6.970181
    31  C   10.283377   9.215696   8.800376   9.142797   8.642984
    32  H   11.102625  10.034594   9.689623   9.942267   9.365346
    33  H   10.730534   9.664579   9.162648   9.566868   9.238006
    34  H    9.943907   8.906296   8.449522   8.961092   8.264268
    35  C   10.030976   8.942558   8.682670   8.581620   8.536841
    36  O   10.261914   9.187957   9.068834   8.742593   8.715011
    37  N   10.682905   9.601548   9.236135   9.219060   9.363336
    38  H   10.642653   9.570317   9.097973   9.264966   9.387339
    39  C   11.651829  10.585192  10.263377  10.091897  10.435513
    40  H   11.733745  10.671936  10.458939  10.119475  10.457530
    41  H   11.467262  10.426435  10.072198   9.880893  10.434839
    42  H   12.631835  11.560324  11.198518  11.106075  11.383777
                    6          7          8          9         10
     6  O    0.000000
     7  N    2.252744   0.000000
     8  H    3.150034   1.010027   0.000000
     9  C    2.775336   1.448989   2.120947   0.000000
    10  H    2.787535   2.083735   2.828873   1.090027   0.000000
    11  C    2.936709   2.452738   3.194462   1.524935   2.139158
    12  H    3.474071   2.702713   3.202476   2.150235   3.041403
    13  H    3.813814   3.386968   4.082879   2.150209   2.459661
    14  H    2.268954   2.702699   3.605856   2.150191   2.466304
    15  C    4.264178   2.450290   2.528597   1.522011   2.136586
    16  O    4.840197   2.683482   2.269001   2.392854   3.085335
    17  N    5.166741   3.668395   3.857914   2.432799   2.707683
    18  H    5.058849   3.979009   4.391132   2.567954   2.595338
    19  C    6.569733   4.884666   4.856596   3.801894   4.090502
    20  H    7.183387   5.680120   5.746921   4.481026   4.546844
    21  C    7.247172   5.560828   5.477700   4.561767   5.093862
    22  H    6.911327   5.112620   4.915937   4.334077   5.062973
    23  H    8.293304   6.528503   6.358131   5.577118   6.069424
    24  H    7.276441   5.855911   5.936834   4.724155   5.214812
    25  C    6.994188   5.026984   4.725698   4.283797   4.588615
    26  O    6.947187   5.038939   4.735235   4.400567   4.476723
    27  N    7.748759   5.639635   5.159764   5.099344   5.599911
    28  H    7.988884   5.927576   5.484672   5.340917   5.956470
    29  C    8.516690   6.312854   5.657661   6.035096   6.516214
    30  H    7.954169   5.727686   4.980733   5.667175   6.148069
    31  C    9.491124   7.358218   6.765636   6.977832   7.266933
    32  H   10.151835   8.052531   7.523605   7.526844   7.817878
    33  H   10.155840   7.993457   7.315385   7.764592   8.060228
    34  H    9.045967   7.010523   6.502387   6.567817   6.706105
    35  C    9.497350   7.266215   6.539142   7.086476   7.708437
    36  O    9.622497   7.447820   6.784396   7.183900   7.900692
    37  N   10.395552   8.143486   7.330197   8.118377   8.717679
    38  H   10.438142   8.195435   7.361508   8.230716   8.742362
    39  C   11.492543   9.250569   8.409461   9.283136   9.961191
    40  H   11.475170   9.264170   8.468085   9.228253   9.972631
    41  H   11.547120   9.324691   8.423453   9.523457  10.235254
    42  H   12.427918  10.178220   9.350735  10.153198  10.775256
                   11         12         13         14         15
    11  C    0.000000
    12  H    1.090066   0.000000
    13  H    1.090030   1.779707   0.000000
    14  H    1.089938   1.779613   1.779581   0.000000
    15  C    2.461857   2.701242   2.668628   3.416612   0.000000
    16  O    3.417362   3.376862   3.791224   4.329971   1.228962
    17  N    2.895801   3.227582   2.558632   3.897180   1.335072
    18  H    2.692211   3.244121   2.038604   3.572184   2.037331
    19  C    4.249826   4.384266   3.844297   5.290836   2.434412
    20  H    4.878524   5.159792   4.289896   5.853637   3.270955
    21  C    4.619734   4.428786   4.193752   5.695013   3.258483
    22  H    4.380462   3.971087   4.187292   5.457086   3.065562
    23  H    5.706842   5.499116   5.265607   6.783283   4.196424
    24  H    4.454876   4.282761   3.839432   5.469280   3.664919
    25  C    5.111253   5.187467   4.964165   6.133156   2.795766
    26  O    5.493307   5.746268   5.413760   6.416325   3.096397
    27  N    5.823705   5.662067   5.768886   6.877491   3.591645
    28  H    5.818658   5.511449   5.715059   6.897602   3.859672
    29  C    6.936670   6.754622   7.014577   7.945015   4.606182
    30  H    6.716294   6.557755   6.946261   7.655061   4.374153
    31  C    7.967184   7.931671   7.934661   8.964976   5.551680
    32  H    8.378273   8.321802   8.223434   9.414429   6.043705
    33  H    8.825176   8.763247   8.871879   9.796443   6.393713
    34  H    7.653071   7.764530   7.590410   8.607145   5.211493
    35  C    7.823646   7.453530   7.934577   8.843745   5.681698
    36  O    7.691511   7.201282   7.746398   8.731892   5.784975
    37  N    8.954111   8.583438   9.138087   9.939325   6.772697
    38  H    9.207590   8.928227   9.423369  10.161145   6.926515
    39  C   10.008811   9.524845  10.211745  10.989809   7.964517
    40  H    9.798142   9.234300   9.960468  10.794302   7.902573
    41  H   10.283376   9.762749  10.593278  11.212370   8.304643
    42  H   10.908213  10.467620  11.054705  11.908008   8.789784
                   16         17         18         19         20
    16  O    0.000000
    17  N    2.252803   0.000000
    18  H    3.150015   1.009937   0.000000
    19  C    2.775311   1.449000   2.120921   0.000000
    20  H    3.751456   2.083717   2.345441   1.089993   0.000000
    21  C    3.437887   2.452808   2.989564   1.525060   2.139212
    22  H    2.997447   2.702719   3.388217   2.150233   3.041322
    23  H    4.203706   3.386911   3.927960   2.150193   2.459608
    24  H    4.120249   2.702678   2.882518   2.150253   2.466272
    25  C    2.506818   2.450308   3.333901   1.521943   2.136547
    26  O    2.805217   2.938167   3.723222   2.392842   2.707782
    27  N    2.958031   3.441368   4.374750   2.432692   3.129987
    28  H    3.320287   3.616470   4.491560   2.567892   3.307987
    29  C    3.712529   4.697410   5.661962   3.801845   4.412959
    30  H    3.325645   4.754152   5.746004   4.158407   4.869495
    31  C    4.813060   5.444541   6.317848   4.404142   4.686059
    32  H    5.429792   5.720854   6.526954   4.488523   4.615264
    33  H    5.543701   6.418217   7.315009   5.451768   5.762355
    34  H    4.607041   5.065499   5.872607   4.133666   4.287161
    35  C    4.725391   5.799572   6.763052   4.859153   5.514474
    36  O    4.937383   5.802477   6.715105   4.830111   5.517236
    37  N    5.726287   6.996492   7.976603   6.100873   6.722104
    38  H    5.857253   7.207967   8.190808   6.369423   6.943930
    39  C    6.908497   8.195423   9.167199   7.284432   7.922563
    40  H    6.910848   8.066321   9.007134   7.132206   7.792126
    41  H    7.175443   8.692823   9.685595   7.918398   8.636409
    42  H    7.767463   8.929257   9.884139   7.918368   8.449093
                   21         22         23         24         25
    21  C    0.000000
    22  H    1.089947   0.000000
    23  H    1.089926   1.779573   0.000000
    24  H    1.089988   1.779618   1.779562   0.000000
    25  C    2.461861   2.701179   2.668565   3.416599   0.000000
    26  O    3.622885   3.877706   3.834174   4.490299   1.229048
    27  N    2.599004   2.514134   2.485413   3.687012   1.335005
    28  H    2.113119   1.880099   1.877681   3.168702   2.037325
    29  C    4.030788   3.829629   3.790472   5.120588   2.434423
    30  H    4.576288   4.241918   4.557719   5.648182   2.741825
    31  C    4.852612   4.941768   4.428910   5.899765   3.000832
    32  H    4.739911   4.971587   4.098629   5.724860   3.309691
    33  H    5.877899   5.873520   5.447171   6.939995   4.004014
    34  H    4.907313   5.124400   4.621777   5.904197   2.731469
    35  C    4.641134   4.258315   4.232045   5.685404   3.717852
    36  O    4.229452   3.760546   3.753776   5.173676   4.015666
    37  N    5.970406   5.573274   5.541520   7.019239   4.841496
    38  H    6.467537   6.130750   6.090434   7.545757   4.977950
    39  C    6.931859   6.456314   6.433078   7.919972   6.139574
    40  H    6.559390   6.040866   6.028890   7.473545   6.165953
    41  H    7.608988   7.025595   7.222676   8.599737   6.743499
    42  H    7.597416   7.235243   6.987688   8.582035   6.743475
                   26         27         28         29         30
    26  O    0.000000
    27  N    2.252832   0.000000
    28  H    3.150110   1.009994   0.000000
    29  C    2.775389   1.449043   2.120969   0.000000
    30  H    2.787572   2.083775   2.828882   1.090000   0.000000
    31  C    2.936759   2.452834   3.194525   1.524999   2.139193
    32  H    3.474022   2.702709   3.202485   2.150182   3.041302
    33  H    3.813797   3.387001   4.082892   2.150175   2.459564
    34  H    2.268892   2.702763   3.605901   2.150238   2.466297
    35  C    4.264211   2.450305   2.528616   1.521985   2.136544
    36  O    4.840235   2.683450   2.268969   2.392845   3.085320
    37  N    5.166704   3.668351   3.857862   2.432714   2.707594
    38  H    5.058851   3.979072   4.391193   2.567958   2.595300
    39  C    6.569723   4.884675   4.856628   3.801839   4.090432
    40  H    6.783870   4.845662   4.592451   4.033947   4.461673
    41  H    7.106870   5.526466   5.539555   4.396968   4.435640
    42  H    7.106855   5.526444   5.539510   4.396939   4.779323
                   31         32         33         34         35
    31  C    0.000000
    32  H    1.089937   0.000000
    33  H    1.090028   1.779704   0.000000
    34  H    1.090013   1.779603   1.779648   0.000000
    35  C    2.461878   2.701219   2.668588   3.416654   0.000000
    36  O    3.417403   3.376878   3.791235   4.330030   1.229009
    37  N    2.895760   3.227507   2.558557   3.897179   1.335001
    38  H    2.692213   3.244094   2.038514   3.572206   2.037385
    39  C    4.249751   4.384190   3.844160   5.290811   2.434405
    40  H    4.671825   4.654298   4.491368   5.731221   2.520551
    41  H    4.958688   5.261513   4.460978   5.930596   3.138014
    42  H    4.494753   4.483059   3.950802   5.545581   3.137980
                   36         37         38         39         40
    36  O    0.000000
    37  N    2.252805   0.000000
    38  H    3.150135   1.010036   0.000000
    39  C    2.775414   1.448986   2.120887   0.000000
    40  H    2.337445   2.083784   2.986302   1.090050   0.000000
    41  H    3.519297   2.083862   2.484291   1.090078   1.779672
    42  H    3.519249   2.083806   2.484316   1.089947   1.779641
                   41         42
    41  H    0.000000
    42  H    1.779667   0.000000
 Stoichiometry    C12H22N4O4
 Framework group  C1[X(C12H22N4O4)]
 Deg. of freedom   120
 Full point group                 C1      NOp   1
 Largest Abelian subgroup         C1      NOp   1
 Largest concise Abelian subgroup C1      NOp   1
                         Standard orientation:                         
 ---------------------------------------------------------------------
 Center     Atomic      Atomic             Coordinates (Angstroms)
 Number     Number       Type             X           Y           Z
 ---------------------------------------------------------------------
      1          1           0       -5.887413    3.304017    0.154983
      2          6           0       -4.836863    3.013548    0.146482
      3          1           0       -4.347537    3.391869    1.043931
      4          1           0       -4.351003    3.431405   -0.735245
      5          6           0       -4.686540    1.491320    0.112353
      6          8           0       -5.679079    0.766678    0.098217
      7          7           0       -3.439944    1.013919    0.099342
      8          1           0       -2.655454    1.649978    0.111884
      9          6           0       -3.164963   -0.408375    0.067173
     10          1           0       -3.598600   -0.882732    0.947572
     11          6           0       -3.761648   -1.054846   -1.178407
     12          1           0       -3.330335   -0.596496   -2.068424
     13          1           0       -3.539908   -2.122081   -1.176221
     14          1           0       -4.841747   -0.908787   -1.182348
     15          6           0       -1.666821   -0.676723    0.058309
     16          8           0       -0.866015    0.255313    0.077443
     17          7           0       -1.289021   -1.956892    0.029109
     18          1           0       -1.985008   -2.688572    0.014275
     19          6           0        0.107559   -2.342947    0.017859
     20          1           0        0.221963   -3.308761    0.509997
     21          6           0        0.633919   -2.457636   -1.408885
     22          1           0        0.534413   -1.495789   -1.911810
     23          1           0        1.684037   -2.748683   -1.386928
     24          1           0        0.059981   -3.210599   -1.948992
     25          6           0        0.964833   -1.319833    0.749044
     26          8           0        0.763613   -1.071388    1.935781
     27          7           0        1.924427   -0.725343    0.036303
     28          1           0        2.051279   -0.963057   -0.937087
     29          6           0        2.807025    0.266169    0.617377
     30          1           0        2.218347    1.107393    0.983303
     31          6           0        3.598115   -0.318592    1.782647
     32          1           0        4.199576   -1.156379    1.430054
     33          1           0        4.251910    0.447613    2.199350
     34          1           0        2.908958   -0.665402    2.552657
     35          6           0        3.804639    0.781102   -0.410266
     36          8           0        3.790029    0.353706   -1.562473
     37          7           0        4.673847    1.702991    0.010239
     38          1           0        4.646595    2.023336    0.967741
     39          6           0        5.673133    2.271863   -0.871449
     40          1           0        5.577083    1.830047   -1.863307
     41          1           0        5.527454    3.350049   -0.938990
     42          1           0        6.667554    2.064162   -0.476518
 ---------------------------------------------------------------------
 Rotational constants (GHZ):      0.5713081      0.1412303      0.1269402
 Standard basis: 6-31G(d) (6D, 7F)
 There are   344 symmetry adapted basis functions of A   symmetry.
 Integral buffers will be    131072 words long.
 Raffenetti 1 integral format.
 Two-electron integral symmetry is turned on.
   344 basis functions,   648 primitive gaussians,   344 cartesian basis functions
    77 alpha electrons       77 beta electrons
       nuclear repulsion energy      1647.5621607166 Hartrees.
 NAtoms=   42 NActive=   42 NUniq=   42 SFac= 7.50D-01 NAtFMM=   80 NAOKFM=F Big=F
 One-electron integrals computed using PRISM.
 NBasis=   344 RedAO= T  NBF=   344
 NBsUse=   344 1.00D-06 NBFU=   344
 Harris functional with IExCor=  205 diagonalized for initial guess.
 ExpMin= 1.61D-01 ExpMax= 5.48D+03 ExpMxC= 8.25D+02 IAcc=1 IRadAn=         1 AccDes= 0.00D+00
 HarFok:  IExCor=  205 AccDes= 0.00D+00 IRadAn=         1 IDoV= 1
 ScaDFX=  1.000000  1.000000  1.000000  1.000000
 FoFCou: FMM=F IPFlag=           0 FMFlag=      100000 FMFlg1=           0
         NFxFlg=           0 DoJE=T BraDBF=F KetDBF=T FulRan=T
         Omega=  0.000000  0.000000  1.000000  0.000000  0.000000 ICntrl=     500 IOpCl=  0
         NMat0=    1 NMatS0=    1 NMatT0=    0 NMatD0=    1 NMtDS0=    0 NMtDT0=    0
         I1Cent=           4 NGrid=           0.
 Petite list used in FoFCou.
 Initial guess orbital symmetries:
       Occupied  (A) (A) (A) (A) (A) (A) (A) (A) (A) (A) (A) (A)
                 (A) (A) (A) (A) (A) (A) (A) (A) (A) (A) (A) (A)
                 (A) (A) (A) (A) (A) (A) (A) (A) (A) (A) (A) (A)
                 (A) (A) (A) (A) (A) (A) (A) (A) (A) (A) (A) (A)
                 (A) (A) (A) (A) (A) (A) (A) (A) (A) (A) (A) (A)
                 (A) (A) (A) (A) (A) (A) (A) (A) (A) (A) (A) (A)
                 (A) (A) (A) (A) (A)
       Virtual   (A) (A) (A) (A) (A) (A) (A) (A) (A) (A) (A) (A)
                 (A) (A) (A) (A) (A) (A) (A) (A) (A) (A) (A) (A)
                 (A) (A) (A) (A) (A) (A) (A) (A) (A) (A) (A) (A)
                 (A) (A) (A) (A) (A) (A) (A) (A) (A) (A) (A) (A)
                 (A) (A) (A) (A) (A) (A) (A) (A) (A) (A) (A) (A)
                 (A) (A) (A) (A) (A) (A) (A) (A) (A) (A) (A) (A)
                 (A) (A) (A) (A) (A) (A) (A) (A) (A) (A) (A) (A)
                 (A) (A) (A) (A) (A) (A) (A) (A) (A) (A) (A) (A)
                 (A) (A) (A) (A) (A) (A) (A) (A) (A) (A) (A) (A)
                 (A) (A) (A) (A) (A) (A) (A) (A) (A) (A) (A) (A)
                 (A) (A) (A) (A) (A) (A) (A) (A) (A) (A) (A) (A)
                 (A) (A) (A) (A) (A) (A) (A) (A) (A) (A) (A) (A)
                 (A) (A) (A) (A) (A) (A) (A) (A) (A) (A) (A) (A)
                 (A) (A) (A) (A) (A) (A) (A) (A) (A) (A) (A) (A)
                 (A) (A) (A) (A) (A) (A) (A) (A) (A) (A) (A) (A)
                 (A) (A) (A) (A) (A) (A) (A) (A) (A) (A) (A) (A)
                 (A) (A) (A) (A) (A) (A) (A) (A) (A) (A) (A) (A)
                 (A) (A) (A) (A) (A) (A) (A) (A) (A) (A) (A) (A)
                 (A) (A) (A) (A) (A) (A) (A) (A) (A) (A) (A) (A)
                 (A) (A) (A) (A) (A) (A) (A) (A) (A) (A) (A) (A)
                 (A) (A) (A) (A) (A) (A) (A) (A) (A) (A) (A) (A)
                 (A) (A) (A) (A) (A) (A) (A) (A) (A) (A) (A) (A)
                 (A) (A) (A)
 The electronic state of the initial guess is 1-A.
 Requested convergence on RMS density matrix=1.00D-08 within 128 cycles.
 Requested convergence on MAX density matrix=1.00D-06.
 Requested convergence on             energy=1.00D-06.
 No special actions if energy rises.
 Integral accuracy reduced to 1.0D-05 until final iterations.
 Initial convergence to 1.0D-05 achieved.  Increase integral accuracy.
 SCF Done:  E(RHF) =  -984.523325573     A.U. after   15 cycles
             Convg  =    0.3476D-08             -V/T =  2.0019
 Range of M.O.s used for correlation:     1   344
 NBasis=   344 NAE=    77 NBE=    77 NFC=     0 NFV=     0
 NROrb=    344 NOA=    77 NOB=    77 NVA=   267 NVB=   267
 Symmetrizing basis deriv contribution to polar:
 IMax=3 JMax=2 DiffMx= 0.00D+00
 G2DrvN: will do    43 centers at a time, making    1 passes doing MaxLOS=2.
 Calling FoFCou, ICntrl=  3107 FMM=F I1Cent=   0 AccDes= 0.00D+00.
 FoFDir/FoFCou used for L=0 through L=2.
 End of G2Drv Frequency-dependent properties file   721 does not exist.
 End of G2Drv Frequency-dependent properties file   722 does not exist.
          IDoAtm=111111111111111111111111111111111111111111
          Differentiating once with respect to nuclear coordinates.
          There are   129 degrees of freedom in the 1st order CPHF.  IDoFFX=5.
    123 vectors produced by pass  0 Test12= 2.06D-10 1.00D-07 XBig12= 1.00D-01 5.30D-02.
 AX will form   123 AO Fock derivatives at one time.
    123 vectors produced by pass  1 Test12= 2.06D-10 1.00D-07 XBig12= 1.26D-02 3.45D-02.
    123 vectors produced by pass  2 Test12= 2.06D-10 1.00D-07 XBig12= 1.52D-04 2.08D-03.
    123 vectors produced by pass  3 Test12= 2.06D-10 1.00D-07 XBig12= 1.69D-06 1.36D-04.
    123 vectors produced by pass  4 Test12= 2.06D-10 1.00D-07 XBig12= 1.01D-08 8.76D-06.
     38 vectors produced by pass  5 Test12= 2.06D-10 1.00D-07 XBig12= 5.30D-11 7.94D-07.
 Inverted reduced A of dimension   653 with in-core refinement.
 End of Minotr Frequency-dependent properties file   721 does not exist.
 End of Minotr Frequency-dependent properties file   722 does not exist.

 **********************************************************************

            Population analysis using the SCF density.

 **********************************************************************

 Orbital symmetries:
       Occupied  (A) (A) (A) (A) (A) (A) (A) (A) (A) (A) (A) (A)
                 (A) (A) (A) (A) (A) (A) (A) (A) (A) (A) (A) (A)
                 (A) (A) (A) (A) (A) (A) (A) (A) (A) (A) (A) (A)
                 (A) (A) (A) (A) (A) (A) (A) (A) (A) (A) (A) (A)
                 (A) (A) (A) (A) (A) (A) (A) (A) (A) (A) (A) (A)
                 (A) (A) (A) (A) (A) (A) (A) (A) (A) (A) (A) (A)
                 (A) (A) (A) (A) (A)
       Virtual   (A) (A) (A) (A) (A) (A) (A) (A) (A) (A) (A) (A)
                 (A) (A) (A) (A) (A) (A) (A) (A) (A) (A) (A) (A)
                 (A) (A) (A) (A) (A) (A) (A) (A) (A) (A) (A) (A)
                 (A) (A) (A) (A) (A) (A) (A) (A) (A) (A) (A) (A)
                 (A) (A) (A) (A) (A) (A) (A) (A) (A) (A) (A) (A)
                 (A) (A) (A) (A) (A) (A) (A) (A) (A) (A) (A) (A)
                 (A) (A) (A) (A) (A) (A) (A) (A) (A) (A) (A) (A)
                 (A) (A) (A) (A) (A) (A) (A) (A) (A) (A) (A) (A)
                 (A) (A) (A) (A) (A) (A) (A) (A) (A) (A) (A) (A)
                 (A) (A) (A) (A) (A) (A) (A) (A) (A) (A) (A) (A)
                 (A) (A) (A) (A) (A) (A) (A) (A) (A) (A) (A) (A)
                 (A) (A) (A) (A) (A) (A) (A) (A) (A) (A) (A) (A)
                 (A) (A) (A) (A) (A) (A) (A) (A) (A) (A) (A) (A)
                 (A) (A) (A) (A) (A) (A) (A) (A) (A) (A) (A) (A)
                 (A) (A) (A) (A) (A) (A) (A) (A) (A) (A) (A) (A)
                 (A) (A) (A) (A) (A) (A) (A) (A) (A) (A) (A) (A)
                 (A) (A) (A) (A) (A) (A) (A) (A) (A) (A) (A) (A)
                 (A) (A) (A) (A) (A) (A) (A) (A) (A) (A) (A) (A)
                 (A) (A) (A) (A) (A) (A) (A) (A) (A) (A) (A) (A)
                 (A) (A) (A) (A) (A) (A) (A) (A) (A) (A) (A) (A)
                 (A) (A) (A) (A) (A) (A) (A) (A) (A) (A) (A) (A)
                 (A) (A) (A) (A) (A) (A) (A) (A) (A) (A) (A) (A)
                 (A) (A) (A)
 The electronic state is 1-A.
 Alpha  occ. eigenvalues --  -20.53442 -20.52767 -20.51185 -20.50426 -15.60883
 Alpha  occ. eigenvalues --  -15.59976 -15.58536 -15.57826 -11.36271 -11.35572
 Alpha  occ. eigenvalues --  -11.34514 -11.34369 -11.29353 -11.28546 -11.27930
 Alpha  occ. eigenvalues --  -11.26591 -11.23362 -11.23158 -11.22237 -11.21823
 Alpha  occ. eigenvalues --   -1.39866  -1.38616  -1.36907  -1.36180  -1.25723
 Alpha  occ. eigenvalues --   -1.24295  -1.23449  -1.23155  -1.08569  -1.05432
 Alpha  occ. eigenvalues --   -1.02640  -0.98308  -0.95890  -0.91456  -0.89595
 Alpha  occ. eigenvalues --   -0.87549  -0.82677  -0.79942  -0.77959  -0.77353
 Alpha  occ. eigenvalues --   -0.74748  -0.73371  -0.68333  -0.67698  -0.67028
 Alpha  occ. eigenvalues --   -0.65621  -0.64275  -0.63652  -0.63521  -0.62597
 Alpha  occ. eigenvalues --   -0.61585  -0.60740  -0.58990  -0.58653  -0.58367
 Alpha  occ. eigenvalues --   -0.56806  -0.56075  -0.55856  -0.55811  -0.55410
 Alpha  occ. eigenvalues --   -0.55225  -0.55068  -0.53793  -0.53004  -0.52496
 Alpha  occ. eigenvalues --   -0.52167  -0.51623  -0.49363  -0.48819  -0.42249
 Alpha  occ. eigenvalues --   -0.42033  -0.41488  -0.40636  -0.39820  -0.39613
 Alpha  occ. eigenvalues --   -0.38353  -0.37499
 Alpha virt. eigenvalues --    0.17669   0.18667   0.19602   0.20710   0.21024
 Alpha virt. eigenvalues --    0.22611   0.24057   0.25274   0.26232   0.27270
 Alpha virt. eigenvalues --    0.28522   0.28980   0.29148   0.29344   0.30704
 Alpha virt. eigenvalues --    0.30917   0.31275   0.31370   0.31600   0.31846
 Alpha virt. eigenvalues --    0.33243   0.33655   0.34491   0.34906   0.35399
 Alpha virt. eigenvalues --    0.35973   0.36950   0.37586   0.38432   0.39466
 Alpha virt. eigenvalues --    0.41510   0.42121   0.42326   0.43342   0.45241
 Alpha virt. eigenvalues --    0.49049   0.49873   0.52682   0.53607   0.54040
 Alpha virt. eigenvalues --    0.55828   0.59419   0.61499   0.62364   0.63886
 Alpha virt. eigenvalues --    0.70846   0.71577   0.72883   0.73605   0.73701
 Alpha virt. eigenvalues --    0.75060   0.75626   0.76344   0.76531   0.76657
 Alpha virt. eigenvalues --    0.78119   0.78382   0.80216   0.80817   0.81967
 Alpha virt. eigenvalues --    0.82610   0.83322   0.84858   0.87700   0.88318
 Alpha virt. eigenvalues --    0.88915   0.90806   0.92187   0.92835   0.93063
 Alpha virt. eigenvalues --    0.93991   0.94628   0.95863   0.97307   0.98044
 Alpha virt. eigenvalues --    0.99044   0.99492   0.99783   1.01133   1.01567
 Alpha virt. eigenvalues --    1.03081   1.05166   1.05245   1.06951   1.07721
 Alpha virt. eigenvalues --    1.09219   1.09749   1.10088   1.11484   1.12036
 Alpha virt. eigenvalues --    1.12556   1.13555   1.14221   1.14511   1.15143
 Alpha virt. eigenvalues --    1.16247   1.16466   1.16732   1.16976   1.17391
 Alpha virt. eigenvalues --    1.18480   1.18821   1.19561   1.20104   1.20231
 Alpha virt. eigenvalues --    1.20906   1.21777   1.21814   1.22257   1.22903
 Alpha virt. eigenvalues --    1.24084   1.25826   1.27220   1.27479   1.27844
 Alpha virt. eigenvalues --    1.30466   1.33614   1.34259   1.34957   1.37983
 Alpha virt. eigenvalues --    1.38754   1.40573   1.42060   1.43599   1.43985
 Alpha virt. eigenvalues --    1.48877   1.49931   1.50903   1.52347   1.54764
 Alpha virt. eigenvalues --    1.55391   1.56823   1.58792   1.60156   1.61764
 Alpha virt. eigenvalues --    1.62331   1.64038   1.65606   1.66838   1.68910
 Alpha virt. eigenvalues --    1.70823   1.71744   1.73948   1.74455   1.75355
 Alpha virt. eigenvalues --    1.76863   1.78445   1.79263   1.80280   1.89678
 Alpha virt. eigenvalues --    1.92939   1.93659   1.97260   1.98150   1.99635
 Alpha virt. eigenvalues --    2.00950   2.02091   2.03914   2.05218   2.07248
 Alpha virt. eigenvalues --    2.08336   2.09553   2.11056   2.11781   2.11910
 Alpha virt. eigenvalues --    2.13219   2.14512   2.14676   2.15150   2.15650
 Alpha virt. eigenvalues --    2.16439   2.17779   2.18607   2.19172   2.21350
 Alpha virt. eigenvalues --    2.22111   2.22618   2.24584   2.24798   2.27129
 Alpha virt. eigenvalues --    2.29322   2.29820   2.31448   2.32629   2.35397
 Alpha virt. eigenvalues --    2.36895   2.37225   2.37656   2.38350   2.38938
 Alpha virt. eigenvalues --    2.41036   2.42712   2.43657   2.47371   2.49136
 Alpha virt. eigenvalues --    2.51502   2.52056   2.53681   2.55422   2.57167
 Alpha virt. eigenvalues --    2.58888   2.60359   2.61996   2.62757   2.63560
 Alpha virt. eigenvalues --    2.63994   2.64849   2.66694   2.67668   2.68131
 Alpha virt. eigenvalues --    2.70205   2.71602   2.74567   2.76403   2.77314
 Alpha virt. eigenvalues --    2.78728   2.80066   2.80809   2.83571   2.85982
 Alpha virt. eigenvalues --    2.89282   2.90506   2.92472   2.93453   2.96622
 Alpha virt. eigenvalues --    2.97557   3.00427   3.02339   3.02768   3.06813
 Alpha virt. eigenvalues --    3.07643   3.08545   3.12978   3.15959   3.22602
 Alpha virt. eigenvalues --    3.25650   3.27519   3.31318   3.33077   3.35119
 Alpha virt. eigenvalues --    3.37969   3.39702   3.41656   3.54339   3.56362
 Alpha virt. eigenvalues --    3.62720   3.63150   4.40397   4.42770   4.43928
 Alpha virt. eigenvalues --    4.48724   4.48976   4.52182   4.55460   4.63087
 Alpha virt. eigenvalues --    4.64984   4.66043   4.71221   4.72672   4.76530
 Alpha virt. eigenvalues --    4.82465   4.86722   4.88440   4.96032   5.04795
 Alpha virt. eigenvalues --    5.06197   5.19383
          Condensed to atoms (all electrons):
              1          2          3          4          5          6
     1  H    0.459150   0.385649  -0.018728  -0.018894  -0.030811   0.003540
     2  C    0.385649   5.245102   0.374850   0.374626   0.378015  -0.067256
     3  H   -0.018728   0.374850   0.509205  -0.023640  -0.034432   0.001254
     4  H   -0.018894   0.374626  -0.023640   0.513502  -0.035393   0.001190
     5  C   -0.030811   0.378015  -0.034432  -0.035393   4.185246   0.586843
     6  O    0.003540  -0.067256   0.001254   0.001190   0.586843   8.212027
     7  N    0.003858  -0.119847   0.003489   0.003700   0.247948  -0.107615
     8  H   -0.000017  -0.001191   0.000635   0.000483  -0.017434   0.002015
     9  C   -0.000076   0.004576  -0.000240  -0.000093  -0.030139   0.014504
    10  H    0.000002  -0.000012  -0.000003  -0.000002  -0.001697   0.002876
    11  C    0.000006  -0.000501   0.000008   0.000030  -0.003995  -0.015821
    12  H    0.000000  -0.000043   0.000000   0.000002   0.000035  -0.000024
    13  H    0.000000   0.000007   0.000000  -0.000001   0.000289   0.000275
    14  H    0.000001   0.000304  -0.000005  -0.000026   0.000490   0.011302
    15  C    0.000000   0.000007  -0.000011  -0.000006   0.004082   0.000556
    16  O    0.000000  -0.000040  -0.000001  -0.000001   0.000279  -0.000003
    17  N    0.000000   0.000000   0.000000   0.000000  -0.000084  -0.000002
    18  H    0.000000   0.000000   0.000000   0.000000   0.000001   0.000001
    19  C    0.000000   0.000000   0.000000   0.000000   0.000001   0.000000
    20  H    0.000000   0.000000   0.000000   0.000000   0.000000   0.000000
    21  C    0.000000   0.000000   0.000000   0.000000   0.000000   0.000000
    22  H    0.000000   0.000000   0.000000   0.000000   0.000000   0.000000
    23  H    0.000000   0.000000   0.000000   0.000000   0.000000   0.000000
    24  H    0.000000   0.000000   0.000000   0.000000   0.000000   0.000000
    25  C    0.000000   0.000000   0.000000   0.000000   0.000000   0.000000
    26  O    0.000000   0.000000   0.000000   0.000000   0.000000   0.000000
    27  N    0.000000   0.000000   0.000000   0.000000   0.000000   0.000000
    28  H    0.000000   0.000000   0.000000   0.000000   0.000000   0.000000
    29  C    0.000000   0.000000   0.000000   0.000000   0.000000   0.000000
    30  H    0.000000   0.000000   0.000000   0.000000   0.000000   0.000000
    31  C    0.000000   0.000000   0.000000   0.000000   0.000000   0.000000
    32  H    0.000000   0.000000   0.000000   0.000000   0.000000   0.000000
    33  H    0.000000   0.000000   0.000000   0.000000   0.000000   0.000000
    34  H    0.000000   0.000000   0.000000   0.000000   0.000000   0.000000
    35  C    0.000000   0.000000   0.000000   0.000000   0.000000   0.000000
    36  O    0.000000   0.000000   0.000000   0.000000   0.000000   0.000000
    37  N    0.000000   0.000000   0.000000   0.000000   0.000000   0.000000
    38  H    0.000000   0.000000   0.000000   0.000000   0.000000   0.000000
    39  C    0.000000   0.000000   0.000000   0.000000   0.000000   0.000000
    40  H    0.000000   0.000000   0.000000   0.000000   0.000000   0.000000
    41  H    0.000000   0.000000   0.000000   0.000000   0.000000   0.000000
    42  H    0.000000   0.000000   0.000000   0.000000   0.000000   0.000000
              7          8          9         10         11         12
     1  H    0.003858  -0.000017  -0.000076   0.000002   0.000006   0.000000
     2  C   -0.119847  -0.001191   0.004576  -0.000012  -0.000501  -0.000043
     3  H    0.003489   0.000635  -0.000240  -0.000003   0.000008   0.000000
     4  H    0.003700   0.000483  -0.000093  -0.000002   0.000030   0.000002
     5  C    0.247948  -0.017434  -0.030139  -0.001697  -0.003995   0.000035
     6  O   -0.107615   0.002015   0.014504   0.002876  -0.015821  -0.000024
     7  N    7.414692   0.311830   0.198338  -0.040251  -0.063592   0.001775
     8  H    0.311830   0.287263  -0.026839   0.002319   0.003001   0.000238
     9  C    0.198338  -0.026839   5.019492   0.405706   0.334583  -0.042439
    10  H   -0.040251   0.002319   0.405706   0.492814  -0.046244   0.004447
    11  C   -0.063592   0.003001   0.334583  -0.046244   5.214540   0.384942
    12  H    0.001775   0.000238  -0.042439   0.004447   0.384942   0.525387
    13  H    0.004937  -0.000078  -0.042194   0.000278   0.377046  -0.024459
    14  H   -0.005674  -0.000191  -0.026363  -0.003829   0.387130  -0.020073
    15  C   -0.037326  -0.005419   0.381432  -0.038133  -0.065277  -0.002658
    16  O   -0.005956   0.019778  -0.072367   0.000736   0.000006   0.000567
    17  N    0.002693   0.000710  -0.113671   0.002168   0.002822   0.000244
    18  H    0.000024  -0.000020   0.000426   0.000415   0.000203  -0.000017
    19  C   -0.000049  -0.000019   0.003871  -0.000221  -0.000097  -0.000075
    20  H    0.000000   0.000000  -0.000017   0.000002  -0.000005   0.000001
    21  C    0.000002   0.000002  -0.000218   0.000003   0.000059   0.000029
    22  H    0.000000  -0.000001   0.000057   0.000000  -0.000017   0.000022
    23  H    0.000000   0.000000   0.000003   0.000000   0.000000   0.000000
    24  H    0.000000   0.000000  -0.000019   0.000000   0.000006   0.000004
    25  C   -0.000005  -0.000001  -0.000128   0.000014  -0.000016   0.000001
    26  O    0.000001   0.000005  -0.000201   0.000023   0.000000   0.000000
    27  N    0.000000   0.000002  -0.000031   0.000000   0.000001   0.000000
    28  H    0.000000   0.000000   0.000000   0.000000   0.000000   0.000000
    29  C    0.000000   0.000000   0.000000   0.000000   0.000000   0.000000
    30  H    0.000000  -0.000001   0.000002   0.000000   0.000000   0.000000
    31  C    0.000000   0.000000   0.000000   0.000000   0.000000   0.000000
    32  H    0.000000   0.000000   0.000000   0.000000   0.000000   0.000000
    33  H    0.000000   0.000000   0.000000   0.000000   0.000000   0.000000
    34  H    0.000000   0.000000   0.000000   0.000000   0.000000   0.000000
    35  C    0.000000   0.000000   0.000000   0.000000   0.000000   0.000000
    36  O    0.000000   0.000000   0.000000   0.000000   0.000000   0.000000
    37  N    0.000000   0.000000   0.000000   0.000000   0.000000   0.000000
    38  H    0.000000   0.000000   0.000000   0.000000   0.000000   0.000000
    39  C    0.000000   0.000000   0.000000   0.000000   0.000000   0.000000
    40  H    0.000000   0.000000   0.000000   0.000000   0.000000   0.000000
    41  H    0.000000   0.000000   0.000000   0.000000   0.000000   0.000000
    42  H    0.000000   0.000000   0.000000   0.000000   0.000000   0.000000
             13         14         15         16         17         18
     1  H    0.000000   0.000001   0.000000   0.000000   0.000000   0.000000
     2  C    0.000007   0.000304   0.000007  -0.000040   0.000000   0.000000
     3  H    0.000000  -0.000005  -0.000011  -0.000001   0.000000   0.000000
     4  H   -0.000001  -0.000026  -0.000006  -0.000001   0.000000   0.000000
     5  C    0.000289   0.000490   0.004082   0.000279  -0.000084   0.000001
     6  O    0.000275   0.011302   0.000556  -0.000003  -0.000002   0.000001
     7  N    0.004937  -0.005674  -0.037326  -0.005956   0.002693   0.000024
     8  H   -0.000078  -0.000191  -0.005419   0.019778   0.000710  -0.000020
     9  C   -0.042194  -0.026363   0.381432  -0.072367  -0.113671   0.000426
    10  H    0.000278  -0.003829  -0.038133   0.000736   0.002168   0.000415
    11  C    0.377046   0.387130  -0.065277   0.000006   0.002822   0.000203
    12  H   -0.024459  -0.020073  -0.002658   0.000567   0.000244  -0.000017
    13  H    0.571875  -0.020020  -0.007331   0.000027   0.000480   0.003063
    14  H   -0.020020   0.423609   0.004113  -0.000056   0.000047  -0.000080
    15  C   -0.007331   0.004113   4.157956   0.571168   0.267775  -0.018242
    16  O    0.000027  -0.000056   0.571168   8.250533  -0.102203   0.002376
    17  N    0.000480   0.000047   0.267775  -0.102203   7.391305   0.322598
    18  H    0.003063  -0.000080  -0.018242   0.002376   0.322598   0.306630
    19  C    0.000173   0.000001  -0.031734   0.010086   0.180515  -0.021481
    20  H   -0.000006   0.000000   0.003329   0.000292  -0.036494  -0.003147
    21  C    0.000004  -0.000001  -0.001598  -0.001964  -0.075470   0.001018
    22  H    0.000000   0.000001   0.002647   0.002123  -0.004505  -0.000084
    23  H    0.000000   0.000000   0.000031   0.000027   0.005391  -0.000077
    24  H    0.000035   0.000000   0.000027  -0.000023  -0.000085   0.000621
    25  C   -0.000005   0.000000  -0.003021  -0.001295  -0.031893   0.002418
    26  O    0.000000   0.000000   0.004782  -0.009560   0.001515  -0.000186
    27  N    0.000000   0.000000   0.000543  -0.006227   0.000060  -0.000107
    28  H    0.000000   0.000000  -0.000133   0.000032   0.000192   0.000000
    29  C    0.000000   0.000000  -0.000026  -0.000048  -0.000086   0.000002
    30  H    0.000000   0.000000  -0.000016   0.001097   0.000015   0.000000
    31  C    0.000000   0.000000  -0.000001   0.000008  -0.000002   0.000000
    32  H    0.000000   0.000000   0.000000   0.000000   0.000001   0.000000
    33  H    0.000000   0.000000   0.000000   0.000000   0.000000   0.000000
    34  H    0.000000   0.000000   0.000001   0.000005  -0.000003   0.000000
    35  C    0.000000   0.000000   0.000002  -0.000057   0.000000   0.000000
    36  O    0.000000   0.000000   0.000000   0.000000   0.000000   0.000000
    37  N    0.000000   0.000000   0.000000   0.000000   0.000000   0.000000
    38  H    0.000000   0.000000   0.000000   0.000000   0.000000   0.000000
    39  C    0.000000   0.000000   0.000000   0.000000   0.000000   0.000000
    40  H    0.000000   0.000000   0.000000   0.000000   0.000000   0.000000
    41  H    0.000000   0.000000   0.000000   0.000000   0.000000   0.000000
    42  H    0.000000   0.000000   0.000000   0.000000   0.000000   0.000000
             19         20         21         22         23         24
     1  H    0.000000   0.000000   0.000000   0.000000   0.000000   0.000000
     2  C    0.000000   0.000000   0.000000   0.000000   0.000000   0.000000
     3  H    0.000000   0.000000   0.000000   0.000000   0.000000   0.000000
     4  H    0.000000   0.000000   0.000000   0.000000   0.000000   0.000000
     5  C    0.000001   0.000000   0.000000   0.000000   0.000000   0.000000
     6  O    0.000000   0.000000   0.000000   0.000000   0.000000   0.000000
     7  N   -0.000049   0.000000   0.000002   0.000000   0.000000   0.000000
     8  H   -0.000019   0.000000   0.000002  -0.000001   0.000000   0.000000
     9  C    0.003871  -0.000017  -0.000218   0.000057   0.000003  -0.000019
    10  H   -0.000221   0.000002   0.000003   0.000000   0.000000   0.000000
    11  C   -0.000097  -0.000005   0.000059  -0.000017   0.000000   0.000006
    12  H   -0.000075   0.000001   0.000029   0.000022   0.000000   0.000004
    13  H    0.000173  -0.000006   0.000004   0.000000   0.000000   0.000035
    14  H    0.000001   0.000000  -0.000001   0.000001   0.000000   0.000000
    15  C   -0.031734   0.003329  -0.001598   0.002647   0.000031   0.000027
    16  O    0.010086   0.000292  -0.001964   0.002123   0.000027  -0.000023
    17  N    0.180515  -0.036494  -0.075470  -0.004505   0.005391  -0.000085
    18  H   -0.021481  -0.003147   0.001018  -0.000084  -0.000077   0.000621
    19  C    5.024276   0.409662   0.322136  -0.031848  -0.043797  -0.030945
    20  H    0.409662   0.477670  -0.044268   0.003776  -0.001483  -0.002527
    21  C    0.322136  -0.044268   5.270396   0.389505   0.388137   0.384328
    22  H   -0.031848   0.003776   0.389505   0.489880  -0.028224  -0.019794
    23  H   -0.043797  -0.001483   0.388137  -0.028224   0.519275  -0.019021
    24  H   -0.030945  -0.002527   0.384328  -0.019794  -0.019021   0.503683
    25  C    0.393374  -0.027486  -0.079720  -0.005071   0.001239   0.004031
    26  O   -0.071566   0.000907   0.003178  -0.000085  -0.000096  -0.000054
    27  N   -0.099505   0.001353  -0.010536  -0.002586  -0.003838   0.000761
    28  H   -0.004403   0.000033  -0.002227   0.000370  -0.000894   0.000420
    29  C    0.004606  -0.000068   0.000566   0.000064   0.000002   0.000002
    30  H   -0.000225  -0.000009  -0.000012  -0.000032   0.000012   0.000000
    31  C   -0.000572   0.000028  -0.000001   0.000003  -0.000051   0.000000
    32  H   -0.000016  -0.000007  -0.000024  -0.000002   0.000037   0.000000
    33  H    0.000009  -0.000001   0.000000   0.000000   0.000001   0.000000
    34  H    0.000301   0.000001  -0.000019   0.000000  -0.000001   0.000000
    35  C    0.000073   0.000000  -0.000136   0.000004   0.000012   0.000000
    36  O    0.000010   0.000000  -0.000415   0.000045   0.000068  -0.000003
    37  N    0.000001   0.000000  -0.000001   0.000000   0.000000   0.000000
    38  H    0.000000   0.000000   0.000000   0.000000   0.000000   0.000000
    39  C    0.000000   0.000000   0.000000   0.000000   0.000000   0.000000
    40  H    0.000000   0.000000   0.000000   0.000000   0.000000   0.000000
    41  H    0.000000   0.000000   0.000000   0.000000   0.000000   0.000000
    42  H    0.000000   0.000000   0.000000   0.000000   0.000000   0.000000
             25         26         27         28         29         30
     1  H    0.000000   0.000000   0.000000   0.000000   0.000000   0.000000
     2  C    0.000000   0.000000   0.000000   0.000000   0.000000   0.000000
     3  H    0.000000   0.000000   0.000000   0.000000   0.000000   0.000000
     4  H    0.000000   0.000000   0.000000   0.000000   0.000000   0.000000
     5  C    0.000000   0.000000   0.000000   0.000000   0.000000   0.000000
     6  O    0.000000   0.000000   0.000000   0.000000   0.000000   0.000000
     7  N   -0.000005   0.000001   0.000000   0.000000   0.000000   0.000000
     8  H   -0.000001   0.000005   0.000002   0.000000   0.000000  -0.000001
     9  C   -0.000128  -0.000201  -0.000031   0.000000   0.000000   0.000002
    10  H    0.000014   0.000023   0.000000   0.000000   0.000000   0.000000
    11  C   -0.000016   0.000000   0.000001   0.000000   0.000000   0.000000
    12  H    0.000001   0.000000   0.000000   0.000000   0.000000   0.000000
    13  H   -0.000005   0.000000   0.000000   0.000000   0.000000   0.000000
    14  H    0.000000   0.000000   0.000000   0.000000   0.000000   0.000000
    15  C   -0.003021   0.004782   0.000543  -0.000133  -0.000026  -0.000016
    16  O   -0.001295  -0.009560  -0.006227   0.000032  -0.000048   0.001097
    17  N   -0.031893   0.001515   0.000060   0.000192  -0.000086   0.000015
    18  H    0.002418  -0.000186  -0.000107   0.000000   0.000002   0.000000
    19  C    0.393374  -0.071566  -0.099505  -0.004403   0.004606  -0.000225
    20  H   -0.027486   0.000907   0.001353   0.000033  -0.000068  -0.000009
    21  C   -0.079720   0.003178  -0.010536  -0.002227   0.000566  -0.000012
    22  H   -0.005071  -0.000085  -0.002586   0.000370   0.000064  -0.000032
    23  H    0.001239  -0.000096  -0.003838  -0.000894   0.000002   0.000012
    24  H    0.004031  -0.000054   0.000761   0.000420   0.000002   0.000000
    25  C    4.117585   0.549583   0.281867  -0.010300  -0.032173  -0.001087
    26  O    0.549583   8.274811  -0.097620   0.002176   0.013863   0.002815
    27  N    0.281867  -0.097620   7.439320   0.294444   0.203789  -0.039213
    28  H   -0.010300   0.002176   0.294444   0.277415  -0.029978   0.002255
    29  C   -0.032173   0.013863   0.203789  -0.029978   5.016871   0.401108
    30  H   -0.001087   0.002815  -0.039213   0.002255   0.401108   0.487400
    31  C   -0.004732  -0.015334  -0.063042   0.003207   0.337718  -0.045097
    32  H   -0.000075   0.000033   0.001939   0.000252  -0.042944   0.004430
    33  H    0.000374   0.000252   0.004994  -0.000077  -0.042803   0.000529
    34  H    0.000863   0.010664  -0.005597  -0.000194  -0.026401  -0.003914
    35  C    0.003389   0.000504  -0.036020  -0.005106   0.379776  -0.035937
    36  O    0.000199  -0.000002  -0.009162   0.026938  -0.076137   0.000970
    37  N   -0.000102  -0.000001   0.002545   0.000874  -0.114237   0.001957
    38  H    0.000002   0.000001   0.000036  -0.000028   0.001053   0.000477
    39  C    0.000001   0.000000  -0.000050  -0.000011   0.003615  -0.000215
    40  H    0.000000   0.000000  -0.000003  -0.000012   0.000578  -0.000017
    41  H    0.000000   0.000000   0.000000   0.000000  -0.000106   0.000010
    42  H    0.000000   0.000000   0.000001   0.000000  -0.000004  -0.000002
             31         32         33         34         35         36
     1  H    0.000000   0.000000   0.000000   0.000000   0.000000   0.000000
     2  C    0.000000   0.000000   0.000000   0.000000   0.000000   0.000000
     3  H    0.000000   0.000000   0.000000   0.000000   0.000000   0.000000
     4  H    0.000000   0.000000   0.000000   0.000000   0.000000   0.000000
     5  C    0.000000   0.000000   0.000000   0.000000   0.000000   0.000000
     6  O    0.000000   0.000000   0.000000   0.000000   0.000000   0.000000
     7  N    0.000000   0.000000   0.000000   0.000000   0.000000   0.000000
     8  H    0.000000   0.000000   0.000000   0.000000   0.000000   0.000000
     9  C    0.000000   0.000000   0.000000   0.000000   0.000000   0.000000
    10  H    0.000000   0.000000   0.000000   0.000000   0.000000   0.000000
    11  C    0.000000   0.000000   0.000000   0.000000   0.000000   0.000000
    12  H    0.000000   0.000000   0.000000   0.000000   0.000000   0.000000
    13  H    0.000000   0.000000   0.000000   0.000000   0.000000   0.000000
    14  H    0.000000   0.000000   0.000000   0.000000   0.000000   0.000000
    15  C   -0.000001   0.000000   0.000000   0.000001   0.000002   0.000000
    16  O    0.000008   0.000000   0.000000   0.000005  -0.000057   0.000000
    17  N   -0.000002   0.000001   0.000000  -0.000003   0.000000   0.000000
    18  H    0.000000   0.000000   0.000000   0.000000   0.000000   0.000000
    19  C   -0.000572  -0.000016   0.000009   0.000301   0.000073   0.000010
    20  H    0.000028  -0.000007  -0.000001   0.000001   0.000000   0.000000
    21  C   -0.000001  -0.000024   0.000000  -0.000019  -0.000136  -0.000415
    22  H    0.000003  -0.000002   0.000000   0.000000   0.000004   0.000045
    23  H   -0.000051   0.000037   0.000001  -0.000001   0.000012   0.000068
    24  H    0.000000   0.000000   0.000000   0.000000   0.000000  -0.000003
    25  C   -0.004732  -0.000075   0.000374   0.000863   0.003389   0.000199
    26  O   -0.015334   0.000033   0.000252   0.010664   0.000504  -0.000002
    27  N   -0.063042   0.001939   0.004994  -0.005597  -0.036020  -0.009162
    28  H    0.003207   0.000252  -0.000077  -0.000194  -0.005106   0.026938
    29  C    0.337718  -0.042944  -0.042803  -0.026401   0.379776  -0.076137
    30  H   -0.045097   0.004430   0.000529  -0.003914  -0.035937   0.000970
    31  C    5.208038   0.384479   0.377717   0.387570  -0.064006   0.000061
    32  H    0.384479   0.531012  -0.024241  -0.020784  -0.002714   0.000633
    33  H    0.377717  -0.024241   0.571637  -0.020440  -0.006770   0.000028
    34  H    0.387570  -0.020784  -0.020440   0.427379   0.003901  -0.000065
    35  C   -0.064006  -0.002714  -0.006770   0.003901   4.147628   0.589749
    36  O    0.000061   0.000633   0.000028  -0.000065   0.589749   8.217412
    37  N    0.002368   0.000229   0.000241   0.000087   0.285777  -0.098450
    38  H    0.000019  -0.000002   0.002587  -0.000083  -0.020435   0.002365
    39  C   -0.000074  -0.000044   0.000160   0.000003  -0.025340  -0.004829
    40  H   -0.000049  -0.000002  -0.000008   0.000000  -0.001909   0.010184
    41  H   -0.000005   0.000001   0.000003   0.000000   0.000789   0.000364
    42  H    0.000014   0.000002  -0.000002  -0.000001   0.000910   0.000376
             37         38         39         40         41         42
     1  H    0.000000   0.000000   0.000000   0.000000   0.000000   0.000000
     2  C    0.000000   0.000000   0.000000   0.000000   0.000000   0.000000
     3  H    0.000000   0.000000   0.000000   0.000000   0.000000   0.000000
     4  H    0.000000   0.000000   0.000000   0.000000   0.000000   0.000000
     5  C    0.000000   0.000000   0.000000   0.000000   0.000000   0.000000
     6  O    0.000000   0.000000   0.000000   0.000000   0.000000   0.000000
     7  N    0.000000   0.000000   0.000000   0.000000   0.000000   0.000000
     8  H    0.000000   0.000000   0.000000   0.000000   0.000000   0.000000
     9  C    0.000000   0.000000   0.000000   0.000000   0.000000   0.000000
    10  H    0.000000   0.000000   0.000000   0.000000   0.000000   0.000000
    11  C    0.000000   0.000000   0.000000   0.000000   0.000000   0.000000
    12  H    0.000000   0.000000   0.000000   0.000000   0.000000   0.000000
    13  H    0.000000   0.000000   0.000000   0.000000   0.000000   0.000000
    14  H    0.000000   0.000000   0.000000   0.000000   0.000000   0.000000
    15  C    0.000000   0.000000   0.000000   0.000000   0.000000   0.000000
    16  O    0.000000   0.000000   0.000000   0.000000   0.000000   0.000000
    17  N    0.000000   0.000000   0.000000   0.000000   0.000000   0.000000
    18  H    0.000000   0.000000   0.000000   0.000000   0.000000   0.000000
    19  C    0.000001   0.000000   0.000000   0.000000   0.000000   0.000000
    20  H    0.000000   0.000000   0.000000   0.000000   0.000000   0.000000
    21  C   -0.000001   0.000000   0.000000   0.000000   0.000000   0.000000
    22  H    0.000000   0.000000   0.000000   0.000000   0.000000   0.000000
    23  H    0.000000   0.000000   0.000000   0.000000   0.000000   0.000000
    24  H    0.000000   0.000000   0.000000   0.000000   0.000000   0.000000
    25  C   -0.000102   0.000002   0.000001   0.000000   0.000000   0.000000
    26  O   -0.000001   0.000001   0.000000   0.000000   0.000000   0.000000
    27  N    0.002545   0.000036  -0.000050  -0.000003   0.000000   0.000001
    28  H    0.000874  -0.000028  -0.000011  -0.000012   0.000000   0.000000
    29  C   -0.114237   0.001053   0.003615   0.000578  -0.000106  -0.000004
    30  H    0.001957   0.000477  -0.000215  -0.000017   0.000010  -0.000002
    31  C    0.002368   0.000019  -0.000074  -0.000049  -0.000005   0.000014
    32  H    0.000229  -0.000002  -0.000044  -0.000002   0.000001   0.000002
    33  H    0.000241   0.002587   0.000160  -0.000008   0.000003  -0.000002
    34  H    0.000087  -0.000083   0.000003   0.000000   0.000000  -0.000001
    35  C    0.285777  -0.020435  -0.025340  -0.001909   0.000789   0.000910
    36  O   -0.098450   0.002365  -0.004829   0.010184   0.000364   0.000376
    37  N    7.332275   0.322668   0.187239  -0.031882  -0.047194  -0.048315
[...]
    29  C    0.000000   0.000000  -0.000014   0.000143  -0.000092   0.000002
    30  H    0.000000   0.000000   0.000044   0.000507  -0.000009   0.000000
    31  C    0.000000   0.000000   0.000000   0.000009  -0.000002   0.000000
    32  H    0.000000   0.000000   0.000000   0.000000   0.000000   0.000000
    33  H    0.000000   0.000000   0.000000   0.000000   0.000000   0.000000
    34  H    0.000000   0.000000   0.000000   0.000000   0.000000   0.000000
    35  C    0.000000   0.000000   0.000002  -0.000062   0.000002   0.000000
    36  O    0.000000   0.000000   0.000000  -0.000003   0.000000   0.000000
    37  N    0.000000   0.000000   0.000000  -0.000001   0.000000   0.000000
    38  H    0.000000   0.000000   0.000000   0.000000   0.000000   0.000000
    39  C    0.000000   0.000000   0.000000   0.000000   0.000000   0.000000
    40  H    0.000000   0.000000   0.000000   0.000000   0.000000   0.000000
    41  H    0.000000   0.000000   0.000000   0.000000   0.000000   0.000000
    42  H    0.000000   0.000000   0.000000   0.000000   0.000000   0.000000
             19         20         21         22         23         24
     1  H    0.000000   0.000000   0.000000   0.000000   0.000000   0.000000
     2  C    0.000000   0.000000   0.000000   0.000000   0.000000   0.000000
     3  H    0.000000   0.000000   0.000000   0.000000   0.000000   0.000000
     4  H    0.000000   0.000000   0.000000   0.000000   0.000000   0.000000
     5  C    0.000001   0.000000   0.000000   0.000000   0.000000   0.000000
     6  O    0.000000   0.000000   0.000000   0.000000   0.000000   0.000000
     7  N   -0.000064   0.000001   0.000000   0.000000   0.000000   0.000000
     8  H   -0.000028   0.000000   0.000001  -0.000001   0.000000   0.000000
     9  C    0.003832  -0.000012  -0.000217   0.000029   0.000003  -0.000003
    10  H   -0.000191  -0.000011   0.000005  -0.000001   0.000000   0.000000
    11  C   -0.000176  -0.000002   0.000036  -0.000003   0.000000  -0.000001
    12  H   -0.000015   0.000000   0.000006   0.000000   0.000000   0.000000
    13  H   -0.000004  -0.000002  -0.000005   0.000001   0.000000   0.000018
    14  H    0.000002   0.000000  -0.000001   0.000000   0.000000   0.000000
    15  C   -0.028048   0.002983  -0.000364   0.001528  -0.000004   0.000068
    16  O    0.009885   0.000222  -0.001267   0.001209   0.000016  -0.000024
    17  N    0.181708  -0.039719  -0.071638  -0.003009   0.004742  -0.000627
    18  H   -0.024574  -0.004868   0.002106  -0.000059  -0.000086   0.000254
    19  C    5.017775   0.416078   0.321619  -0.031286  -0.039798  -0.029825
    20  H    0.416078   0.488542  -0.041956   0.003678  -0.000953  -0.003644
    21  C    0.321619  -0.041956   5.180489   0.387789   0.386810   0.387984
    22  H   -0.031286   0.003678   0.387789   0.498925  -0.024755  -0.024034
    23  H   -0.039798  -0.000953   0.386810  -0.024755   0.517936  -0.023227
    24  H   -0.029825  -0.003644   0.387984  -0.024034  -0.023227   0.511568
    25  C    0.395266  -0.038364  -0.055705  -0.003166   0.000340   0.003404
    26  O   -0.074544   0.002336   0.002989  -0.000033  -0.000048  -0.000055
    27  N   -0.098343   0.002314   0.002632   0.000128   0.000204   0.000115
    28  H   -0.002773   0.000089  -0.000016   0.001942  -0.000835   0.000066
    29  C    0.004732  -0.000120  -0.000156  -0.000064  -0.000054   0.000006
    30  H    0.000117  -0.000017  -0.000014  -0.000006   0.000004   0.000000
    31  C   -0.000321   0.000026   0.000004   0.000004  -0.000006   0.000000
    32  H    0.000001  -0.000002  -0.000005  -0.000001   0.000010   0.000000
    33  H    0.000004   0.000000   0.000000   0.000000   0.000000   0.000000
    34  H    0.000090  -0.000003  -0.000009   0.000000  -0.000001   0.000000
    35  C    0.000075  -0.000001  -0.000043   0.000004   0.000001   0.000000
    36  O   -0.000007   0.000000  -0.000127   0.000020   0.000006  -0.000001
    37  N    0.000001   0.000000   0.000000   0.000000   0.000000   0.000000
    38  H    0.000000   0.000000   0.000000   0.000000   0.000000   0.000000
    39  C    0.000000   0.000000   0.000000   0.000000   0.000000   0.000000
    40  H    0.000000   0.000000   0.000000   0.000000   0.000000   0.000000
    41  H    0.000000   0.000000   0.000000   0.000000   0.000000   0.000000
    42  H    0.000000   0.000000   0.000000   0.000000   0.000000   0.000000
             25         26         27         28         29         30
     1  H    0.000000   0.000000   0.000000   0.000000   0.000000   0.000000
     2  C    0.000000   0.000000   0.000000   0.000000   0.000000   0.000000
     3  H    0.000000   0.000000   0.000000   0.000000   0.000000   0.000000
     4  H    0.000000   0.000000   0.000000   0.000000   0.000000   0.000000
     5  C    0.000000   0.000000   0.000000   0.000000   0.000000   0.000000
     6  O    0.000000   0.000000   0.000000   0.000000   0.000000   0.000000
     7  N   -0.000012   0.000002   0.000000   0.000000   0.000000   0.000000
     8  H    0.000000   0.000004   0.000002   0.000000   0.000000   0.000000
     9  C   -0.000095  -0.000186  -0.000024   0.000004   0.000000   0.000001
    10  H    0.000019   0.000028   0.000001   0.000000   0.000000   0.000000
    11  C   -0.000012   0.000000   0.000000   0.000000   0.000000   0.000000
    12  H    0.000000   0.000000   0.000000   0.000000   0.000000   0.000000
    13  H    0.000002   0.000000   0.000000   0.000000   0.000000   0.000000
    14  H    0.000000   0.000000   0.000000   0.000000   0.000000   0.000000
    15  C   -0.000808   0.005208  -0.000110  -0.000070  -0.000014   0.000044
    16  O    0.002981  -0.003471  -0.003047   0.000539   0.000143   0.000507
    17  N   -0.038305   0.001214   0.000938   0.000036  -0.000092  -0.000009
    18  H    0.002293  -0.000219  -0.000096  -0.000003   0.000002   0.000000
    19  C    0.395266  -0.074544  -0.098343  -0.002773   0.004732   0.000117
    20  H   -0.038364   0.002336   0.002314   0.000089  -0.000120  -0.000017
    21  C   -0.055705   0.002989   0.002632  -0.000016  -0.000156  -0.000014
    22  H   -0.003166  -0.000033   0.000128   0.001942  -0.000064  -0.000006
    23  H    0.000340  -0.000048   0.000204  -0.000835  -0.000054   0.000004
    24  H    0.003404  -0.000055   0.000115   0.000066   0.000006   0.000000
    25  C    4.113414   0.568346   0.290126  -0.010415  -0.029872  -0.000163
    26  O    0.568346   8.218607  -0.101792   0.001940   0.008969   0.006702
    27  N    0.290126  -0.101792   7.391522   0.301289   0.204522  -0.044745
    28  H   -0.010415   0.001940   0.301289   0.278005  -0.032386   0.002333
    29  C   -0.029872   0.008969   0.204522  -0.032386   5.037599   0.409912
    30  H   -0.000163   0.006702  -0.044745   0.002333   0.409912   0.483467
    31  C   -0.002313  -0.004144  -0.063590   0.003225   0.336906  -0.042050
    32  H    0.000263  -0.000008   0.000569   0.000231  -0.037992   0.003967
    33  H    0.000052   0.000023   0.004561  -0.000068  -0.037919   0.000294
    34  H    0.001837   0.004732  -0.005301  -0.000151  -0.029690  -0.003521
    35  C    0.003387   0.000574  -0.039550  -0.006954   0.381073  -0.041108
    36  O    0.000354  -0.000005  -0.011541   0.026657  -0.073774   0.001622
    37  N   -0.000099  -0.000001   0.002508   0.001173  -0.116137   0.003202
    38  H   -0.000006   0.000000   0.000021  -0.000039   0.000558   0.001361
    39  C    0.000002   0.000000  -0.000075  -0.000037   0.004313  -0.000114
    40  H    0.000000   0.000000  -0.000003  -0.000005   0.000161  -0.000002
    41  H    0.000000   0.000000   0.000005   0.000002  -0.000167  -0.000001
    42  H    0.000000   0.000000   0.000000   0.000000   0.000005  -0.000010
             31         32         33         34         35         36
     1  H    0.000000   0.000000   0.000000   0.000000   0.000000   0.000000
     2  C    0.000000   0.000000   0.000000   0.000000   0.000000   0.000000
     3  H    0.000000   0.000000   0.000000   0.000000   0.000000   0.000000
     4  H    0.000000   0.000000   0.000000   0.000000   0.000000   0.000000
     5  C    0.000000   0.000000   0.000000   0.000000   0.000000   0.000000
     6  O    0.000000   0.000000   0.000000   0.000000   0.000000   0.000000
     7  N    0.000000   0.000000   0.000000   0.000000   0.000000   0.000000
     8  H    0.000000   0.000000   0.000000   0.000000   0.000000   0.000000
     9  C    0.000000   0.000000   0.000000   0.000000   0.000000   0.000000
    10  H    0.000000   0.000000   0.000000   0.000000   0.000000   0.000000
    11  C    0.000000   0.000000   0.000000   0.000000   0.000000   0.000000
    12  H    0.000000   0.000000   0.000000   0.000000   0.000000   0.000000
    13  H    0.000000   0.000000   0.000000   0.000000   0.000000   0.000000
    14  H    0.000000   0.000000   0.000000   0.000000   0.000000   0.000000
    15  C    0.000000   0.000000   0.000000   0.000000   0.000002   0.000000
    16  O    0.000009   0.000000   0.000000   0.000000  -0.000062  -0.000003
    17  N   -0.000002   0.000000   0.000000   0.000000   0.000002   0.000000
    18  H    0.000000   0.000000   0.000000   0.000000   0.000000   0.000000
    19  C   -0.000321   0.000001   0.000004   0.000090   0.000075  -0.000007
    20  H    0.000026  -0.000002   0.000000  -0.000003  -0.000001   0.000000
    21  C    0.000004  -0.000005   0.000000  -0.000009  -0.000043  -0.000127
    22  H    0.000004  -0.000001   0.000000   0.000000   0.000004   0.000020
    23  H   -0.000006   0.000010   0.000000  -0.000001   0.000001   0.000006
    24  H    0.000000   0.000000   0.000000   0.000000   0.000000  -0.000001
    25  C   -0.002313   0.000263   0.000052   0.001837   0.003387   0.000354
    26  O   -0.004144  -0.000008   0.000023   0.004732   0.000574  -0.000005
    27  N   -0.063590   0.000569   0.004561  -0.005301  -0.039550  -0.011541
    28  H    0.003225   0.000231  -0.000068  -0.000151  -0.006954   0.026657
    29  C    0.336906  -0.037992  -0.037919  -0.029690   0.381073  -0.073774
    30  H   -0.042050   0.003967   0.000294  -0.003521  -0.041108   0.001622
    31  C    5.143741   0.388016   0.381612   0.391532  -0.052847  -0.000773
    32  H    0.388016   0.517673  -0.024818  -0.023334  -0.003873   0.001333
    33  H    0.381612  -0.024818   0.543334  -0.023109  -0.003411   0.000019
    34  H    0.391532  -0.023334  -0.023109   0.474214   0.004164  -0.000073
    35  C   -0.052847  -0.003873  -0.003411   0.004164   4.158641   0.595961
    36  O   -0.000773   0.001333   0.000019  -0.000073   0.595961   8.179529
    37  N    0.002243   0.000418   0.002267  -0.000042   0.282133  -0.103866
    38  H    0.000290   0.000013   0.000576  -0.000043  -0.022248   0.002539
    39  C   -0.000248  -0.000012   0.000002   0.000003  -0.028562   0.008124
    40  H   -0.000007   0.000002  -0.000010   0.000000  -0.003100   0.003347
    41  H   -0.000004   0.000000   0.000003   0.000000  -0.003627   0.001198
    42  H    0.000003  -0.000001  -0.000007   0.000000   0.004486   0.000357
             37         38         39         40         41         42
     1  H    0.000000   0.000000   0.000000   0.000000   0.000000   0.000000
     2  C    0.000000   0.000000   0.000000   0.000000   0.000000   0.000000
     3  H    0.000000   0.000000   0.000000   0.000000   0.000000   0.000000
     4  H    0.000000   0.000000   0.000000   0.000000   0.000000   0.000000
     5  C    0.000000   0.000000   0.000000   0.000000   0.000000   0.000000
     6  O    0.000000   0.000000   0.000000   0.000000   0.000000   0.000000
     7  N    0.000000   0.000000   0.000000   0.000000   0.000000   0.000000
     8  H    0.000000   0.000000   0.000000   0.000000   0.000000   0.000000
     9  C    0.000000   0.000000   0.000000   0.000000   0.000000   0.000000
    10  H    0.000000   0.000000   0.000000   0.000000   0.000000   0.000000
    11  C    0.000000   0.000000   0.000000   0.000000   0.000000   0.000000
    12  H    0.000000   0.000000   0.000000   0.000000   0.000000   0.000000
    13  H    0.000000   0.000000   0.000000   0.000000   0.000000   0.000000
    14  H    0.000000   0.000000   0.000000   0.000000   0.000000   0.000000
    15  C    0.000000   0.000000   0.000000   0.000000   0.000000   0.000000
    16  O   -0.000001   0.000000   0.000000   0.000000   0.000000   0.000000
    17  N    0.000000   0.000000   0.000000   0.000000   0.000000   0.000000
    18  H    0.000000   0.000000   0.000000   0.000000   0.000000   0.000000
    19  C    0.000001   0.000000   0.000000   0.000000   0.000000   0.000000
    20  H    0.000000   0.000000   0.000000   0.000000   0.000000   0.000000
    21  C    0.000000   0.000000   0.000000   0.000000   0.000000   0.000000
    22  H    0.000000   0.000000   0.000000   0.000000   0.000000   0.000000
    23  H    0.000000   0.000000   0.000000   0.000000   0.000000   0.000000
    24  H    0.000000   0.000000   0.000000   0.000000   0.000000   0.000000
    25  C   -0.000099  -0.000006   0.000002   0.000000   0.000000   0.000000
    26  O   -0.000001   0.000000   0.000000   0.000000   0.000000   0.000000
    27  N    0.002508   0.000021  -0.000075  -0.000003   0.000005   0.000000
    28  H    0.001173  -0.000039  -0.000037  -0.000005   0.000002   0.000000
    29  C   -0.116137   0.000558   0.004313   0.000161  -0.000167   0.000005
    30  H    0.003202   0.001361  -0.000114  -0.000002  -0.000001  -0.000010
    31  C    0.002243   0.000290  -0.000248  -0.000007  -0.000004   0.000003
    32  H    0.000418   0.000013  -0.000012   0.000002   0.000000  -0.000001
    33  H    0.002267   0.000576   0.000002  -0.000010   0.000003  -0.000007
    34  H   -0.000042  -0.000043   0.000003   0.000000   0.000000   0.000000
    35  C    0.282133  -0.022248  -0.028562  -0.003100  -0.003627   0.004486
    36  O   -0.103866   0.002539   0.008124   0.003347   0.001198   0.000357
    37  N    7.322309   0.328371   0.196929  -0.039963  -0.046122  -0.037674
    38  H    0.328371   0.323016  -0.022614   0.002612   0.001184  -0.004453
    39  C    0.196929  -0.022614   4.907169   0.404013   0.406431   0.397574
    40  H   -0.039963   0.002612   0.404013   0.486984  -0.032670  -0.024718
    41  H   -0.046122   0.001184   0.406431  -0.032670   0.521798  -0.031536
    42  H   -0.037674  -0.004453   0.397574  -0.024718  -0.031536   0.525291
 Mulliken atomic charges:
              1
     1  H    0.207986
     2  C   -0.576766
     3  H    0.203163
     4  H    0.172544
     5  C    0.755727
     6  O   -0.621617
     7  N   -0.821566
     8  H    0.419014
     9  C   -0.032620
    10  H    0.217486
    11  C   -0.483759
    12  H    0.176813
    13  H    0.158625
    14  H    0.213683
    15  C    0.796883
    16  O   -0.637818
    17  N   -0.812044
    18  H    0.391971
    19  C   -0.021190
    20  H    0.213405
    21  C   -0.500947
    22  H    0.191160
    23  H    0.179694
    24  H    0.177958
    25  C    0.797247
    26  O   -0.637166
    27  N   -0.833242
    28  H    0.436223
    29  C   -0.030463
    30  H    0.218227
    31  C   -0.481306
    32  H    0.177546
    33  H    0.156596
    34  H    0.208704
    35  C    0.774882
    36  O   -0.630897
    37  N   -0.797648
    38  H    0.388863
    39  C   -0.272897
    40  H    0.203358
    41  H    0.183505
    42  H    0.170682
 Sum of Mulliken atomic charges =   0.00000
 Mulliken charges with hydrogens summed into heavy atoms:
              1
     2  C    0.006927
     5  C    0.755727
     6  O   -0.621617
     7  N   -0.402552
     9  C    0.184867
    11  C    0.065361
    15  C    0.796883
    16  O   -0.637818
    17  N   -0.420074
    19  C    0.192214
    21  C    0.047865
    25  C    0.797247
    26  O   -0.637166
    27  N   -0.397019
    29  C    0.187764
    31  C    0.061541
    35  C    0.774882
    36  O   -0.630897
    37  N   -0.408784
    39  C    0.284649
 Sum of Mulliken charges with hydrogens summed into heavy atoms =   0.00000
 Electronic spatial extent (au):  <R**2>=           8068.3267
 Charge=              0.0000 electrons
 Dipole moment (field-independent basis, Debye):
    X=              2.9436    Y=              0.8148    Z=             -0.4426  Tot=              3.0862
 Quadrupole moment (field-independent basis, Debye-Ang):
   XX=           -135.8385   YY=            -92.8071   ZZ=           -129.3773
   XY=             11.9121   XZ=             12.2960   YZ=              2.8943
 Traceless Quadrupole moment (field-independent basis, Debye-Ang):
   XX=            -16.4975   YY=             26.5339   ZZ=            -10.0364
   XY=             11.9121   XZ=             12.2960   YZ=              2.8943
 Octapole moment (field-independent basis, Debye-Ang**2):
  XXX=            194.3930  YYY=             16.9228  ZZZ=             -8.5854  XYY=              2.2259
  XXY=             43.2912  XXZ=             -4.3446  XZZ=             -8.2144  YZZ=             12.8787
  YYZ=              5.1947  XYZ=              2.8985
 Hexadecapole moment (field-independent basis, Debye-Ang**3):
 XXXX=          -8427.1714 YYYY=          -2074.1779 ZZZZ=           -899.6751 XXXY=            255.8522
 XXXZ=            257.8117 YYYX=             67.7908 YYYZ=            -18.0558 ZZZX=             -9.9010
 ZZZY=             11.0504 XXYY=          -1311.2443 XXZZ=          -1410.9491 YYZZ=           -509.6658
 XXYZ=            -32.5917 YYXZ=            -40.0568 ZZXY=             19.4802
 N-N= 1.650209532060D+03 E-N=-5.608755539224D+03  KE= 9.830958147960D+02
 1\1\GINC-NODE002\FOpt\RHF\6-31G(d)\C12H22N4O4\STEBOSS\27-Dec-2016\0\\#
  HF/6-31G* Opt=(ModRedundant, maxcycles=1000, calcfc) geom=nocrowd\\Ph
 i Psi fixed scan\\0,1\H,9.6850358925,1.6385047858,2.0574427919\C,9.668
 1759863,2.6759939582,1.7530800869\H,10.4080436038,2.8083495203,0.97048
 3781\H,9.9356419323,3.3067570563,2.5923650725\C,8.3023822036,2.9953678
 999,1.1851133104\O,7.6960100516,2.2052177825,0.5097126642\N,7.82599387
 62,4.2258285449,1.4656574057\H,8.3685323808,4.8839792582,1.9784270084\
 C,6.5890325228,4.7125465878,0.9072039316\H,6.5188442958,4.369615265,-0
 .1178790291\C,5.3669386513,4.2078021038,1.686993806\H,5.4055257951,4.5
 562586152,2.7133451513\H,4.4404870402,4.5532369665,1.2403855391\H,5.36
 84180967,3.1261872493,1.6826388656\C,6.6445647433,6.2377598209,0.92949
 89962\O,7.4034031973,6.8308832963,1.6500758328\N,5.7322688488,6.858343
 4764,0.1484406448\H,5.2690278692,6.2876217727,-0.5220805514\C,5.751016
 2365,8.2864406505,-0.1587311819\H,5.4409328391,8.3766479474,-1.1916091
 062\C,4.7539990925,9.0347518853,0.7259874547\H,4.9984287695,8.91947262
 7,1.7761023745\H,4.7248718036,10.0915901899,0.4837255703\H,3.761141726
 2,8.6270338749,0.5745024457\C,7.1914738823,8.8306746769,-0.1610439426\
 O,7.9685031624,8.4119680044,-0.9784695981\N,7.4922850751,9.8093785733,
 0.7064690278\H,6.8918472458,10.0100969195,1.4740674733\C,8.8533975738,
 10.2690548332,0.8561911231\H,9.5188973722,9.4262656525,0.7128171248\C,
 9.19980132,11.3607174891,-0.163728137\H,8.557246617,12.2232226506,-0.0
 24833735\H,10.2321642829,11.680008954,-0.0659859399\H,9.0543559585,10.
 9717477652,-1.1627290394\C,9.00296099,10.7953777563,2.2812288677\O,8.0
 474060053,11.1000053952,2.9470621046\N,10.2684050879,10.932100841,2.71
 80546778\H,11.0063710564,10.5459211349,2.1764154799\C,10.5631295318,11
 .400459073,4.0564133844\H,10.0036996937,12.3014871838,4.2614814115\H,1
 0.3079165065,10.6595802752,4.8056597754\H,11.6204211834,11.6195416867,
 4.1215470766\\Version=EM64L-G09RevA.02\State=1-A\HF=-984.5561096\RMSD=
 8.649e-09\RMSF=1.466e-03\Dipole=0.4301495,1.052639,0.4256407\Quadrupol
 e=18.4966342,-14.8260973,-3.6705369,4.4991194,10.4044277,-6.9340191\PG
 =C01 [X(C12H22N4O4)]\\@


 A MAN THINKING OR WORKING IS ALWAYS ALONE, 
 LET HIM BE WHERE HE WILL.

                                    -- THOREAU
 Job cpu time:  0 days  3 hours 29 minutes  6.9 seconds.
 File lengths (MBytes):  RWF=    553 Int=      0 D2E=      0 Chk=     11 Scr=      1
 Normal termination of Gaussian 09 at Tue Dec 27 07:57:07 2016.
