 Entering Gaussian System, Link 0=g09
 Initial command:
 /home/steboss/Software/g09/l1.exe /home/steboss/projects/phi_psi_scan/alanine/MP2/45/5641/Gau-32055.inp -scrdir=/home/steboss/projects/phi_psi_scan/alanine/MP2/45/5641/
 Entering Link 1 = /home/steboss/Software/g09/l1.exe PID=     32057.
  
 Copyright (c) 1988,1990,1992,1993,1995,1998,2003,2009, Gaussian, Inc.
                  All Rights Reserved.
  
 This is part of the Gaussian(R) 09 program.  It is based on
 the Gaussian(R) 03 system (copyright 2003, Gaussian, Inc.),
 the Gaussian(R) 98 system (copyright 1998, Gaussian, Inc.),
 the Gaussian(R) 94 system (copyright 1995, Gaussian, Inc.),
 the Gaussian 92(TM) system (copyright 1992, Gaussian, Inc.),
 the Gaussian 90(TM) system (copyright 1990, Gaussian, Inc.),
 the Gaussian 88(TM) system (copyright 1988, Gaussian, Inc.),
 the Gaussian 86(TM) system (copyright 1986, Carnegie Mellon
 University), and the Gaussian 82(TM) system (copyright 1983,
 Carnegie Mellon University). Gaussian is a federally registered
 trademark of Gaussian, Inc.
  
 This software contains proprietary and confidential information,
 including trade secrets, belonging to Gaussian, Inc.
  
 This software is provided under written license and may be
 used, copied, transmitted, or stored only in accord with that
 written license.
  
 The following legend is applicable only to US Government
 contracts under FAR:
  
                    RESTRICTED RIGHTS LEGEND
  
 Use, reproduction and disclosure by the US Government is
 subject to restrictions as set forth in subparagraphs (a)
 and (c) of the Commercial Computer Software - Restricted
 Rights clause in FAR 52.227-19.
  
 Gaussian, Inc.
 340 Quinnipiac St., Bldg. 40, Wallingford CT 06492
  
  
 ---------------------------------------------------------------
 Warning -- This program may not be used in any manner that
 competes with the business of Gaussian, Inc. or will provide
 assistance to any competitor of Gaussian, Inc.  The licensee
 of this program is prohibited from giving any competitor of
 Gaussian, Inc. access to this program.  By using this program,
 the user acknowledges that Gaussian, Inc. is engaged in the
 business of creating and licensing software in the field of
 computational chemistry and represents and warrants to the
 licensee that it is not a competitor of Gaussian, Inc. and that
 it will not use this program in any manner prohibited above.
 ---------------------------------------------------------------
  

 Cite this work as:
 Gaussian 09, Revision A.02,
 M. J. Frisch, G. W. Trucks, H. B. Schlegel, G. E. Scuseria, 
 M. A. Robb, J. R. Cheeseman, G. Scalmani, V. Barone, B. Mennucci, 
 G. A. Petersson, H. Nakatsuji, M. Caricato, X. Li, H. P. Hratchian, 
 A. F. Izmaylov, J. Bloino, G. Zheng, J. L. Sonnenberg, M. Hada, 
 M. Ehara, K. Toyota, R. Fukuda, J. Hasegawa, M. Ishida, T. Nakajima, 
 Y. Honda, O. Kitao, H. Nakai, T. Vreven, J. A. Montgomery, Jr., 
 J. E. Peralta, F. Ogliaro, M. Bearpark, J. J. Heyd, E. Brothers, 
 K. N. Kudin, V. N. Staroverov, R. Kobayashi, J. Normand, 
 K. Raghavachari, A. Rendell, J. C. Burant, S. S. Iyengar, J. Tomasi, 
 M. Cossi, N. Rega, J. M. Millam, M. Klene, J. E. Knox, J. B. Cross, 
 V. Bakken, C. Adamo, J. Jaramillo, R. Gomperts, R. E. Stratmann, 
 O. Yazyev, A. J. Austin, R. Cammi, C. Pomelli, J. W. Ochterski, 
 R. L. Martin, K. Morokuma, V. G. Zakrzewski, G. A. Voth, 
 P. Salvador, J. J. Dannenberg, S. Dapprich, A. D. Daniels, 
 O. Farkas, J. B. Foresman, J. V. Ortiz, J. Cioslowski, 
 and D. J. Fox, Gaussian, Inc., Wallingford CT, 2009.
 
 ******************************************
 Gaussian 09:  EM64L-G09RevA.02 11-Jun-2009
                13-Feb-2017 
 ******************************************
 %chk=structure_165.chk
 %NProcShared=8
 Will use up to    8 processors via shared memory.
 -------------------
 #SP MP2/aug-cc-pVDZ
 -------------------
 1/38=1/1;
 2/12=2,17=6,18=5,40=1/2;
 3/5=16,7=10,11=9,16=1,25=1,30=1/1,2,3;
 4//1;
 5/5=2,38=5/2;
 8/10=1/1;
 9/16=-3/6;
 6/7=2,8=2,9=2,10=2/1;
 99/5=1,9=1/99;
 -------------------------------
 Single Point calculation at MP2
 -------------------------------
 Symbolic Z-matrix:
 Charge =  0 Multiplicity = 1
 H                    -3.6751   -1.411     0.3638 
 C                    -2.951    -1.1436   -0.4073 
 H                    -3.4762   -0.7341   -1.278 
 H                    -2.4194   -2.0502   -0.72 
 C                    -1.9432   -0.1671    0.1758 
 O                    -1.7779   -0.0258    1.374 
 N                    -1.2818    0.6219   -0.7742 
 H                    -1.449     0.285    -1.7167 
 C                     0.123     0.9916   -0.5892 
 H                     0.4884    1.3061   -1.574 
 C                     0.2517    2.1789    0.3859 
 H                    -0.1197    1.8856    1.3697 
 H                     1.2901    2.5172    0.4815 
 H                    -0.3498    3.0173    0.0221 
 C                     0.9968   -0.2111   -0.1349 
 O                     0.5351   -1.2987    0.1765 
 N                     2.3425    0.0101   -0.2663 
 H                     2.6585    0.9559   -0.4291 
 C                     3.33     -0.9676    0.1624 
 H                     2.8424   -1.9429    0.1795 
 H                     4.1664   -0.9909   -0.5435 
 H                     3.7175   -0.752     1.1667 
 
                          Input orientation:                          
 ---------------------------------------------------------------------
 Center     Atomic      Atomic             Coordinates (Angstroms)
 Number     Number       Type             X           Y           Z
 ---------------------------------------------------------------------
      1          1           0       -3.675100   -1.411000    0.363800
      2          6           0       -2.951000   -1.143600   -0.407300
      3          1           0       -3.476200   -0.734100   -1.278000
      4          1           0       -2.419400   -2.050200   -0.720000
      5          6           0       -1.943200   -0.167100    0.175800
      6          8           0       -1.777900   -0.025800    1.374000
      7          7           0       -1.281800    0.621900   -0.774200
      8          1           0       -1.449000    0.285000   -1.716700
      9          6           0        0.123000    0.991600   -0.589200
     10          1           0        0.488400    1.306100   -1.574000
     11          6           0        0.251700    2.178900    0.385900
     12          1           0       -0.119700    1.885600    1.369700
     13          1           0        1.290100    2.517200    0.481500
     14          1           0       -0.349800    3.017300    0.022100
     15          6           0        0.996800   -0.211100   -0.134900
     16          8           0        0.535100   -1.298700    0.176500
     17          7           0        2.342500    0.010100   -0.266300
     18          1           0        2.658500    0.955900   -0.429100
     19          6           0        3.330000   -0.967600    0.162400
     20          1           0        2.842400   -1.942900    0.179500
     21          1           0        4.166400   -0.990900   -0.543500
     22          1           0        3.717500   -0.752000    1.166700
 ---------------------------------------------------------------------
                    Distance matrix (angstroms):
                    1          2          3          4          5
     1  H    0.000000
     2  C    1.091063   0.000000
     3  H    1.786970   1.096195   0.000000
     4  H    1.777634   1.096496   1.777726   0.000000
     5  C    2.140586   1.519611   2.187490   2.138993   0.000000
     6  O    2.557079   2.408043   3.227850   2.982374   1.217774
     7  N    3.340002   2.457201   2.628296   2.904684   1.400882
     8  H    3.487179   2.451822   2.310966   2.718133   2.007532
     9  C    4.594155   3.747218   4.050522   3.966542   2.489376
    10  H    5.335957   4.380832   4.468566   4.522098   3.338382
    11  C    5.320491   4.682463   5.015114   5.122800   3.219541
    12  H    4.951795   4.511102   5.013904   5.014578   2.994015
    13  H    6.332284   5.672597   6.031949   6.005425   4.213448
    14  H    5.548353   4.925821   5.053478   5.523904   3.564120
    15  C    4.849238   4.065573   4.646282   3.923653   2.956699
    16  O    4.215860   3.538046   4.304053   3.177662   2.724425
    17  N    6.215148   5.419598   5.952700   5.208298   4.312085
    18  H    6.807745   5.989563   6.419601   5.908158   4.775215
    19  C    7.022008   6.309239   6.960864   5.916608   5.333631
    20  H    6.541765   5.877644   6.596227   5.339209   5.104454
    21  H    7.904986   7.120341   7.682107   6.672783   6.206710
    22  H    7.465217   6.862923   7.597776   6.550305   5.776462
                    6          7          8          9         10
     6  O    0.000000
     7  N    2.297911   0.000000
     8  H    3.123651   1.014773   0.000000
     9  C    2.915935   1.464365   2.059545   0.000000
    10  H    3.949782   2.059470   2.194659   1.096475   0.000000
    11  C    3.155364   2.474208   3.301540   1.541773   2.158475
    12  H    2.530434   2.746584   3.722207   2.166894   3.061205
    13  H    4.083629   3.432727   4.161426   2.199085   2.516856
    14  H    3.623198   2.690847   3.420107   2.168107   2.485623
    15  C    3.163870   2.508906   2.954682   1.554478   2.152063
    16  O    2.899008   2.809566   3.166854   2.449816   3.138696
    17  N    4.435039   3.710500   4.068747   2.448221   2.612926
    18  H    4.888410   3.969460   4.356556   2.540800   2.478461
    19  C    5.333442   4.967135   5.285723   3.832521   4.032305
    20  H    5.142886   4.949421   5.193768   4.073982   4.378593
    21  H    6.320042   5.686583   5.876822   4.503496   4.457109
    22  H    5.547050   5.536036   6.006837   4.363915   4.708959
                   11         12         13         14         15
    11  C    0.000000
    12  H    1.091708   0.000000
    13  H    1.096294   1.781952   0.000000
    14  H    1.094106   1.774744   1.774942   0.000000
    15  C    2.557050   2.811858   2.812400   3.501506   0.000000
    16  O    3.495406   3.462984   3.901813   4.408485   1.221888
    17  N    3.082289   3.500918   2.819982   4.046592   1.370074
    18  H    2.820043   3.437793   2.267018   3.674618   2.051753
    19  C    4.407533   4.636675   4.050537   5.425868   2.470729
    20  H    4.872737   4.984779   4.732159   5.900720   2.550337
    21  H    5.122137   5.505020   4.650859   6.064786   3.289591
    22  H    4.605605   4.660713   4.129097   5.662213   3.064138
                   16         17         18         19         20
    16  O    0.000000
    17  N    2.275022   0.000000
    18  H    3.155757   1.010395   0.000000
    19  C    2.814479   1.454248   2.121470   0.000000
    20  H    2.395545   2.064666   2.967702   1.090530   0.000000
    21  H    3.714765   2.098917   2.465133   1.094716   1.783819
    22  H    3.377432   2.127184   2.566122   1.097842   1.777247
                   21         22
    21  H    0.000000
    22  H    1.784200   0.000000
 Stoichiometry    C6H12N2O2
 Framework group  C1[X(C6H12N2O2)]
 Deg. of freedom    60
 Full point group                 C1      NOp   1
 Largest Abelian subgroup         C1      NOp   1
 Largest concise Abelian subgroup C1      NOp   1
                         Standard orientation:                         
 ---------------------------------------------------------------------
 Center     Atomic      Atomic             Coordinates (Angstroms)
 Number     Number       Type             X           Y           Z
 ---------------------------------------------------------------------
      1          1           0       -3.675110   -1.410996    0.363817
      2          6           0       -2.951009   -1.143598   -0.407283
      3          1           0       -3.476208   -0.734096   -1.277983
      4          1           0       -2.419412   -2.050200   -0.719983
      5          6           0       -1.943206   -0.167101    0.175817
      6          8           0       -1.777905   -0.025802    1.374017
      7          7           0       -1.281803    0.621896   -0.774183
      8          1           0       -1.449004    0.284997   -1.716683
      9          6           0        0.122998    0.991592   -0.589183
     10          1           0        0.488399    1.306091   -1.573983
     11          6           0        0.251702    2.178891    0.385917
     12          1           0       -0.119699    1.885593    1.369717
     13          1           0        1.290103    2.517188    0.481517
     14          1           0       -0.349795    3.017293    0.022117
     15          6           0        0.996794   -0.211111   -0.134883
     16          8           0        0.535091   -1.298709    0.176517
     17          7           0        2.342495    0.010085   -0.266283
     18          1           0        2.658498    0.955884   -0.429083
     19          6           0        3.329992   -0.967619    0.162417
     20          1           0        2.842389   -1.942917    0.179517
     21          1           0        4.166392   -0.990921   -0.543483
     22          1           0        3.717492   -0.752020    1.166717
 ---------------------------------------------------------------------
 Rotational constants (GHZ):      2.2620955      0.8509897      0.7257640
 Standard basis: Aug-CC-pVDZ (5D, 7F)
 There are   338 symmetry adapted basis functions of A   symmetry.
 Integral buffers will be    131072 words long.
 Raffenetti 1 integral format.
 Two-electron integral symmetry is turned on.
   338 basis functions,   562 primitive gaussians,   358 cartesian basis functions
    39 alpha electrons       39 beta electrons
       nuclear repulsion energy       564.0604641354 Hartrees.
 NAtoms=   22 NActive=   22 NUniq=   22 SFac= 7.50D-01 NAtFMM=   80 NAOKFM=F Big=F
 One-electron integrals computed using PRISM.
 NBasis=   338 RedAO= T  NBF=   338
 NBsUse=   338 1.00D-06 NBFU=   338
 Harris functional with IExCor=  205 diagonalized for initial guess.
 ExpMin= 2.97D-02 ExpMax= 1.17D+04 ExpMxC= 4.01D+02 IAcc=3 IRadAn=         0 AccDes= 0.00D+00
 HarFok:  IExCor=  205 AccDes= 0.00D+00 IRadAn=         0 IDoV= 1
 ScaDFX=  1.000000  1.000000  1.000000  1.000000
 FoFCou: FMM=F IPFlag=           0 FMFlag=      100000 FMFlg1=           0
         NFxFlg=           0 DoJE=T BraDBF=F KetDBF=T FulRan=T
         Omega=  0.000000  0.000000  1.000000  0.000000  0.000000 ICntrl=     500 IOpCl=  0
         NMat0=    1 NMatS0=    1 NMatT0=    0 NMatD0=    1 NMtDS0=    0 NMtDT0=    0
         I1Cent=           4 NGrid=           0.
 Petite list used in FoFCou.
 Initial guess orbital symmetries:
       Occupied  (A) (A) (A) (A) (A) (A) (A) (A) (A) (A) (A) (A)
                 (A) (A) (A) (A) (A) (A) (A) (A) (A) (A) (A) (A)
                 (A) (A) (A) (A) (A) (A) (A) (A) (A) (A) (A) (A)
                 (A) (A) (A)
       Virtual   (A) (A) (A) (A) (A) (A) (A) (A) (A) (A) (A) (A)
                 (A) (A) (A) (A) (A) (A) (A) (A) (A) (A) (A) (A)
                 (A) (A) (A) (A) (A) (A) (A) (A) (A) (A) (A) (A)
                 (A) (A) (A) (A) (A) (A) (A) (A) (A) (A) (A) (A)
                 (A) (A) (A) (A) (A) (A) (A) (A) (A) (A) (A) (A)
                 (A) (A) (A) (A) (A) (A) (A) (A) (A) (A) (A) (A)
                 (A) (A) (A) (A) (A) (A) (A) (A) (A) (A) (A) (A)
                 (A) (A) (A) (A) (A) (A) (A) (A) (A) (A) (A) (A)
                 (A) (A) (A) (A) (A) (A) (A) (A) (A) (A) (A) (A)
                 (A) (A) (A) (A) (A) (A) (A) (A) (A) (A) (A) (A)
                 (A) (A) (A) (A) (A) (A) (A) (A) (A) (A) (A) (A)
                 (A) (A) (A) (A) (A) (A) (A) (A) (A) (A) (A) (A)
                 (A) (A) (A) (A) (A) (A) (A) (A) (A) (A) (A) (A)
                 (A) (A) (A) (A) (A) (A) (A) (A) (A) (A) (A) (A)
                 (A) (A) (A) (A) (A) (A) (A) (A) (A) (A) (A) (A)
                 (A) (A) (A) (A) (A) (A) (A) (A) (A) (A) (A) (A)
                 (A) (A) (A) (A) (A) (A) (A) (A) (A) (A) (A) (A)
                 (A) (A) (A) (A) (A) (A) (A) (A) (A) (A) (A) (A)
                 (A) (A) (A) (A) (A) (A) (A) (A) (A) (A) (A) (A)
                 (A) (A) (A) (A) (A) (A) (A) (A) (A) (A) (A) (A)
                 (A) (A) (A) (A) (A) (A) (A) (A) (A) (A) (A) (A)
                 (A) (A) (A) (A) (A) (A) (A) (A) (A) (A) (A) (A)
                 (A) (A) (A) (A) (A) (A) (A) (A) (A) (A) (A) (A)
                 (A) (A) (A) (A) (A) (A) (A) (A) (A) (A) (A) (A)
                 (A) (A) (A) (A) (A) (A) (A) (A) (A) (A) (A)
 The electronic state of the initial guess is 1-A.
 Requested convergence on RMS density matrix=1.00D-08 within 128 cycles.
 Requested convergence on MAX density matrix=1.00D-06.
 Requested convergence on             energy=1.00D-06.
 No special actions if energy rises.
 Initial convergence to 1.0D-05 achieved.  Increase integral accuracy.
 SCF Done:  E(RHF) =  -492.911793410     A.U. after   15 cycles
             Convg  =    0.3395D-08             -V/T =  2.0017
 ExpMin= 2.97D-02 ExpMax= 1.17D+04 ExpMxC= 4.01D+02 IAcc=3 IRadAn=         5 AccDes= 0.00D+00
 HarFok:  IExCor=  205 AccDes= 0.00D+00 IRadAn=         5 IDoV=-2
 ScaDFX=  1.000000  1.000000  1.000000  1.000000
 Range of M.O.s used for correlation:    11   338
 NBasis=   338 NAE=    39 NBE=    39 NFC=    10 NFV=     0
 NROrb=    328 NOA=    29 NOB=    29 NVA=   299 NVB=   299

 **** Warning!!: The largest alpha MO coefficient is  0.84285702D+02

 Disk-based method using OVN memory for 29 occupieds at a time.
 Estimated scratch disk usage=  1385880242 words.
 Actual    scratch disk usage=  1372948524 words.
 JobTyp=1 Pass  1:  I=   1 to  29 NPSUse=  8 ParTrn=T ParDer=T DoDerP=F.
 Spin components of T(2) and E(2):
     alpha-alpha T2 =       0.6801094778D-01 E2=     -0.2058595814D+00
     alpha-beta  T2 =       0.3773472459D+00 E2=     -0.1191535626D+01
     beta-beta   T2 =       0.6801094778D-01 E2=     -0.2058595814D+00
 ANorm=    0.1230190693D+01
 E2 =    -0.1603254788D+01 EUMP2 =    -0.49451504819821D+03

 **********************************************************************

            Population analysis using the SCF density.

 **********************************************************************

 Orbital symmetries:
       Occupied  (A) (A) (A) (A) (A) (A) (A) (A) (A) (A) (A) (A)
                 (A) (A) (A) (A) (A) (A) (A) (A) (A) (A) (A) (A)
                 (A) (A) (A) (A) (A) (A) (A) (A) (A) (A) (A) (A)
                 (A) (A) (A)
       Virtual   (A) (A) (A) (A) (A) (A) (A) (A) (A) (A) (A) (A)
                 (A) (A) (A) (A) (A) (A) (A) (A) (A) (A) (A) (A)
                 (A) (A) (A) (A) (A) (A) (A) (A) (A) (A) (A) (A)
                 (A) (A) (A) (A) (A) (A) (A) (A) (A) (A) (A) (A)
                 (A) (A) (A) (A) (A) (A) (A) (A) (A) (A) (A) (A)
                 (A) (A) (A) (A) (A) (A) (A) (A) (A) (A) (A) (A)
                 (A) (A) (A) (A) (A) (A) (A) (A) (A) (A) (A) (A)
                 (A) (A) (A) (A) (A) (A) (A) (A) (A) (A) (A) (A)
                 (A) (A) (A) (A) (A) (A) (A) (A) (A) (A) (A) (A)
                 (A) (A) (A) (A) (A) (A) (A) (A) (A) (A) (A) (A)
                 (A) (A) (A) (A) (A) (A) (A) (A) (A) (A) (A) (A)
                 (A) (A) (A) (A) (A) (A) (A) (A) (A) (A) (A) (A)
                 (A) (A) (A) (A) (A) (A) (A) (A) (A) (A) (A) (A)
                 (A) (A) (A) (A) (A) (A) (A) (A) (A) (A) (A) (A)
                 (A) (A) (A) (A) (A) (A) (A) (A) (A) (A) (A) (A)
                 (A) (A) (A) (A) (A) (A) (A) (A) (A) (A) (A) (A)
                 (A) (A) (A) (A) (A) (A) (A) (A) (A) (A) (A) (A)
                 (A) (A) (A) (A) (A) (A) (A) (A) (A) (A) (A) (A)
                 (A) (A) (A) (A) (A) (A) (A) (A) (A) (A) (A) (A)
                 (A) (A) (A) (A) (A) (A) (A) (A) (A) (A) (A) (A)
                 (A) (A) (A) (A) (A) (A) (A) (A) (A) (A) (A) (A)
                 (A) (A) (A) (A) (A) (A) (A) (A) (A) (A) (A) (A)
                 (A) (A) (A) (A) (A) (A) (A) (A) (A) (A) (A) (A)
                 (A) (A) (A) (A) (A) (A) (A) (A) (A) (A) (A) (A)
                 (A) (A) (A) (A) (A) (A) (A) (A) (A) (A) (A)
 The electronic state is 1-A.
 Alpha  occ. eigenvalues --  -20.53396 -20.52286 -15.59760 -15.58779 -11.36172
 Alpha  occ. eigenvalues --  -11.35363 -11.29918 -11.26978 -11.23616 -11.23428
 Alpha  occ. eigenvalues --   -1.39194  -1.37279  -1.23577  -1.22835  -1.05037
 Alpha  occ. eigenvalues --   -0.98493  -0.95456  -0.87677  -0.79840  -0.76902
 Alpha  occ. eigenvalues --   -0.70651  -0.69492  -0.65145  -0.62999  -0.61996
 Alpha  occ. eigenvalues --   -0.61762  -0.59314  -0.58285  -0.56290  -0.55813
 Alpha  occ. eigenvalues --   -0.54893  -0.53466  -0.53182  -0.50953  -0.48986
 Alpha  occ. eigenvalues --   -0.44152  -0.41431  -0.39629  -0.38642
 Alpha virt. eigenvalues --    0.02445   0.03693   0.04281   0.04660   0.05751
 Alpha virt. eigenvalues --    0.05986   0.06161   0.06962   0.07730   0.08330
 Alpha virt. eigenvalues --    0.08693   0.09165   0.11330   0.12035   0.12123
 Alpha virt. eigenvalues --    0.13037   0.13614   0.14350   0.14673   0.15449
 Alpha virt. eigenvalues --    0.16084   0.16398   0.16639   0.16920   0.17455
 Alpha virt. eigenvalues --    0.17931   0.18078   0.18615   0.18976   0.19398
 Alpha virt. eigenvalues --    0.19934   0.20766   0.21407   0.21577   0.22180
 Alpha virt. eigenvalues --    0.23393   0.24266   0.24731   0.25717   0.26214
 Alpha virt. eigenvalues --    0.27701   0.28598   0.29360   0.30027   0.30830
 Alpha virt. eigenvalues --    0.30982   0.31404   0.32591   0.33138   0.34288
 Alpha virt. eigenvalues --    0.34826   0.35413   0.36116   0.36633   0.37239
 Alpha virt. eigenvalues --    0.38117   0.38279   0.39158   0.39991   0.40881
 Alpha virt. eigenvalues --    0.41160   0.41964   0.42201   0.43074   0.43206
 Alpha virt. eigenvalues --    0.44139   0.44257   0.44904   0.45297   0.46400
 Alpha virt. eigenvalues --    0.46846   0.47950   0.48097   0.48809   0.49236
 Alpha virt. eigenvalues --    0.50409   0.50925   0.51561   0.52195   0.53144
 Alpha virt. eigenvalues --    0.53736   0.54516   0.55074   0.55582   0.56472
 Alpha virt. eigenvalues --    0.56708   0.57533   0.57684   0.58745   0.59554
 Alpha virt. eigenvalues --    0.59957   0.60613   0.60794   0.61069   0.61983
 Alpha virt. eigenvalues --    0.62983   0.63468   0.64427   0.64663   0.65008
 Alpha virt. eigenvalues --    0.66428   0.66530   0.67233   0.68184   0.68782
 Alpha virt. eigenvalues --    0.68869   0.69559   0.70072   0.70430   0.71263
 Alpha virt. eigenvalues --    0.72539   0.72798   0.74229   0.74453   0.75482
 Alpha virt. eigenvalues --    0.75881   0.76709   0.78432   0.79075   0.79633
 Alpha virt. eigenvalues --    0.80381   0.80927   0.81885   0.82307   0.83632
 Alpha virt. eigenvalues --    0.84011   0.85331   0.86160   0.88203   0.88932
 Alpha virt. eigenvalues --    0.89620   0.91446   0.92558   0.93053   0.93875
 Alpha virt. eigenvalues --    0.94327   0.95450   0.97059   0.98022   0.98954
 Alpha virt. eigenvalues --    1.00574   1.02319   1.03006   1.03813   1.05485
 Alpha virt. eigenvalues --    1.06962   1.08142   1.09598   1.09975   1.11244
 Alpha virt. eigenvalues --    1.12142   1.13595   1.15088   1.16464   1.17146
 Alpha virt. eigenvalues --    1.17712   1.18893   1.20050   1.21155   1.22098
 Alpha virt. eigenvalues --    1.23734   1.25628   1.26251   1.28968   1.30398
 Alpha virt. eigenvalues --    1.32224   1.33633   1.34780   1.36301   1.37444
 Alpha virt. eigenvalues --    1.38801   1.42800   1.44353   1.45866   1.46996
 Alpha virt. eigenvalues --    1.49275   1.51522   1.52905   1.54134   1.54970
 Alpha virt. eigenvalues --    1.59181   1.59758   1.60539   1.62491   1.63770
 Alpha virt. eigenvalues --    1.66251   1.68357   1.69133   1.71135   1.72126
 Alpha virt. eigenvalues --    1.75157   1.76179   1.78233   1.79411   1.81399
 Alpha virt. eigenvalues --    1.82047   1.82892   1.85421   1.87711   1.89013
 Alpha virt. eigenvalues --    1.89326   1.91272   1.91995   1.92611   1.94600
 Alpha virt. eigenvalues --    1.95492   1.97589   1.99199   2.00814   2.02384
 Alpha virt. eigenvalues --    2.04226   2.05727   2.07089   2.07927   2.08605
 Alpha virt. eigenvalues --    2.10718   2.11019   2.13354   2.15865   2.16869
 Alpha virt. eigenvalues --    2.18815   2.20298   2.21604   2.22746   2.23643
 Alpha virt. eigenvalues --    2.26282   2.27175   2.28756   2.29593   2.30633
 Alpha virt. eigenvalues --    2.31720   2.32669   2.34458   2.37229   2.38206
 Alpha virt. eigenvalues --    2.40401   2.41061   2.42911   2.44601   2.46614
 Alpha virt. eigenvalues --    2.47212   2.48204   2.49348   2.49597   2.51827
 Alpha virt. eigenvalues --    2.53684   2.56781   2.58706   2.59488   2.62791
 Alpha virt. eigenvalues --    2.63592   2.65106   2.67637   2.69242   2.70912
 Alpha virt. eigenvalues --    2.71650   2.73082   2.74594   2.78275   2.79217
 Alpha virt. eigenvalues --    2.82392   2.84427   2.87201   2.87722   2.88875
 Alpha virt. eigenvalues --    2.91161   2.92901   2.94993   2.96501   2.97824
 Alpha virt. eigenvalues --    3.01660   3.03816   3.04435   3.06078   3.09718
 Alpha virt. eigenvalues --    3.10889   3.12193   3.17383   3.19500   3.22652
 Alpha virt. eigenvalues --    3.28842   3.35184   3.42240   3.46307   3.53823
 Alpha virt. eigenvalues --    3.61847   3.65653   3.77956   3.85244   3.86180
 Alpha virt. eigenvalues --    3.89459   3.90365   3.95189   3.99083   4.04370
 Alpha virt. eigenvalues --    4.05723   4.14332   4.23046   4.27085
          Condensed to atoms (all electrons):
              1          2          3          4          5          6
     1  H    0.853682   0.355798  -0.102631  -0.063984  -0.063020   0.034004
     2  C    0.355798   4.504594   0.315692   0.339928   0.277445  -0.043234
     3  H   -0.102631   0.315692   0.936996  -0.082008   0.093616  -0.010661
     4  H   -0.063984   0.339928  -0.082008   0.721908  -0.025881   0.007909
     5  C   -0.063020   0.277445   0.093616  -0.025881   4.942326   0.203214
     6  O    0.034004  -0.043234  -0.010661   0.007909   0.203214   8.721059
     7  N    0.029293   0.049856  -0.133591   0.028128   0.063521  -0.070331
     8  H   -0.002820  -0.059808   0.014266  -0.004013  -0.065446   0.005042
     9  C    0.008900  -0.119956  -0.010596   0.009062  -0.128316  -0.084215
    10  H   -0.000259  -0.001162  -0.000108   0.001442  -0.003227   0.001760
    11  C    0.003014   0.003509  -0.006627  -0.004043  -0.038863   0.009865
    12  H    0.000039  -0.002983   0.000383  -0.000188  -0.025987   0.005375
    13  H   -0.000086  -0.000050  -0.000464   0.000085  -0.015128   0.006561
    14  H    0.000176   0.000707   0.000731  -0.000466   0.034060  -0.001784
    15  C   -0.010777   0.070927   0.004680  -0.004711  -0.043912   0.063086
    16  O    0.004475  -0.009236  -0.002922  -0.000068  -0.020018  -0.002023
    17  N    0.000086  -0.005935   0.000050  -0.001111   0.004325  -0.001001
    18  H    0.000101   0.000817  -0.000054   0.000055   0.003871  -0.000646
    19  C   -0.000104   0.000566   0.000332  -0.001025   0.005320   0.003290
    20  H   -0.000116   0.000033   0.000033   0.000083  -0.002434   0.000345
    21  H    0.000015   0.000086   0.000027  -0.000114   0.002458   0.000380
    22  H   -0.000035   0.000084   0.000022  -0.000038   0.000147  -0.000139
              7          8          9         10         11         12
     1  H    0.029293  -0.002820   0.008900  -0.000259   0.003014   0.000039
     2  C    0.049856  -0.059808  -0.119956  -0.001162   0.003509  -0.002983
     3  H   -0.133591   0.014266  -0.010596  -0.000108  -0.006627   0.000383
     4  H    0.028128  -0.004013   0.009062   0.001442  -0.004043  -0.000188
     5  C    0.063521  -0.065446  -0.128316  -0.003227  -0.038863  -0.025987
     6  O   -0.070331   0.005042  -0.084215   0.001760   0.009865   0.005375
     7  N    7.896975   0.182182  -1.042138  -0.021396   0.110333  -0.031820
     8  H    0.182182   0.878593   0.294644  -0.045436  -0.038435  -0.007522
     9  C   -1.042138   0.294644   9.351558  -0.178912  -0.210934   0.091070
    10  H   -0.021396  -0.045436  -0.178912   1.380017   0.033614   0.073632
    11  C    0.110333  -0.038435  -0.210934   0.033614   4.377033   0.403901
    12  H   -0.031820  -0.007522   0.091070   0.073632   0.403901   0.953597
    13  H    0.111593  -0.001828  -0.257164  -0.048564   0.278017  -0.154187
    14  H   -0.031795   0.003420  -0.069619  -0.050930   0.304620  -0.180181
    15  C    0.450925  -0.141856  -1.548183   0.005678   0.051928  -0.129515
    16  O   -0.032725   0.011207  -0.004746  -0.009590   0.036367   0.015226
    17  N   -0.056480   0.012520   0.158543  -0.005304  -0.012202   0.015700
    18  H    0.005692   0.000165  -0.082960   0.019362  -0.016937  -0.000201
    19  C    0.001834  -0.002043  -0.072327   0.003279   0.008024  -0.003994
    20  H    0.000449   0.000024   0.025590   0.002692  -0.011324  -0.001573
    21  H    0.001009  -0.000454  -0.029251  -0.003570   0.006186   0.000559
    22  H    0.001513   0.000167   0.002667  -0.000537   0.002996  -0.000972
             13         14         15         16         17         18
     1  H   -0.000086   0.000176  -0.010777   0.004475   0.000086   0.000101
     2  C   -0.000050   0.000707   0.070927  -0.009236  -0.005935   0.000817
     3  H   -0.000464   0.000731   0.004680  -0.002922   0.000050  -0.000054
     4  H    0.000085  -0.000466  -0.004711  -0.000068  -0.001111   0.000055
     5  C   -0.015128   0.034060  -0.043912  -0.020018   0.004325   0.003871
     6  O    0.006561  -0.001784   0.063086  -0.002023  -0.001001  -0.000646
     7  N    0.111593  -0.031795   0.450925  -0.032725  -0.056480   0.005692
     8  H   -0.001828   0.003420  -0.141856   0.011207   0.012520   0.000165
     9  C   -0.257164  -0.069619  -1.548183  -0.004746   0.158543  -0.082960
    10  H   -0.048564  -0.050930   0.005678  -0.009590  -0.005304   0.019362
    11  C    0.278017   0.304620   0.051928   0.036367  -0.012202  -0.016937
    12  H   -0.154187  -0.180181  -0.129515   0.015226   0.015700  -0.000201
    13  H    1.278758  -0.162884   0.156492  -0.011113  -0.056648  -0.000439
    14  H   -0.162884   1.109357   0.053677  -0.000133   0.021690  -0.002128
    15  C    0.156492   0.053677   5.761347   0.281611   0.020283   0.032996
    16  O   -0.011113  -0.000133   0.281611   8.704124  -0.199254   0.004890
    17  N   -0.056648   0.021690   0.020283  -0.199254   7.255962   0.235151
    18  H   -0.000439  -0.002128   0.032996   0.004890   0.235151   1.009950
    19  C   -0.000373   0.007773  -0.088936   0.015156   0.251080  -0.120811
    20  H    0.002585  -0.000043  -0.025428  -0.009817  -0.022183   0.000574
    21  H   -0.001937   0.000615   0.045573   0.022575  -0.175024   0.025854
    22  H    0.000296   0.000836  -0.035180  -0.000384   0.069901  -0.012659
             19         20         21         22
     1  H   -0.000104  -0.000116   0.000015  -0.000035
     2  C    0.000566   0.000033   0.000086   0.000084
     3  H    0.000332   0.000033   0.000027   0.000022
     4  H   -0.001025   0.000083  -0.000114  -0.000038
     5  C    0.005320  -0.002434   0.002458   0.000147
     6  O    0.003290   0.000345   0.000380  -0.000139
     7  N    0.001834   0.000449   0.001009   0.001513
     8  H   -0.002043   0.000024  -0.000454   0.000167
     9  C   -0.072327   0.025590  -0.029251   0.002667
    10  H    0.003279   0.002692  -0.003570  -0.000537
    11  C    0.008024  -0.011324   0.006186   0.002996
    12  H   -0.003994  -0.001573   0.000559  -0.000972
    13  H   -0.000373   0.002585  -0.001937   0.000296
    14  H    0.007773  -0.000043   0.000615   0.000836
    15  C   -0.088936  -0.025428   0.045573  -0.035180
    16  O    0.015156  -0.009817   0.022575  -0.000384
    17  N    0.251080  -0.022183  -0.175024   0.069901
    18  H   -0.120811   0.000574   0.025854  -0.012659
    19  C    4.123732   0.472590   0.374525   0.294848
    20  H    0.472590   0.936727  -0.156005  -0.084904
    21  H    0.374525  -0.156005   1.209985  -0.164001
    22  H    0.294848  -0.084904  -0.164001   1.008256
 Mulliken atomic charges:
              1
     1  H   -0.045751
     2  C    0.322321
     3  H   -0.017168
     4  H    0.079052
     5  C    0.801928
     6  O   -0.847857
     7  N   -0.513025
     8  H   -0.032570
     9  C   -0.102718
    10  H   -0.152482
    11  C    0.709957
    12  H   -0.020357
    13  H   -0.123523
    14  H   -0.037699
    15  C    1.029296
    16  O   -0.793601
    17  N   -0.510151
    18  H   -0.102643
    19  C    0.727263
    20  H   -0.127899
    21  H   -0.159491
    22  H   -0.082884
 Sum of Mulliken atomic charges =   0.00000
 Mulliken charges with hydrogens summed into heavy atoms:
              1
     2  C    0.338455
     5  C    0.801928
     6  O   -0.847857
     7  N   -0.545595
     9  C   -0.255200
    11  C    0.528379
    15  C    1.029296
    16  O   -0.793601
    17  N   -0.612793
    19  C    0.356990
 Sum of Mulliken charges with hydrogens summed into heavy atoms =   0.00000
 Electronic spatial extent (au):  <R**2>=           1707.7485
 Charge=              0.0000 electrons
 Dipole moment (field-independent basis, Debye):
    X=              2.6144    Y=              2.0265    Z=             -4.1833  Tot=              5.3331
 Quadrupole moment (field-independent basis, Debye-Ang):
   XX=            -50.5803   YY=            -61.7381   ZZ=            -63.2144
   XY=              4.7996   XZ=              6.2489   YZ=              0.4184
 Traceless Quadrupole moment (field-independent basis, Debye-Ang):
   XX=              7.9306   YY=             -3.2271   ZZ=             -4.7035
   XY=              4.7996   XZ=              6.2489   YZ=              0.4184
 Octapole moment (field-independent basis, Debye-Ang**2):
  XXX=             18.9893  YYY=              0.3357  ZZZ=            -10.6867  XYY=              2.8488
  XXY=            -10.3015  XXZ=             -9.8527  XZZ=              4.6813  YZZ=              0.8232
  YYZ=             -0.2706  XYZ=             -2.8358
 Hexadecapole moment (field-independent basis, Debye-Ang**3):
 XXXX=          -1378.5731 YYYY=           -527.1120 ZZZZ=           -215.8949 XXXY=             17.2034
 XXXZ=              9.1186 YYYX=              4.5007 YYYZ=             -1.1521 ZZZX=             19.7949
 ZZZY=             -3.4173 XXYY=           -323.4378 XXZZ=           -298.2181 YYZZ=           -126.5393
 XXYZ=             -5.0615 YYXZ=             -6.5603 ZZXY=              0.1953
 N-N= 5.640604641354D+02 E-N=-2.283738691219D+03  KE= 4.920555073339D+02
 1\1\GINC-NODE005\SP\RMP2-FC\Aug-CC-pVDZ\C6H12N2O2\MANAGER\14-Feb-2017\
 0\\#SP MP2/aug-cc-pVDZ\\Single Point calculation at MP2\\0,1\H,0,-3.67
 51,-1.411,0.3638\C,0,-2.951,-1.1436,-0.4073\H,0,-3.4762,-0.7341,-1.278
 \H,0,-2.4194,-2.0502,-0.72\C,0,-1.9432,-0.1671,0.1758\O,0,-1.7779,-0.0
 258,1.374\N,0,-1.2818,0.6219,-0.7742\H,0,-1.449,0.285,-1.7167\C,0,0.12
 3,0.9916,-0.5892\H,0,0.4884,1.3061,-1.574\C,0,0.2517,2.1789,0.3859\H,0
 ,-0.1197,1.8856,1.3697\H,0,1.2901,2.5172,0.4815\H,0,-0.3498,3.0173,0.0
 221\C,0,0.9968,-0.2111,-0.1349\O,0,0.5351,-1.2987,0.1765\N,0,2.3425,0.
 0101,-0.2663\H,0,2.6585,0.9559,-0.4291\C,0,3.33,-0.9676,0.1624\H,0,2.8
 424,-1.9429,0.1795\H,0,4.1664,-0.9909,-0.5435\H,0,3.7175,-0.752,1.1667
 \\Version=EM64L-G09RevA.02\State=1-A\HF=-492.9117934\MP2=-494.5150482\
 RMSD=3.395e-09\PG=C01 [X(C6H12N2O2)]\\@


 ADVERTISING--  HE WHO HAS SOMETHING TO SELL AND GOES AND WHISPERS
                IN A WELL, IS NOT SO APT TO GET THE DOLLARS AS HE
                WHO CLIMBS A TREE AND HOLLERS.

                   -- FROM THE BACK OF A SUGAR PACKET
 Job cpu time:  0 days 15 hours 39 minutes 58.1 seconds.
 File lengths (MBytes):  RWF=  10591 Int=      0 D2E=      0 Chk=      7 Scr=      2
 Normal termination of Gaussian 09 at Tue Feb 14 00:23:29 2017.
