 Entering Gaussian System, Link 0=g09
 Initial command:
 /home/steboss/Software/g09/l1.exe /tmp/Gau-1261.inp -scrdir=/tmp/
 Entering Link 1 = /home/steboss/Software/g09/l1.exe PID=      1263.
  
 Copyright (c) 1988,1990,1992,1993,1995,1998,2003,2009, Gaussian, Inc.
                  All Rights Reserved.
  
 This is part of the Gaussian(R) 09 program.  It is based on
 the Gaussian(R) 03 system (copyright 2003, Gaussian, Inc.),
 the Gaussian(R) 98 system (copyright 1998, Gaussian, Inc.),
 the Gaussian(R) 94 system (copyright 1995, Gaussian, Inc.),
 the Gaussian 92(TM) system (copyright 1992, Gaussian, Inc.),
 the Gaussian 90(TM) system (copyright 1990, Gaussian, Inc.),
 the Gaussian 88(TM) system (copyright 1988, Gaussian, Inc.),
 the Gaussian 86(TM) system (copyright 1986, Carnegie Mellon
 University), and the Gaussian 82(TM) system (copyright 1983,
 Carnegie Mellon University). Gaussian is a federally registered
 trademark of Gaussian, Inc.
  
 This software contains proprietary and confidential information,
 including trade secrets, belonging to Gaussian, Inc.
  
 This software is provided under written license and may be
 used, copied, transmitted, or stored only in accord with that
 written license.
  
 The following legend is applicable only to US Government
 contracts under FAR:
  
                    RESTRICTED RIGHTS LEGEND
  
 Use, reproduction and disclosure by the US Government is
 subject to restrictions as set forth in subparagraphs (a)
 and (c) of the Commercial Computer Software - Restricted
 Rights clause in FAR 52.227-19.
  
 Gaussian, Inc.
 340 Quinnipiac St., Bldg. 40, Wallingford CT 06492
  
  
 ---------------------------------------------------------------
 Warning -- This program may not be used in any manner that
 competes with the business of Gaussian, Inc. or will provide
 assistance to any competitor of Gaussian, Inc.  The licensee
 of this program is prohibited from giving any competitor of
 Gaussian, Inc. access to this program.  By using this program,
 the user acknowledges that Gaussian, Inc. is engaged in the
 business of creating and licensing software in the field of
 computational chemistry and represents and warrants to the
 licensee that it is not a competitor of Gaussian, Inc. and that
 it will not use this program in any manner prohibited above.
 ---------------------------------------------------------------
  

 Cite this work as:
 Gaussian 09, Revision A.02,
 M. J. Frisch, G. W. Trucks, H. B. Schlegel, G. E. Scuseria, 
 M. A. Robb, J. R. Cheeseman, G. Scalmani, V. Barone, B. Mennucci, 
 G. A. Petersson, H. Nakatsuji, M. Caricato, X. Li, H. P. Hratchian, 
 A. F. Izmaylov, J. Bloino, G. Zheng, J. L. Sonnenberg, M. Hada, 
 M. Ehara, K. Toyota, R. Fukuda, J. Hasegawa, M. Ishida, T. Nakajima, 
 Y. Honda, O. Kitao, H. Nakai, T. Vreven, J. A. Montgomery, Jr., 
 J. E. Peralta, F. Ogliaro, M. Bearpark, J. J. Heyd, E. Brothers, 
 K. N. Kudin, V. N. Staroverov, R. Kobayashi, J. Normand, 
 K. Raghavachari, A. Rendell, J. C. Burant, S. S. Iyengar, J. Tomasi, 
 M. Cossi, N. Rega, J. M. Millam, M. Klene, J. E. Knox, J. B. Cross, 
 V. Bakken, C. Adamo, J. Jaramillo, R. Gomperts, R. E. Stratmann, 
 O. Yazyev, A. J. Austin, R. Cammi, C. Pomelli, J. W. Ochterski, 
 R. L. Martin, K. Morokuma, V. G. Zakrzewski, G. A. Voth, 
 P. Salvador, J. J. Dannenberg, S. Dapprich, A. D. Daniels, 
 O. Farkas, J. B. Foresman, J. V. Ortiz, J. Cioslowski, 
 and D. J. Fox, Gaussian, Inc., Wallingford CT, 2009.
 
 ******************************************
 Gaussian 09:  EM64L-G09RevA.02 11-Jun-2009
                29-Dec-2016 
 ******************************************
 %chk=structure_150.chk
 ----------------------------------------------------------------------
 # b3lyp/6-31G* Opt=(ModRedundant, maxcycles=1000, calcfc) geom=nocrowd
 ----------------------------------------------------------------------
 1/6=1000,10=4,14=-1,18=120,19=15,26=3,38=1/1,3;
 2/9=110,12=1,17=6,18=5,40=1/2;
 3/5=1,6=6,7=1,11=2,16=1,25=1,30=1,71=2,74=-5/1,2,3;
 4//1;
 5/5=2,38=5/2;
 8/6=4,10=90,11=11/1;
 11/6=1,8=1,9=11,15=111,16=1/1,2,10;
 10/6=1,7=6,13=1/2;
 6/7=2,8=2,9=2,10=2,28=1/1;
 7/10=1,18=20,25=1/1,2,3,16;
 1/6=1000,10=4,14=-1,18=20,19=15/3(2);
 2/9=110,12=1/2;
 99//99;
 2/9=110,12=1/2;
 3/5=1,6=6,7=1,11=2,16=1,25=1,30=1,71=1,74=-5/1,2,3;
 4/5=5,16=3/1;
 5/5=2,38=5/2;
 7//1,2,3,16;
 1/6=1000,14=-1,18=20,19=15/3(-5);
 2/9=110,12=1/2;
 6/7=2,8=2,9=2,10=2,19=2,28=1/1;
 99/9=1/99;
 ------------------
 Phi Psi fixed scan
 ------------------
 Symbolic Z-matrix:
 Charge =  0 Multiplicity = 1
 H                     9.1768    1.        1.923 
 C                     9.1768    2.09      1.923 
 H                     10.0666   2.4538    1.4093 
 H                     9.1768    2.4538    2.9505 
 C                     7.9406    2.6408    1.2093 
 O                     7.1065    1.8774    0.7277 
 N                     7.8298    3.9696    1.1453 
 H                     8.5419    4.5561    1.5565 
 C                     6.7058    4.6139    0.4964 
 H                     6.6707    4.3155   -0.5514 
 C                     5.39      4.2208    1.1594 
 H                     5.4064    4.5213    2.2071 
 H                     4.5638    4.7189    0.652 
 H                     5.2578    3.1409    1.0938 
 C                     6.8276    6.1294    0.5667 
 O                     7.7906    6.6527    1.1227 
 N                     5.846     6.8349    0. 
 H                     5.0745    6.3592   -0.4455 
 C                     5.8461    8.2839    0. 
 H                     5.3323    8.6477   -0.8898 
 C                     5.1347    8.8329    1.2322 
 H                     5.6431    8.4846    2.1312 
 H                     5.1499    9.9224    1.2058 
 H                     4.1019    8.4846    1.2414 
 C                     7.266     8.8318    0. 
 O                     8.1781    8.2008    0.5295 
 N                     7.4515    10.0115  -0.5968 
 H                     6.67      10.4926  -1.0184 
 C                     8.7559    10.639   -0.6638 
 H                     9.127     10.8154   0.3458 
 C                     9.754     9.7533   -1.402 
 H                     9.4006    9.5752   -2.4177 
 H                     10.724    10.2493  -1.4371 
 H                     9.8517    8.8016   -0.8798 
 C                     8.6859    11.9714  -1.396 
 O                     7.6167    12.3837  -1.8403 
 N                     9.8314    12.6456  -1.5211 
 H                     10.6854   12.2655  -1.1388 
 C                     9.8966    13.9257  -2.197 
 H                     8.9033    14.2009  -2.5517 
 H                     10.2576   14.6853  -1.5037 
 H                     10.5779   13.8551  -3.0449 
 
 The following ModRedundant input section has been read:
 D   15   17   19   25 F                                                       
 D   17   19   25   27 F                                                       

 GradGradGradGradGradGradGradGradGradGradGradGradGradGradGradGradGradGrad
 Berny optimization.
 Initialization pass.
                           ----------------------------
                           !    Initial Parameters    !
                           ! (Angstroms and Degrees)  !
 --------------------------                            --------------------------
 ! Name  Definition              Value          Derivative Info.                !
 --------------------------------------------------------------------------------
 ! R1    R(1,2)                  1.09           calculate D2E/DX2 analytically  !
 ! R2    R(2,3)                  1.0899         calculate D2E/DX2 analytically  !
 ! R3    R(2,4)                  1.09           calculate D2E/DX2 analytically  !
 ! R4    R(2,5)                  1.53           calculate D2E/DX2 analytically  !
 ! R5    R(5,6)                  1.229          calculate D2E/DX2 analytically  !
 ! R6    R(5,7)                  1.3349         calculate D2E/DX2 analytically  !
 ! R7    R(7,8)                  1.01           calculate D2E/DX2 analytically  !
 ! R8    R(7,9)                  1.449          calculate D2E/DX2 analytically  !
 ! R9    R(9,10)                 1.09           calculate D2E/DX2 analytically  !
 ! R10   R(9,11)                 1.5249         calculate D2E/DX2 analytically  !
 ! R11   R(9,15)                 1.522          calculate D2E/DX2 analytically  !
 ! R12   R(11,12)                1.0901         calculate D2E/DX2 analytically  !
 ! R13   R(11,13)                1.09           calculate D2E/DX2 analytically  !
 ! R14   R(11,14)                1.0899         calculate D2E/DX2 analytically  !
 ! R15   R(15,16)                1.229          calculate D2E/DX2 analytically  !
 ! R16   R(15,17)                1.3351         calculate D2E/DX2 analytically  !
 ! R17   R(16,26)                1.7025         calculate D2E/DX2 analytically  !
 ! R18   R(17,18)                1.0099         calculate D2E/DX2 analytically  !
 ! R19   R(17,19)                1.449          calculate D2E/DX2 analytically  !
 ! R20   R(19,20)                1.09           calculate D2E/DX2 analytically  !
 ! R21   R(19,21)                1.5251         calculate D2E/DX2 analytically  !
 ! R22   R(19,25)                1.5219         calculate D2E/DX2 analytically  !
 ! R23   R(21,22)                1.0899         calculate D2E/DX2 analytically  !
 ! R24   R(21,23)                1.0899         calculate D2E/DX2 analytically  !
 ! R25   R(21,24)                1.09           calculate D2E/DX2 analytically  !
 ! R26   R(25,26)                1.229          calculate D2E/DX2 analytically  !
 ! R27   R(25,27)                1.335          calculate D2E/DX2 analytically  !
 ! R28   R(27,28)                1.0099         calculate D2E/DX2 analytically  !
 ! R29   R(27,29)                1.449          calculate D2E/DX2 analytically  !
 ! R30   R(29,30)                1.09           calculate D2E/DX2 analytically  !
 ! R31   R(29,31)                1.525          calculate D2E/DX2 analytically  !
 ! R32   R(29,35)                1.5219         calculate D2E/DX2 analytically  !
 ! R33   R(31,32)                1.0901         calculate D2E/DX2 analytically  !
 ! R34   R(31,33)                1.09           calculate D2E/DX2 analytically  !
 ! R35   R(31,34)                1.0899         calculate D2E/DX2 analytically  !
 ! R36   R(35,36)                1.2291         calculate D2E/DX2 analytically  !
 ! R37   R(35,37)                1.3351         calculate D2E/DX2 analytically  !
 ! R38   R(37,38)                1.0099         calculate D2E/DX2 analytically  !
 ! R39   R(37,39)                1.4491         calculate D2E/DX2 analytically  !
 ! R40   R(39,40)                1.09           calculate D2E/DX2 analytically  !
 ! R41   R(39,41)                1.0899         calculate D2E/DX2 analytically  !
 ! R42   R(39,42)                1.09           calculate D2E/DX2 analytically  !
 ! A1    A(1,2,3)              109.4982         calculate D2E/DX2 analytically  !
 ! A2    A(1,2,4)              109.4972         calculate D2E/DX2 analytically  !
 ! A3    A(1,2,5)              111.1            calculate D2E/DX2 analytically  !
 ! A4    A(3,2,4)              109.4437         calculate D2E/DX2 analytically  !
 ! A5    A(3,2,5)              108.6383         calculate D2E/DX2 analytically  !
 ! A6    A(4,2,5)              108.6367         calculate D2E/DX2 analytically  !
 ! A7    A(2,5,6)              120.4994         calculate D2E/DX2 analytically  !
 ! A8    A(2,5,7)              116.6003         calculate D2E/DX2 analytically  !
 ! A9    A(6,5,7)              122.9003         calculate D2E/DX2 analytically  !
 ! A10   A(5,7,8)              119.9979         calculate D2E/DX2 analytically  !
 ! A11   A(5,7,9)              121.9015         calculate D2E/DX2 analytically  !
 ! A12   A(8,7,9)              118.1005         calculate D2E/DX2 analytically  !
 ! A13   A(7,9,10)             109.4955         calculate D2E/DX2 analytically  !
 ! A14   A(7,9,11)             111.1003         calculate D2E/DX2 analytically  !
 ! A15   A(7,9,15)             111.0996         calculate D2E/DX2 analytically  !
 ! A16   A(10,9,11)            108.6373         calculate D2E/DX2 analytically  !
 ! A17   A(10,9,15)            108.6363         calculate D2E/DX2 analytically  !
 ! A18   A(11,9,15)            107.7971         calculate D2E/DX2 analytically  !
 ! A19   A(9,11,12)            109.5014         calculate D2E/DX2 analytically  !
 ! A20   A(9,11,13)            109.5016         calculate D2E/DX2 analytically  !
 ! A21   A(9,11,14)            109.5055         calculate D2E/DX2 analytically  !
 ! A22   A(12,11,13)           109.4408         calculate D2E/DX2 analytically  !
 ! A23   A(12,11,14)           109.4391         calculate D2E/DX2 analytically  !
 ! A24   A(13,11,14)           109.4389         calculate D2E/DX2 analytically  !
 ! A25   A(9,15,16)            120.5033         calculate D2E/DX2 analytically  !
 ! A26   A(9,15,17)            116.5982         calculate D2E/DX2 analytically  !
 ! A27   A(16,15,17)           122.8984         calculate D2E/DX2 analytically  !
 ! A28   A(15,16,26)           114.0727         calculate D2E/DX2 analytically  !
 ! A29   A(15,17,18)           119.9997         calculate D2E/DX2 analytically  !
 ! A30   A(15,17,19)           121.8964         calculate D2E/DX2 analytically  !
 ! A31   A(18,17,19)           118.1039         calculate D2E/DX2 analytically  !
 ! A32   A(17,19,20)           109.4954         calculate D2E/DX2 analytically  !
 ! A33   A(17,19,21)           111.0974         calculate D2E/DX2 analytically  !
 ! A34   A(17,19,25)           111.1042         calculate D2E/DX2 analytically  !
 ! A35   A(20,19,21)           108.6349         calculate D2E/DX2 analytically  !
 ! A36   A(20,19,25)           108.6399         calculate D2E/DX2 analytically  !
 ! A37   A(21,19,25)           107.7944         calculate D2E/DX2 analytically  !
 ! A38   A(19,21,22)           109.4996         calculate D2E/DX2 analytically  !
 ! A39   A(19,21,23)           109.4977         calculate D2E/DX2 analytically  !
 ! A40   A(19,21,24)           109.4988         calculate D2E/DX2 analytically  !
 ! A41   A(22,21,23)           109.4452         calculate D2E/DX2 analytically  !
 ! A42   A(22,21,24)           109.4447         calculate D2E/DX2 analytically  !
 ! A43   A(23,21,24)           109.4412         calculate D2E/DX2 analytically  !
 ! A44   A(19,25,26)           120.5009         calculate D2E/DX2 analytically  !
 ! A45   A(19,25,27)           116.5995         calculate D2E/DX2 analytically  !
 ! A46   A(26,25,27)           122.8996         calculate D2E/DX2 analytically  !
 ! A47   A(16,26,25)           116.6185         calculate D2E/DX2 analytically  !
 ! A48   A(25,27,28)           120.0031         calculate D2E/DX2 analytically  !
 ! A49   A(25,27,29)           121.8985         calculate D2E/DX2 analytically  !
 ! A50   A(28,27,29)           118.0984         calculate D2E/DX2 analytically  !
 ! A51   A(27,29,30)           109.4952         calculate D2E/DX2 analytically  !
 ! A52   A(27,29,31)           111.1026         calculate D2E/DX2 analytically  !
 ! A53   A(27,29,35)           111.0976         calculate D2E/DX2 analytically  !
 ! A54   A(30,29,31)           108.634          calculate D2E/DX2 analytically  !
 ! A55   A(30,29,35)           108.6378         calculate D2E/DX2 analytically  !
 ! A56   A(31,29,35)           107.7989         calculate D2E/DX2 analytically  !
 ! A57   A(29,31,32)           109.4963         calculate D2E/DX2 analytically  !
 ! A58   A(29,31,33)           109.4957         calculate D2E/DX2 analytically  !
 ! A59   A(29,31,34)           109.504          calculate D2E/DX2 analytically  !
 ! A60   A(32,31,33)           109.4414         calculate D2E/DX2 analytically  !
 ! A61   A(32,31,34)           109.44           calculate D2E/DX2 analytically  !
 ! A62   A(33,31,34)           109.4499         calculate D2E/DX2 analytically  !
 ! A63   A(29,35,36)           120.5047         calculate D2E/DX2 analytically  !
 ! A64   A(29,35,37)           116.5977         calculate D2E/DX2 analytically  !
 ! A65   A(36,35,37)           122.8976         calculate D2E/DX2 analytically  !
 ! A66   A(35,37,38)           120.0009         calculate D2E/DX2 analytically  !
 ! A67   A(35,37,39)           121.8996         calculate D2E/DX2 analytically  !
 ! A68   A(38,37,39)           118.0995         calculate D2E/DX2 analytically  !
 ! A69   A(37,39,40)           109.5002         calculate D2E/DX2 analytically  !
 ! A70   A(37,39,41)           109.5035         calculate D2E/DX2 analytically  !
 ! A71   A(37,39,42)           109.4964         calculate D2E/DX2 analytically  !
 ! A72   A(40,39,41)           109.4418         calculate D2E/DX2 analytically  !
 ! A73   A(40,39,42)           109.4389         calculate D2E/DX2 analytically  !
 ! A74   A(41,39,42)           109.4465         calculate D2E/DX2 analytically  !
 ! D1    D(1,2,5,6)             -0.0022         calculate D2E/DX2 analytically  !
 ! D2    D(1,2,5,7)           -179.9987         calculate D2E/DX2 analytically  !
 ! D3    D(3,2,5,6)            120.5094         calculate D2E/DX2 analytically  !
 ! D4    D(3,2,5,7)            -59.4871         calculate D2E/DX2 analytically  !
 ! D5    D(4,2,5,6)           -120.5114         calculate D2E/DX2 analytically  !
 ! D6    D(4,2,5,7)             59.4921         calculate D2E/DX2 analytically  !
 ! D7    D(2,5,7,8)             -0.0058         calculate D2E/DX2 analytically  !
 ! D8    D(2,5,7,9)           -179.9989         calculate D2E/DX2 analytically  !
 ! D9    D(6,5,7,8)            179.9977         calculate D2E/DX2 analytically  !
 ! D10   D(6,5,7,9)              0.0046         calculate D2E/DX2 analytically  !
 ! D11   D(5,7,9,10)           -60.0034         calculate D2E/DX2 analytically  !
 ! D12   D(5,7,9,11)            59.9958         calculate D2E/DX2 analytically  !
 ! D13   D(5,7,9,15)           179.9991         calculate D2E/DX2 analytically  !
 ! D14   D(8,7,9,10)           120.0034         calculate D2E/DX2 analytically  !
 ! D15   D(8,7,9,11)          -119.9974         calculate D2E/DX2 analytically  !
 ! D16   D(8,7,9,15)             0.0059         calculate D2E/DX2 analytically  !
 ! D17   D(7,9,11,12)           60.0015         calculate D2E/DX2 analytically  !
 ! D18   D(7,9,11,13)         -179.9986         calculate D2E/DX2 analytically  !
 ! D19   D(7,9,11,14)          -59.9987         calculate D2E/DX2 analytically  !
 ! D20   D(10,9,11,12)        -179.4908         calculate D2E/DX2 analytically  !
 ! D21   D(10,9,11,13)         -59.4909         calculate D2E/DX2 analytically  !
 ! D22   D(10,9,11,14)          60.5091         calculate D2E/DX2 analytically  !
 ! D23   D(15,9,11,12)         -61.9448         calculate D2E/DX2 analytically  !
 ! D24   D(15,9,11,13)          58.055          calculate D2E/DX2 analytically  !
 ! D25   D(15,9,11,14)         178.055          calculate D2E/DX2 analytically  !
 ! D26   D(7,9,15,16)           -0.0028         calculate D2E/DX2 analytically  !
 ! D27   D(7,9,15,17)          179.9997         calculate D2E/DX2 analytically  !
 ! D28   D(10,9,15,16)        -120.5094         calculate D2E/DX2 analytically  !
 ! D29   D(10,9,15,17)          59.493          calculate D2E/DX2 analytically  !
 ! D30   D(11,9,15,16)         121.944          calculate D2E/DX2 analytically  !
 ! D31   D(11,9,15,17)         -58.0536         calculate D2E/DX2 analytically  !
 ! D32   D(9,15,16,26)         152.928          calculate D2E/DX2 analytically  !
 ! D33   D(17,15,16,26)        -27.0746         calculate D2E/DX2 analytically  !
 ! D34   D(9,15,17,18)          -0.0061         calculate D2E/DX2 analytically  !
 ! D35   D(9,15,17,19)        -179.9983         calculate D2E/DX2 analytically  !
 ! D36   D(16,15,17,18)        179.9964         calculate D2E/DX2 analytically  !
 ! D37   D(16,15,17,19)          0.0042         calculate D2E/DX2 analytically  !
 ! D38   D(15,16,26,25)         24.8653         calculate D2E/DX2 analytically  !
 ! D39   D(15,17,19,20)        150.0024         calculate D2E/DX2 analytically  !
 ! D40   D(15,17,19,21)        -90.0034         calculate D2E/DX2 analytically  !
 ! D41   D(15,17,19,25)         29.9976         frozen, calculate D2E/DX2 analyt!
 ! D42   D(18,17,19,20)        -29.99           calculate D2E/DX2 analytically  !
 ! D43   D(18,17,19,21)         90.0043         calculate D2E/DX2 analytically  !
 ! D44   D(18,17,19,25)       -149.9948         calculate D2E/DX2 analytically  !
 ! D45   D(17,19,21,22)         60.0039         calculate D2E/DX2 analytically  !
 ! D46   D(17,19,21,23)       -179.9943         calculate D2E/DX2 analytically  !
 ! D47   D(17,19,21,24)        -59.998          calculate D2E/DX2 analytically  !
 ! D48   D(20,19,21,22)       -179.4919         calculate D2E/DX2 analytically  !
 ! D49   D(20,19,21,23)        -59.4901         calculate D2E/DX2 analytically  !
 ! D50   D(20,19,21,24)         60.5062         calculate D2E/DX2 analytically  !
 ! D51   D(25,19,21,22)        -61.9445         calculate D2E/DX2 analytically  !
 ! D52   D(25,19,21,23)         58.0573         calculate D2E/DX2 analytically  !
 ! D53   D(25,19,21,24)        178.0536         calculate D2E/DX2 analytically  !
 ! D54   D(17,19,25,26)        -30.0019         calculate D2E/DX2 analytically  !
 ! D55   D(17,19,25,27)        150.0033         frozen, calculate D2E/DX2 analyt!
 ! D56   D(20,19,25,26)       -150.5136         calculate D2E/DX2 analytically  !
 ! D57   D(20,19,25,27)         29.4916         calculate D2E/DX2 analytically  !
 ! D58   D(21,19,25,26)         91.9422         calculate D2E/DX2 analytically  !
 ! D59   D(21,19,25,27)        -88.0526         calculate D2E/DX2 analytically  !
 ! D60   D(19,25,26,16)          5.2292         calculate D2E/DX2 analytically  !
 ! D61   D(27,25,26,16)       -174.7763         calculate D2E/DX2 analytically  !
 ! D62   D(19,25,27,28)         -0.0047         calculate D2E/DX2 analytically  !
 ! D63   D(19,25,27,29)       -179.9949         calculate D2E/DX2 analytically  !
 ! D64   D(26,25,27,28)       -179.9994         calculate D2E/DX2 analytically  !
 ! D65   D(26,25,27,29)          0.0104         calculate D2E/DX2 analytically  !
 ! D66   D(25,27,29,30)        -60.0053         calculate D2E/DX2 analytically  !
 ! D67   D(25,27,29,31)         59.991          calculate D2E/DX2 analytically  !
 ! D68   D(25,27,29,35)        179.9968         calculate D2E/DX2 analytically  !
 ! D69   D(28,27,29,30)        120.0044         calculate D2E/DX2 analytically  !
 ! D70   D(28,27,29,31)       -119.9993         calculate D2E/DX2 analytically  !
 ! D71   D(28,27,29,35)          0.0065         calculate D2E/DX2 analytically  !
 ! D72   D(27,29,31,32)         60.0039         calculate D2E/DX2 analytically  !
 ! D73   D(27,29,31,33)        179.9978         calculate D2E/DX2 analytically  !
 ! D74   D(27,29,31,34)        -59.9933         calculate D2E/DX2 analytically  !
 ! D75   D(30,29,31,32)       -179.4894         calculate D2E/DX2 analytically  !
 ! D76   D(30,29,31,33)        -59.4956         calculate D2E/DX2 analytically  !
 ! D77   D(30,29,31,34)         60.5133         calculate D2E/DX2 analytically  !
 ! D78   D(35,29,31,32)        -61.9425         calculate D2E/DX2 analytically  !
 ! D79   D(35,29,31,33)         58.0514         calculate D2E/DX2 analytically  !
 ! D80   D(35,29,31,34)        178.0603         calculate D2E/DX2 analytically  !
 ! D81   D(27,29,35,36)         -0.0049         calculate D2E/DX2 analytically  !
 ! D82   D(27,29,35,37)        179.9973         calculate D2E/DX2 analytically  !
 ! D83   D(30,29,35,36)       -120.5109         calculate D2E/DX2 analytically  !
 ! D84   D(30,29,35,37)         59.4914         calculate D2E/DX2 analytically  !
 ! D85   D(31,29,35,36)        121.9446         calculate D2E/DX2 analytically  !
 ! D86   D(31,29,35,37)        -58.0531         calculate D2E/DX2 analytically  !
 ! D87   D(29,35,37,38)         -0.0062         calculate D2E/DX2 analytically  !
 ! D88   D(29,35,37,39)       -179.9986         calculate D2E/DX2 analytically  !
 ! D89   D(36,35,37,38)        179.9961         calculate D2E/DX2 analytically  !
 ! D90   D(36,35,37,39)          0.0037         calculate D2E/DX2 analytically  !
 ! D91   D(35,37,39,40)         -0.0043         calculate D2E/DX2 analytically  !
 ! D92   D(35,37,39,41)        119.9972         calculate D2E/DX2 analytically  !
 ! D93   D(35,37,39,42)       -119.9979         calculate D2E/DX2 analytically  !
 ! D94   D(38,37,39,40)       -179.9968         calculate D2E/DX2 analytically  !
 ! D95   D(38,37,39,41)        -59.9953         calculate D2E/DX2 analytically  !
 ! D96   D(38,37,39,42)         60.0096         calculate D2E/DX2 analytically  !
 --------------------------------------------------------------------------------
 Trust Radius=3.00D-01 FncErr=1.00D-07 GrdErr=1.00D-06
 Number of steps in this run= 252 maximum allowed number of steps= 252.
 GradGradGradGradGradGradGradGradGradGradGradGradGradGradGradGradGradGrad

                          Input orientation:                          
 ---------------------------------------------------------------------
 Center     Atomic      Atomic             Coordinates (Angstroms)
 Number     Number       Type             X           Y           Z
 ---------------------------------------------------------------------
      1          1           0        9.176800    1.000000    1.923000
      2          6           0        9.176800    2.090000    1.923000
      3          1           0       10.066600    2.453800    1.409300
      4          1           0        9.176800    2.453800    2.950500
      5          6           0        7.940600    2.640800    1.209300
      6          8           0        7.106500    1.877400    0.727700
      7          7           0        7.829800    3.969600    1.145300
      8          1           0        8.541900    4.556100    1.556500
      9          6           0        6.705800    4.613900    0.496400
     10          1           0        6.670700    4.315500   -0.551400
     11          6           0        5.390000    4.220800    1.159400
     12          1           0        5.406400    4.521300    2.207100
     13          1           0        4.563800    4.718900    0.652000
     14          1           0        5.257800    3.140900    1.093800
     15          6           0        6.827600    6.129400    0.566700
     16          8           0        7.790600    6.652700    1.122700
     17          7           0        5.846000    6.834900    0.000000
     18          1           0        5.074500    6.359200   -0.445500
     19          6           0        5.846100    8.283900    0.000000
     20          1           0        5.332300    8.647700   -0.889800
     21          6           0        5.134700    8.832900    1.232200
     22          1           0        5.643100    8.484600    2.131200
     23          1           0        5.149900    9.922400    1.205800
     24          1           0        4.101900    8.484600    1.241400
     25          6           0        7.266000    8.831800    0.000000
     26          8           0        8.178100    8.200800    0.529500
     27          7           0        7.451500   10.011500   -0.596800
     28          1           0        6.670000   10.492600   -1.018400
     29          6           0        8.755900   10.639000   -0.663800
     30          1           0        9.127000   10.815400    0.345800
     31          6           0        9.754000    9.753300   -1.402000
     32          1           0        9.400600    9.575200   -2.417700
     33          1           0       10.724000   10.249300   -1.437100
     34          1           0        9.851700    8.801600   -0.879800
     35          6           0        8.685900   11.971400   -1.396000
     36          8           0        7.616700   12.383700   -1.840300
     37          7           0        9.831400   12.645600   -1.521100
     38          1           0       10.685400   12.265500   -1.138800
     39          6           0        9.896600   13.925700   -2.197000
     40          1           0        8.903300   14.200900   -2.551700
     41          1           0       10.257600   14.685300   -1.503700
     42          1           0       10.577900   13.855100   -3.044900
 ---------------------------------------------------------------------
                    Distance matrix (angstroms):
                    1          2          3          4          5
     1  H    0.000000
     2  C    1.090000   0.000000
     3  H    1.780215   1.089946   0.000000
     4  H    1.780250   1.090003   1.779618   0.000000
     5  C    2.174806   1.530013   2.143559   2.143580   0.000000
     6  O    2.546510   2.400017   3.091764   3.091799   1.229000
     7  N    3.352275   2.439697   2.714889   2.714923   1.334946
     8  H    3.630877   2.572755   2.601162   2.601153   2.037274
     9  C    4.604487   3.809344   4.098097   4.098107   2.434354
    10  H    4.836914   4.166058   4.340784   4.691457   2.741775
    11  C    5.029562   4.411717   5.005530   4.546447   3.000742
    12  H    5.166835   4.495314   5.160281   4.363842   3.309691
    13  H    6.060151   5.459517   5.998749   5.629702   4.003981
    14  H    4.541980   4.141319   4.867875   4.390672   2.731457
    15  C    5.802502   4.865701   4.971029   4.971044   3.717800
    16  O    5.874951   4.835314   4.784671   4.784680   4.015637
    17  N    6.988434   6.107883   6.244488   6.244495   4.841511
    18  H    7.152600   6.376890   6.604051   6.604077   4.977890
    19  C    8.236910   7.290809   7.334086   7.334104   6.139537
    20  H    9.009958   8.105273   8.127967   8.239689   6.876940
    21  C    8.841386   7.891925   8.065229   7.744937   6.798213
    22  H    8.279470   7.308987   7.513923   7.037673   6.346527
    23  H    9.815270   8.836107   8.944011   8.662557   7.798059
    24  H    9.068540   8.192075   8.483890   8.065121   6.991899
    25  C    8.287712   7.266426   7.106924   7.282547   6.343971
    26  O    7.402078   6.346741   6.112977   6.315588   5.606437
    27  N    9.514893   8.489771   8.245121   8.525188   7.604501
    28  H   10.249163   9.248760   9.058307   9.309056   8.260014
    29  C    9.988944   8.941705   8.544775   8.957557   8.254963
    30  H    9.941434   8.866941   8.481169   8.758042   8.305255
    31  C    9.381314   8.373467   7.828399   8.518223   7.790697
    32  H    9.613835   8.655633   8.111956   8.920874   7.960693
    33  H    9.961609   8.958698   8.324902   9.078253   8.522912
    34  H    8.317220   7.304571   6.751350   7.444545   6.780273
    35  C   11.472940  10.435459  10.018021  10.474624   9.716129
    36  O   12.090697  11.070528  10.731488  11.135016  10.214160
    37  N   12.161839  11.122545  10.607325  11.148834  10.541643
    38  H   11.771235  10.732721  10.156042  10.736280  10.280192
    39  C   13.585516  12.552940  12.026587  12.594418  11.948966
    40  H   13.941359  12.914009  12.451391  12.974720  12.194582
    41  H   14.149129  13.097785  12.575040  13.062068  12.561801
    42  H   13.852679  12.847595  12.251162  12.957528  12.280639
                    6          7          8          9         10
     6  O    0.000000
     7  N    2.252744   0.000000
     8  H    3.150034   1.010027   0.000000
     9  C    2.775336   1.448989   2.120947   0.000000
    10  H    2.787535   2.083735   2.828873   1.090027   0.000000
    11  C    2.936709   2.452738   3.194462   1.524935   2.139158
    12  H    3.474071   2.702713   3.202476   2.150235   3.041403
    13  H    3.813814   3.386968   4.082879   2.150209   2.459661
    14  H    2.268954   2.702699   3.605856   2.150191   2.466304
    15  C    4.264178   2.450290   2.528597   1.522011   2.136586
    16  O    4.840197   2.683482   2.269001   2.392854   3.085335
    17  N    5.166741   3.668395   3.857914   2.432799   2.707683
    18  H    5.058849   3.979009   4.391132   2.567954   2.595338
    19  C    6.569733   4.884666   4.856596   3.801894   4.090502
    20  H    7.183387   5.680120   5.746921   4.481026   4.546844
    21  C    7.247172   5.560828   5.477700   4.561767   5.093862
    22  H    6.911327   5.112620   4.915937   4.334077   5.062973
    23  H    8.293304   6.528503   6.358131   5.577118   6.069424
    24  H    7.276441   5.855911   5.936834   4.724155   5.214812
    25  C    6.994188   5.026984   4.725698   4.283797   4.588615
    26  O    6.416619   4.289939   3.804066   3.877449   4.305364
    27  N    8.248449   6.299411   5.965489   5.557449   5.749446
    28  H    8.801197   6.969667   6.736182   6.070833   6.194728
    29  C    9.023438   6.972188   6.478981   6.469220   6.659380
    30  H    9.171484   7.013338   6.402107   6.659091   7.006217
    31  C    8.577568   6.606245   6.101868   6.269679   6.308718
    32  H    8.626272   6.825330   6.459334   6.353615   6.212880
    33  H    9.373440   7.381044   6.792329   7.186243   7.240420
    34  H    7.620021   5.615811   5.067090   5.415482   5.509238
    35  C   10.435202   8.439189   7.982773   7.850782   7.961607
    36  O   10.827616   8.930638   8.582865   8.164539   8.225085
    37  N   11.332975   9.294572   8.750682   8.851434   8.962193
    38  H   11.144728   9.066064   8.443582   8.778273   8.925545
    39  C   12.708267  10.703577  10.183977  10.205157  10.269877
    40  H   12.878339  10.931592  10.489523  10.297111  10.329900
    41  H   13.377252  11.302108  10.719568  10.865026  11.013877
    42  H   13.028754  11.083002  10.573059  10.627029  10.606023
                   11         12         13         14         15
    11  C    0.000000
    12  H    1.090066   0.000000
    13  H    1.090030   1.779707   0.000000
    14  H    1.089938   1.779613   1.779581   0.000000
    15  C    2.461857   2.701242   2.668628   3.416612   0.000000
    16  O    3.417362   3.376862   3.791224   4.329971   1.228962
    17  N    2.895801   3.227582   2.558632   3.897180   1.335072
    18  H    2.692211   3.244121   2.038604   3.572184   2.037331
    19  C    4.249826   4.384266   3.844297   5.290836   2.434412
    20  H    4.878524   5.159792   4.289896   5.853637   3.270955
    21  C    4.619734   4.428786   4.193752   5.695013   3.258483
    22  H    4.380462   3.971087   4.187292   5.457086   3.065562
    23  H    5.706842   5.499116   5.265607   6.783283   4.196424
    24  H    4.454876   4.282761   3.839432   5.469280   3.664919
    25  C    5.111253   5.187467   4.964165   6.133156   2.795766
    26  O    4.900069   4.902589   5.020139   5.869342   2.473041
    27  N    6.392670   6.495120   6.157104   7.407806   4.100449
    28  H    6.761412   6.903402   6.368825   7.778380   4.644878
    29  C    7.473060   7.542378   7.372423   8.458568   5.056576
    30  H    7.623376   7.544733   7.621277   8.627176   5.224427
    31  C    7.497588   7.700718   7.516800   8.376674   5.056901
    32  H    7.586182   7.929963   7.510083   8.419836   5.234550
    33  H    8.457906   8.623633   8.538017   9.317411   6.014210
    34  H    6.711843   6.900044   6.853958   7.552651   4.286980
    35  C    8.801410   8.901766   8.589806   9.794320   6.436958
    36  O    8.977156   9.115054   8.618638   9.980115   6.747785
    37  N    9.893855   9.974184   9.762302  10.867145   7.472790
    38  H    9.901524   9.951659   9.880897  10.849040   7.446011
    39  C   11.214274  11.313741  11.014569  12.192610   8.822647
    40  H   11.212401  11.338833  10.908862  12.202579   8.898430
    41  H   11.844467  11.857954  11.678850  12.845940   9.447480
    42  H   11.722209  11.893180  11.545849  12.658056   9.316375
                   16         17         18         19         20
    16  O    0.000000
    17  N    2.252803   0.000000
    18  H    3.150015   1.009937   0.000000
    19  C    2.775311   1.449000   2.120921   0.000000
    20  H    3.751456   2.083717   2.345441   1.089993   0.000000
    21  C    3.437887   2.452808   2.989564   1.525060   2.139212
    22  H    2.997447   2.702719   3.388217   2.150233   3.041322
    23  H    4.203706   3.386911   3.927960   2.150193   2.459608
    24  H    4.120249   2.702678   2.882518   2.150253   2.466272
    25  C    2.506818   2.450308   3.333901   1.521943   2.136547
    26  O    1.702544   2.754041   3.738241   2.392802   3.211341
    27  N    3.788563   3.608959   4.360311   2.432711   2.537087
    28  H    4.537057   3.885213   4.467531   2.567938   2.282463
    29  C    4.473698   4.835217   5.649518   3.801850   3.967038
    30  H    4.440452   5.170002   6.075083   4.158410   4.541517
    31  C    4.454522   5.074951   5.859396   4.404137   4.586516
    32  H    4.864929   5.098009   5.739980   4.488563   4.443625
    33  H    5.300278   6.125216   6.930584   5.451785   5.651114
    34  H    3.588302   4.548361   5.382896   4.133629   4.522031
    35  C    5.952645   6.033032   6.741101   4.859109   4.748669
    36  O    6.453989   6.108295   6.686019   4.830123   4.481030
    37  N    6.860714   7.208425   7.956371   6.100884   6.051747
    38  H    6.708038   7.362613   8.176016   6.369366   6.465768
    39  C    8.267537   8.456572   9.141790   7.284454   7.099218
    40  H    8.468450   8.373542   8.977085   7.132218   6.808229
    41  H    8.803791   9.129738   9.864495   7.918356   7.815886
    42  H    8.775676   8.996972   9.655714   7.918309   7.699207
                   21         22         23         24         25
    21  C    0.000000
    22  H    1.089947   0.000000
    23  H    1.089926   1.779573   0.000000
    24  H    1.089988   1.779618   1.779562   0.000000
    25  C    2.461861   2.701179   2.668565   3.416599   0.000000
    26  O    3.186789   3.012011   3.548420   4.147620   1.229007
    27  N    3.178349   3.611609   2.924836   4.114635   1.335018
    28  H    3.190133   3.873831   2.753706   3.966598   2.037305
    29  C    4.468770   4.705634   4.124579   5.470918   2.434421
    30  H    4.544719   4.556077   4.165858   5.611271   2.741818
    31  C    5.396673   5.567100   5.294049   6.367370   3.000818
    32  H    5.663098   6.000059   5.596316   6.531052   3.309748
    33  H    6.353867   6.454648   6.177570   7.358039   4.004039
    34  H    5.168328   5.184489   5.264299   6.136789   2.731447
    35  C    5.419284   5.818724   4.844694   6.334565   3.717798
    36  O    5.311192   5.905158   4.628372   6.087173   4.015680
    37  N    6.646528   6.942267   6.063682   7.600822   4.841497
    38  H    6.943677   7.100204   6.452056   7.956320   4.977897
    39  C    7.769924   8.150530   7.080722   8.660642   6.139600
    40  H    7.572032   8.076790   6.819999   8.373598   6.165968
    41  H    8.244989   8.541358   7.491008   9.158433   6.743460
    42  H    8.552456   8.943519   7.937113   9.442098   6.743415
                   26         27         28         29         30
    26  O    0.000000
    27  N    2.252806   0.000000
    28  H    3.150033   1.009924   0.000000
    29  C    2.775362   1.449036   2.120885   0.000000
    30  H    2.787524   2.083759   2.828797   1.090011   0.000000
    31  C    2.936734   2.452860   3.194490   1.524994   2.139156
    32  H    3.474114   2.702781   3.202474   2.150226   3.041362
    33  H    3.813853   3.387021   4.082820   2.150181   2.459596
    34  H    2.268926   2.702759   3.605816   2.150226   2.466308
    35  C    4.264134   2.450239   2.528494   1.521942   2.136533
    36  O    4.840225   2.683452   2.268925   2.392887   3.085386
    37  N    5.166683   3.668343   3.857793   2.432716   2.707605
    38  H    5.058811   3.978993   4.391026   2.567897   2.595272
    39  C    6.569743   4.884682   4.856565   3.801881   4.090487
    40  H    6.783871   4.845661   4.592399   4.033984   4.461744
    41  H    7.106825   5.526398   5.539415   4.396940   4.435655
    42  H    7.106791   5.526376   5.539385   4.396888   4.779303
                   31         32         33         34         35
    31  C    0.000000
    32  H    1.090072   0.000000
    33  H    1.090022   1.779712   0.000000
    34  H    1.089941   1.779630   1.779698   0.000000
    35  C    2.461878   2.701193   2.668552   3.416604   0.000000
    36  O    3.417479   3.376886   3.791246   4.330038   1.229058
    37  N    2.895786   3.227512   2.558524   3.897180   1.335053
    38  H    2.692198   3.244073   2.038513   3.572218   2.037314
    39  C    4.249857   4.384242   3.844211   5.290882   2.434478
    40  H    4.671900   4.654284   4.491372   5.731244   2.520630
    41  H    4.958687   5.261461   4.460948   5.930593   3.138008
    42  H    4.494741   4.482963   3.950716   5.545529   3.137971
                   36         37         38         39         40
    36  O    0.000000
    37  N    2.252860   0.000000
    38  H    3.150078   1.009923   0.000000
    39  C    2.775418   1.449051   2.120909   0.000000
    40  H    2.337444   2.083858   2.986292   1.090042   0.000000
    41  H    3.519235   2.083825   2.484270   1.089944   1.779628
    42  H    3.519202   2.083775   2.484271   1.089995   1.779637
                   41         42
    41  H    0.000000
    42  H    1.779641   0.000000
 Stoichiometry    C12H22N4O4
 Framework group  C1[X(C12H22N4O4)]
 Deg. of freedom   120
 Full point group                 C1      NOp   1
 Largest Abelian subgroup         C1      NOp   1
 Largest concise Abelian subgroup C1      NOp   1
                         Standard orientation:                         
 ---------------------------------------------------------------------
 Center     Atomic      Atomic             Coordinates (Angstroms)
 Number     Number       Type             X           Y           Z
 ---------------------------------------------------------------------
      1          1           0       -6.643636   -2.672406    0.306080
      2          6           0       -5.615679   -2.444498    0.587969
      3          1           0       -4.973731   -3.288584    0.336168
      4          1           0       -5.565479   -2.257800    1.660690
      5          6           0       -5.104550   -1.204651   -0.148553
      6          8           0       -5.830098   -0.605419   -0.939086
      7          7           0       -3.852121   -0.826011    0.116282
      8          1           0       -3.294235   -1.351232    0.774355
      9          6           0       -3.252066    0.331310   -0.516260
     10          1           0       -3.240815    0.190216   -1.597059
     11          6           0       -4.037179    1.599396   -0.198483
     12          1           0       -4.049625    1.759094    0.879749
     13          1           0       -3.564324    2.451937   -0.686076
     14          1           0       -5.059558    1.495029   -0.561544
     15          6           0       -1.822002    0.537371   -0.037747
     16          8           0       -1.322015   -0.229336    0.782327
     17          7           0       -1.163269    1.577933   -0.553224
     18          1           0       -1.617059    2.180362   -1.224884
     19          6           0        0.203272    1.880807   -0.178477
     20          1           0        0.711991    2.360456   -1.014674
     21          6           0        0.247917    2.819715    1.022467
     22          1           0       -0.249732    2.349545    1.870566
     23          1           0        1.285532    3.029901    1.281532
     24          1           0       -0.260100    3.751710    0.774725
     25          6           0        0.963216    0.615294    0.192026
     26          8           0        0.373440   -0.346147    0.680140
     27          7           0        2.277664    0.617402   -0.041414
     28          1           0        2.717687    1.432180   -0.444480
     29          6           0        3.111991   -0.526422    0.267248
     30          1           0        3.054130   -0.741525    1.334256
     31          6           0        2.658106   -1.761199   -0.504063
     32          1           0        2.719135   -1.564312   -1.574469
     33          1           0        3.302041   -2.604062   -0.252912
     34          1           0        1.628458   -1.998923   -0.237076
     35          6           0        4.565276   -0.258631   -0.096835
     36          8           0        4.897602    0.818948   -0.585675
     37          7           0        5.432986   -1.244502    0.142962
     38          1           0        5.111836   -2.112861    0.546399
     39          6           0        6.844060   -1.112993   -0.159238
     40          1           0        7.034550   -0.128203   -0.585964
     41          1           0        7.424636   -1.230395    0.755708
     42          1           0        7.135882   -1.881239   -0.875287
 ---------------------------------------------------------------------
 Rotational constants (GHZ):      0.8347915      0.1191198      0.1082645
 Standard basis: 6-31G(d) (6D, 7F)
 There are   344 symmetry adapted basis functions of A   symmetry.
 Integral buffers will be    131072 words long.
 Raffenetti 2 integral format.
 Two-electron integral symmetry is turned on.
   344 basis functions,   648 primitive gaussians,   344 cartesian basis functions
    77 alpha electrons       77 beta electrons
       nuclear repulsion energy      1632.1648836676 Hartrees.
 NAtoms=   42 NActive=   42 NUniq=   42 SFac= 7.50D-01 NAtFMM=   80 NAOKFM=F Big=F
 One-electron integrals computed using PRISM.
 NBasis=   344 RedAO= T  NBF=   344
 NBsUse=   344 1.00D-06 NBFU=   344
 Harris functional with IExCor=  402 diagonalized for initial guess.
 ExpMin= 1.61D-01 ExpMax= 5.48D+03 ExpMxC= 8.25D+02 IAcc=1 IRadAn=         1 AccDes= 0.00D+00
 HarFok:  IExCor=  402 AccDes= 0.00D+00 IRadAn=         1 IDoV= 1
 ScaDFX=  1.000000  1.000000  1.000000  1.000000
 FoFCou: FMM=F IPFlag=           0 FMFlag=      100000 FMFlg1=           0
         NFxFlg=           0 DoJE=T BraDBF=F KetDBF=T FulRan=T
         Omega=  0.000000  0.000000  1.000000  0.000000  0.000000 ICntrl=     500 IOpCl=  0
         NMat0=    1 NMatS0=    1 NMatT0=    0 NMatD0=    1 NMtDS0=    0 NMtDT0=    0
         I1Cent=           4 NGrid=           0.
 Petite list used in FoFCou.
 Initial guess orbital symmetries:
       Occupied  (A) (A) (A) (A) (A) (A) (A) (A) (A) (A) (A) (A)
                 (A) (A) (A) (A) (A) (A) (A) (A) (A) (A) (A) (A)
                 (A) (A) (A) (A) (A) (A) (A) (A) (A) (A) (A) (A)
                 (A) (A) (A) (A) (A) (A) (A) (A) (A) (A) (A) (A)
                 (A) (A) (A) (A) (A) (A) (A) (A) (A) (A) (A) (A)
                 (A) (A) (A) (A) (A) (A) (A) (A) (A) (A) (A) (A)
                 (A) (A) (A) (A) (A)
       Virtual   (A) (A) (A) (A) (A) (A) (A) (A) (A) (A) (A) (A)
                 (A) (A) (A) (A) (A) (A) (A) (A) (A) (A) (A) (A)
                 (A) (A) (A) (A) (A) (A) (A) (A) (A) (A) (A) (A)
                 (A) (A) (A) (A) (A) (A) (A) (A) (A) (A) (A) (A)
                 (A) (A) (A) (A) (A) (A) (A) (A) (A) (A) (A) (A)
                 (A) (A) (A) (A) (A) (A) (A) (A) (A) (A) (A) (A)
                 (A) (A) (A) (A) (A) (A) (A) (A) (A) (A) (A) (A)
                 (A) (A) (A) (A) (A) (A) (A) (A) (A) (A) (A) (A)
                 (A) (A) (A) (A) (A) (A) (A) (A) (A) (A) (A) (A)
                 (A) (A) (A) (A) (A) (A) (A) (A) (A) (A) (A) (A)
                 (A) (A) (A) (A) (A) (A) (A) (A) (A) (A) (A) (A)
                 (A) (A) (A) (A) (A) (A) (A) (A) (A) (A) (A) (A)
                 (A) (A) (A) (A) (A) (A) (A) (A) (A) (A) (A) (A)
                 (A) (A) (A) (A) (A) (A) (A) (A) (A) (A) (A) (A)
                 (A) (A) (A) (A) (A) (A) (A) (A) (A) (A) (A) (A)
                 (A) (A) (A) (A) (A) (A) (A) (A) (A) (A) (A) (A)
                 (A) (A) (A) (A) (A) (A) (A) (A) (A) (A) (A) (A)
                 (A) (A) (A) (A) (A) (A) (A) (A) (A) (A) (A) (A)
                 (A) (A) (A) (A) (A) (A) (A) (A) (A) (A) (A) (A)
                 (A) (A) (A) (A) (A) (A) (A) (A) (A) (A) (A) (A)
                 (A) (A) (A) (A) (A) (A) (A) (A) (A) (A) (A) (A)
                 (A) (A) (A) (A) (A) (A) (A) (A) (A) (A) (A) (A)
                 (A) (A) (A)
 The electronic state of the initial guess is 1-A.
 Requested convergence on RMS density matrix=1.00D-08 within 128 cycles.
 Requested convergence on MAX density matrix=1.00D-06.
 Requested convergence on             energy=1.00D-06.
 No special actions if energy rises.
 Integral accuracy reduced to 1.0D-05 until final iterations.
 EnCoef did     2 forward-backward iterations
 Initial convergence to 1.0D-05 achieved.  Increase integral accuracy.
 SCF Done:  E(RB3LYP) =  -990.338575170     A.U. after   19 cycles
             Convg  =    0.6703D-08             -V/T =  2.0078
 Range of M.O.s used for correlation:     1   344
 NBasis=   344 NAE=    77 NBE=    77 NFC=     0 NFV=     0
 NROrb=    344 NOA=    77 NOB=    77 NVA=   267 NVB=   267
 Symmetrizing basis deriv contribution to polar:
 IMax=3 JMax=2 DiffMx= 0.00D+00
 G2DrvN: will do    43 centers at a time, making    1 passes doing MaxLOS=2.
 Calling FoFCou, ICntrl=  3107 FMM=F I1Cent=   0 AccDes= 0.00D+00.
 FoFDir/FoFCou used for L=0 through L=2.
 End of G2Drv Frequency-dependent properties file   721 does not exist.
 End of G2Drv Frequency-dependent properties file   722 does not exist.
          IDoAtm=111111111111111111111111111111111111111111
          Differentiating once with respect to nuclear coordinates.
          There are   129 degrees of freedom in the 1st order CPHF.  IDoFFX=5.
    123 vectors produced by pass  0 Test12= 2.06D-10 1.00D-07 XBig12= 1.82D-01 1.94D-01.
 AX will form   123 AO Fock derivatives at one time.
    123 vectors produced by pass  1 Test12= 2.06D-10 1.00D-07 XBig12= 4.69D-02 5.50D-02.
    123 vectors produced by pass  2 Test12= 2.06D-10 1.00D-07 XBig12= 3.57D-05 9.66D-04.
    123 vectors produced by pass  3 Test12= 2.06D-10 1.00D-07 XBig12= 1.19D-07 6.38D-05.
     74 vectors produced by pass  4 Test12= 2.06D-10 1.00D-07 XBig12= 1.09D-10 1.89D-06.
 Inverted reduced A of dimension   566 with in-core refinement.
 End of Minotr Frequency-dependent properties file   721 does not exist.
 End of Minotr Frequency-dependent properties file   722 does not exist.

 **********************************************************************

            Population analysis using the SCF density.

 **********************************************************************

 Orbital symmetries:
       Occupied  (A) (A) (A) (A) (A) (A) (A) (A) (A) (A) (A) (A)
                 (A) (A) (A) (A) (A) (A) (A) (A) (A) (A) (A) (A)
                 (A) (A) (A) (A) (A) (A) (A) (A) (A) (A) (A) (A)
                 (A) (A) (A) (A) (A) (A) (A) (A) (A) (A) (A) (A)
                 (A) (A) (A) (A) (A) (A) (A) (A) (A) (A) (A) (A)
                 (A) (A) (A) (A) (A) (A) (A) (A) (A) (A) (A) (A)
                 (A) (A) (A) (A) (A)
       Virtual   (A) (A) (A) (A) (A) (A) (A) (A) (A) (A) (A) (A)
                 (A) (A) (A) (A) (A) (A) (A) (A) (A) (A) (A) (A)
                 (A) (A) (A) (A) (A) (A) (A) (A) (A) (A) (A) (A)
                 (A) (A) (A) (A) (A) (A) (A) (A) (A) (A) (A) (A)
                 (A) (A) (A) (A) (A) (A) (A) (A) (A) (A) (A) (A)
                 (A) (A) (A) (A) (A) (A) (A) (A) (A) (A) (A) (A)
                 (A) (A) (A) (A) (A) (A) (A) (A) (A) (A) (A) (A)
                 (A) (A) (A) (A) (A) (A) (A) (A) (A) (A) (A) (A)
                 (A) (A) (A) (A) (A) (A) (A) (A) (A) (A) (A) (A)
                 (A) (A) (A) (A) (A) (A) (A) (A) (A) (A) (A) (A)
                 (A) (A) (A) (A) (A) (A) (A) (A) (A) (A) (A) (A)
                 (A) (A) (A) (A) (A) (A) (A) (A) (A) (A) (A) (A)
                 (A) (A) (A) (A) (A) (A) (A) (A) (A) (A) (A) (A)
                 (A) (A) (A) (A) (A) (A) (A) (A) (A) (A) (A) (A)
                 (A) (A) (A) (A) (A) (A) (A) (A) (A) (A) (A) (A)
                 (A) (A) (A) (A) (A) (A) (A) (A) (A) (A) (A) (A)
                 (A) (A) (A) (A) (A) (A) (A) (A) (A) (A) (A) (A)
                 (A) (A) (A) (A) (A) (A) (A) (A) (A) (A) (A) (A)
                 (A) (A) (A) (A) (A) (A) (A) (A) (A) (A) (A) (A)
                 (A) (A) (A) (A) (A) (A) (A) (A) (A) (A) (A) (A)
                 (A) (A) (A) (A) (A) (A) (A) (A) (A) (A) (A) (A)
                 (A) (A) (A) (A) (A) (A) (A) (A) (A) (A) (A) (A)
                 (A) (A) (A)
 The electronic state is 1-A.
 Alpha  occ. eigenvalues --  -19.12030 -19.08606 -19.08451 -19.08312 -14.37620
 Alpha  occ. eigenvalues --  -14.36057 -14.35803 -14.33861 -10.29423 -10.27637
 Alpha  occ. eigenvalues --  -10.26427 -10.26300 -10.24226 -10.23912 -10.22743
 Alpha  occ. eigenvalues --  -10.21728 -10.18622 -10.18082 -10.17440 -10.16624
 Alpha  occ. eigenvalues --   -1.06008  -1.04601  -1.01146  -1.00218  -0.93936
 Alpha  occ. eigenvalues --   -0.93773  -0.92085  -0.90514  -0.80073  -0.77965
 Alpha  occ. eigenvalues --   -0.75642  -0.71798  -0.71135  -0.67127  -0.65700
 Alpha  occ. eigenvalues --   -0.63391  -0.61084  -0.59921  -0.58174  -0.56071
 Alpha  occ. eigenvalues --   -0.55369  -0.52490  -0.50622  -0.48882  -0.48363
 Alpha  occ. eigenvalues --   -0.47853  -0.46650  -0.46086  -0.45487  -0.45116
 Alpha  occ. eigenvalues --   -0.43787  -0.43462  -0.42540  -0.41349  -0.40745
 Alpha  occ. eigenvalues --   -0.40578  -0.40349  -0.39993  -0.39419  -0.38573
 Alpha  occ. eigenvalues --   -0.37825  -0.37615  -0.37172  -0.36927  -0.36427
 Alpha  occ. eigenvalues --   -0.35524  -0.34700  -0.33364  -0.32558  -0.29485
 Alpha  occ. eigenvalues --   -0.26861  -0.26224  -0.25860  -0.23913  -0.23400
 Alpha  occ. eigenvalues --   -0.22281  -0.11587
 Alpha virt. eigenvalues --    0.01989   0.02954   0.04410   0.05067   0.05973
 Alpha virt. eigenvalues --    0.06263   0.09111   0.11004   0.11339   0.12595
 Alpha virt. eigenvalues --    0.13990   0.14092   0.14630   0.15005   0.15122
 Alpha virt. eigenvalues --    0.15335   0.15905   0.16323   0.16457   0.17164
 Alpha virt. eigenvalues --    0.17380   0.17699   0.18790   0.19281   0.19709
 Alpha virt. eigenvalues --    0.19830   0.20753   0.21038   0.21575   0.22159
 Alpha virt. eigenvalues --    0.23367   0.24381   0.24779   0.25889   0.26768
 Alpha virt. eigenvalues --    0.29640   0.30761   0.34277   0.35168   0.36011
 Alpha virt. eigenvalues --    0.38007   0.40365   0.43203   0.43766   0.46657
 Alpha virt. eigenvalues --    0.49781   0.50465   0.50907   0.51565   0.52309
 Alpha virt. eigenvalues --    0.53429   0.53796   0.54470   0.54705   0.55563
 Alpha virt. eigenvalues --    0.55867   0.56468   0.57199   0.57468   0.58668
 Alpha virt. eigenvalues --    0.59064   0.61055   0.61497   0.62364   0.63072
 Alpha virt. eigenvalues --    0.64298   0.65783   0.66470   0.68139   0.68420
 Alpha virt. eigenvalues --    0.69368   0.70217   0.71059   0.72228   0.73594
 Alpha virt. eigenvalues --    0.74292   0.74486   0.75424   0.76525   0.77503
 Alpha virt. eigenvalues --    0.77927   0.79794   0.80138   0.81884   0.82874
 Alpha virt. eigenvalues --    0.83138   0.83989   0.84836   0.85838   0.86566
 Alpha virt. eigenvalues --    0.87252   0.87650   0.88020   0.88413   0.88793
 Alpha virt. eigenvalues --    0.89688   0.90285   0.90560   0.90985   0.91139
 Alpha virt. eigenvalues --    0.91567   0.92581   0.92797   0.93789   0.94037
 Alpha virt. eigenvalues --    0.95141   0.96215   0.96287   0.96741   0.96943
 Alpha virt. eigenvalues --    0.98105   0.99233   1.00717   1.01830   1.02731
 Alpha virt. eigenvalues --    1.03809   1.05188   1.07201   1.09421   1.10140
 Alpha virt. eigenvalues --    1.10909   1.13532   1.14562   1.19678   1.20586
 Alpha virt. eigenvalues --    1.21838   1.22585   1.26365   1.28103   1.29931
 Alpha virt. eigenvalues --    1.31009   1.32031   1.34418   1.34556   1.35101
 Alpha virt. eigenvalues --    1.36638   1.39093   1.40339   1.41276   1.44024
 Alpha virt. eigenvalues --    1.45326   1.47359   1.48134   1.48437   1.50974
 Alpha virt. eigenvalues --    1.51491   1.52375   1.55063   1.57393   1.59913
 Alpha virt. eigenvalues --    1.64625   1.65755   1.67539   1.70149   1.70859
 Alpha virt. eigenvalues --    1.71706   1.72620   1.75472   1.77107   1.77644
 Alpha virt. eigenvalues --    1.77993   1.80045   1.80315   1.81713   1.82883
 Alpha virt. eigenvalues --    1.83791   1.84029   1.84637   1.84981   1.85484
 Alpha virt. eigenvalues --    1.85894   1.87678   1.88433   1.91089   1.91269
 Alpha virt. eigenvalues --    1.92267   1.93023   1.95509   1.96113   1.96531
 Alpha virt. eigenvalues --    1.96816   2.00147   2.01857   2.02482   2.03747
 Alpha virt. eigenvalues --    2.04150   2.05684   2.06310   2.07088   2.08209
 Alpha virt. eigenvalues --    2.10503   2.13679   2.14284   2.17948   2.19538
 Alpha virt. eigenvalues --    2.20191   2.21037   2.22161   2.24356   2.24867
 Alpha virt. eigenvalues --    2.25375   2.26882   2.27978   2.29183   2.30238
 Alpha virt. eigenvalues --    2.30917   2.32791   2.34109   2.35480   2.37431
 Alpha virt. eigenvalues --    2.38218   2.39803   2.42251   2.44696   2.45330
 Alpha virt. eigenvalues --    2.45770   2.46330   2.50309   2.51536   2.53151
 Alpha virt. eigenvalues --    2.57172   2.58144   2.60957   2.61175   2.64413
 Alpha virt. eigenvalues --    2.65618   2.66981   2.68522   2.71997   2.73407
 Alpha virt. eigenvalues --    2.74167   2.77610   2.81909   2.84961   2.87890
 Alpha virt. eigenvalues --    2.90568   2.93211   2.95891   2.96567   2.98962
 Alpha virt. eigenvalues --    3.02558   3.05378   3.09274   3.16567   3.21807
 Alpha virt. eigenvalues --    3.27745   3.34184   3.96679   4.02027   4.02745
 Alpha virt. eigenvalues --    4.03808   4.07989   4.08987   4.14049   4.21748
 Alpha virt. eigenvalues --    4.22620   4.23258   4.28892   4.30781   4.34895
 Alpha virt. eigenvalues --    4.41145   4.42643   4.46866   4.58343   4.61606
 Alpha virt. eigenvalues --    4.63579   4.75030
          Condensed to atoms (all electrons):
              1          2          3          4          5          6
     1  H    0.511076   0.359319  -0.022001  -0.021918  -0.018148   0.005282
     2  C    0.359319   5.330746   0.350473   0.351166   0.355150  -0.079666
     3  H   -0.022001   0.350473   0.553694  -0.026749  -0.024869   0.001455
     4  H   -0.021918   0.351166  -0.026749   0.554240  -0.026278   0.001292
     5  C   -0.018148   0.355150  -0.024869  -0.026278   4.339540   0.591322
     6  O    0.005282  -0.079666   0.001455   0.001292   0.591322   8.091672
     7  N    0.004638  -0.135205   0.004154   0.004621   0.229444  -0.107517
     8  H   -0.000137  -0.001656   0.001299   0.000917  -0.015214   0.002906
     9  C   -0.000146   0.007330  -0.000273   0.000005  -0.022193   0.012501
    10  H    0.000003   0.000124  -0.000013  -0.000001  -0.000367   0.004153
    11  C    0.000014  -0.000732   0.000015   0.000030  -0.007151  -0.017969
    12  H    0.000000  -0.000006   0.000000   0.000003   0.001131  -0.000216
    13  H    0.000000   0.000008   0.000000  -0.000001   0.000329   0.000343
    14  H   -0.000001   0.000615  -0.000008  -0.000055   0.002981   0.023646
    15  C    0.000000  -0.000059  -0.000013  -0.000011   0.007302   0.000801
    16  O    0.000000  -0.000049   0.000002   0.000000   0.000560  -0.000006
    17  N    0.000000   0.000000   0.000000   0.000000  -0.000055  -0.000004
    18  H    0.000000   0.000000   0.000000   0.000000  -0.000003   0.000004
    19  C    0.000000   0.000000   0.000000   0.000000   0.000000   0.000000
    20  H    0.000000   0.000000   0.000000   0.000000   0.000000   0.000000
    21  C    0.000000   0.000000   0.000000   0.000000   0.000000   0.000000
    22  H    0.000000   0.000000   0.000000   0.000000   0.000000   0.000000
    23  H    0.000000   0.000000   0.000000   0.000000   0.000000   0.000000
    24  H    0.000000   0.000000   0.000000   0.000000   0.000000   0.000000
    25  C    0.000000   0.000000   0.000000   0.000000   0.000001   0.000000
    26  O    0.000000   0.000000   0.000000   0.000000   0.000002   0.000000
    27  N    0.000000   0.000000   0.000000   0.000000   0.000000   0.000000
    28  H    0.000000   0.000000   0.000000   0.000000   0.000000   0.000000
    29  C    0.000000   0.000000   0.000000   0.000000   0.000000   0.000000
    30  H    0.000000   0.000000   0.000000   0.000000   0.000000   0.000000
    31  C    0.000000   0.000000   0.000000   0.000000   0.000000   0.000000
    32  H    0.000000   0.000000   0.000000   0.000000   0.000000   0.000000
    33  H    0.000000   0.000000   0.000000   0.000000   0.000000   0.000000
    34  H    0.000000   0.000000   0.000000   0.000000   0.000000   0.000000
    35  C    0.000000   0.000000   0.000000   0.000000   0.000000   0.000000
    36  O    0.000000   0.000000   0.000000   0.000000   0.000000   0.000000
    37  N    0.000000   0.000000   0.000000   0.000000   0.000000   0.000000
    38  H    0.000000   0.000000   0.000000   0.000000   0.000000   0.000000
    39  C    0.000000   0.000000   0.000000   0.000000   0.000000   0.000000
    40  H    0.000000   0.000000   0.000000   0.000000   0.000000   0.000000
    41  H    0.000000   0.000000   0.000000   0.000000   0.000000   0.000000
    42  H    0.000000   0.000000   0.000000   0.000000   0.000000   0.000000
              7          8          9         10         11         12
     1  H    0.004638  -0.000137  -0.000146   0.000003   0.000014   0.000000
     2  C   -0.135205  -0.001656   0.007330   0.000124  -0.000732  -0.000006
     3  H    0.004154   0.001299  -0.000273  -0.000013   0.000015   0.000000
     4  H    0.004621   0.000917   0.000005  -0.000001   0.000030   0.000003
     5  C    0.229444  -0.015214  -0.022193  -0.000367  -0.007151   0.001131
     6  O   -0.107517   0.002906   0.012501   0.004153  -0.017969  -0.000216
     7  N    7.200760   0.278364   0.261806  -0.051605  -0.053592  -0.000293
     8  H    0.278364   0.402596  -0.056816   0.005858   0.003644   0.000960
     9  C    0.261806  -0.056816   5.117204   0.349538   0.351009  -0.037888
    10  H   -0.051605   0.005858   0.349538   0.625050  -0.054212   0.006982
    11  C   -0.053592   0.003644   0.351009  -0.054212   5.209824   0.363144
    12  H   -0.000293   0.000960  -0.037888   0.006982   0.363144   0.571221
    13  H    0.005221  -0.000145  -0.035440  -0.000455   0.349445  -0.027841
    14  H   -0.010399  -0.000316  -0.021606  -0.006374   0.361456  -0.026579
    15  C   -0.032510   0.009182   0.286548  -0.037189  -0.047814  -0.000190
    16  O   -0.011827   0.032144  -0.067748   0.000795  -0.001349   0.000927
    17  N    0.002930   0.001678  -0.144396   0.006919   0.003075  -0.000264
    18  H    0.000056  -0.000076   0.003495  -0.000083   0.000536  -0.000261
    19  C   -0.000073  -0.000083   0.008897  -0.000407  -0.000212  -0.000111
    20  H    0.000000   0.000000  -0.000231   0.000012   0.000000   0.000002
    21  C    0.000003   0.000004  -0.000303   0.000015   0.000038   0.000052
    22  H    0.000000  -0.000001  -0.000023   0.000003  -0.000027   0.000061
    23  H    0.000000   0.000000   0.000004   0.000000   0.000001   0.000000
    24  H    0.000000   0.000000   0.000019  -0.000004   0.000000  -0.000015
    25  C    0.000013   0.000015  -0.001084   0.000037   0.000043   0.000001
    26  O   -0.000086   0.000799  -0.003831   0.000309  -0.000035   0.000020
    27  N    0.000000   0.000001  -0.000028   0.000001   0.000000   0.000000
    28  H    0.000000   0.000000   0.000002   0.000000   0.000000   0.000000
    29  C    0.000000   0.000000   0.000001   0.000000   0.000000   0.000000
    30  H    0.000000   0.000000   0.000000   0.000000   0.000000   0.000000
    31  C    0.000000   0.000001  -0.000001   0.000000   0.000000   0.000000
    32  H    0.000000   0.000000   0.000000   0.000000   0.000000   0.000000
    33  H    0.000000   0.000000   0.000000   0.000000   0.000000   0.000000
    34  H    0.000000  -0.000004   0.000007  -0.000001   0.000000   0.000000
    35  C    0.000000   0.000000   0.000000   0.000000   0.000000   0.000000
    36  O    0.000000   0.000000   0.000000   0.000000   0.000000   0.000000
    37  N    0.000000   0.000000   0.000000   0.000000   0.000000   0.000000
    38  H    0.000000   0.000000   0.000000   0.000000   0.000000   0.000000
    39  C    0.000000   0.000000   0.000000   0.000000   0.000000   0.000000
    40  H    0.000000   0.000000   0.000000   0.000000   0.000000   0.000000
    41  H    0.000000   0.000000   0.000000   0.000000   0.000000   0.000000
    42  H    0.000000   0.000000   0.000000   0.000000   0.000000   0.000000
             13         14         15         16         17         18
     1  H    0.000000  -0.000001   0.000000   0.000000   0.000000   0.000000
     2  C    0.000008   0.000615  -0.000059  -0.000049   0.000000   0.000000
     3  H    0.000000  -0.000008  -0.000013   0.000002   0.000000   0.000000
     4  H   -0.000001  -0.000055  -0.000011   0.000000   0.000000   0.000000
     5  C    0.000329   0.002981   0.007302   0.000560  -0.000055  -0.000003
     6  O    0.000343   0.023646   0.000801  -0.000006  -0.000004   0.000004
     7  N    0.005221  -0.010399  -0.032510  -0.011827   0.002930   0.000056
     8  H   -0.000145  -0.000316   0.009182   0.032144   0.001678  -0.000076
     9  C   -0.035440  -0.021606   0.286548  -0.067748  -0.144396   0.003495
    10  H   -0.000455  -0.006374  -0.037189   0.000795   0.006919  -0.000083
    11  C    0.349445   0.361456  -0.047814  -0.001349   0.003075   0.000536
    12  H   -0.027841  -0.026579  -0.000190   0.000927  -0.000264  -0.000261
    13  H    0.613322  -0.021859  -0.008190  -0.000031   0.003071   0.007797
    14  H   -0.021859   0.487883   0.003910  -0.000061   0.000163  -0.000193
    15  C   -0.008190   0.003910   4.507962   0.515156   0.226321  -0.016238
    16  O   -0.000031  -0.000061   0.515156   8.466688  -0.124859   0.004559
    17  N    0.003071   0.000163   0.226321  -0.124859   7.251426   0.294210
    18  H    0.007797  -0.000193  -0.016238   0.004559   0.294210   0.405665
    19  C    0.000017   0.000004  -0.010815   0.034999   0.203599  -0.027166
    20  H   -0.000011   0.000000   0.003293   0.000228  -0.038443  -0.005196
    21  C    0.000010  -0.000002  -0.001919  -0.003723  -0.071250   0.001586
    22  H   -0.000007   0.000001   0.004300   0.002328  -0.007473  -0.000193
    23  H    0.000001   0.000000   0.000044   0.000061   0.005734  -0.000143
    24  H    0.000089   0.000001  -0.000110   0.000121   0.000614   0.001597
    25  C   -0.000007   0.000000  -0.014758   0.010724  -0.007311   0.002100
    26  O   -0.000005   0.000000   0.017154  -0.407087   0.019044  -0.000464
    27  N    0.000000   0.000000  -0.000825  -0.001939   0.003628  -0.000161
    28  H    0.000000   0.000000   0.000102   0.000124  -0.000234   0.000015
    29  C    0.000000   0.000000   0.000046   0.000333  -0.000153   0.000004
    30  H    0.000000   0.000000  -0.000001   0.000048  -0.000007   0.000000
    31  C    0.000000   0.000000  -0.000035  -0.000179   0.000039  -0.000001
    32  H    0.000000   0.000000   0.000005   0.000006  -0.000006   0.000000
    33  H    0.000000   0.000000   0.000000   0.000002   0.000000   0.000000
    34  H    0.000000   0.000000   0.000097   0.000499  -0.000046   0.000001
    35  C    0.000000   0.000000   0.000001   0.000002  -0.000001   0.000000
    36  O    0.000000   0.000000   0.000000   0.000000   0.000000   0.000000
    37  N    0.000000   0.000000   0.000000   0.000000   0.000000   0.000000
    38  H    0.000000   0.000000   0.000000   0.000000   0.000000   0.000000
    39  C    0.000000   0.000000   0.000000   0.000000   0.000000   0.000000
    40  H    0.000000   0.000000   0.000000   0.000000   0.000000   0.000000
    41  H    0.000000   0.000000   0.000000   0.000000   0.000000   0.000000
    42  H    0.000000   0.000000   0.000000   0.000000   0.000000   0.000000
             19         20         21         22         23         24
     1  H    0.000000   0.000000   0.000000   0.000000   0.000000   0.000000
     2  C    0.000000   0.000000   0.000000   0.000000   0.000000   0.000000
     3  H    0.000000   0.000000   0.000000   0.000000   0.000000   0.000000
     4  H    0.000000   0.000000   0.000000   0.000000   0.000000   0.000000
     5  C    0.000000   0.000000   0.000000   0.000000   0.000000   0.000000
     6  O    0.000000   0.000000   0.000000   0.000000   0.000000   0.000000
     7  N   -0.000073   0.000000   0.000003   0.000000   0.000000   0.000000
     8  H   -0.000083   0.000000   0.000004  -0.000001   0.000000   0.000000
     9  C    0.008897  -0.000231  -0.000303  -0.000023   0.000004   0.000019
    10  H   -0.000407   0.000012   0.000015   0.000003   0.000000  -0.000004
    11  C   -0.000212   0.000000   0.000038  -0.000027   0.000001   0.000000
    12  H   -0.000111   0.000002   0.000052   0.000061   0.000000  -0.000015
    13  H    0.000017  -0.000011   0.000010  -0.000007   0.000001   0.000089
    14  H    0.000004   0.000000  -0.000002   0.000001   0.000000   0.000001
    15  C   -0.010815   0.003293  -0.001919   0.004300   0.000044  -0.000110
    16  O    0.034999   0.000228  -0.003723   0.002328   0.000061   0.000121
    17  N    0.203599  -0.038443  -0.071250  -0.007473   0.005734   0.000614
    18  H   -0.027166  -0.005196   0.001586  -0.000193  -0.000143   0.001597
    19  C    5.145224   0.370033   0.340800  -0.028066  -0.028277  -0.029461
    20  H    0.370033   0.604702  -0.049997   0.005491  -0.001102  -0.004810
    21  C    0.340800  -0.049997   5.163938   0.379564   0.354985   0.361239
    22  H   -0.028066   0.005491   0.379564   0.517429  -0.025522  -0.027241
    23  H   -0.028277  -0.001102   0.354985  -0.025522   0.567451  -0.024624
    24  H   -0.029461  -0.004810   0.361239  -0.027241  -0.024624   0.571299
    25  C    0.311392  -0.038388  -0.040278  -0.007215  -0.003022   0.004289
    26  O   -0.118333   0.002458   0.001019   0.002500  -0.000393  -0.000156
    27  N   -0.132654   0.003961   0.000722   0.000030   0.003061  -0.000120
    28  H    0.005553   0.002639  -0.001035  -0.000014   0.001511   0.000013
    29  C    0.008550   0.000210  -0.000517  -0.000004   0.000010   0.000012
    30  H    0.000281   0.000005   0.000024  -0.000001  -0.000021   0.000000
    31  C   -0.001040   0.000000   0.000002   0.000001   0.000007   0.000000
    32  H    0.000070   0.000002   0.000001   0.000000   0.000000   0.000000
    33  H    0.000013  -0.000001   0.000000   0.000000   0.000000   0.000000
    34  H    0.000731  -0.000041  -0.000007  -0.000002   0.000001   0.000000
    35  C    0.000057  -0.000053  -0.000012  -0.000001  -0.000005   0.000000
    36  O   -0.000081  -0.000020   0.000002   0.000000  -0.000009   0.000000
    37  N    0.000000   0.000000   0.000000   0.000000   0.000000   0.000000
    38  H    0.000000   0.000000   0.000000   0.000000   0.000000   0.000000
    39  C    0.000000   0.000000   0.000000   0.000000   0.000000   0.000000
    40  H    0.000000   0.000000   0.000000   0.000000   0.000000   0.000000
    41  H    0.000000   0.000000   0.000000   0.000000   0.000000   0.000000
    42  H    0.000000   0.000000   0.000000   0.000000   0.000000   0.000000
             25         26         27         28         29         30
     1  H    0.000000   0.000000   0.000000   0.000000   0.000000   0.000000
     2  C    0.000000   0.000000   0.000000   0.000000   0.000000   0.000000
     3  H    0.000000   0.000000   0.000000   0.000000   0.000000   0.000000
     4  H    0.000000   0.000000   0.000000   0.000000   0.000000   0.000000
     5  C    0.000001   0.000002   0.000000   0.000000   0.000000   0.000000
     6  O    0.000000   0.000000   0.000000   0.000000   0.000000   0.000000
     7  N    0.000013  -0.000086   0.000000   0.000000   0.000000   0.000000
     8  H    0.000015   0.000799   0.000001   0.000000   0.000000   0.000000
     9  C   -0.001084  -0.003831  -0.000028   0.000002   0.000001   0.000000
    10  H    0.000037   0.000309   0.000001   0.000000   0.000000   0.000000
    11  C    0.000043  -0.000035   0.000000   0.000000   0.000000   0.000000
    12  H    0.000001   0.000020   0.000000   0.000000   0.000000   0.000000
    13  H   -0.000007  -0.000005   0.000000   0.000000   0.000000   0.000000
    14  H    0.000000   0.000000   0.000000   0.000000   0.000000   0.000000
    15  C   -0.014758   0.017154  -0.000825   0.000102   0.000046  -0.000001
    16  O    0.010724  -0.407087  -0.001939   0.000124   0.000333   0.000048
    17  N   -0.007311   0.019044   0.003628  -0.000234  -0.000153  -0.000007
    18  H    0.002100  -0.000464  -0.000161   0.000015   0.000004   0.000000
    19  C    0.311392  -0.118333  -0.132654   0.005553   0.008550   0.000281
    20  H   -0.038388   0.002458   0.003961   0.002639   0.000210   0.000005
    21  C   -0.040278   0.001019   0.000722  -0.001035  -0.000517   0.000024
    22  H   -0.007215   0.002500   0.000030  -0.000014  -0.000004  -0.000001
    23  H   -0.003022  -0.000393   0.003061   0.001511   0.000010  -0.000021
    24  H    0.004289  -0.000156  -0.000120   0.000013   0.000012   0.000000
    25  C    4.459764   0.508358   0.222723  -0.015848  -0.019813   0.001436
    26  O    0.508358   8.487637  -0.087789   0.002730   0.012045   0.005439
    27  N    0.222723  -0.087789   7.244442   0.268412   0.245171  -0.051759
    28  H   -0.015848   0.002730   0.268412   0.409244  -0.051043   0.004602
    29  C   -0.019813   0.012045   0.245171  -0.051043   5.102718   0.368941
    30  H    0.001436   0.005439  -0.051759   0.004602   0.368941   0.580679
    31  C   -0.009633  -0.017741  -0.052308   0.004224   0.347986  -0.050139
    32  H    0.001265  -0.000090  -0.000540   0.000778  -0.037715   0.006267
    33  H    0.000511   0.000355   0.005032  -0.000097  -0.037239  -0.000017
    34  H    0.005200   0.021876  -0.011042  -0.000178  -0.021087  -0.005697
    35  C    0.007199   0.000738  -0.028464   0.002751   0.299062  -0.032888
    36  O    0.000759  -0.000005  -0.008492   0.030845  -0.089083   0.001233
    37  N   -0.000078  -0.000001   0.003338   0.001265  -0.120891   0.000521
    38  H    0.000011   0.000004   0.000034  -0.000043   0.000265   0.001153
    39  C    0.000002   0.000000  -0.000068  -0.000009   0.005692  -0.000264
    40  H    0.000000   0.000000  -0.000001  -0.000030   0.001171  -0.000034
    41  H    0.000000   0.000000   0.000000   0.000000  -0.000191   0.000021
    42  H    0.000000   0.000000   0.000001   0.000000  -0.000043  -0.000005
             31         32         33         34         35         36
     1  H    0.000000   0.000000   0.000000   0.000000   0.000000   0.000000
     2  C    0.000000   0.000000   0.000000   0.000000   0.000000   0.000000
     3  H    0.000000   0.000000   0.000000   0.000000   0.000000   0.000000
     4  H    0.000000   0.000000   0.000000   0.000000   0.000000   0.000000
     5  C    0.000000   0.000000   0.000000   0.000000   0.000000   0.000000
     6  O    0.000000   0.000000   0.000000   0.000000   0.000000   0.000000
     7  N    0.000000   0.000000   0.000000   0.000000   0.000000   0.000000
     8  H    0.000001   0.000000   0.000000  -0.000004   0.000000   0.000000
     9  C   -0.000001   0.000000   0.000000   0.000007   0.000000   0.000000
    10  H    0.000000   0.000000   0.000000  -0.000001   0.000000   0.000000
    11  C    0.000000   0.000000   0.000000   0.000000   0.000000   0.000000
    12  H    0.000000   0.000000   0.000000   0.000000   0.000000   0.000000
    13  H    0.000000   0.000000   0.000000   0.000000   0.000000   0.000000
    14  H    0.000000   0.000000   0.000000   0.000000   0.000000   0.000000
    15  C   -0.000035   0.000005   0.000000   0.000097   0.000001   0.000000
    16  O   -0.000179   0.000006   0.000002   0.000499   0.000002   0.000000
    17  N    0.000039  -0.000006   0.000000  -0.000046  -0.000001   0.000000
    18  H   -0.000001   0.000000   0.000000   0.000001   0.000000   0.000000
    19  C   -0.001040   0.000070   0.000013   0.000731   0.000057  -0.000081
    20  H    0.000000   0.000002  -0.000001  -0.000041  -0.000053  -0.000020
    21  C    0.000002   0.000001   0.000000  -0.000007  -0.000012   0.000002
    22  H    0.000001   0.000000   0.000000  -0.000002  -0.000001   0.000000
    23  H    0.000007   0.000000   0.000000   0.000001  -0.000005  -0.000009
    24  H    0.000000   0.000000   0.000000   0.000000   0.000000   0.000000
    25  C   -0.009633   0.001265   0.000511   0.005200   0.007199   0.000759
    26  O   -0.017741  -0.000090   0.000355   0.021876   0.000738  -0.000005
    27  N   -0.052308  -0.000540   0.005032  -0.011042  -0.028464  -0.008492
    28  H    0.004224   0.000778  -0.000097  -0.000178   0.002751   0.030845
    29  C    0.347986  -0.037715  -0.037239  -0.021087   0.299062  -0.089083
    30  H   -0.050139   0.006267  -0.000017  -0.005697  -0.032888   0.001233
    31  C    5.202840   0.366926   0.351323   0.358287  -0.044688  -0.000687
    32  H    0.366926   0.563806  -0.026671  -0.025498  -0.002447   0.000957
    33  H    0.351323  -0.026671   0.603407  -0.021099  -0.007386  -0.000033
    34  H    0.358287  -0.025498  -0.021099   0.483571   0.004022  -0.000095
    35  C   -0.044688  -0.002447  -0.007386   0.004022   4.374302   0.596710
    36  O   -0.000687   0.000957  -0.000033  -0.000095   0.596710   8.092280
    37  N    0.002539  -0.000516   0.003179   0.000208   0.271644  -0.101427
    38  H    0.000733  -0.000082   0.007183  -0.000177  -0.020733   0.003604
    39  C    0.000023  -0.000072   0.000094   0.000006  -0.024397  -0.009125
    40  H   -0.000070  -0.000007  -0.000005   0.000001  -0.001245   0.021118
    41  H   -0.000005   0.000001   0.000004   0.000000   0.001323   0.000569
    42  H    0.000016   0.000002   0.000004  -0.000002   0.001383   0.000574
             37         38         39         40         41         42
     1  H    0.000000   0.000000   0.000000   0.000000   0.000000   0.000000
     2  C    0.000000   0.000000   0.000000   0.000000   0.000000   0.000000
     3  H    0.000000   0.000000   0.000000   0.000000   0.000000   0.000000
     4  H    0.000000   0.000000   0.000000   0.000000   0.000000   0.000000
     5  C    0.000000   0.000000   0.000000   0.000000   0.000000   0.000000
     6  O    0.000000   0.000000   0.000000   0.000000   0.000000   0.000000
     7  N    0.000000   0.000000   0.000000   0.000000   0.000000   0.000000
     8  H    0.000000   0.000000   0.000000   0.000000   0.000000   0.000000
     9  C    0.000000   0.000000   0.000000   0.000000   0.000000   0.000000
    10  H    0.000000   0.000000   0.000000   0.000000   0.000000   0.000000
    11  C    0.000000   0.000000   0.000000   0.000000   0.000000   0.000000
    12  H    0.000000   0.000000   0.000000   0.000000   0.000000   0.000000
    13  H    0.000000   0.000000   0.000000   0.000000   0.000000   0.000000
    14  H    0.000000   0.000000   0.000000   0.000000   0.000000   0.000000
    15  C    0.000000   0.000000   0.000000   0.000000   0.000000   0.000000
    16  O    0.000000   0.000000   0.000000   0.000000   0.000000   0.000000
    17  N    0.000000   0.000000   0.000000   0.000000   0.000000   0.000000
    18  H    0.000000   0.000000   0.000000   0.000000   0.000000   0.000000
    19  C    0.000000   0.000000   0.000000   0.000000   0.000000   0.000000
    20  H    0.000000   0.000000   0.000000   0.000000   0.000000   0.000000
    21  C    0.000000   0.000000   0.000000   0.000000   0.000000   0.000000
    22  H    0.000000   0.000000   0.000000   0.000000   0.000000   0.000000
    23  H    0.000000   0.000000   0.000000   0.000000   0.000000   0.000000
    24  H    0.000000   0.000000   0.000000   0.000000   0.000000   0.000000
    25  C   -0.000078   0.000011   0.000002   0.000000   0.000000   0.000000
    26  O   -0.000001   0.000004   0.000000   0.000000   0.000000   0.000000
    27  N    0.003338   0.000034  -0.000068  -0.000001   0.000000   0.000001
    28  H    0.001265  -0.000043  -0.000009  -0.000030   0.000000   0.000000
[...]
    28  H    0.000000   0.000000   0.000002   0.000000   0.000041  -0.000014
    29  C    0.000000   0.000000  -0.000005   0.000003  -0.000104   0.000000
    30  H    0.000000   0.000000  -0.000004   0.000001  -0.000005   0.000000
    31  C    0.000000   0.000000   0.000001   0.000000   0.000007   0.000000
    32  H    0.000000   0.000000   0.000000   0.000000   0.000000   0.000000
    33  H    0.000000   0.000000   0.000000   0.000000   0.000000   0.000000
    34  H    0.000000   0.000000  -0.000002   0.000001  -0.000001   0.000000
    35  C    0.000000   0.000000   0.000000   0.000000   0.000000   0.000000
    36  O    0.000000   0.000000   0.000000   0.000000   0.000000   0.000000
    37  N    0.000000   0.000000   0.000000   0.000000   0.000000   0.000000
    38  H    0.000000   0.000000   0.000000   0.000000   0.000000   0.000000
    39  C    0.000000   0.000000   0.000000   0.000000   0.000000   0.000000
    40  H    0.000000   0.000000   0.000000   0.000000   0.000000   0.000000
    41  H    0.000000   0.000000   0.000000   0.000000   0.000000   0.000000
    42  H    0.000000   0.000000   0.000000   0.000000   0.000000   0.000000
             19         20         21         22         23         24
     1  H    0.000000   0.000000   0.000000   0.000000   0.000000   0.000000
     2  C    0.000000   0.000000   0.000000   0.000000   0.000000   0.000000
     3  H    0.000000   0.000000   0.000000   0.000000   0.000000   0.000000
     4  H    0.000000   0.000000   0.000000   0.000000   0.000000   0.000000
     5  C    0.000002   0.000000   0.000000   0.000000   0.000000   0.000000
     6  O    0.000000   0.000000   0.000000   0.000000   0.000000   0.000000
     7  N   -0.000058   0.000001   0.000002   0.000000   0.000000   0.000000
     8  H   -0.000055   0.000000   0.000002  -0.000004   0.000000   0.000000
     9  C    0.005411  -0.000207  -0.000096   0.000092   0.000003  -0.000001
    10  H   -0.000618  -0.000006   0.000008  -0.000002   0.000000   0.000000
    11  C    0.000203   0.000007  -0.000026  -0.000003   0.000000   0.000001
    12  H   -0.000049   0.000000   0.000005  -0.000001   0.000000   0.000000
    13  H    0.000027  -0.000012  -0.000004  -0.000001   0.000000   0.000003
    14  H    0.000003   0.000000   0.000000   0.000000   0.000000   0.000000
    15  C   -0.021099   0.003666  -0.002645   0.002484   0.000109   0.000055
    16  O    0.008032   0.000006  -0.001780   0.004846   0.000037  -0.000009
    17  N    0.250824  -0.040400  -0.062129  -0.005597   0.004420   0.000888
    18  H   -0.034134  -0.008009   0.005357   0.000016  -0.000200   0.000026
    19  C    5.080308   0.372102   0.337022  -0.029294  -0.030153  -0.026064
    20  H    0.372102   0.600063  -0.041144   0.004909  -0.001925  -0.004649
    21  C    0.337022  -0.041144   5.155837   0.374888   0.355409   0.365724
    22  H   -0.029294   0.004909   0.374888   0.508141  -0.024271  -0.025702
    23  H   -0.030153  -0.001925   0.355409  -0.024271   0.571230  -0.026462
    24  H   -0.026064  -0.004649   0.365724  -0.025702  -0.026462   0.554381
    25  C    0.322885  -0.041847  -0.043864  -0.004698  -0.001378   0.004027
    26  O   -0.071398   0.002190  -0.001136   0.001788  -0.000177  -0.000052
    27  N   -0.110919   0.005847  -0.001590   0.000237   0.003699  -0.000029
    28  H    0.000280   0.001449   0.000451  -0.000044   0.001357  -0.000072
    29  C    0.006869   0.000184  -0.000391   0.000007  -0.000104   0.000010
    30  H    0.000629  -0.000005   0.000004  -0.000006  -0.000045   0.000000
    31  C   -0.000426   0.000010  -0.000005   0.000000   0.000009   0.000000
    32  H    0.000005   0.000001   0.000001   0.000000   0.000000   0.000000
    33  H    0.000004   0.000000   0.000000   0.000000   0.000000   0.000000
    34  H    0.000177  -0.000027   0.000000   0.000000   0.000000   0.000000
    35  C   -0.000021  -0.000073  -0.000014  -0.000003   0.000054   0.000000
    36  O   -0.000139  -0.000025  -0.000013   0.000000   0.000054   0.000000
    37  N    0.000000   0.000000   0.000000   0.000000  -0.000001   0.000000
    38  H    0.000000   0.000000   0.000000   0.000000   0.000000   0.000000
    39  C    0.000000   0.000000   0.000000   0.000000   0.000000   0.000000
    40  H    0.000000   0.000000   0.000000   0.000000   0.000000   0.000000
    41  H    0.000000   0.000000   0.000000   0.000000   0.000000   0.000000
    42  H    0.000000   0.000000   0.000000   0.000000   0.000000   0.000000
             25         26         27         28         29         30
     1  H    0.000000   0.000000   0.000000   0.000000   0.000000   0.000000
     2  C    0.000000   0.000000   0.000000   0.000000   0.000000   0.000000
     3  H    0.000000   0.000000   0.000000   0.000000   0.000000   0.000000
     4  H    0.000000   0.000000   0.000000   0.000000   0.000000   0.000000
     5  C    0.000000   0.000000   0.000000   0.000000   0.000000   0.000000
     6  O    0.000000   0.000000   0.000000   0.000000   0.000000   0.000000
     7  N   -0.000007  -0.000011   0.000000   0.000000   0.000000   0.000000
     8  H    0.000011   0.000046   0.000000   0.000000   0.000000   0.000000
     9  C   -0.000391  -0.000481  -0.000005   0.000000   0.000000   0.000000
    10  H    0.000143   0.000102   0.000000   0.000000   0.000000   0.000000
    11  C   -0.000001   0.000002   0.000000   0.000000   0.000000   0.000000
    12  H    0.000001   0.000000   0.000000   0.000000   0.000000   0.000000
    13  H    0.000002   0.000000   0.000000   0.000000   0.000000   0.000000
    14  H    0.000000   0.000000   0.000000   0.000000   0.000000   0.000000
    15  C    0.001258   0.013859   0.000198   0.000002  -0.000005  -0.000004
    16  O   -0.001367  -0.008081  -0.000026   0.000000   0.000003   0.000001
    17  N   -0.028716  -0.002113   0.002953   0.000041  -0.000104  -0.000005
    18  H    0.001672   0.000042  -0.000055  -0.000014   0.000000   0.000000
    19  C    0.322885  -0.071398  -0.110919   0.000280   0.006869   0.000629
    20  H   -0.041847   0.002190   0.005847   0.001449   0.000184  -0.000005
    21  C   -0.043864  -0.001136  -0.001590   0.000451  -0.000391   0.000004
    22  H   -0.004698   0.001788   0.000237  -0.000044   0.000007  -0.000006
    23  H   -0.001378  -0.000177   0.003699   0.001357  -0.000104  -0.000045
    24  H    0.004027  -0.000052  -0.000029  -0.000072   0.000010   0.000000
    25  C    4.394398   0.578308   0.234700  -0.015785  -0.018238   0.000801
    26  O    0.578308   8.067298  -0.101555   0.002597   0.008865   0.010826
    27  N    0.234700  -0.101555   7.208973   0.278529   0.255365  -0.053861
    28  H   -0.015785   0.002597   0.278529   0.384300  -0.053960   0.004584
    29  C   -0.018238   0.008865   0.255365  -0.053960   5.086004   0.372193
    30  H    0.000801   0.010826  -0.053861   0.004584   0.372193   0.567978
    31  C   -0.005644  -0.005485  -0.053740   0.003747   0.348977  -0.048122
    32  H    0.000464  -0.000018  -0.000383   0.000846  -0.033766   0.005390
    33  H    0.000091   0.000018   0.004735  -0.000118  -0.030216   0.000081
    34  H    0.003564   0.008130  -0.008239  -0.000225  -0.022757  -0.004834
    35  C    0.005612   0.000600  -0.030286  -0.003078   0.305265  -0.033600
    36  O    0.000934  -0.000005  -0.017202   0.042945  -0.082396   0.001775
    37  N   -0.000050  -0.000001   0.002767   0.001816  -0.112392   0.000807
    38  H   -0.000002   0.000001   0.000067  -0.000076   0.001508   0.001689
    39  C    0.000001   0.000000  -0.000092  -0.000017   0.005623  -0.000118
    40  H    0.000000   0.000000   0.000007  -0.000049   0.001076  -0.000032
    41  H    0.000000   0.000000   0.000002   0.000000  -0.000155   0.000007
    42  H    0.000000   0.000000   0.000001   0.000000  -0.000086  -0.000006
             31         32         33         34         35         36
     1  H    0.000000   0.000000   0.000000   0.000000   0.000000   0.000000
     2  C    0.000000   0.000000   0.000000   0.000000   0.000000   0.000000
     3  H    0.000000   0.000000   0.000000   0.000000   0.000000   0.000000
     4  H    0.000000   0.000000   0.000000   0.000000   0.000000   0.000000
     5  C    0.000000   0.000000   0.000000   0.000000   0.000000   0.000000
     6  O    0.000000   0.000000   0.000000   0.000000   0.000000   0.000000
     7  N    0.000000   0.000000   0.000000   0.000000   0.000000   0.000000
     8  H    0.000000   0.000000   0.000000   0.000000   0.000000   0.000000
     9  C    0.000000   0.000000   0.000000   0.000000   0.000000   0.000000
    10  H    0.000000   0.000000   0.000000   0.000000   0.000000   0.000000
    11  C    0.000000   0.000000   0.000000   0.000000   0.000000   0.000000
    12  H    0.000000   0.000000   0.000000   0.000000   0.000000   0.000000
    13  H    0.000000   0.000000   0.000000   0.000000   0.000000   0.000000
    14  H    0.000000   0.000000   0.000000   0.000000   0.000000   0.000000
    15  C    0.000001   0.000000   0.000000  -0.000002   0.000000   0.000000
    16  O    0.000000   0.000000   0.000000   0.000001   0.000000   0.000000
    17  N    0.000007   0.000000   0.000000  -0.000001   0.000000   0.000000
    18  H    0.000000   0.000000   0.000000   0.000000   0.000000   0.000000
    19  C   -0.000426   0.000005   0.000004   0.000177  -0.000021  -0.000139
    20  H    0.000010   0.000001   0.000000  -0.000027  -0.000073  -0.000025
    21  C   -0.000005   0.000001   0.000000   0.000000  -0.000014  -0.000013
    22  H    0.000000   0.000000   0.000000   0.000000  -0.000003   0.000000
    23  H    0.000009   0.000000   0.000000   0.000000   0.000054   0.000054
    24  H    0.000000   0.000000   0.000000   0.000000   0.000000   0.000000
    25  C   -0.005644   0.000464   0.000091   0.003564   0.005612   0.000934
    26  O   -0.005485  -0.000018   0.000018   0.008130   0.000600  -0.000005
    27  N   -0.053740  -0.000383   0.004735  -0.008239  -0.030286  -0.017202
    28  H    0.003747   0.000846  -0.000118  -0.000225  -0.003078   0.042945
    29  C    0.348977  -0.033766  -0.030216  -0.022757   0.305265  -0.082396
    30  H   -0.048122   0.005390   0.000081  -0.004834  -0.033600   0.001775
    31  C    5.142839   0.370481   0.355473   0.369795  -0.036209  -0.001382
    32  H    0.370481   0.555083  -0.027650  -0.027064  -0.003790   0.001269
    33  H    0.355473  -0.027650   0.585815  -0.025601  -0.003607  -0.000010
    34  H    0.369795  -0.027064  -0.025601   0.512462   0.003624  -0.000082
    35  C   -0.036209  -0.003790  -0.003607   0.003624   4.371406   0.575291
    36  O   -0.001382   0.001269  -0.000010  -0.000082   0.575291   8.086783
    37  N    0.001343  -0.000057   0.003160   0.000055   0.287816  -0.092453
    38  H    0.000533  -0.000036   0.002706  -0.000097  -0.022327   0.003305
    39  C   -0.000218  -0.000011  -0.000041   0.000005  -0.022850  -0.007565
    40  H   -0.000042  -0.000007  -0.000001   0.000001  -0.001409   0.019489
    41  H   -0.000004   0.000000   0.000004   0.000000   0.000763   0.000424
    42  H    0.000030  -0.000002  -0.000012  -0.000001   0.001464   0.000442
             37         38         39         40         41         42
     1  H    0.000000   0.000000   0.000000   0.000000   0.000000   0.000000
     2  C    0.000000   0.000000   0.000000   0.000000   0.000000   0.000000
     3  H    0.000000   0.000000   0.000000   0.000000   0.000000   0.000000
     4  H    0.000000   0.000000   0.000000   0.000000   0.000000   0.000000
     5  C    0.000000   0.000000   0.000000   0.000000   0.000000   0.000000
     6  O    0.000000   0.000000   0.000000   0.000000   0.000000   0.000000
     7  N    0.000000   0.000000   0.000000   0.000000   0.000000   0.000000
     8  H    0.000000   0.000000   0.000000   0.000000   0.000000   0.000000
     9  C    0.000000   0.000000   0.000000   0.000000   0.000000   0.000000
    10  H    0.000000   0.000000   0.000000   0.000000   0.000000   0.000000
    11  C    0.000000   0.000000   0.000000   0.000000   0.000000   0.000000
    12  H    0.000000   0.000000   0.000000   0.000000   0.000000   0.000000
    13  H    0.000000   0.000000   0.000000   0.000000   0.000000   0.000000
    14  H    0.000000   0.000000   0.000000   0.000000   0.000000   0.000000
    15  C    0.000000   0.000000   0.000000   0.000000   0.000000   0.000000
    16  O    0.000000   0.000000   0.000000   0.000000   0.000000   0.000000
    17  N    0.000000   0.000000   0.000000   0.000000   0.000000   0.000000
    18  H    0.000000   0.000000   0.000000   0.000000   0.000000   0.000000
    19  C    0.000000   0.000000   0.000000   0.000000   0.000000   0.000000
    20  H    0.000000   0.000000   0.000000   0.000000   0.000000   0.000000
    21  C    0.000000   0.000000   0.000000   0.000000   0.000000   0.000000
    22  H    0.000000   0.000000   0.000000   0.000000   0.000000   0.000000
    23  H   -0.000001   0.000000   0.000000   0.000000   0.000000   0.000000
    24  H    0.000000   0.000000   0.000000   0.000000   0.000000   0.000000
    25  C   -0.000050  -0.000002   0.000001   0.000000   0.000000   0.000000
    26  O   -0.000001   0.000001   0.000000   0.000000   0.000000   0.000000
    27  N    0.002767   0.000067  -0.000092   0.000007   0.000002   0.000001
    28  H    0.001816  -0.000076  -0.000017  -0.000049   0.000000   0.000000
    29  C   -0.112392   0.001508   0.005623   0.001076  -0.000155  -0.000086
    30  H    0.000807   0.001689  -0.000118  -0.000032   0.000007  -0.000006
    31  C    0.001343   0.000533  -0.000218  -0.000042  -0.000004   0.000030
    32  H   -0.000057  -0.000036  -0.000011  -0.000007   0.000000  -0.000002
    33  H    0.003160   0.002706  -0.000041  -0.000001   0.000004  -0.000012
    34  H    0.000055  -0.000097   0.000005   0.000001   0.000000  -0.000001
    35  C    0.287816  -0.022327  -0.022850  -0.001409   0.000763   0.001464
    36  O   -0.092453   0.003305  -0.007565   0.019489   0.000424   0.000442
    37  N    7.047265   0.306501   0.265171  -0.038911  -0.040434  -0.041036
    38  H    0.306501   0.402266  -0.031485   0.003976  -0.001092  -0.000688
    39  C    0.265171  -0.031485   4.963487   0.378255   0.382483   0.381338
    40  H   -0.038911   0.003976   0.378255   0.478269  -0.024230  -0.024296
    41  H   -0.040434  -0.001092   0.382483  -0.024230   0.556596  -0.039244
    42  H   -0.041036  -0.000688   0.381338  -0.024296  -0.039244   0.558088
 Mulliken atomic charges:
              1
     1  H    0.149636
     2  C   -0.532756
     3  H    0.179904
     4  H    0.180240
     5  C    0.594350
     6  O   -0.526833
     7  N   -0.602782
     8  H    0.350359
     9  C   -0.039669
    10  H    0.169126
    11  C   -0.447524
    12  H    0.158784
    13  H    0.132082
    14  H    0.192993
    15  C    0.614792
    16  O   -0.491214
    17  N   -0.611096
    18  H    0.325422
    19  C   -0.060357
    20  H    0.147893
    21  C   -0.439876
    22  H    0.192218
    23  H    0.148336
    24  H    0.157923
    25  C    0.613118
    26  O   -0.504161
    27  N   -0.620099
    28  H    0.350496
    29  C   -0.037380
    30  H    0.173871
    31  C   -0.441968
    32  H    0.159243
    33  H    0.135168
    34  H    0.191116
    35  C    0.605370
    36  O   -0.531440
    37  N   -0.591365
    38  H    0.333251
    39  C   -0.313967
    40  H    0.207904
    41  H    0.164881
    42  H    0.164009
 Sum of Mulliken atomic charges =   0.00000
 Mulliken charges with hydrogens summed into heavy atoms:
              1
     2  C   -0.022975
     5  C    0.594350
     6  O   -0.526833
     7  N   -0.252423
     9  C    0.129457
    11  C    0.036335
    15  C    0.614792
    16  O   -0.491214
    17  N   -0.285674
    19  C    0.087536
    21  C    0.058601
    25  C    0.613118
    26  O   -0.504161
    27  N   -0.269603
    29  C    0.136491
    31  C    0.043559
    35  C    0.605370
    36  O   -0.531440
    37  N   -0.258114
    39  C    0.222827
 Sum of Mulliken charges with hydrogens summed into heavy atoms =   0.00000
 Electronic spatial extent (au):  <R**2>=           9845.8418
 Charge=              0.0000 electrons
 Dipole moment (field-independent basis, Debye):
    X=              5.9184    Y=             -0.1409    Z=              0.3362  Tot=              5.9296
 Quadrupole moment (field-independent basis, Debye-Ang):
   XX=           -110.0141   YY=           -111.9519   ZZ=           -123.2707
   XY=            -17.8524   XZ=             -1.6260   YZ=             -7.9884
 Traceless Quadrupole moment (field-independent basis, Debye-Ang):
   XX=              5.0648   YY=              3.1270   ZZ=             -8.1918
   XY=            -17.8524   XZ=             -1.6260   YZ=             -7.9884
 Octapole moment (field-independent basis, Debye-Ang**2):
  XXX=            228.3418  YYY=            -11.3316  ZZZ=              0.5795  XYY=             14.9420
  XXY=            -64.5363  XXZ=            123.0332  XZZ=             20.0216  YZZ=              5.2017
  YYZ=              6.9435  XYZ=             27.3571
 Hexadecapole moment (field-independent basis, Debye-Ang**3):
 XXXX=          -9824.1966 YYYY=          -1556.5247 ZZZZ=           -540.7688 XXXY=           -516.4928
 XXXZ=           -169.7430 YYYX=              4.5707 YYYZ=            -21.7591 ZZZX=            -11.6512
 ZZZY=            -19.9609 XXYY=          -1941.6260 XXZZ=          -1952.2695 YYZZ=           -354.2797
 XXYZ=           -166.9290 YYXZ=            -10.4498 ZZXY=            -36.0723
 N-N= 1.595058758394D+03 E-N=-5.499747345135D+03  KE= 9.813090393992D+02
 1\1\GINC-NODE003\FOpt\RB3LYP\6-31G(d)\C12H22N4O4\MANAGER\30-Dec-2016\0
 \\# b3lyp/6-31G* Opt=(ModRedundant, maxcycles=1000, calcfc) geom=nocro
 wd\\Phi Psi fixed scan\\0,1\H,9.3345191822,2.7128982478,2.9105191693\C
 ,9.1836397764,2.1329802773,1.9950022249\H,8.9195875304,1.1051475604,2.
 2617127975\H,10.1259070362,2.0935432866,1.438947986\C,8.1013732539,2.6
 986088805,1.0868067687\O,7.7686233549,2.1402062487,0.044089782\N,7.525
 5274204,3.8570538476,1.5129271976\H,7.8928925734,4.3838111273,2.298317
 1405\C,6.5722417423,4.5824595816,0.6977272927\H,6.9187813802,4.5607781
 196,-0.3447296172\C,5.1699774701,3.9432606646,0.7580412696\H,4.7821192
 893,3.9685524027,1.7814008456\H,4.4545843875,4.4550491052,0.1038705222
 \H,5.2497626104,2.9042629692,0.4299220597\C,6.5766348068,6.0408597644,
 1.202198043\O,7.1583352225,6.3516827147,2.2282476961\N,5.7624191956,6.
 896940356,0.4757636664\H,5.3886273659,6.4257524734,-0.3407101357\C,6.0
 231450687,8.3166078963,0.1633440439\H,5.5305385927,8.49938146,-0.79661
 80449\C,5.3724324274,9.2124112184,1.2400698532\H,5.8424491981,9.011267
 864,2.2069344725\H,5.492863196,10.2747326638,1.0015716982\H,4.30472642
 37,8.9865371151,1.3180013922\C,7.5094004422,8.7305240507,0.0297512678\
 O,8.4479061052,8.2050995309,0.6089207713\N,7.6799391603,9.7667392936,-
 0.8451233343\H,6.8968146032,10.279471859,-1.2392173031\C,8.956172973,1
 0.4451096861,-0.9806795669\H,9.4380680482,10.4770557262,0.005099856\C,
 9.8926369957,9.7084634287,-1.957541168\H,9.4471343417,9.6648746767,-2.
 9566918949\H,10.8668154607,10.2048638086,-2.032915692\H,10.051773767,8
 .6906209668,-1.5930123286\C,8.6479622545,11.8771179458,-1.454337075\O,
 7.5340191333,12.1864146844,-1.8734749138\N,9.6923905604,12.743049,-1.3
 897477842\H,10.5670357783,12.4129289232,-1.0068755178\C,9.603848504,14
 .1266631646,-1.8275867081\H,8.590885664,14.2889572464,-2.1970356559\H,
 9.7976734013,14.8149150171,-0.9970799795\H,10.3184143021,14.3311451458
 ,-2.6330110969\\Version=EM64L-G09RevA.02\State=1-A\HF=-990.4849096\RMS
 D=3.374e-09\RMSF=3.303e-03\Dipole=0.4725833,2.215917,-0.5556517\Quadru
 pole=8.841829,-3.8476632,-4.9941657,11.6656996,-1.4518163,-6.6394603\P
 G=C01 [X(C12H22N4O4)]\\@


 FROM THE ASHES OF OUR DESPAIR GROW THE FLOWERS OF TOMORROW.
 Job cpu time:  0 days  8 hours 24 minutes 51.4 seconds.
 File lengths (MBytes):  RWF=    608 Int=      0 D2E=      0 Chk=     11 Scr=      1
 Normal termination of Gaussian 09 at Fri Dec 30 01:12:33 2016.
