 Entering Gaussian System, Link 0=g09
 Initial command:
 /home/steboss/Software/g09/l1.exe /tmp/Gau-20349.inp -scrdir=/tmp/
 Entering Link 1 = /home/steboss/Software/g09/l1.exe PID=     20351.
  
 Copyright (c) 1988,1990,1992,1993,1995,1998,2003,2009, Gaussian, Inc.
                  All Rights Reserved.
  
 This is part of the Gaussian(R) 09 program.  It is based on
 the Gaussian(R) 03 system (copyright 2003, Gaussian, Inc.),
 the Gaussian(R) 98 system (copyright 1998, Gaussian, Inc.),
 the Gaussian(R) 94 system (copyright 1995, Gaussian, Inc.),
 the Gaussian 92(TM) system (copyright 1992, Gaussian, Inc.),
 the Gaussian 90(TM) system (copyright 1990, Gaussian, Inc.),
 the Gaussian 88(TM) system (copyright 1988, Gaussian, Inc.),
 the Gaussian 86(TM) system (copyright 1986, Carnegie Mellon
 University), and the Gaussian 82(TM) system (copyright 1983,
 Carnegie Mellon University). Gaussian is a federally registered
 trademark of Gaussian, Inc.
  
 This software contains proprietary and confidential information,
 including trade secrets, belonging to Gaussian, Inc.
  
 This software is provided under written license and may be
 used, copied, transmitted, or stored only in accord with that
 written license.
  
 The following legend is applicable only to US Government
 contracts under FAR:
  
                    RESTRICTED RIGHTS LEGEND
  
 Use, reproduction and disclosure by the US Government is
 subject to restrictions as set forth in subparagraphs (a)
 and (c) of the Commercial Computer Software - Restricted
 Rights clause in FAR 52.227-19.
  
 Gaussian, Inc.
 340 Quinnipiac St., Bldg. 40, Wallingford CT 06492
  
  
 ---------------------------------------------------------------
 Warning -- This program may not be used in any manner that
 competes with the business of Gaussian, Inc. or will provide
 assistance to any competitor of Gaussian, Inc.  The licensee
 of this program is prohibited from giving any competitor of
 Gaussian, Inc. access to this program.  By using this program,
 the user acknowledges that Gaussian, Inc. is engaged in the
 business of creating and licensing software in the field of
 computational chemistry and represents and warrants to the
 licensee that it is not a competitor of Gaussian, Inc. and that
 it will not use this program in any manner prohibited above.
 ---------------------------------------------------------------
  

 Cite this work as:
 Gaussian 09, Revision A.02,
 M. J. Frisch, G. W. Trucks, H. B. Schlegel, G. E. Scuseria, 
 M. A. Robb, J. R. Cheeseman, G. Scalmani, V. Barone, B. Mennucci, 
 G. A. Petersson, H. Nakatsuji, M. Caricato, X. Li, H. P. Hratchian, 
 A. F. Izmaylov, J. Bloino, G. Zheng, J. L. Sonnenberg, M. Hada, 
 M. Ehara, K. Toyota, R. Fukuda, J. Hasegawa, M. Ishida, T. Nakajima, 
 Y. Honda, O. Kitao, H. Nakai, T. Vreven, J. A. Montgomery, Jr., 
 J. E. Peralta, F. Ogliaro, M. Bearpark, J. J. Heyd, E. Brothers, 
 K. N. Kudin, V. N. Staroverov, R. Kobayashi, J. Normand, 
 K. Raghavachari, A. Rendell, J. C. Burant, S. S. Iyengar, J. Tomasi, 
 M. Cossi, N. Rega, J. M. Millam, M. Klene, J. E. Knox, J. B. Cross, 
 V. Bakken, C. Adamo, J. Jaramillo, R. Gomperts, R. E. Stratmann, 
 O. Yazyev, A. J. Austin, R. Cammi, C. Pomelli, J. W. Ochterski, 
 R. L. Martin, K. Morokuma, V. G. Zakrzewski, G. A. Voth, 
 P. Salvador, J. J. Dannenberg, S. Dapprich, A. D. Daniels, 
 O. Farkas, J. B. Foresman, J. V. Ortiz, J. Cioslowski, 
 and D. J. Fox, Gaussian, Inc., Wallingford CT, 2009.
 
 ******************************************
 Gaussian 09:  EM64L-G09RevA.02 11-Jun-2009
                29-Dec-2016 
 ******************************************
 %chk=structure_0.chk
 ----------------------------------------------------------------------
 # b3lyp/6-31G* Opt=(ModRedundant, maxcycles=1000, calcfc) geom=nocrowd
 ----------------------------------------------------------------------
 1/6=1000,10=4,14=-1,18=120,19=15,26=3,38=1/1,3;
 2/9=110,12=1,17=6,18=5,40=1/2;
 3/5=1,6=6,7=1,11=2,16=1,25=1,30=1,71=2,74=-5/1,2,3;
 4//1;
 5/5=2,38=5/2;
 8/6=4,10=90,11=11/1;
 11/6=1,8=1,9=11,15=111,16=1/1,2,10;
 10/6=1,7=6,13=1/2;
 6/7=2,8=2,9=2,10=2,28=1/1;
 7/10=1,18=20,25=1/1,2,3,16;
 1/6=1000,10=4,14=-1,18=20,19=15/3(2);
 2/9=110,12=1/2;
 99//99;
 2/9=110,12=1/2;
 3/5=1,6=6,7=1,11=2,16=1,25=1,30=1,71=1,74=-5/1,2,3;
 4/5=5,16=3/1;
 5/5=2,38=5/2;
 7//1,2,3,16;
 1/6=1000,14=-1,18=20,19=15/3(-5);
 2/9=110,12=1/2;
 6/7=2,8=2,9=2,10=2,19=2,28=1/1;
 99/9=1/99;
 ------------------
 Phi Psi fixed scan
 ------------------
 Symbolic Z-matrix:
 Charge =  0 Multiplicity = 1
 H                     9.1768    1.        1.923 
 C                     9.1768    2.09      1.923 
 H                     10.0666   2.4538    1.4093 
 H                     9.1768    2.4538    2.9505 
 C                     7.9406    2.6408    1.2093 
 O                     7.1065    1.8774    0.7277 
 N                     7.8298    3.9696    1.1453 
 H                     8.5419    4.5561    1.5565 
 C                     6.7058    4.6139    0.4964 
 H                     6.6707    4.3155   -0.5514 
 C                     5.39      4.2208    1.1594 
 H                     5.4064    4.5213    2.2071 
 H                     4.5638    4.7189    0.652 
 H                     5.2578    3.1409    1.0938 
 C                     6.8276    6.1294    0.5667 
 O                     7.7906    6.6527    1.1227 
 N                     5.846     6.8349    0. 
 H                     5.0745    6.3592   -0.4455 
 C                     5.8461    8.2839    0. 
 H                     5.3323    8.6477   -0.8898 
 C                     5.1347    8.8329    1.2322 
 H                     5.6431    8.4846    2.1312 
 H                     5.1499    9.9224    1.2058 
 H                     4.1019    8.4846    1.2414 
 C                     7.266     8.8318    0. 
 O                     7.4667    10.0443   0. 
 N                     8.2534    7.9333    0. 
 H                     8.0383    6.9465    0. 
 C                     9.6477    8.3279    0. 
 H                     9.8579    8.9213   -0.8898 
 C                     9.9822    9.1618    1.2321 
 H                     9.7855    8.5778    2.1312 
 H                     11.0348   9.4439    1.2058 
 H                     9.3659    10.0608   1.2414 
 C                     10.5615   7.1107    0. 
 O                     10.0892   5.9761    0. 
 N                     11.875    7.3494    0. 
 H                     12.2155   8.3003    0. 
 C                     12.8483   6.276     0. 
 H                     12.3316   5.3163    0. 
 H                     13.4733   6.3516   -0.8899 
 H                     13.4733   6.3516    0.8898 
 
 The following ModRedundant input section has been read:
 D   15   17   19   25 F                                                       
 D   17   19   25   27 F                                                       

 GradGradGradGradGradGradGradGradGradGradGradGradGradGradGradGradGradGrad
 Berny optimization.
 Initialization pass.
                           ----------------------------
                           !    Initial Parameters    !
                           ! (Angstroms and Degrees)  !
 --------------------------                            --------------------------
 ! Name  Definition              Value          Derivative Info.                !
 --------------------------------------------------------------------------------
 ! R1    R(1,2)                  1.09           calculate D2E/DX2 analytically  !
 ! R2    R(2,3)                  1.0899         calculate D2E/DX2 analytically  !
 ! R3    R(2,4)                  1.09           calculate D2E/DX2 analytically  !
 ! R4    R(2,5)                  1.53           calculate D2E/DX2 analytically  !
 ! R5    R(5,6)                  1.229          calculate D2E/DX2 analytically  !
 ! R6    R(5,7)                  1.3349         calculate D2E/DX2 analytically  !
 ! R7    R(7,8)                  1.01           calculate D2E/DX2 analytically  !
 ! R8    R(7,9)                  1.449          calculate D2E/DX2 analytically  !
 ! R9    R(9,10)                 1.09           calculate D2E/DX2 analytically  !
 ! R10   R(9,11)                 1.5249         calculate D2E/DX2 analytically  !
 ! R11   R(9,15)                 1.522          calculate D2E/DX2 analytically  !
 ! R12   R(11,12)                1.0901         calculate D2E/DX2 analytically  !
 ! R13   R(11,13)                1.09           calculate D2E/DX2 analytically  !
 ! R14   R(11,14)                1.0899         calculate D2E/DX2 analytically  !
 ! R15   R(15,16)                1.229          calculate D2E/DX2 analytically  !
 ! R16   R(15,17)                1.3351         calculate D2E/DX2 analytically  !
 ! R17   R(16,28)                1.1866         calculate D2E/DX2 analytically  !
 ! R18   R(17,18)                1.0099         calculate D2E/DX2 analytically  !
 ! R19   R(17,19)                1.449          calculate D2E/DX2 analytically  !
 ! R20   R(19,20)                1.09           calculate D2E/DX2 analytically  !
 ! R21   R(19,21)                1.5251         calculate D2E/DX2 analytically  !
 ! R22   R(19,25)                1.5219         calculate D2E/DX2 analytically  !
 ! R23   R(21,22)                1.0899         calculate D2E/DX2 analytically  !
 ! R24   R(21,23)                1.0899         calculate D2E/DX2 analytically  !
 ! R25   R(21,24)                1.09           calculate D2E/DX2 analytically  !
 ! R26   R(25,26)                1.229          calculate D2E/DX2 analytically  !
 ! R27   R(25,27)                1.335          calculate D2E/DX2 analytically  !
 ! R28   R(27,28)                1.01           calculate D2E/DX2 analytically  !
 ! R29   R(27,29)                1.4491         calculate D2E/DX2 analytically  !
 ! R30   R(29,30)                1.09           calculate D2E/DX2 analytically  !
 ! R31   R(29,31)                1.5249         calculate D2E/DX2 analytically  !
 ! R32   R(29,35)                1.522          calculate D2E/DX2 analytically  !
 ! R33   R(31,32)                1.09           calculate D2E/DX2 analytically  !
 ! R34   R(31,33)                1.0901         calculate D2E/DX2 analytically  !
 ! R35   R(31,34)                1.09           calculate D2E/DX2 analytically  !
 ! R36   R(35,36)                1.229          calculate D2E/DX2 analytically  !
 ! R37   R(35,37)                1.335          calculate D2E/DX2 analytically  !
 ! R38   R(37,38)                1.01           calculate D2E/DX2 analytically  !
 ! R39   R(37,39)                1.449          calculate D2E/DX2 analytically  !
 ! R40   R(39,40)                1.09           calculate D2E/DX2 analytically  !
 ! R41   R(39,41)                1.0901         calculate D2E/DX2 analytically  !
 ! R42   R(39,42)                1.09           calculate D2E/DX2 analytically  !
 ! A1    A(1,2,3)              109.4982         calculate D2E/DX2 analytically  !
 ! A2    A(1,2,4)              109.4972         calculate D2E/DX2 analytically  !
 ! A3    A(1,2,5)              111.1            calculate D2E/DX2 analytically  !
 ! A4    A(3,2,4)              109.4437         calculate D2E/DX2 analytically  !
 ! A5    A(3,2,5)              108.6383         calculate D2E/DX2 analytically  !
 ! A6    A(4,2,5)              108.6367         calculate D2E/DX2 analytically  !
 ! A7    A(2,5,6)              120.4994         calculate D2E/DX2 analytically  !
 ! A8    A(2,5,7)              116.6003         calculate D2E/DX2 analytically  !
 ! A9    A(6,5,7)              122.9003         calculate D2E/DX2 analytically  !
 ! A10   A(5,7,8)              119.9979         calculate D2E/DX2 analytically  !
 ! A11   A(5,7,9)              121.9015         calculate D2E/DX2 analytically  !
 ! A12   A(8,7,9)              118.1005         calculate D2E/DX2 analytically  !
 ! A13   A(7,9,10)             109.4955         calculate D2E/DX2 analytically  !
 ! A14   A(7,9,11)             111.1003         calculate D2E/DX2 analytically  !
 ! A15   A(7,9,15)             111.0996         calculate D2E/DX2 analytically  !
 ! A16   A(10,9,11)            108.6373         calculate D2E/DX2 analytically  !
 ! A17   A(10,9,15)            108.6363         calculate D2E/DX2 analytically  !
 ! A18   A(11,9,15)            107.7971         calculate D2E/DX2 analytically  !
 ! A19   A(9,11,12)            109.5014         calculate D2E/DX2 analytically  !
 ! A20   A(9,11,13)            109.5016         calculate D2E/DX2 analytically  !
 ! A21   A(9,11,14)            109.5055         calculate D2E/DX2 analytically  !
 ! A22   A(12,11,13)           109.4408         calculate D2E/DX2 analytically  !
 ! A23   A(12,11,14)           109.4391         calculate D2E/DX2 analytically  !
 ! A24   A(13,11,14)           109.4389         calculate D2E/DX2 analytically  !
 ! A25   A(9,15,16)            120.5033         calculate D2E/DX2 analytically  !
 ! A26   A(9,15,17)            116.5982         calculate D2E/DX2 analytically  !
 ! A27   A(16,15,17)           122.8984         calculate D2E/DX2 analytically  !
 ! A28   A(15,16,28)            80.8486         calculate D2E/DX2 analytically  !
 ! A29   A(15,17,18)           119.9997         calculate D2E/DX2 analytically  !
 ! A30   A(15,17,19)           121.8964         calculate D2E/DX2 analytically  !
 ! A31   A(18,17,19)           118.1039         calculate D2E/DX2 analytically  !
 ! A32   A(17,19,20)           109.4954         calculate D2E/DX2 analytically  !
 ! A33   A(17,19,21)           111.0974         calculate D2E/DX2 analytically  !
 ! A34   A(17,19,25)           111.1042         calculate D2E/DX2 analytically  !
 ! A35   A(20,19,21)           108.6349         calculate D2E/DX2 analytically  !
 ! A36   A(20,19,25)           108.6399         calculate D2E/DX2 analytically  !
 ! A37   A(21,19,25)           107.7944         calculate D2E/DX2 analytically  !
 ! A38   A(19,21,22)           109.4996         calculate D2E/DX2 analytically  !
 ! A39   A(19,21,23)           109.4977         calculate D2E/DX2 analytically  !
 ! A40   A(19,21,24)           109.4988         calculate D2E/DX2 analytically  !
 ! A41   A(22,21,23)           109.4452         calculate D2E/DX2 analytically  !
 ! A42   A(22,21,24)           109.4447         calculate D2E/DX2 analytically  !
 ! A43   A(23,21,24)           109.4412         calculate D2E/DX2 analytically  !
 ! A44   A(19,25,26)           120.4989         calculate D2E/DX2 analytically  !
 ! A45   A(19,25,27)           116.5987         calculate D2E/DX2 analytically  !
 ! A46   A(26,25,27)           122.9024         calculate D2E/DX2 analytically  !
 ! A47   A(25,27,28)           120.0043         calculate D2E/DX2 analytically  !
 ! A48   A(25,27,29)           121.8969         calculate D2E/DX2 analytically  !
 ! A49   A(28,27,29)           118.0988         calculate D2E/DX2 analytically  !
 ! A50   A(16,28,27)           106.6404         calculate D2E/DX2 analytically  !
 ! A51   A(27,29,30)           109.5003         calculate D2E/DX2 analytically  !
 ! A52   A(27,29,31)           111.0991         calculate D2E/DX2 analytically  !
 ! A53   A(27,29,35)           111.095          calculate D2E/DX2 analytically  !
 ! A54   A(30,29,31)           108.6373         calculate D2E/DX2 analytically  !
 ! A55   A(30,29,35)           108.6385         calculate D2E/DX2 analytically  !
 ! A56   A(31,29,35)           107.796          calculate D2E/DX2 analytically  !
 ! A57   A(29,31,32)           109.5052         calculate D2E/DX2 analytically  !
 ! A58   A(29,31,33)           109.5023         calculate D2E/DX2 analytically  !
 ! A59   A(29,31,34)           109.5052         calculate D2E/DX2 analytically  !
 ! A60   A(32,31,33)           109.4394         calculate D2E/DX2 analytically  !
 ! A61   A(32,31,34)           109.4399         calculate D2E/DX2 analytically  !
 ! A62   A(33,31,34)           109.4352         calculate D2E/DX2 analytically  !
 ! A63   A(29,35,36)           120.5025         calculate D2E/DX2 analytically  !
 ! A64   A(29,35,37)           116.5971         calculate D2E/DX2 analytically  !
 ! A65   A(36,35,37)           122.9004         calculate D2E/DX2 analytically  !
 ! A66   A(35,37,38)           120.0014         calculate D2E/DX2 analytically  !
 ! A67   A(35,37,39)           121.9002         calculate D2E/DX2 analytically  !
 ! A68   A(38,37,39)           118.0985         calculate D2E/DX2 analytically  !
 ! A69   A(37,39,40)           109.5021         calculate D2E/DX2 analytically  !
 ! A70   A(37,39,41)           109.497          calculate D2E/DX2 analytically  !
 ! A71   A(37,39,42)           109.4985         calculate D2E/DX2 analytically  !
 ! A72   A(40,39,41)           109.4429         calculate D2E/DX2 analytically  !
 ! A73   A(40,39,42)           109.4444         calculate D2E/DX2 analytically  !
 ! A74   A(41,39,42)           109.4423         calculate D2E/DX2 analytically  !
 ! D1    D(1,2,5,6)             -0.0022         calculate D2E/DX2 analytically  !
 ! D2    D(1,2,5,7)           -179.9987         calculate D2E/DX2 analytically  !
 ! D3    D(3,2,5,6)            120.5094         calculate D2E/DX2 analytically  !
 ! D4    D(3,2,5,7)            -59.4871         calculate D2E/DX2 analytically  !
 ! D5    D(4,2,5,6)           -120.5114         calculate D2E/DX2 analytically  !
 ! D6    D(4,2,5,7)             59.4921         calculate D2E/DX2 analytically  !
 ! D7    D(2,5,7,8)             -0.0058         calculate D2E/DX2 analytically  !
 ! D8    D(2,5,7,9)           -179.9989         calculate D2E/DX2 analytically  !
 ! D9    D(6,5,7,8)            179.9977         calculate D2E/DX2 analytically  !
 ! D10   D(6,5,7,9)              0.0046         calculate D2E/DX2 analytically  !
 ! D11   D(5,7,9,10)           -60.0034         calculate D2E/DX2 analytically  !
 ! D12   D(5,7,9,11)            59.9958         calculate D2E/DX2 analytically  !
 ! D13   D(5,7,9,15)           179.9991         calculate D2E/DX2 analytically  !
 ! D14   D(8,7,9,10)           120.0034         calculate D2E/DX2 analytically  !
 ! D15   D(8,7,9,11)          -119.9974         calculate D2E/DX2 analytically  !
 ! D16   D(8,7,9,15)             0.0059         calculate D2E/DX2 analytically  !
 ! D17   D(7,9,11,12)           60.0015         calculate D2E/DX2 analytically  !
 ! D18   D(7,9,11,13)         -179.9986         calculate D2E/DX2 analytically  !
 ! D19   D(7,9,11,14)          -59.9987         calculate D2E/DX2 analytically  !
 ! D20   D(10,9,11,12)        -179.4908         calculate D2E/DX2 analytically  !
 ! D21   D(10,9,11,13)         -59.4909         calculate D2E/DX2 analytically  !
 ! D22   D(10,9,11,14)          60.5091         calculate D2E/DX2 analytically  !
 ! D23   D(15,9,11,12)         -61.9448         calculate D2E/DX2 analytically  !
 ! D24   D(15,9,11,13)          58.055          calculate D2E/DX2 analytically  !
 ! D25   D(15,9,11,14)         178.055          calculate D2E/DX2 analytically  !
 ! D26   D(7,9,15,16)           -0.0028         calculate D2E/DX2 analytically  !
 ! D27   D(7,9,15,17)          179.9997         calculate D2E/DX2 analytically  !
 ! D28   D(10,9,15,16)        -120.5094         calculate D2E/DX2 analytically  !
 ! D29   D(10,9,15,17)          59.493          calculate D2E/DX2 analytically  !
 ! D30   D(11,9,15,16)         121.944          calculate D2E/DX2 analytically  !
 ! D31   D(11,9,15,17)         -58.0536         calculate D2E/DX2 analytically  !
 ! D32   D(9,15,16,28)         110.6702         calculate D2E/DX2 analytically  !
 ! D33   D(17,15,16,28)        -69.3324         calculate D2E/DX2 analytically  !
 ! D34   D(9,15,17,18)          -0.0061         calculate D2E/DX2 analytically  !
 ! D35   D(9,15,17,19)        -179.9983         calculate D2E/DX2 analytically  !
 ! D36   D(16,15,17,18)        179.9964         calculate D2E/DX2 analytically  !
 ! D37   D(16,15,17,19)          0.0042         calculate D2E/DX2 analytically  !
 ! D38   D(15,16,28,27)        131.6359         calculate D2E/DX2 analytically  !
 ! D39   D(15,17,19,20)        150.0024         calculate D2E/DX2 analytically  !
 ! D40   D(15,17,19,21)        -90.0034         calculate D2E/DX2 analytically  !
 ! D41   D(15,17,19,25)         29.9976         frozen, calculate D2E/DX2 analyt!
 ! D42   D(18,17,19,20)        -29.99           calculate D2E/DX2 analytically  !
 ! D43   D(18,17,19,21)         90.0043         calculate D2E/DX2 analytically  !
 ! D44   D(18,17,19,25)       -149.9948         calculate D2E/DX2 analytically  !
 ! D45   D(17,19,21,22)         60.0039         calculate D2E/DX2 analytically  !
 ! D46   D(17,19,21,23)       -179.9943         calculate D2E/DX2 analytically  !
 ! D47   D(17,19,21,24)        -59.998          calculate D2E/DX2 analytically  !
 ! D48   D(20,19,21,22)       -179.4919         calculate D2E/DX2 analytically  !
 ! D49   D(20,19,21,23)        -59.4901         calculate D2E/DX2 analytically  !
 ! D50   D(20,19,21,24)         60.5062         calculate D2E/DX2 analytically  !
 ! D51   D(25,19,21,22)        -61.9445         calculate D2E/DX2 analytically  !
 ! D52   D(25,19,21,23)         58.0573         calculate D2E/DX2 analytically  !
 ! D53   D(25,19,21,24)        178.0536         calculate D2E/DX2 analytically  !
 ! D54   D(17,19,25,26)        180.0            calculate D2E/DX2 analytically  !
 ! D55   D(17,19,25,27)          0.0            frozen, calculate D2E/DX2 analyt!
 ! D56   D(20,19,25,26)         59.4883         calculate D2E/DX2 analytically  !
 ! D57   D(20,19,25,27)       -120.5117         calculate D2E/DX2 analytically  !
 ! D58   D(21,19,25,26)        -58.0558         calculate D2E/DX2 analytically  !
 ! D59   D(21,19,25,27)        121.9442         calculate D2E/DX2 analytically  !
 ! D60   D(19,25,27,28)          0.0            calculate D2E/DX2 analytically  !
 ! D61   D(19,25,27,29)        180.0            calculate D2E/DX2 analytically  !
 ! D62   D(26,25,27,28)        180.0            calculate D2E/DX2 analytically  !
 ! D63   D(26,25,27,29)          0.0            calculate D2E/DX2 analytically  !
 ! D64   D(25,27,28,16)        -80.919          calculate D2E/DX2 analytically  !
 ! D65   D(29,27,28,16)         99.081          calculate D2E/DX2 analytically  !
 ! D66   D(25,27,29,30)        -59.9996         calculate D2E/DX2 analytically  !
 ! D67   D(25,27,29,31)         60.002          calculate D2E/DX2 analytically  !
 ! D68   D(25,27,29,35)        180.0            calculate D2E/DX2 analytically  !
 ! D69   D(28,27,29,30)        120.0004         calculate D2E/DX2 analytically  !
 ! D70   D(28,27,29,31)       -119.998          calculate D2E/DX2 analytically  !
 ! D71   D(28,27,29,35)          0.0            calculate D2E/DX2 analytically  !
 ! D72   D(27,29,31,32)         59.9983         calculate D2E/DX2 analytically  !
 ! D73   D(27,29,31,33)        179.9992         calculate D2E/DX2 analytically  !
 ! D74   D(27,29,31,34)        -60.005          calculate D2E/DX2 analytically  !
 ! D75   D(30,29,31,32)       -179.4887         calculate D2E/DX2 analytically  !
 ! D76   D(30,29,31,33)        -59.4878         calculate D2E/DX2 analytically  !
 ! D77   D(30,29,31,34)         60.5079         calculate D2E/DX2 analytically  !
 ! D78   D(35,29,31,32)        -61.9409         calculate D2E/DX2 analytically  !
 ! D79   D(35,29,31,33)         58.0601         calculate D2E/DX2 analytically  !
 ! D80   D(35,29,31,34)        178.0558         calculate D2E/DX2 analytically  !
 ! D81   D(27,29,35,36)          0.0            calculate D2E/DX2 analytically  !
 ! D82   D(27,29,35,37)        180.0            calculate D2E/DX2 analytically  !
 ! D83   D(30,29,35,36)       -120.5111         calculate D2E/DX2 analytically  !
 ! D84   D(30,29,35,37)         59.4889         calculate D2E/DX2 analytically  !
 ! D85   D(31,29,35,36)        121.9417         calculate D2E/DX2 analytically  !
 ! D86   D(31,29,35,37)        -58.0583         calculate D2E/DX2 analytically  !
 ! D87   D(29,35,37,38)          0.0            calculate D2E/DX2 analytically  !
 ! D88   D(29,35,37,39)        180.0            calculate D2E/DX2 analytically  !
 ! D89   D(36,35,37,38)        180.0            calculate D2E/DX2 analytically  !
 ! D90   D(36,35,37,39)          0.0            calculate D2E/DX2 analytically  !
 ! D91   D(35,37,39,40)          0.0            calculate D2E/DX2 analytically  !
 ! D92   D(35,37,39,41)        120.0            calculate D2E/DX2 analytically  !
 ! D93   D(35,37,39,42)       -120.0028         calculate D2E/DX2 analytically  !
 ! D94   D(38,37,39,40)        180.0            calculate D2E/DX2 analytically  !
 ! D95   D(38,37,39,41)        -60.0            calculate D2E/DX2 analytically  !
 ! D96   D(38,37,39,42)         59.9972         calculate D2E/DX2 analytically  !
 --------------------------------------------------------------------------------
 Trust Radius=3.00D-01 FncErr=1.00D-07 GrdErr=1.00D-06
 Number of steps in this run= 252 maximum allowed number of steps= 252.
 GradGradGradGradGradGradGradGradGradGradGradGradGradGradGradGradGradGrad

                          Input orientation:                          
 ---------------------------------------------------------------------
 Center     Atomic      Atomic             Coordinates (Angstroms)
 Number     Number       Type             X           Y           Z
 ---------------------------------------------------------------------
      1          1           0        9.176800    1.000000    1.923000
      2          6           0        9.176800    2.090000    1.923000
      3          1           0       10.066600    2.453800    1.409300
      4          1           0        9.176800    2.453800    2.950500
      5          6           0        7.940600    2.640800    1.209300
      6          8           0        7.106500    1.877400    0.727700
      7          7           0        7.829800    3.969600    1.145300
      8          1           0        8.541900    4.556100    1.556500
      9          6           0        6.705800    4.613900    0.496400
     10          1           0        6.670700    4.315500   -0.551400
     11          6           0        5.390000    4.220800    1.159400
     12          1           0        5.406400    4.521300    2.207100
     13          1           0        4.563800    4.718900    0.652000
     14          1           0        5.257800    3.140900    1.093800
     15          6           0        6.827600    6.129400    0.566700
     16          8           0        7.790600    6.652700    1.122700
     17          7           0        5.846000    6.834900    0.000000
     18          1           0        5.074500    6.359200   -0.445500
     19          6           0        5.846100    8.283900    0.000000
     20          1           0        5.332300    8.647700   -0.889800
     21          6           0        5.134700    8.832900    1.232200
     22          1           0        5.643100    8.484600    2.131200
     23          1           0        5.149900    9.922400    1.205800
     24          1           0        4.101900    8.484600    1.241400
     25          6           0        7.266000    8.831800    0.000000
     26          8           0        7.466700   10.044300    0.000000
     27          7           0        8.253400    7.933300    0.000000
     28          1           0        8.038300    6.946500    0.000000
     29          6           0        9.647700    8.327900    0.000000
     30          1           0        9.857900    8.921300   -0.889800
     31          6           0        9.982200    9.161800    1.232100
     32          1           0        9.785500    8.577800    2.131200
     33          1           0       11.034800    9.443900    1.205800
     34          1           0        9.365900   10.060800    1.241400
     35          6           0       10.561500    7.110700    0.000000
     36          8           0       10.089200    5.976100    0.000000
     37          7           0       11.875000    7.349400    0.000000
     38          1           0       12.215500    8.300300    0.000000
     39          6           0       12.848300    6.276000    0.000000
     40          1           0       12.331600    5.316300    0.000000
     41          1           0       13.473300    6.351600   -0.889900
     42          1           0       13.473300    6.351600    0.889800
 ---------------------------------------------------------------------
                    Distance matrix (angstroms):
                    1          2          3          4          5
     1  H    0.000000
     2  C    1.090000   0.000000
     3  H    1.780215   1.089946   0.000000
     4  H    1.780250   1.090003   1.779618   0.000000
     5  C    2.174806   1.530013   2.143559   2.143580   0.000000
     6  O    2.546510   2.400017   3.091764   3.091799   1.229000
     7  N    3.352275   2.439697   2.714889   2.714923   1.334946
     8  H    3.630877   2.572755   2.601162   2.601153   2.037274
     9  C    4.604487   3.809344   4.098097   4.098107   2.434354
    10  H    4.836914   4.166058   4.340784   4.691457   2.741775
    11  C    5.029562   4.411717   5.005530   4.546447   3.000742
    12  H    5.166835   4.495314   5.160281   4.363842   3.309691
    13  H    6.060151   5.459517   5.998749   5.629702   4.003981
    14  H    4.541980   4.141319   4.867875   4.390672   2.731457
    15  C    5.802502   4.865701   4.971029   4.971044   3.717800
    16  O    5.874951   4.835314   4.784671   4.784680   4.015637
    17  N    6.988434   6.107883   6.244488   6.244495   4.841511
    18  H    7.152600   6.376890   6.604051   6.604077   4.977890
    19  C    8.236910   7.290809   7.334086   7.334104   6.139537
    20  H    9.009958   8.105273   8.127967   8.239689   6.876940
    21  C    8.841386   7.891925   8.065229   7.744937   6.798213
    22  H    8.279470   7.308987   7.513923   7.037673   6.346527
    23  H    9.815270   8.836107   8.944011   8.662557   7.798059
    24  H    9.068540   8.192075   8.483890   8.065121   6.991899
    25  C    8.287712   7.266426   7.106924   7.282547   6.343971
    26  O    9.403283   8.360219   8.146244   8.321393   7.516568
    27  N    7.254050   6.220511   5.941274   6.291505   5.437905
    28  H    6.352556   5.345999   5.126839   5.494177   4.473366
    29  C    7.590639   6.544545   6.055300   6.590315   6.059678
    30  H    8.433430   7.419057   6.867166   7.552507   6.893979
    31  C    8.230492   7.150970   6.710871   6.971286   6.833161
    32  H    7.605059   6.519617   6.172806   6.208474   6.285024
    33  H    8.675597   7.618818   7.059768   7.440272   7.473704
    34  H    9.088368   8.002124   7.641048   7.798925   7.555720
    35  C    6.554081   5.551824   4.890580   5.684150   5.320858
    36  O    5.412206   4.430821   3.793842   4.684498   4.147664
    37  N    7.161920   6.216068   5.405861   6.320810   6.254025
    38  H    8.137936   7.176312   6.386350   7.219467   7.194937
    39  C    6.709249   5.890708   4.932869   6.065853   6.225962
    40  H    5.681649   4.905069   3.912832   5.181903   5.282195
    41  H    7.417004   6.673346   5.664342   6.957114   6.984801
    42  H    6.940248   6.139108   5.202723   6.156236   6.669549
                    6          7          8          9         10
     6  O    0.000000
     7  N    2.252744   0.000000
     8  H    3.150034   1.010027   0.000000
     9  C    2.775336   1.448989   2.120947   0.000000
    10  H    2.787535   2.083735   2.828873   1.090027   0.000000
    11  C    2.936709   2.452738   3.194462   1.524935   2.139158
    12  H    3.474071   2.702713   3.202476   2.150235   3.041403
    13  H    3.813814   3.386968   4.082879   2.150209   2.459661
    14  H    2.268954   2.702699   3.605856   2.150191   2.466304
    15  C    4.264178   2.450290   2.528597   1.522011   2.136586
    16  O    4.840197   2.683482   2.269001   2.392854   3.085335
    17  N    5.166741   3.668395   3.857914   2.432799   2.707683
    18  H    5.058849   3.979009   4.391132   2.567954   2.595338
    19  C    6.569733   4.884666   4.856596   3.801894   4.090502
    20  H    7.183387   5.680120   5.746921   4.481026   4.546844
    21  C    7.247172   5.560828   5.477700   4.561767   5.093862
    22  H    6.911327   5.112620   4.915937   4.334077   5.062973
    23  H    8.293304   6.528503   6.358131   5.577118   6.069424
    24  H    7.276441   5.855911   5.936834   4.724155   5.214812
    25  C    6.994188   5.026984   4.725698   4.283797   4.588615
    26  O    8.207164   6.192377   5.805091   5.505872   5.810061
    27  N    6.206356   4.147537   3.729800   3.695930   3.987162
    28  H    5.205149   3.196423   2.896604   2.731848   3.016046
    29  C    6.971097   4.859141   4.227524   4.763925   5.026522
    30  H    7.733242   5.724872   5.174090   5.514615   5.611252
    31  C    7.847710   5.621326   4.836545   5.653269   6.134617
    32  H    7.351341   5.102183   4.248634   5.279169   5.921615
    33  H    8.538855   6.343788   5.498011   6.524752   6.959426
    34  H    8.505105   6.282639   5.574943   6.107362   6.594445
    35  C    6.313003   4.317454   3.609357   4.620265   4.822397
    36  O    5.121073   3.231508   2.614045   3.680951   3.840283
    37  N    7.294582   5.394294   4.618958   5.869412   6.049242
    38  H    8.239240   6.269054   5.471477   6.647763   6.850363
    39  C    7.269491   5.640615   4.891404   6.382734   6.504640
    40  H    6.297400   4.836478   4.166824   5.691169   5.775070
    41  H    7.948034   6.454847   5.790285   7.123236   7.108843
    42  H    7.783372   6.130929   5.290276   6.998101   7.245559
                   11         12         13         14         15
    11  C    0.000000
    12  H    1.090066   0.000000
    13  H    1.090030   1.779707   0.000000
    14  H    1.089938   1.779613   1.779581   0.000000
    15  C    2.461857   2.701242   2.668628   3.416612   0.000000
    16  O    3.417362   3.376862   3.791224   4.329971   1.228962
    17  N    2.895801   3.227582   2.558632   3.897180   1.335072
    18  H    2.692211   3.244121   2.038604   3.572184   2.037331
    19  C    4.249826   4.384266   3.844297   5.290836   2.434412
    20  H    4.878524   5.159792   4.289896   5.853637   3.270955
    21  C    4.619734   4.428786   4.193752   5.695013   3.258483
    22  H    4.380462   3.971087   4.187292   5.457086   3.065562
    23  H    5.706842   5.499116   5.265607   6.783283   4.196424
    24  H    4.454876   4.282761   3.839432   5.469280   3.664919
    25  C    5.111253   5.187467   4.964165   6.133156   2.795766
    26  O    6.290472   6.294415   6.100149   7.330250   4.006999
    27  N    4.829692   4.961698   4.936661   5.756485   2.368145
    28  H    3.973304   4.204733   4.178451   4.838406   1.566715
    29  C    6.028307   6.111474   6.268654   6.882775   3.620430
    30  H    6.801180   6.983312   6.932879   7.649092   4.370219
    31  C    6.745893   6.589599   7.030998   7.654431   4.426026
    32  H    6.264844   5.969713   6.659226   7.150954   4.146263
    33  H    7.690689   7.544102   8.031573   8.550677   5.393968
    34  H    7.065416   6.877229   7.207181   8.048807   4.728012
    35  C    6.036567   6.176677   6.489855   6.714532   3.902065
    36  O    5.148569   5.377392   5.704007   5.707643   3.314013
    37  N    7.292981   7.396771   7.797325   7.918030   5.223581
    38  H    8.035794   8.094194   8.473491   8.730716   5.836388
    39  C    7.822678   7.958149   8.454739   8.284983   6.049088
    40  H    7.122509   7.311752   7.817973   7.481137   5.592521
    41  H    8.606955   8.832683   9.188164   9.040913   6.807083
    42  H    8.363775   8.376166   9.060985   8.822962   6.657259
                   16         17         18         19         20
    16  O    0.000000
    17  N    2.252803   0.000000
    18  H    3.150015   1.009937   0.000000
    19  C    2.775311   1.449000   2.120921   0.000000
    20  H    3.751456   2.083717   2.345441   1.089993   0.000000
    21  C    3.437887   2.452808   2.989564   1.525060   2.139212
    22  H    2.997447   2.702719   3.388217   2.150233   3.041322
    23  H    4.203706   3.386911   3.927960   2.150193   2.459608
    24  H    4.120249   2.702678   2.882518   2.150253   2.466272
    25  C    2.506818   2.450308   3.333901   1.521943   2.136547
    26  O    3.587244   3.595402   4.416000   2.392771   2.701462
    27  N    1.764816   2.646140   3.575146   2.432697   3.136070
    28  H    1.186646   2.195139   3.054096   2.567952   3.317870
    29  C    2.741454   4.084357   4.998841   3.801855   4.417770
    30  H    3.670209   4.608704   5.444509   4.158433   4.533863
    31  C    3.333266   4.903130   5.895289   4.404101   5.136957
    32  H    2.950035   4.806181   5.809913   4.488570   5.381665
    33  H    4.280483   5.931651   6.911392   5.451803   6.127314
    34  H    3.756435   4.933275   5.913002   4.133696   4.775855
    35  C    3.024584   4.723559   5.556113   4.859156   5.522558
    36  O    2.646092   4.329236   5.049005   4.830097   5.527865
    37  N    4.292804   6.050913   6.886637   6.100895   6.729357
    38  H    4.853327   6.535895   7.413516   6.369421   6.949163
    39  C    5.194486   7.024569   7.786999   7.284399   7.931391
    40  H    4.864885   6.661017   7.345176   7.132206   7.802575
    41  H    6.036083   7.694232   8.410552   7.918326   8.458602
    42  H    5.695435   7.694220   8.504289   7.918315   8.643780
                   21         22         23         24         25
    21  C    0.000000
    22  H    1.089947   0.000000
    23  H    1.089926   1.779573   0.000000
    24  H    1.089988   1.779618   1.779562   0.000000
    25  C    2.461861   2.701179   2.668565   3.416599   0.000000
    26  O    2.902418   3.209392   2.614646   3.910961   1.228998
    27  N    3.471871   3.414617   3.878426   4.368061   1.335013
    28  H    3.675284   3.555945   4.318887   4.404778   2.037352
    29  C    4.705370   4.539096   4.922051   5.685202   2.434422
    30  H    5.178737   5.204007   5.249667   6.153394   2.741842
    31  C    4.858645   4.482719   4.891863   5.919173   3.000785
    32  H    4.743756   4.143448   4.914581   5.753585   3.309745
    33  H    5.931711   5.554012   5.904321   6.999045   4.004057
    34  H    4.405778   4.139492   4.218421   5.494916   2.731500
    35  C    5.825328   5.533559   6.216512   6.719755   3.717863
    36  O    5.850358   5.531943   6.436142   6.609191   4.015654
    37  N    7.010758   6.683358   7.300771   7.953039   4.841528
    38  H    7.206921   6.911760   7.349004   8.210088   4.977956
    39  C    8.219226   7.831656   8.603229   9.105960   6.139559
    40  H    8.104330   7.701699   8.616666   8.905457   6.165958
    41  H    8.955021   8.659605   9.296320   9.844555   6.743433
    42  H    8.706683   8.209921   9.062530   9.617507   6.743420
                   26         27         28         29         30
    26  O    0.000000
    27  N    2.252824   0.000000
    28  H    3.150094   1.009971   0.000000
    29  C    2.775390   1.449062   2.120951   0.000000
    30  H    2.787599   2.083821   2.828873   1.089978   0.000000
    31  C    2.936770   2.452760   3.194428   1.524910   2.139100
    32  H    3.474114   2.702725   3.202477   2.150221   3.041328
    33  H    3.813892   3.387042   4.082888   2.150222   2.459623
    34  H    2.268988   2.702774   3.605892   2.150216   2.466280
    35  C    4.264246   2.450305   2.528537   1.522040   2.136602
    36  O    4.840223   2.683429   2.268891   2.392882   3.085360
    37  N    5.166778   3.668368   3.857797   2.432761   2.707638
    38  H    5.058917   3.979061   4.391102   2.567948   2.595316
    39  C    6.569757   4.884644   4.856508   3.801859   4.090458
    40  H    6.783895   4.845658   4.592382   4.033987   4.461722
    41  H    7.106842   5.526396   5.539409   4.396919   4.435592
    42  H    7.106829   5.526380   5.539393   4.396899   4.779273
                   31         32         33         34         35
    31  C    0.000000
    32  H    1.090013   0.000000
    33  H    1.090064   1.779675   0.000000
    34  H    1.090006   1.779634   1.779624   0.000000
    35  C    2.461843   2.701217   2.668668   3.416668   0.000000
    36  O    3.417339   3.376846   3.791273   4.330013   1.228977
    37  N    2.895782   3.227536   2.558675   3.897223   1.335013
    38  H    2.692189   3.244059   2.038585   3.572206   2.037367
    39  C    4.249758   4.384181   3.844259   5.290831   2.434374
    40  H    4.671790   4.654248   4.491406   5.731207   2.520541
    41  H    4.958617   5.261452   4.461004   5.930543   3.137951
    42  H    4.494683   4.482958   3.950754   5.545496   3.137922
                   36         37         38         39         40
    36  O    0.000000
    37  N    2.252784   0.000000
    38  H    3.150088   1.010025   0.000000
    39  C    2.775351   1.448965   2.120902   0.000000
    40  H    2.337455   2.083742   2.986258   1.089955   0.000000
    41  H    3.519241   2.083768   2.484233   1.090074   1.779676
    42  H    3.519215   2.083725   2.484197   1.089993   1.779626
                   41         42
    41  H    0.000000
    42  H    1.779700   0.000000
 Stoichiometry    C12H22N4O4
 Framework group  C1[X(C12H22N4O4)]
 Deg. of freedom   120
 Full point group                 C1      NOp   1
 Largest Abelian subgroup         C1      NOp   1
 Largest concise Abelian subgroup C1      NOp   1
                         Standard orientation:                         
 ---------------------------------------------------------------------
 Center     Atomic      Atomic             Coordinates (Angstroms)
 Number     Number       Type             X           Y           Z
 ---------------------------------------------------------------------
      1          1           0        5.106487    2.197346    0.674904
      2          6           0        4.059368    1.932996    0.822422
      3          1           0        3.424682    2.722579    0.420286
      4          1           0        3.860566    1.814828    1.887608
      5          6           0        3.717133    0.621456    0.112720
      6          8           0        4.576598    0.011796   -0.519796
      7          7           0        2.457356    0.193612    0.222235
      8          1           0        1.786282    0.729920    0.753447
      9          6           0        2.008340   -1.033691   -0.403610
     10          1           0        2.149617   -0.964830   -1.482247
     11          6           0        2.793542   -2.233614    0.115108
     12          1           0        2.654644   -2.321116    1.192742
     13          1           0        2.435489   -3.140804   -0.371687
     14          1           0        3.852518   -2.097998   -0.104309
     15          6           0        0.534044   -1.285173   -0.121254
     16          8           0       -0.114257   -0.494456    0.560524
     17          7           0        0.004705   -2.391627   -0.648490
     18          1           0        0.578318   -3.011408   -1.202396
     19          6           0       -1.387314   -2.742946   -0.452378
     20          1           0       -1.746111   -3.303486   -1.315595
     21          6           0       -1.566224   -3.601843    0.795057
     22          1           0       -1.219694   -3.050566    1.669125
     23          1           0       -2.620319   -3.850564    0.917371
     24          1           0       -0.986688   -4.519155    0.691374
     25          6           0       -2.248548   -1.498936   -0.287982
     26          8           0       -3.460683   -1.598375   -0.111129
     27          7           0       -1.618277   -0.323539   -0.346828
     28          1           0       -0.619567   -0.292802   -0.494050
     29          6           0       -2.326204    0.932825   -0.204806
     30          1           0       -3.076327    1.018670   -0.990934
     31          6           0       -3.025500    1.019053    1.147562
     32          1           0       -2.286228    0.943749    1.945016
     33          1           0       -3.548619    1.972118    1.226636
     34          1           0       -3.742412    0.203123    1.239256
     35          6           0       -1.372413    2.114143   -0.311462
     36          8           0       -0.171055    1.931317   -0.495034
     37          7           0       -1.911516    3.329964   -0.195675
     38          1           0       -2.905315    3.429535   -0.045340
     39          6           0       -1.109901    4.534106   -0.279087
     40          1           0       -0.066091    4.265807   -0.441811
     41          1           0       -1.460441    5.147767   -1.109029
     42          1           0       -1.199444    5.095913    0.650665
 ---------------------------------------------------------------------
 Rotational constants (GHZ):      0.3719268      0.2841980      0.1706815
 Standard basis: 6-31G(d) (6D, 7F)
 There are   344 symmetry adapted basis functions of A   symmetry.
 Integral buffers will be    131072 words long.
 Raffenetti 2 integral format.
 Two-electron integral symmetry is turned on.
   344 basis functions,   648 primitive gaussians,   344 cartesian basis functions
    77 alpha electrons       77 beta electrons
       nuclear repulsion energy      1753.4869780648 Hartrees.
 NAtoms=   42 NActive=   42 NUniq=   42 SFac= 7.50D-01 NAtFMM=   80 NAOKFM=F Big=F
 One-electron integrals computed using PRISM.
 NBasis=   344 RedAO= T  NBF=   344
 NBsUse=   344 1.00D-06 NBFU=   344
 Harris functional with IExCor=  402 diagonalized for initial guess.
 ExpMin= 1.61D-01 ExpMax= 5.48D+03 ExpMxC= 8.25D+02 IAcc=1 IRadAn=         1 AccDes= 0.00D+00
 HarFok:  IExCor=  402 AccDes= 0.00D+00 IRadAn=         1 IDoV= 1
 ScaDFX=  1.000000  1.000000  1.000000  1.000000
 FoFCou: FMM=F IPFlag=           0 FMFlag=      100000 FMFlg1=           0
         NFxFlg=           0 DoJE=T BraDBF=F KetDBF=T FulRan=T
         Omega=  0.000000  0.000000  1.000000  0.000000  0.000000 ICntrl=     500 IOpCl=  0
         NMat0=    1 NMatS0=    1 NMatT0=    0 NMatD0=    1 NMtDS0=    0 NMtDT0=    0
         I1Cent=           4 NGrid=           0.
 Petite list used in FoFCou.
 Initial guess orbital symmetries:
       Occupied  (A) (A) (A) (A) (A) (A) (A) (A) (A) (A) (A) (A)
                 (A) (A) (A) (A) (A) (A) (A) (A) (A) (A) (A) (A)
                 (A) (A) (A) (A) (A) (A) (A) (A) (A) (A) (A) (A)
                 (A) (A) (A) (A) (A) (A) (A) (A) (A) (A) (A) (A)
                 (A) (A) (A) (A) (A) (A) (A) (A) (A) (A) (A) (A)
                 (A) (A) (A) (A) (A) (A) (A) (A) (A) (A) (A) (A)
                 (A) (A) (A) (A) (A)
       Virtual   (A) (A) (A) (A) (A) (A) (A) (A) (A) (A) (A) (A)
                 (A) (A) (A) (A) (A) (A) (A) (A) (A) (A) (A) (A)
                 (A) (A) (A) (A) (A) (A) (A) (A) (A) (A) (A) (A)
                 (A) (A) (A) (A) (A) (A) (A) (A) (A) (A) (A) (A)
                 (A) (A) (A) (A) (A) (A) (A) (A) (A) (A) (A) (A)
                 (A) (A) (A) (A) (A) (A) (A) (A) (A) (A) (A) (A)
                 (A) (A) (A) (A) (A) (A) (A) (A) (A) (A) (A) (A)
                 (A) (A) (A) (A) (A) (A) (A) (A) (A) (A) (A) (A)
                 (A) (A) (A) (A) (A) (A) (A) (A) (A) (A) (A) (A)
                 (A) (A) (A) (A) (A) (A) (A) (A) (A) (A) (A) (A)
                 (A) (A) (A) (A) (A) (A) (A) (A) (A) (A) (A) (A)
                 (A) (A) (A) (A) (A) (A) (A) (A) (A) (A) (A) (A)
                 (A) (A) (A) (A) (A) (A) (A) (A) (A) (A) (A) (A)
                 (A) (A) (A) (A) (A) (A) (A) (A) (A) (A) (A) (A)
                 (A) (A) (A) (A) (A) (A) (A) (A) (A) (A) (A) (A)
                 (A) (A) (A) (A) (A) (A) (A) (A) (A) (A) (A) (A)
                 (A) (A) (A) (A) (A) (A) (A) (A) (A) (A) (A) (A)
                 (A) (A) (A) (A) (A) (A) (A) (A) (A) (A) (A) (A)
                 (A) (A) (A) (A) (A) (A) (A) (A) (A) (A) (A) (A)
                 (A) (A) (A) (A) (A) (A) (A) (A) (A) (A) (A) (A)
                 (A) (A) (A) (A) (A) (A) (A) (A) (A) (A) (A) (A)
                 (A) (A) (A) (A) (A) (A) (A) (A) (A) (A) (A) (A)
                 (A) (A) (A)
 The electronic state of the initial guess is 1-A.
 Requested convergence on RMS density matrix=1.00D-08 within 128 cycles.
 Requested convergence on MAX density matrix=1.00D-06.
 Requested convergence on             energy=1.00D-06.
 No special actions if energy rises.
 Integral accuracy reduced to 1.0D-05 until final iterations.
 Initial convergence to 1.0D-05 achieved.  Increase integral accuracy.
 SCF Done:  E(RB3LYP) =  -990.290296478     A.U. after   16 cycles
             Convg  =    0.4863D-08             -V/T =  2.0074
 Range of M.O.s used for correlation:     1   344
 NBasis=   344 NAE=    77 NBE=    77 NFC=     0 NFV=     0
 NROrb=    344 NOA=    77 NOB=    77 NVA=   267 NVB=   267
 Symmetrizing basis deriv contribution to polar:
 IMax=3 JMax=2 DiffMx= 0.00D+00
 G2DrvN: will do    43 centers at a time, making    1 passes doing MaxLOS=2.
 Calling FoFCou, ICntrl=  3107 FMM=F I1Cent=   0 AccDes= 0.00D+00.
 FoFDir/FoFCou used for L=0 through L=2.
 End of G2Drv Frequency-dependent properties file   721 does not exist.
 End of G2Drv Frequency-dependent properties file   722 does not exist.
          IDoAtm=111111111111111111111111111111111111111111
          Differentiating once with respect to nuclear coordinates.
          There are   129 degrees of freedom in the 1st order CPHF.  IDoFFX=5.
    123 vectors produced by pass  0 Test12= 2.06D-10 1.00D-07 XBig12= 1.83D-01 1.82D-01.
 AX will form   123 AO Fock derivatives at one time.
    123 vectors produced by pass  1 Test12= 2.06D-10 1.00D-07 XBig12= 5.61D-02 6.68D-02.
    123 vectors produced by pass  2 Test12= 2.06D-10 1.00D-07 XBig12= 7.06D-05 9.10D-04.
    123 vectors produced by pass  3 Test12= 2.06D-10 1.00D-07 XBig12= 1.30D-07 5.24D-05.
     73 vectors produced by pass  4 Test12= 2.06D-10 1.00D-07 XBig12= 1.35D-10 2.01D-06.
 Inverted reduced A of dimension   565 with in-core refinement.
 End of Minotr Frequency-dependent properties file   721 does not exist.
 End of Minotr Frequency-dependent properties file   722 does not exist.

 **********************************************************************

            Population analysis using the SCF density.

 **********************************************************************

 Orbital symmetries:
       Occupied  (A) (A) (A) (A) (A) (A) (A) (A) (A) (A) (A) (A)
                 (A) (A) (A) (A) (A) (A) (A) (A) (A) (A) (A) (A)
                 (A) (A) (A) (A) (A) (A) (A) (A) (A) (A) (A) (A)
                 (A) (A) (A) (A) (A) (A) (A) (A) (A) (A) (A) (A)
                 (A) (A) (A) (A) (A) (A) (A) (A) (A) (A) (A) (A)
                 (A) (A) (A) (A) (A) (A) (A) (A) (A) (A) (A) (A)
                 (A) (A) (A) (A) (A)
       Virtual   (A) (A) (A) (A) (A) (A) (A) (A) (A) (A) (A) (A)
                 (A) (A) (A) (A) (A) (A) (A) (A) (A) (A) (A) (A)
                 (A) (A) (A) (A) (A) (A) (A) (A) (A) (A) (A) (A)
                 (A) (A) (A) (A) (A) (A) (A) (A) (A) (A) (A) (A)
                 (A) (A) (A) (A) (A) (A) (A) (A) (A) (A) (A) (A)
                 (A) (A) (A) (A) (A) (A) (A) (A) (A) (A) (A) (A)
                 (A) (A) (A) (A) (A) (A) (A) (A) (A) (A) (A) (A)
                 (A) (A) (A) (A) (A) (A) (A) (A) (A) (A) (A) (A)
                 (A) (A) (A) (A) (A) (A) (A) (A) (A) (A) (A) (A)
                 (A) (A) (A) (A) (A) (A) (A) (A) (A) (A) (A) (A)
                 (A) (A) (A) (A) (A) (A) (A) (A) (A) (A) (A) (A)
                 (A) (A) (A) (A) (A) (A) (A) (A) (A) (A) (A) (A)
                 (A) (A) (A) (A) (A) (A) (A) (A) (A) (A) (A) (A)
                 (A) (A) (A) (A) (A) (A) (A) (A) (A) (A) (A) (A)
                 (A) (A) (A) (A) (A) (A) (A) (A) (A) (A) (A) (A)
                 (A) (A) (A) (A) (A) (A) (A) (A) (A) (A) (A) (A)
                 (A) (A) (A) (A) (A) (A) (A) (A) (A) (A) (A) (A)
                 (A) (A) (A) (A) (A) (A) (A) (A) (A) (A) (A) (A)
                 (A) (A) (A) (A) (A) (A) (A) (A) (A) (A) (A) (A)
                 (A) (A) (A) (A) (A) (A) (A) (A) (A) (A) (A) (A)
                 (A) (A) (A) (A) (A) (A) (A) (A) (A) (A) (A) (A)
                 (A) (A) (A) (A) (A) (A) (A) (A) (A) (A) (A) (A)
                 (A) (A) (A)
 The electronic state is 1-A.
 Alpha  occ. eigenvalues --  -19.13904 -19.11196 -19.09300 -19.08178 -14.38882
 Alpha  occ. eigenvalues --  -14.36958 -14.34908 -14.30909 -10.30021 -10.28548
 Alpha  occ. eigenvalues --  -10.27273 -10.25618 -10.24080 -10.23795 -10.22358
 Alpha  occ. eigenvalues --  -10.22345 -10.18351 -10.18065 -10.17962 -10.17063
 Alpha  occ. eigenvalues --   -1.13009  -1.03831  -1.01909  -1.00738  -0.96634
 Alpha  occ. eigenvalues --   -0.93227  -0.92133  -0.89854  -0.80429  -0.77314
 Alpha  occ. eigenvalues --   -0.76412  -0.71884  -0.71234  -0.67174  -0.66211
 Alpha  occ. eigenvalues --   -0.64183  -0.62596  -0.60918  -0.59469  -0.57002
 Alpha  occ. eigenvalues --   -0.55542  -0.53442  -0.50932  -0.49668  -0.49203
 Alpha  occ. eigenvalues --   -0.47290  -0.46916  -0.46094  -0.44966  -0.44626
 Alpha  occ. eigenvalues --   -0.43938  -0.43304  -0.42559  -0.42081  -0.41425
 Alpha  occ. eigenvalues --   -0.40802  -0.40029  -0.39652  -0.39457  -0.39167
 Alpha  occ. eigenvalues --   -0.38656  -0.38264  -0.37461  -0.37017  -0.36641
 Alpha  occ. eigenvalues --   -0.36282  -0.34482  -0.33835  -0.33513  -0.29010
 Alpha  occ. eigenvalues --   -0.27544  -0.25991  -0.24817  -0.24433  -0.23130
 Alpha  occ. eigenvalues --   -0.22751  -0.16715
 Alpha virt. eigenvalues --   -0.00920   0.02919   0.03854   0.04879   0.05816
 Alpha virt. eigenvalues --    0.06993   0.10227   0.11647   0.12298   0.12862
 Alpha virt. eigenvalues --    0.13380   0.13995   0.14713   0.15224   0.15511
 Alpha virt. eigenvalues --    0.15846   0.16094   0.16364   0.16570   0.17353
 Alpha virt. eigenvalues --    0.17438   0.18438   0.18661   0.19606   0.19787
 Alpha virt. eigenvalues --    0.20203   0.20669   0.20916   0.22250   0.23250
 Alpha virt. eigenvalues --    0.23752   0.24919   0.25364   0.26001   0.27742
 Alpha virt. eigenvalues --    0.28696   0.30396   0.34502   0.35200   0.35575
 Alpha virt. eigenvalues --    0.38737   0.41614   0.42250   0.42759   0.48286
 Alpha virt. eigenvalues --    0.48906   0.50716   0.51225   0.51765   0.52571
 Alpha virt. eigenvalues --    0.52940   0.53670   0.54061   0.55051   0.55198
 Alpha virt. eigenvalues --    0.55668   0.56281   0.56724   0.57665   0.58136
 Alpha virt. eigenvalues --    0.59086   0.60143   0.61386   0.63030   0.63802
 Alpha virt. eigenvalues --    0.65102   0.66017   0.66162   0.67216   0.68105
 Alpha virt. eigenvalues --    0.69807   0.69927   0.71007   0.72057   0.73280
 Alpha virt. eigenvalues --    0.74356   0.75249   0.75501   0.76583   0.77083
 Alpha virt. eigenvalues --    0.78537   0.79123   0.79722   0.81240   0.82186
 Alpha virt. eigenvalues --    0.84121   0.84614   0.85035   0.86242   0.86764
 Alpha virt. eigenvalues --    0.87056   0.87645   0.88278   0.88416   0.89330
 Alpha virt. eigenvalues --    0.89889   0.89970   0.91236   0.91484   0.91789
 Alpha virt. eigenvalues --    0.93058   0.93481   0.93929   0.94590   0.94848
 Alpha virt. eigenvalues --    0.95899   0.96599   0.97476   0.98136   0.98738
 Alpha virt. eigenvalues --    0.99756   1.00469   1.01203   1.02560   1.03451
 Alpha virt. eigenvalues --    1.05228   1.08343   1.09755   1.11213   1.12010
 Alpha virt. eigenvalues --    1.13489   1.15353   1.15975   1.19013   1.19283
 Alpha virt. eigenvalues --    1.21085   1.24026   1.25008   1.25979   1.28854
 Alpha virt. eigenvalues --    1.29921   1.32250   1.33237   1.34303   1.36305
 Alpha virt. eigenvalues --    1.37444   1.38542   1.39978   1.43234   1.44045
 Alpha virt. eigenvalues --    1.45891   1.47235   1.47543   1.49176   1.50931
 Alpha virt. eigenvalues --    1.52255   1.55180   1.55725   1.58546   1.61647
 Alpha virt. eigenvalues --    1.65132   1.68191   1.68323   1.71329   1.72333
 Alpha virt. eigenvalues --    1.72804   1.73707   1.75847   1.76780   1.78006
 Alpha virt. eigenvalues --    1.79182   1.79992   1.80851   1.81956   1.82885
 Alpha virt. eigenvalues --    1.83784   1.84593   1.84858   1.85237   1.85824
 Alpha virt. eigenvalues --    1.86251   1.88359   1.89311   1.91417   1.91587
 Alpha virt. eigenvalues --    1.93469   1.93976   1.95591   1.96258   1.97918
 Alpha virt. eigenvalues --    1.98522   1.99735   2.02220   2.02299   2.04954
 Alpha virt. eigenvalues --    2.05274   2.06106   2.06730   2.07999   2.09869
 Alpha virt. eigenvalues --    2.11397   2.14315   2.15132   2.16153   2.17229
 Alpha virt. eigenvalues --    2.19438   2.20187   2.22643   2.22947   2.24802
 Alpha virt. eigenvalues --    2.26029   2.28661   2.28821   2.29239   2.30301
 Alpha virt. eigenvalues --    2.32332   2.33051   2.34587   2.36219   2.36626
 Alpha virt. eigenvalues --    2.37277   2.40215   2.41922   2.44681   2.44928
 Alpha virt. eigenvalues --    2.45575   2.46855   2.51296   2.52246   2.54622
 Alpha virt. eigenvalues --    2.56943   2.58769   2.60496   2.62896   2.64482
 Alpha virt. eigenvalues --    2.67657   2.69620   2.71159   2.71987   2.73604
 Alpha virt. eigenvalues --    2.74580   2.77636   2.79955   2.83094   2.86687
 Alpha virt. eigenvalues --    2.88122   2.92132   2.94976   2.98389   3.00194
 Alpha virt. eigenvalues --    3.02796   3.04047   3.06131   3.16613   3.20946
 Alpha virt. eigenvalues --    3.24864   3.28955   3.97189   4.01077   4.02380
 Alpha virt. eigenvalues --    4.06105   4.09263   4.11922   4.21069   4.22581
 Alpha virt. eigenvalues --    4.23655   4.25448   4.27841   4.29347   4.38672
 Alpha virt. eigenvalues --    4.40966   4.45740   4.46676   4.60102   4.62161
 Alpha virt. eigenvalues --    4.67531   4.79078
          Condensed to atoms (all electrons):
              1          2          3          4          5          6
     1  H    0.509842   0.359648  -0.021573  -0.022156  -0.018338   0.005093
     2  C    0.359648   5.327398   0.351232   0.350591   0.358856  -0.079502
     3  H   -0.021573   0.351232   0.541808  -0.026239  -0.024399   0.001424
     4  H   -0.022156   0.350591  -0.026239   0.556245  -0.026225   0.001339
     5  C   -0.018338   0.358856  -0.024399  -0.026225   4.327049   0.592016
     6  O    0.005093  -0.079502   0.001424   0.001339   0.592016   8.089157
     7  N    0.004576  -0.134197   0.003972   0.004435   0.234833  -0.107987
     8  H   -0.000116  -0.001469   0.001223   0.001001  -0.016432   0.002984
     9  C   -0.000151   0.007387  -0.000272  -0.000004  -0.020816   0.013330
    10  H    0.000001   0.000131  -0.000018  -0.000001  -0.000960   0.004643
    11  C    0.000014  -0.000745   0.000015   0.000032  -0.006394  -0.018485
    12  H    0.000000  -0.000007  -0.000001   0.000002   0.000963  -0.000184
    13  H    0.000000   0.000007   0.000000  -0.000001   0.000335   0.000339
    14  H   -0.000001   0.000636  -0.000008  -0.000057   0.003122   0.024217
    15  C    0.000000  -0.000020  -0.000018  -0.000013   0.006571   0.000886
    16  O    0.000000  -0.000037   0.000001   0.000000   0.000317  -0.000005
    17  N    0.000000   0.000001   0.000000   0.000000  -0.000072  -0.000003
    18  H    0.000000   0.000000   0.000000   0.000000   0.000001   0.000003
    19  C    0.000000   0.000000   0.000000   0.000000   0.000001   0.000000
    20  H    0.000000   0.000000   0.000000   0.000000   0.000000   0.000000
    21  C    0.000000   0.000000   0.000000   0.000000   0.000000   0.000000
    22  H    0.000000   0.000000   0.000000   0.000000   0.000000   0.000000
    23  H    0.000000   0.000000   0.000000   0.000000   0.000000   0.000000
    24  H    0.000000   0.000000   0.000000   0.000000   0.000000   0.000000
    25  C    0.000000   0.000000   0.000000   0.000000   0.000000   0.000000
    26  O    0.000000   0.000000   0.000000   0.000000   0.000000   0.000000
    27  N    0.000000   0.000000   0.000000   0.000000   0.000007   0.000000
    28  H    0.000000  -0.000005  -0.000002   0.000001   0.000016  -0.000002
    29  C    0.000000   0.000000   0.000001   0.000000   0.000000   0.000000
    30  H    0.000000   0.000000   0.000000   0.000000   0.000000   0.000000
    31  C    0.000000   0.000000   0.000000   0.000000   0.000000   0.000000
    32  H    0.000000   0.000000   0.000000   0.000000   0.000000   0.000000
    33  H    0.000000   0.000000   0.000000   0.000000   0.000000   0.000000
    34  H    0.000000   0.000000   0.000000   0.000000   0.000000   0.000000
    35  C    0.000000   0.000000   0.000005   0.000000   0.000003   0.000000
    36  O    0.000000  -0.000127   0.000322  -0.000001   0.000039   0.000000
    37  N    0.000000   0.000000  -0.000001   0.000000   0.000000   0.000000
    38  H    0.000000   0.000000   0.000000   0.000000   0.000000   0.000000
    39  C    0.000000  -0.000002  -0.000008   0.000000   0.000000   0.000000
    40  H    0.000000  -0.000004   0.000138   0.000000   0.000000   0.000000
    41  H    0.000000   0.000000   0.000000   0.000000   0.000000   0.000000
    42  H    0.000000   0.000000   0.000000   0.000000   0.000000   0.000000
              7          8          9         10         11         12
     1  H    0.004576  -0.000116  -0.000151   0.000001   0.000014   0.000000
     2  C   -0.134197  -0.001469   0.007387   0.000131  -0.000745  -0.000007
     3  H    0.003972   0.001223  -0.000272  -0.000018   0.000015  -0.000001
     4  H    0.004435   0.001001  -0.000004  -0.000001   0.000032   0.000002
     5  C    0.234833  -0.016432  -0.020816  -0.000960  -0.006394   0.000963
     6  O   -0.107987   0.002984   0.013330   0.004643  -0.018485  -0.000184
     7  N    7.180120   0.290729   0.255685  -0.049297  -0.053904  -0.000008
     8  H    0.290729   0.371884  -0.044061   0.004857   0.003021   0.000769
     9  C    0.255685  -0.044061   5.036607   0.361384   0.351025  -0.036920
    10  H   -0.049297   0.004857   0.361384   0.599852  -0.053848   0.006584
    11  C   -0.053904   0.003021   0.351025  -0.053848   5.207767   0.364478
    12  H   -0.000008   0.000769  -0.036920   0.006584   0.364478   0.564879
    13  H    0.005310  -0.000119  -0.035781  -0.000176   0.348834  -0.027409
    14  H   -0.010700  -0.000261  -0.020703  -0.005548   0.359637  -0.025232
    15  C   -0.027750  -0.000977   0.338485  -0.039745  -0.044065  -0.001451
    16  O   -0.006634   0.018973  -0.076048  -0.000012   0.000138   0.000909
    17  N    0.002987   0.000896  -0.119704   0.003084  -0.000413  -0.000473
    18  H    0.000123  -0.000018  -0.000389   0.000998   0.001456  -0.000122
    19  C   -0.000069  -0.000015   0.005332  -0.000160   0.000023  -0.000092
    20  H    0.000001   0.000000  -0.000283   0.000032   0.000000   0.000003
    21  C    0.000004   0.000000   0.000017  -0.000010   0.000029   0.000024
    22  H    0.000001   0.000001  -0.000053   0.000003  -0.000006   0.000055
    23  H    0.000000   0.000000   0.000003   0.000000   0.000001  -0.000001
    24  H    0.000000   0.000000  -0.000017  -0.000001   0.000003   0.000000
    25  C    0.000006  -0.000009   0.000301  -0.000080  -0.000023   0.000001
    26  O    0.000000   0.000000  -0.000002   0.000000   0.000000   0.000000
    27  N   -0.000252   0.000950  -0.003487   0.001098  -0.000164   0.000031
    28  H   -0.000157   0.000709  -0.012466   0.000545   0.000693   0.000041
    29  C    0.000009  -0.000074   0.000192  -0.000051   0.000002  -0.000001
    30  H   -0.000001   0.000006  -0.000006   0.000002   0.000000   0.000000
    31  C    0.000002  -0.000032   0.000008   0.000000   0.000000   0.000000
    32  H   -0.000003   0.000031   0.000000   0.000000   0.000000   0.000000
    33  H    0.000000   0.000000   0.000000   0.000000   0.000000   0.000000
    34  H    0.000000   0.000000   0.000000   0.000000   0.000000   0.000000
    35  C    0.000207   0.000120  -0.000107   0.000004   0.000001   0.000000
    36  O   -0.001876   0.008835   0.001494  -0.000013   0.000013   0.000000
    37  N    0.000000  -0.000014   0.000001   0.000000   0.000000   0.000000
    38  H    0.000000   0.000000   0.000000   0.000000   0.000000   0.000000
    39  C   -0.000001   0.000005   0.000000   0.000000   0.000000   0.000000
    40  H   -0.000001   0.000020  -0.000001   0.000000   0.000000   0.000000
    41  H    0.000000   0.000000   0.000000   0.000000   0.000000   0.000000
    42  H    0.000000   0.000001   0.000000   0.000000   0.000000   0.000000
             13         14         15         16         17         18
     1  H    0.000000  -0.000001   0.000000   0.000000   0.000000   0.000000
     2  C    0.000007   0.000636  -0.000020  -0.000037   0.000001   0.000000
     3  H    0.000000  -0.000008  -0.000018   0.000001   0.000000   0.000000
     4  H   -0.000001  -0.000057  -0.000013   0.000000   0.000000   0.000000
     5  C    0.000335   0.003122   0.006571   0.000317  -0.000072   0.000001
     6  O    0.000339   0.024217   0.000886  -0.000005  -0.000003   0.000003
     7  N    0.005310  -0.010700  -0.027750  -0.006634   0.002987   0.000123
     8  H   -0.000119  -0.000261  -0.000977   0.018973   0.000896  -0.000018
     9  C   -0.035781  -0.020703   0.338485  -0.076048  -0.119704  -0.000389
    10  H   -0.000176  -0.005548  -0.039745  -0.000012   0.003084   0.000998
    11  C    0.348834   0.359637  -0.044065   0.000138  -0.000413   0.001456
    12  H   -0.027409  -0.025232  -0.001451   0.000909  -0.000473  -0.000122
    13  H    0.608979  -0.021234  -0.008769  -0.000038   0.003203   0.008017
    14  H   -0.021234   0.478439   0.004137  -0.000071   0.000197  -0.000224
    15  C   -0.008769   0.004137   4.604202   0.428041   0.261733  -0.027981
    16  O   -0.000038  -0.000071   0.428041   8.800195  -0.104693   0.003378
    17  N    0.003203   0.000197   0.261733  -0.104693   7.179679   0.305873
    18  H    0.008017  -0.000224  -0.027981   0.003378   0.305873   0.384404
    19  C    0.000126   0.000003  -0.022057   0.009640   0.161529  -0.018832
    20  H   -0.000012   0.000000   0.002340  -0.000131  -0.035203  -0.004533
    21  C    0.000018  -0.000002   0.000280  -0.000204  -0.068226   0.001993
    22  H   -0.000004   0.000001   0.004673   0.001712  -0.006585  -0.000194
    23  H    0.000000   0.000000  -0.000120   0.000089   0.005701  -0.000186
    24  H    0.000080   0.000001  -0.000292   0.000038  -0.000272   0.001369
    25  C   -0.000006   0.000000  -0.014084   0.001768  -0.028165   0.002020
    26  O    0.000000   0.000000  -0.000078  -0.000479   0.002779  -0.000061
    27  N   -0.000007   0.000001   0.005135  -0.549652   0.019964  -0.000233
    28  H   -0.000004  -0.000013  -0.016987  -0.034766   0.008951  -0.000056
    29  C    0.000000   0.000000   0.002831   0.034073  -0.000870   0.000034
    30  H    0.000000   0.000000  -0.000109  -0.000889   0.000059   0.000000
    31  C    0.000000   0.000000  -0.000126  -0.001076  -0.000012   0.000000
    32  H    0.000000   0.000000   0.000071   0.001567   0.000003   0.000000
    33  H    0.000000   0.000000  -0.000001   0.000020   0.000000   0.000000
    34  H    0.000000   0.000000  -0.000033   0.000324  -0.000018   0.000000
    35  C    0.000000   0.000000  -0.000448   0.001807   0.000014   0.000000
    36  O    0.000000   0.000000  -0.001894  -0.010998  -0.000012   0.000002
    37  N    0.000000   0.000000  -0.000013  -0.000120   0.000000   0.000000
    38  H    0.000000   0.000000   0.000001  -0.000004   0.000000   0.000000
    39  C    0.000000   0.000000   0.000000   0.000001   0.000000   0.000000
    40  H    0.000000   0.000000   0.000000   0.000005   0.000000   0.000000
    41  H    0.000000   0.000000   0.000000   0.000000   0.000000   0.000000
    42  H    0.000000   0.000000   0.000000   0.000000   0.000000   0.000000
             19         20         21         22         23         24
     1  H    0.000000   0.000000   0.000000   0.000000   0.000000   0.000000
     2  C    0.000000   0.000000   0.000000   0.000000   0.000000   0.000000
     3  H    0.000000   0.000000   0.000000   0.000000   0.000000   0.000000
     4  H    0.000000   0.000000   0.000000   0.000000   0.000000   0.000000
     5  C    0.000001   0.000000   0.000000   0.000000   0.000000   0.000000
     6  O    0.000000   0.000000   0.000000   0.000000   0.000000   0.000000
     7  N   -0.000069   0.000001   0.000004   0.000001   0.000000   0.000000
     8  H   -0.000015   0.000000   0.000000   0.000001   0.000000   0.000000
     9  C    0.005332  -0.000283   0.000017  -0.000053   0.000003  -0.000017
    10  H   -0.000160   0.000032  -0.000010   0.000003   0.000000  -0.000001
    11  C    0.000023   0.000000   0.000029  -0.000006   0.000001   0.000003
    12  H   -0.000092   0.000003   0.000024   0.000055  -0.000001   0.000000
    13  H    0.000126  -0.000012   0.000018  -0.000004   0.000000   0.000080
    14  H    0.000003   0.000000  -0.000002   0.000001   0.000000   0.000001
    15  C   -0.022057   0.002340   0.000280   0.004673  -0.000120  -0.000292
    16  O    0.009640  -0.000131  -0.000204   0.001712   0.000089   0.000038
    17  N    0.161529  -0.035203  -0.068226  -0.006585   0.005701  -0.000272
    18  H   -0.018832  -0.004533   0.001993  -0.000194  -0.000186   0.001369
    19  C    5.158438   0.374613   0.362001  -0.031881  -0.030912  -0.034764
    20  H    0.374613   0.555855  -0.043140   0.005157  -0.001221  -0.004618
    21  C    0.362001  -0.043140   5.123565   0.379135   0.360879   0.362140
    22  H   -0.031881   0.005157   0.379135   0.540204  -0.022217  -0.030419
    23  H   -0.030912  -0.001221   0.360879  -0.022217   0.517361  -0.025115
    24  H   -0.034764  -0.004618   0.362140  -0.030419  -0.025115   0.588696
    25  C    0.338207  -0.026255  -0.043195  -0.006343  -0.003240   0.005574
    26  O   -0.079280   0.000989  -0.002968  -0.000019   0.012112   0.000262
    27  N   -0.125063   0.002171  -0.000341   0.001201   0.000487  -0.000127
    28  H   -0.009196  -0.000452   0.001398  -0.000145  -0.000044  -0.000004
    29  C    0.008331  -0.000287  -0.000071  -0.000110  -0.000004   0.000004
    30  H    0.000119   0.000047  -0.000023   0.000002  -0.000004   0.000000
    31  C   -0.000977  -0.000004   0.000055   0.000050   0.000011   0.000000
    32  H    0.000040   0.000001  -0.000014   0.000035  -0.000004   0.000000
    33  H    0.000010   0.000000  -0.000001   0.000000   0.000000   0.000000
    34  H    0.000450  -0.000007   0.000021  -0.000014   0.000006   0.000001
    35  C    0.000045   0.000001  -0.000003  -0.000001   0.000000   0.000000
    36  O   -0.000031   0.000000   0.000000   0.000000   0.000000   0.000000
    37  N    0.000001   0.000000   0.000000   0.000000   0.000000   0.000000
    38  H    0.000000   0.000000   0.000000   0.000000   0.000000   0.000000
    39  C    0.000000   0.000000   0.000000   0.000000   0.000000   0.000000
    40  H    0.000000   0.000000   0.000000   0.000000   0.000000   0.000000
    41  H    0.000000   0.000000   0.000000   0.000000   0.000000   0.000000
    42  H    0.000000   0.000000   0.000000   0.000000   0.000000   0.000000
             25         26         27         28         29         30
     1  H    0.000000   0.000000   0.000000   0.000000   0.000000   0.000000
     2  C    0.000000   0.000000   0.000000  -0.000005   0.000000   0.000000
     3  H    0.000000   0.000000   0.000000  -0.000002   0.000001   0.000000
     4  H    0.000000   0.000000   0.000000   0.000001   0.000000   0.000000
     5  C    0.000000   0.000000   0.000007   0.000016   0.000000   0.000000
     6  O    0.000000   0.000000   0.000000  -0.000002   0.000000   0.000000
     7  N    0.000006   0.000000  -0.000252  -0.000157   0.000009  -0.000001
     8  H   -0.000009   0.000000   0.000950   0.000709  -0.000074   0.000006
     9  C    0.000301  -0.000002  -0.003487  -0.012466   0.000192  -0.000006
    10  H   -0.000080   0.000000   0.001098   0.000545  -0.000051   0.000002
    11  C   -0.000023   0.000000  -0.000164   0.000693   0.000002   0.000000
    12  H    0.000001   0.000000   0.000031   0.000041  -0.000001   0.000000
    13  H   -0.000006   0.000000  -0.000007  -0.000004   0.000000   0.000000
    14  H    0.000000   0.000000   0.000001  -0.000013   0.000000   0.000000
    15  C   -0.014084  -0.000078   0.005135  -0.016987   0.002831  -0.000109
    16  O    0.001768  -0.000479  -0.549652  -0.034766   0.034073  -0.000889
    17  N   -0.028165   0.002779   0.019964   0.008951  -0.000870   0.000059
    18  H    0.002020  -0.000061  -0.000233  -0.000056   0.000034   0.000000
    19  C    0.338207  -0.079280  -0.125063  -0.009196   0.008331   0.000119
    20  H   -0.026255   0.000989   0.002171  -0.000452  -0.000287   0.000047
    21  C   -0.043195  -0.002968  -0.000341   0.001398  -0.000071  -0.000023
    22  H   -0.006343  -0.000019   0.001201  -0.000145  -0.000110   0.000002
    23  H   -0.003240   0.012112   0.000487  -0.000044  -0.000004  -0.000004
    24  H    0.005574   0.000262  -0.000127  -0.000004   0.000004   0.000000
    25  C    4.341871   0.540544   0.308704  -0.014151  -0.019765  -0.004666
    26  O    0.540544   8.179345  -0.104819   0.002977   0.007723   0.006303
    27  N    0.308704  -0.104819   7.701619   0.248435   0.213738  -0.038881
    28  H   -0.014151   0.002977   0.248435   0.420048  -0.053218   0.000294
    29  C   -0.019765   0.007723   0.213738  -0.053218   5.099432   0.356398
    30  H   -0.004666   0.006303  -0.038881   0.000294   0.356398   0.605455
    31  C   -0.005600  -0.017549  -0.055323   0.008120   0.340229  -0.049687
    32  H    0.000729  -0.000076  -0.002824   0.000036  -0.035964   0.005979
    33  H    0.000331   0.000291   0.005316  -0.000211  -0.035672  -0.000492
    34  H    0.002836   0.023701  -0.010957  -0.000097  -0.020501  -0.007343
    35  C    0.005438   0.000713  -0.029398   0.001729   0.318593  -0.036973
    36  O    0.000376  -0.000003  -0.009363   0.036000  -0.087692   0.001530
    37  N   -0.000096  -0.000001   0.003139   0.001359  -0.118666   0.001332
    38  H    0.000003   0.000003   0.000148  -0.000071   0.001384   0.001604
    39  C    0.000002   0.000000  -0.000071  -0.000011   0.005934  -0.000293
    40  H    0.000000   0.000000  -0.000001  -0.000037   0.001226  -0.000039
    41  H    0.000000   0.000000   0.000000   0.000000  -0.000174   0.000028
    42  H    0.000000   0.000000   0.000001   0.000000  -0.000041  -0.000008
             31         32         33         34         35         36
     1  H    0.000000   0.000000   0.000000   0.000000   0.000000   0.000000
     2  C    0.000000   0.000000   0.000000   0.000000   0.000000  -0.000127
     3  H    0.000000   0.000000   0.000000   0.000000   0.000005   0.000322
     4  H    0.000000   0.000000   0.000000   0.000000   0.000000  -0.000001
     5  C    0.000000   0.000000   0.000000   0.000000   0.000003   0.000039
     6  O    0.000000   0.000000   0.000000   0.000000   0.000000   0.000000
     7  N    0.000002  -0.000003   0.000000   0.000000   0.000207  -0.001876
     8  H   -0.000032   0.000031   0.000000   0.000000   0.000120   0.008835
     9  C    0.000008   0.000000   0.000000   0.000000  -0.000107   0.001494
    10  H    0.000000   0.000000   0.000000   0.000000   0.000004  -0.000013
    11  C    0.000000   0.000000   0.000000   0.000000   0.000001   0.000013
    12  H    0.000000   0.000000   0.000000   0.000000   0.000000   0.000000
    13  H    0.000000   0.000000   0.000000   0.000000   0.000000   0.000000
    14  H    0.000000   0.000000   0.000000   0.000000   0.000000   0.000000
    15  C   -0.000126   0.000071  -0.000001  -0.000033  -0.000448  -0.001894
    16  O   -0.001076   0.001567   0.000020   0.000324   0.001807  -0.010998
    17  N   -0.000012   0.000003   0.000000  -0.000018   0.000014  -0.000012
    18  H    0.000000   0.000000   0.000000   0.000000   0.000000   0.000002
    19  C   -0.000977   0.000040   0.000010   0.000450   0.000045  -0.000031
    20  H   -0.000004   0.000001   0.000000  -0.000007   0.000001   0.000000
    21  C    0.000055  -0.000014  -0.000001   0.000021  -0.000003   0.000000
    22  H    0.000050   0.000035   0.000000  -0.000014  -0.000001   0.000000
    23  H    0.000011  -0.000004   0.000000   0.000006   0.000000   0.000000
    24  H    0.000000   0.000000   0.000000   0.000001   0.000000   0.000000
    25  C   -0.005600   0.000729   0.000331   0.002836   0.005438   0.000376
    26  O   -0.017549  -0.000076   0.000291   0.023701   0.000713  -0.000003
    27  N   -0.055323  -0.002824   0.005316  -0.010957  -0.029398  -0.009363
    28  H    0.008120   0.000036  -0.000211  -0.000097   0.001729   0.036000
    29  C    0.340229  -0.035964  -0.035672  -0.020501   0.318593  -0.087692
    30  H   -0.049687   0.005979  -0.000492  -0.007343  -0.036973   0.001530
    31  C    5.203610   0.373108   0.351280   0.359605  -0.042896  -0.000481
    32  H    0.373108   0.556568  -0.028741  -0.025850  -0.003338   0.000931
    33  H    0.351280  -0.028741   0.612541  -0.022287  -0.008234  -0.000030
    34  H    0.359605  -0.025850  -0.022287   0.488369   0.003894  -0.000099
    35  C   -0.042896  -0.003338  -0.008234   0.003894   4.378546   0.574720
    36  O   -0.000481   0.000931  -0.000030  -0.000099   0.574720   8.112120
    37  N    0.001855  -0.000376   0.003249   0.000197   0.271106  -0.097279
    38  H    0.000217  -0.000086   0.007202  -0.000227  -0.022728   0.003498
    39  C   -0.000011  -0.000075   0.000094   0.000006  -0.023949  -0.009287
    40  H   -0.000077  -0.000007  -0.000006   0.000001  -0.000743   0.022186
    41  H   -0.000008   0.000001   0.000004   0.000000   0.001217   0.000561
    42  H    0.000021   0.000001   0.000003  -0.000002   0.001391   0.000581
             37         38         39         40         41         42
     1  H    0.000000   0.000000   0.000000   0.000000   0.000000   0.000000
     2  C    0.000000   0.000000  -0.000002  -0.000004   0.000000   0.000000
     3  H   -0.000001   0.000000  -0.000008   0.000138   0.000000   0.000000
     4  H    0.000000   0.000000   0.000000   0.000000   0.000000   0.000000
     5  C    0.000000   0.000000   0.000000   0.000000   0.000000   0.000000
     6  O    0.000000   0.000000   0.000000   0.000000   0.000000   0.000000
     7  N    0.000000   0.000000  -0.000001  -0.000001   0.000000   0.000000
     8  H   -0.000014   0.000000   0.000005   0.000020   0.000000   0.000001
     9  C    0.000001   0.000000   0.000000  -0.000001   0.000000   0.000000
    10  H    0.000000   0.000000   0.000000   0.000000   0.000000   0.000000
    11  C    0.000000   0.000000   0.000000   0.000000   0.000000   0.000000
    12  H    0.000000   0.000000   0.000000   0.000000   0.000000   0.000000
    13  H    0.000000   0.000000   0.000000   0.000000   0.000000   0.000000
    14  H    0.000000   0.000000   0.000000   0.000000   0.000000   0.000000
    15  C   -0.000013   0.000001   0.000000   0.000000   0.000000   0.000000
    16  O   -0.000120  -0.000004   0.000001   0.000005   0.000000   0.000000
    17  N    0.000000   0.000000   0.000000   0.000000   0.000000   0.000000
    18  H    0.000000   0.000000   0.000000   0.000000   0.000000   0.000000
    19  C    0.000001   0.000000   0.000000   0.000000   0.000000   0.000000
    20  H    0.000000   0.000000   0.000000   0.000000   0.000000   0.000000
    21  C    0.000000   0.000000   0.000000   0.000000   0.000000   0.000000
    22  H    0.000000   0.000000   0.000000   0.000000   0.000000   0.000000
    23  H    0.000000   0.000000   0.000000   0.000000   0.000000   0.000000
    24  H    0.000000   0.000000   0.000000   0.000000   0.000000   0.000000
    25  C   -0.000096   0.000003   0.000002   0.000000   0.000000   0.000000
    26  O   -0.000001   0.000003   0.000000   0.000000   0.000000   0.000000
    27  N    0.003139   0.000148  -0.000071  -0.000001   0.000000   0.000001
    28  H    0.001359  -0.000071  -0.000011  -0.000037   0.000000   0.000000
    29  C   -0.118666   0.001384   0.005934   0.001226  -0.000174  -0.000041
[...]
    28  H    0.000000   0.000000  -0.000962   0.052930  -0.004337  -0.000074
    29  C    0.000000   0.000000   0.000055   0.001351  -0.000250   0.000009
    30  H    0.000000   0.000000  -0.000009  -0.000022  -0.000008   0.000000
    31  C    0.000000   0.000000   0.000007  -0.000049   0.000005   0.000000
    32  H    0.000000   0.000000  -0.000006   0.000049   0.000000   0.000000
    33  H    0.000000   0.000000   0.000000   0.000000   0.000000   0.000000
    34  H    0.000000   0.000000   0.000001   0.000002  -0.000005   0.000000
    35  C    0.000000   0.000000  -0.000022  -0.000205  -0.000003   0.000000
    36  O    0.000000   0.000000  -0.000049  -0.000373   0.000004   0.000000
    37  N    0.000000   0.000000   0.000000  -0.000001   0.000000   0.000000
    38  H    0.000000   0.000000   0.000000   0.000000   0.000000   0.000000
    39  C    0.000000   0.000000   0.000000   0.000000   0.000000   0.000000
    40  H    0.000000   0.000000   0.000000   0.000000   0.000000   0.000000
    41  H    0.000000   0.000000   0.000000   0.000000   0.000000   0.000000
    42  H    0.000000   0.000000   0.000000   0.000000   0.000000   0.000000
             19         20         21         22         23         24
     1  H    0.000000   0.000000   0.000000   0.000000   0.000000   0.000000
     2  C    0.000000   0.000000   0.000000   0.000000   0.000000   0.000000
     3  H    0.000000   0.000000   0.000000   0.000000   0.000000   0.000000
     4  H    0.000000   0.000000   0.000000   0.000000   0.000000   0.000000
     5  C    0.000001   0.000000   0.000000   0.000000   0.000000   0.000000
     6  O    0.000000   0.000000   0.000000   0.000000   0.000000   0.000000
     7  N   -0.000084   0.000002   0.000000   0.000000   0.000000   0.000000
     8  H   -0.000019   0.000000   0.000000   0.000000   0.000000   0.000000
     9  C    0.004837  -0.000179  -0.000255  -0.000027   0.000003  -0.000003
    10  H    0.000081  -0.000012   0.000004  -0.000001   0.000000  -0.000003
    11  C   -0.000361  -0.000002   0.000072   0.000008   0.000000  -0.000006
    12  H    0.000005   0.000000   0.000006   0.000004   0.000000  -0.000003
    13  H   -0.000137   0.000000   0.000044   0.000008   0.000001   0.000138
    14  H    0.000005   0.000000  -0.000001   0.000000   0.000000   0.000000
    15  C   -0.018557   0.002969   0.000341   0.002167  -0.000032  -0.000069
    16  O    0.005392   0.000077  -0.000506   0.000445  -0.000002   0.000002
    17  N    0.146751  -0.039165  -0.067090  -0.003028   0.005147  -0.000386
    18  H   -0.020917  -0.005826   0.001043  -0.000143  -0.000211   0.001785
    19  C    5.116016   0.372598   0.356713  -0.032459  -0.030092  -0.031815
    20  H    0.372598   0.563712  -0.044971   0.005066  -0.000281  -0.005039
    21  C    0.356713  -0.044971   5.138965   0.373470   0.359902   0.365161
    22  H   -0.032459   0.005066   0.373470   0.546914  -0.021917  -0.031012
    23  H   -0.030092  -0.000281   0.359902  -0.021917   0.512647  -0.025160
    24  H   -0.031815  -0.005039   0.365161  -0.031012  -0.025160   0.584005
    25  C    0.341940  -0.029674  -0.038079  -0.004078  -0.003749   0.004474
    26  O   -0.075227   0.001686  -0.007136   0.000235   0.013991   0.000246
    27  N   -0.093744   0.001311   0.000203   0.000801   0.000553  -0.000082
    28  H   -0.000036   0.000002  -0.000101  -0.000034  -0.000002  -0.000004
    29  C    0.006399  -0.000197  -0.000090  -0.000049  -0.000017   0.000003
    30  H    0.000600   0.000016  -0.000017  -0.000001  -0.000008   0.000000
    31  C   -0.000391  -0.000008   0.000031   0.000011   0.000007   0.000000
    32  H    0.000010   0.000000  -0.000003   0.000002   0.000000   0.000000
    33  H    0.000005   0.000000  -0.000001   0.000000   0.000000   0.000000
    34  H    0.000016   0.000001   0.000020   0.000007  -0.000006   0.000000
    35  C   -0.000066   0.000003   0.000000   0.000000   0.000000   0.000000
    36  O   -0.000020   0.000000   0.000000   0.000000   0.000000   0.000000
    37  N    0.000001   0.000000   0.000000   0.000000   0.000000   0.000000
    38  H    0.000000   0.000000   0.000000   0.000000   0.000000   0.000000
    39  C    0.000000   0.000000   0.000000   0.000000   0.000000   0.000000
    40  H    0.000000   0.000000   0.000000   0.000000   0.000000   0.000000
    41  H    0.000000   0.000000   0.000000   0.000000   0.000000   0.000000
    42  H    0.000000   0.000000   0.000000   0.000000   0.000000   0.000000
             25         26         27         28         29         30
     1  H    0.000000   0.000000   0.000000   0.000000   0.000000   0.000000
     2  C    0.000000   0.000000   0.000000   0.000000   0.000000   0.000000
     3  H    0.000000   0.000000   0.000000   0.000000   0.000000   0.000000
     4  H    0.000000   0.000000   0.000000   0.000000   0.000000   0.000000
     5  C    0.000000   0.000000   0.000000   0.000003   0.000000   0.000000
     6  O    0.000000   0.000000   0.000000   0.000000   0.000000   0.000000
     7  N    0.000003   0.000000  -0.000004  -0.000017   0.000000   0.000000
     8  H   -0.000004   0.000000   0.000018   0.000008  -0.000003   0.000000
     9  C    0.000028   0.000000  -0.000119   0.000768   0.000004   0.000000
    10  H   -0.000009   0.000000   0.000017  -0.000076   0.000000   0.000000
    11  C   -0.000004   0.000000  -0.000001   0.000008   0.000000   0.000000
    12  H   -0.000001   0.000000   0.000001  -0.000007   0.000000   0.000000
    13  H    0.000001   0.000000   0.000000   0.000000   0.000000   0.000000
    14  H    0.000000   0.000000   0.000000   0.000000   0.000000   0.000000
    15  C   -0.003289   0.000036   0.006143  -0.000962   0.000055  -0.000009
    16  O    0.000836   0.000002  -0.031359   0.052930   0.001351  -0.000022
    17  N   -0.014251   0.002720   0.004427  -0.004337  -0.000250  -0.000008
    18  H    0.002088  -0.000061  -0.000147  -0.000074   0.000009   0.000000
    19  C    0.341940  -0.075227  -0.093744  -0.000036   0.006399   0.000600
    20  H   -0.029674   0.001686   0.001311   0.000002  -0.000197   0.000016
    21  C   -0.038079  -0.007136   0.000203  -0.000101  -0.000090  -0.000017
    22  H   -0.004078   0.000235   0.000801  -0.000034  -0.000049  -0.000001
    23  H   -0.003749   0.013991   0.000553  -0.000002  -0.000017  -0.000008
    24  H    0.004474   0.000246  -0.000082  -0.000004   0.000003   0.000000
    25  C    4.315784   0.520441   0.317893  -0.011137  -0.027583  -0.001363
    26  O    0.520441   8.159428  -0.094766   0.002109   0.004536   0.013966
    27  N    0.317893  -0.094766   7.198991   0.231783   0.245759  -0.048781
    28  H   -0.011137   0.002109   0.231783   0.329159  -0.035170   0.003719
    29  C   -0.027583   0.004536   0.245759  -0.035170   5.098857   0.362321
    30  H   -0.001363   0.013966  -0.048781   0.003719   0.362321   0.579032
    31  C   -0.004429  -0.004265  -0.054707   0.002230   0.354111  -0.043811
    32  H    0.000124  -0.000004  -0.002229   0.001963  -0.034123   0.005239
    33  H    0.000054  -0.000030   0.004999  -0.000071  -0.029355  -0.000452
    34  H    0.004149   0.006620  -0.007723  -0.000386  -0.024404  -0.004743
    35  C    0.005095   0.000603  -0.031172  -0.001789   0.301063  -0.036099
    36  O    0.000385  -0.000004  -0.006854   0.024994  -0.083177   0.002611
    37  N   -0.000124  -0.000003   0.002139   0.001013  -0.106026   0.003401
    38  H   -0.000014  -0.000005   0.000006  -0.000054   0.002479   0.003081
    39  C    0.000002   0.000000  -0.000113  -0.000009   0.006154  -0.000052
    40  H    0.000000   0.000000   0.000000  -0.000025   0.001162  -0.000043
    41  H    0.000000   0.000000   0.000006   0.000000  -0.000143  -0.000010
    42  H    0.000000   0.000000  -0.000001   0.000000  -0.000163  -0.000007
             31         32         33         34         35         36
     1  H    0.000000   0.000000   0.000000   0.000000   0.000000   0.000000
     2  C    0.000000   0.000000   0.000000   0.000000   0.000000   0.000000
     3  H    0.000000   0.000000   0.000000   0.000000   0.000000   0.000000
     4  H    0.000000   0.000000   0.000000   0.000000   0.000000   0.000000
     5  C    0.000000   0.000000   0.000000   0.000000   0.000000   0.000000
     6  O    0.000000   0.000000   0.000000   0.000000   0.000000   0.000000
     7  N    0.000000   0.000000   0.000000   0.000000   0.000000  -0.000003
     8  H    0.000000   0.000000   0.000000   0.000000   0.000002   0.000043
     9  C    0.000000   0.000000   0.000000   0.000000  -0.000001  -0.000003
    10  H    0.000000   0.000000   0.000000   0.000000   0.000000   0.000000
    11  C    0.000000   0.000000   0.000000   0.000000   0.000000   0.000000
    12  H    0.000000   0.000000   0.000000   0.000000   0.000000   0.000000
    13  H    0.000000   0.000000   0.000000   0.000000   0.000000   0.000000
    14  H    0.000000   0.000000   0.000000   0.000000   0.000000   0.000000
    15  C    0.000007  -0.000006   0.000000   0.000001  -0.000022  -0.000049
    16  O   -0.000049   0.000049   0.000000   0.000002  -0.000205  -0.000373
    17  N    0.000005   0.000000   0.000000  -0.000005  -0.000003   0.000004
    18  H    0.000000   0.000000   0.000000   0.000000   0.000000   0.000000
    19  C   -0.000391   0.000010   0.000005   0.000016  -0.000066  -0.000020
    20  H   -0.000008   0.000000   0.000000   0.000001   0.000003   0.000000
    21  C    0.000031  -0.000003  -0.000001   0.000020   0.000000   0.000000
    22  H    0.000011   0.000002   0.000000   0.000007   0.000000   0.000000
    23  H    0.000007   0.000000   0.000000  -0.000006   0.000000   0.000000
    24  H    0.000000   0.000000   0.000000   0.000000   0.000000   0.000000
    25  C   -0.004429   0.000124   0.000054   0.004149   0.005095   0.000385
    26  O   -0.004265  -0.000004  -0.000030   0.006620   0.000603  -0.000004
    27  N   -0.054707  -0.002229   0.004999  -0.007723  -0.031172  -0.006854
    28  H    0.002230   0.001963  -0.000071  -0.000386  -0.001789   0.024994
    29  C    0.354111  -0.034123  -0.029355  -0.024404   0.301063  -0.083177
    30  H   -0.043811   0.005239  -0.000452  -0.004743  -0.036099   0.002611
    31  C    5.138437   0.373757   0.356254   0.370744  -0.036778  -0.002859
    32  H    0.373757   0.542132  -0.027127  -0.026915  -0.004641   0.003271
    33  H    0.356254  -0.027127   0.580756  -0.026998  -0.001581  -0.000095
    34  H    0.370744  -0.026915  -0.026998   0.525598   0.003889  -0.000058
    35  C   -0.036778  -0.004641  -0.001581   0.003889   4.381388   0.579275
    36  O   -0.002859   0.003271  -0.000095  -0.000058   0.579275   8.081521
    37  N   -0.002145   0.000219   0.003355  -0.000053   0.275225  -0.092366
    38  H   -0.000004  -0.000009   0.000503  -0.000045  -0.019904   0.003318
    39  C   -0.000265   0.000006  -0.000083   0.000005  -0.024662  -0.008003
    40  H   -0.000030  -0.000011  -0.000002   0.000001  -0.000642   0.021023
    41  H   -0.000007   0.000000   0.000004   0.000000   0.000577   0.000414
    42  H    0.000055  -0.000001  -0.000021  -0.000001   0.001881   0.000457
             37         38         39         40         41         42
     1  H    0.000000   0.000000   0.000000   0.000000   0.000000   0.000000
     2  C    0.000000   0.000000   0.000000   0.000000   0.000000   0.000000
     3  H    0.000000   0.000000   0.000000   0.000000   0.000000   0.000000
     4  H    0.000000   0.000000   0.000000   0.000000   0.000000   0.000000
     5  C    0.000000   0.000000   0.000000   0.000000   0.000000   0.000000
     6  O    0.000000   0.000000   0.000000   0.000000   0.000000   0.000000
     7  N    0.000000   0.000000   0.000000   0.000000   0.000000   0.000000
     8  H    0.000000   0.000000   0.000000   0.000000   0.000000   0.000000
     9  C    0.000000   0.000000   0.000000   0.000000   0.000000   0.000000
    10  H    0.000000   0.000000   0.000000   0.000000   0.000000   0.000000
    11  C    0.000000   0.000000   0.000000   0.000000   0.000000   0.000000
    12  H    0.000000   0.000000   0.000000   0.000000   0.000000   0.000000
    13  H    0.000000   0.000000   0.000000   0.000000   0.000000   0.000000
    14  H    0.000000   0.000000   0.000000   0.000000   0.000000   0.000000
    15  C    0.000000   0.000000   0.000000   0.000000   0.000000   0.000000
    16  O   -0.000001   0.000000   0.000000   0.000000   0.000000   0.000000
    17  N    0.000000   0.000000   0.000000   0.000000   0.000000   0.000000
    18  H    0.000000   0.000000   0.000000   0.000000   0.000000   0.000000
    19  C    0.000001   0.000000   0.000000   0.000000   0.000000   0.000000
    20  H    0.000000   0.000000   0.000000   0.000000   0.000000   0.000000
    21  C    0.000000   0.000000   0.000000   0.000000   0.000000   0.000000
    22  H    0.000000   0.000000   0.000000   0.000000   0.000000   0.000000
    23  H    0.000000   0.000000   0.000000   0.000000   0.000000   0.000000
    24  H    0.000000   0.000000   0.000000   0.000000   0.000000   0.000000
    25  C   -0.000124  -0.000014   0.000002   0.000000   0.000000   0.000000
    26  O   -0.000003  -0.000005   0.000000   0.000000   0.000000   0.000000
    27  N    0.002139   0.000006  -0.000113   0.000000   0.000006  -0.000001
    28  H    0.001013  -0.000054  -0.000009  -0.000025   0.000000   0.000000
    29  C   -0.106026   0.002479   0.006154   0.001162  -0.000143  -0.000163
    30  H    0.003401   0.003081  -0.000052  -0.000043  -0.000010  -0.000007
    31  C   -0.002145  -0.000004  -0.000265  -0.000030  -0.000007   0.000055
    32  H    0.000219  -0.000009   0.000006  -0.000011   0.000000  -0.000001
    33  H    0.003355   0.000503  -0.000083  -0.000002   0.000004  -0.000021
    34  H   -0.000053  -0.000045   0.000005   0.000001   0.000000  -0.000001
    35  C    0.275225  -0.019904  -0.024662  -0.000642   0.000577   0.001881
    36  O   -0.092366   0.003318  -0.008003   0.021023   0.000414   0.000457
    37  N    7.060712   0.304511   0.266037  -0.040445  -0.040564  -0.041597
    38  H    0.304511   0.407191  -0.031990   0.004131  -0.000892  -0.000934
    39  C    0.266037  -0.031990   4.965821   0.376590   0.381900   0.380705
    40  H   -0.040445   0.004131   0.376590   0.481535  -0.024717  -0.024180
    41  H   -0.040564  -0.000892   0.381900  -0.024717   0.563332  -0.040218
    42  H   -0.041597  -0.000934   0.380705  -0.024180  -0.040218   0.564766
 Mulliken atomic charges:
              1
     1  H    0.181642
     2  C   -0.533510
     3  H    0.183322
     4  H    0.152865
     5  C    0.597282
     6  O   -0.525208
     7  N   -0.604608
     8  H    0.352614
     9  C   -0.031428
    10  H    0.168401
    11  C   -0.442418
    12  H    0.161399
    13  H    0.137204
    14  H    0.190240
    15  C    0.617456
    16  O   -0.547731
    17  N   -0.613777
    18  H    0.339048
    19  C   -0.047445
    20  H    0.177908
    21  C   -0.437726
    22  H    0.163611
    23  H    0.189227
    24  H    0.137768
    25  C    0.624489
    26  O   -0.545118
    27  N   -0.643246
    28  H    0.403601
    29  C   -0.043511
    30  H    0.161439
    31  C   -0.445900
    32  H    0.168296
    33  H    0.139886
    34  H    0.180282
    35  C    0.608566
    36  O   -0.523451
    37  N   -0.593288
    38  H    0.328632
    39  C   -0.312043
    40  H    0.205654
    41  H    0.160318
    42  H    0.159258
 Sum of Mulliken atomic charges =   0.00000
 Mulliken charges with hydrogens summed into heavy atoms:
              1
     2  C   -0.015680
     5  C    0.597282
     6  O   -0.525208
     7  N   -0.251994
     9  C    0.136974
    11  C    0.046425
    15  C    0.617456
    16  O   -0.547731
    17  N   -0.274729
    19  C    0.130462
    21  C    0.052879
    25  C    0.624489
    26  O   -0.545118
    27  N   -0.239645
    29  C    0.117928
    31  C    0.042565
    35  C    0.608566
    36  O   -0.523451
    37  N   -0.264656
    39  C    0.213187
 Sum of Mulliken charges with hydrogens summed into heavy atoms =   0.00000
 Electronic spatial extent (au):  <R**2>=           7853.1163
 Charge=              0.0000 electrons
 Dipole moment (field-independent basis, Debye):
    X=             -2.7979    Y=              0.0994    Z=             -0.3716  Tot=              2.8242
 Quadrupole moment (field-independent basis, Debye-Ang):
   XX=           -120.3074   YY=           -112.0381   ZZ=           -118.4835
   XY=            -20.4269   XZ=              8.1697   YZ=              1.7171
 Traceless Quadrupole moment (field-independent basis, Debye-Ang):
   XX=             -3.3644   YY=              4.9049   ZZ=             -1.5405
   XY=            -20.4269   XZ=              8.1697   YZ=              1.7171
 Octapole moment (field-independent basis, Debye-Ang**2):
  XXX=           -203.5588  YYY=             39.1586  ZZZ=             -6.0271  XYY=             27.1576
  XXY=             51.2461  XXZ=             38.2136  XZZ=             -8.6564  YZZ=             -3.8481
  YYZ=             -7.6063  XYZ=             37.7839
 Hexadecapole moment (field-independent basis, Debye-Ang**3):
 XXXX=          -6623.9991 YYYY=          -3151.1985 ZZZZ=           -458.5439 XXXY=           -410.9263
 XXXZ=            312.1367 YYYX=           -103.5544 YYYZ=            -12.6920 ZZZX=              5.1861
 ZZZY=             14.7620 XXYY=          -1522.3210 XXZZ=          -1178.4795 YYZZ=           -606.3263
 XXYZ=             18.7961 YYXZ=              8.3191 ZZXY=            -23.5900
 N-N= 1.639477086283D+03 E-N=-5.588524976877D+03  KE= 9.813185477982D+02
 1\1\GINC-NODE005\FOpt\RB3LYP\6-31G(d)\C12H22N4O4\MANAGER\29-Dec-2016\0
 \\# b3lyp/6-31G* Opt=(ModRedundant, maxcycles=1000, calcfc) geom=nocro
 wd\\Phi Psi fixed scan\\0,1\H,8.1379698012,0.4568839809,2.1747922981\C
 ,8.4878699878,1.2816077627,1.5459557386\H,9.0180690072,0.8409628749,0.
 6960585366\H,9.1852675182,1.89807539,2.1209291489\C,7.2817926169,2.047
 8531381,1.0252041227\O,6.4093895996,1.5127394043,0.3461983657\N,7.2305
 695607,3.3667842203,1.3660935992\H,7.9747193269,3.8237585577,1.8797386
 874\C,6.1699351923,4.2344535596,0.8937511884\H,5.926948856,3.936884832
 2,-0.1334762363\C,4.8956110696,4.1140505854,1.7533584766\H,5.104771516
 8,4.4059940421,2.7875270195\H,4.0911936855,4.7504082977,1.3667750224\H
 ,4.5575659868,3.0749538412,1.7350385971\C,6.7167865914,5.67191307,0.92
 47182573\O,7.6221411621,5.9712834385,1.707256668\N,6.0840040134,6.5314
 17833,0.0907571712\H,5.3912084302,6.0984554713,-0.5066278407\C,6.24978
 763,7.9762032358,-0.1933069818\H,6.0215698188,8.0769595271,-1.25979260
 6\C,5.1995160245,8.7754065516,0.6023922822\H,5.3827693781,8.6738259179
 ,1.6773925498\H,5.2587422268,9.8304155891,0.3291610822\H,4.1916403207,
 8.4030660234,0.389408262\C,7.6166307129,8.7037942013,-0.0740571674\O,7
 .6161181712,9.8844182856,-0.4269396654\N,8.7317580246,8.0443908005,0.2
 989739193\H,8.6637352774,7.1514622027,0.789557768\C,10.0068406323,8.74
 29350921,0.3602778703\H,10.0341704328,9.4412636925,-0.4824819902\C,10.
 1706986247,9.5386819817,1.6701226722\H,10.1282378592,8.8627088285,2.53
 00888671\H,11.1297387996,10.0690410809,1.6916110384\H,9.3644029094,10.
 2727217678,1.7483663455\C,11.1189671451,7.6924297924,0.2352139622\O,10
 .9943497113,6.5660378851,0.7035746074\N,12.2515775178,8.1317342253,-0.
 3839949116\H,12.2552663011,9.0618279719,-0.7775613805\C,13.4392839177,
 7.3083371733,-0.5304415933\H,13.2324558529,6.3519853177,-0.0484126815\
 H,13.6726052278,7.1332612396,-1.5872698723\H,14.306423561,7.7751113165
 ,-0.0487311974\\Version=EM64L-G09RevA.02\State=1-A\HF=-990.4959857\RMS
 D=9.862e-09\RMSF=1.514e-03\Dipole=0.6663309,0.8380505,-0.2971066\Quadr
 upole=15.5515808,-16.0215608,0.46998,0.9675317,-3.7887371,-3.8634946\P
 G=C01 [X(C12H22N4O4)]\\@


 OLD AGE AND TREACHERY WILL ALWAYS PREVAIL OVER YOUTH AND SKILL.
 Job cpu time:  0 days  5 hours 50 minutes 32.9 seconds.
 File lengths (MBytes):  RWF=    608 Int=      0 D2E=      0 Chk=     11 Scr=      1
 Normal termination of Gaussian 09 at Thu Dec 29 22:11:10 2016.
