 Entering Gaussian System, Link 0=g09
 Initial command:
 /home/steboss/Software/g09/l1.exe /home/steboss/projects/phi_psi_scan/alanine/MP2/255/5450/Gau-11163.inp -scrdir=/home/steboss/projects/phi_psi_scan/alanine/MP2/255/5450/
 Entering Link 1 = /home/steboss/Software/g09/l1.exe PID=     11165.
  
 Copyright (c) 1988,1990,1992,1993,1995,1998,2003,2009, Gaussian, Inc.
                  All Rights Reserved.
  
 This is part of the Gaussian(R) 09 program.  It is based on
 the Gaussian(R) 03 system (copyright 2003, Gaussian, Inc.),
 the Gaussian(R) 98 system (copyright 1998, Gaussian, Inc.),
 the Gaussian(R) 94 system (copyright 1995, Gaussian, Inc.),
 the Gaussian 92(TM) system (copyright 1992, Gaussian, Inc.),
 the Gaussian 90(TM) system (copyright 1990, Gaussian, Inc.),
 the Gaussian 88(TM) system (copyright 1988, Gaussian, Inc.),
 the Gaussian 86(TM) system (copyright 1986, Carnegie Mellon
 University), and the Gaussian 82(TM) system (copyright 1983,
 Carnegie Mellon University). Gaussian is a federally registered
 trademark of Gaussian, Inc.
  
 This software contains proprietary and confidential information,
 including trade secrets, belonging to Gaussian, Inc.
  
 This software is provided under written license and may be
 used, copied, transmitted, or stored only in accord with that
 written license.
  
 The following legend is applicable only to US Government
 contracts under FAR:
  
                    RESTRICTED RIGHTS LEGEND
  
 Use, reproduction and disclosure by the US Government is
 subject to restrictions as set forth in subparagraphs (a)
 and (c) of the Commercial Computer Software - Restricted
 Rights clause in FAR 52.227-19.
  
 Gaussian, Inc.
 340 Quinnipiac St., Bldg. 40, Wallingford CT 06492
  
  
 ---------------------------------------------------------------
 Warning -- This program may not be used in any manner that
 competes with the business of Gaussian, Inc. or will provide
 assistance to any competitor of Gaussian, Inc.  The licensee
 of this program is prohibited from giving any competitor of
 Gaussian, Inc. access to this program.  By using this program,
 the user acknowledges that Gaussian, Inc. is engaged in the
 business of creating and licensing software in the field of
 computational chemistry and represents and warrants to the
 licensee that it is not a competitor of Gaussian, Inc. and that
 it will not use this program in any manner prohibited above.
 ---------------------------------------------------------------
  

 Cite this work as:
 Gaussian 09, Revision A.02,
 M. J. Frisch, G. W. Trucks, H. B. Schlegel, G. E. Scuseria, 
 M. A. Robb, J. R. Cheeseman, G. Scalmani, V. Barone, B. Mennucci, 
 G. A. Petersson, H. Nakatsuji, M. Caricato, X. Li, H. P. Hratchian, 
 A. F. Izmaylov, J. Bloino, G. Zheng, J. L. Sonnenberg, M. Hada, 
 M. Ehara, K. Toyota, R. Fukuda, J. Hasegawa, M. Ishida, T. Nakajima, 
 Y. Honda, O. Kitao, H. Nakai, T. Vreven, J. A. Montgomery, Jr., 
 J. E. Peralta, F. Ogliaro, M. Bearpark, J. J. Heyd, E. Brothers, 
 K. N. Kudin, V. N. Staroverov, R. Kobayashi, J. Normand, 
 K. Raghavachari, A. Rendell, J. C. Burant, S. S. Iyengar, J. Tomasi, 
 M. Cossi, N. Rega, J. M. Millam, M. Klene, J. E. Knox, J. B. Cross, 
 V. Bakken, C. Adamo, J. Jaramillo, R. Gomperts, R. E. Stratmann, 
 O. Yazyev, A. J. Austin, R. Cammi, C. Pomelli, J. W. Ochterski, 
 R. L. Martin, K. Morokuma, V. G. Zakrzewski, G. A. Voth, 
 P. Salvador, J. J. Dannenberg, S. Dapprich, A. D. Daniels, 
 O. Farkas, J. B. Foresman, J. V. Ortiz, J. Cioslowski, 
 and D. J. Fox, Gaussian, Inc., Wallingford CT, 2009.
 
 ******************************************
 Gaussian 09:  EM64L-G09RevA.02 11-Jun-2009
                13-Feb-2017 
 ******************************************
 %chk=structure_165.chk
 %NProcShared=8
 Will use up to    8 processors via shared memory.
 -------------------
 #SP MP2/aug-cc-pVDZ
 -------------------
 1/38=1/1;
 2/12=2,17=6,18=5,40=1/2;
 3/5=16,7=10,11=9,16=1,25=1,30=1/1,2,3;
 4//1;
 5/5=2,38=5/2;
 8/10=1/1;
 9/16=-3/6;
 6/7=2,8=2,9=2,10=2/1;
 99/5=1,9=1/99;
 -------------------------------
 Single Point calculation at MP2
 -------------------------------
 Symbolic Z-matrix:
 Charge =  0 Multiplicity = 1
 H                     4.1874   -0.8816    0.0915 
 C                     3.2302   -1.0057   -0.419 
 H                     2.9562   -2.0665   -0.3707 
 H                     3.335    -0.7252   -1.4718 
 C                     2.1754   -0.1847    0.3054 
 O                     2.2138    0.013     1.5129 
 N                     1.1891    0.3348   -0.5076 
 H                     1.0521   -0.1344   -1.3975 
 C                    -0.0508    0.8238    0.0716 
 H                     0.1259    0.9001    1.1493 
 C                    -0.4234    2.2049   -0.4961 
 H                    -0.5817    2.148    -1.5789 
 H                    -1.3418    2.5913   -0.0407 
 H                     0.3873    2.9134   -0.303 
 C                    -1.1676   -0.2039   -0.2077 
 O                    -1.051    -1.0493   -1.0903 
 N                    -2.2973   -0.0449    0.5362 
 H                    -2.2742    0.6125    1.3033 
 C                    -3.4555   -0.9135    0.4054 
 H                    -3.3123   -1.5165   -0.492 
 H                    -3.5576   -1.5821    1.269 
 H                    -4.3722   -0.3227    0.3035 
 
                          Input orientation:                          
 ---------------------------------------------------------------------
 Center     Atomic      Atomic             Coordinates (Angstroms)
 Number     Number       Type             X           Y           Z
 ---------------------------------------------------------------------
      1          1           0        4.187400   -0.881600    0.091500
      2          6           0        3.230200   -1.005700   -0.419000
      3          1           0        2.956200   -2.066500   -0.370700
      4          1           0        3.335000   -0.725200   -1.471800
      5          6           0        2.175400   -0.184700    0.305400
      6          8           0        2.213800    0.013000    1.512900
      7          7           0        1.189100    0.334800   -0.507600
      8          1           0        1.052100   -0.134400   -1.397500
      9          6           0       -0.050800    0.823800    0.071600
     10          1           0        0.125900    0.900100    1.149300
     11          6           0       -0.423400    2.204900   -0.496100
     12          1           0       -0.581700    2.148000   -1.578900
     13          1           0       -1.341800    2.591300   -0.040700
     14          1           0        0.387300    2.913400   -0.303000
     15          6           0       -1.167600   -0.203900   -0.207700
     16          8           0       -1.051000   -1.049300   -1.090300
     17          7           0       -2.297300   -0.044900    0.536200
     18          1           0       -2.274200    0.612500    1.303300
     19          6           0       -3.455500   -0.913500    0.405400
     20          1           0       -3.312300   -1.516500   -0.492000
     21          1           0       -3.557600   -1.582100    1.269000
     22          1           0       -4.372200   -0.322700    0.303500
 ---------------------------------------------------------------------
                    Distance matrix (angstroms):
                    1          2          3          4          5
     1  H    0.000000
     2  C    1.091899   0.000000
     3  H    1.770161   1.096679   0.000000
     4  H    1.787443   1.094555   1.776231   0.000000
     5  C    2.139992   1.520329   2.146609   2.189806   0.000000
     6  O    2.591483   2.408953   2.902314   3.272684   1.224180
     7  N    3.290646   2.443538   2.984565   2.580343   1.379724
     8  H    3.550427   2.541800   2.900504   2.359279   2.040637
     9  C    4.568493   3.788498   4.194224   4.030524   2.455138
    10  H    4.559515   3.965894   4.372838   4.450853   2.467673
    11  C    5.579537   4.864431   5.448145   4.864468   3.620270
    12  H    5.891776   5.081513   5.633693   4.858733   4.073534
    13  H    6.530740   5.829640   6.346401   5.909287   4.494069
    14  H    5.385018   4.843024   5.603859   4.826431   3.628454
    15  C    5.405999   4.475285   4.527866   4.705647   3.382202
    16  O    5.372672   4.333730   4.196448   4.414474   3.620106
    17  N    6.553561   5.691116   5.701631   6.018112   4.480832
    18  H    6.741889   5.990268   6.110352   6.399511   4.629284
    19  C    7.649410   6.736967   6.560613   7.047711   5.678748
    20  H    7.549111   6.562816   6.293751   6.765557   5.703016
    21  H    7.865255   7.018248   6.734452   7.466873   5.979008
    22  H    8.580447   7.667136   7.563123   7.919257   6.549054
                    6          7          8          9         10
     6  O    0.000000
     7  N    2.288228   0.000000
     8  H    3.137149   1.015303   0.000000
     9  C    2.804132   1.453253   2.071905   0.000000
    10  H    2.297494   2.048237   2.900729   1.094752   0.000000
    11  C    3.974334   2.469324   2.908943   1.539010   2.170616
    12  H    4.683190   2.751565   2.812749   2.181630   3.082374
    13  H    4.658712   3.422754   3.873126   2.191654   2.535823
    14  H    3.878906   2.708122   3.305900   2.167645   2.496173
    15  C    3.800181   2.436016   2.519429   1.543184   2.175640
    16  O    4.308602   2.696909   2.313967   2.420520   3.193910
    17  N    4.615985   3.659054   3.868551   2.453009   2.672230
    18  H    4.532712   3.918025   4.349305   2.550537   2.422170
    19  C    5.850292   4.895317   4.916900   3.836876   4.082764
    20  H    6.074272   4.867254   4.666703   4.053644   4.511656
    21  H    5.992736   5.418669   5.518640   4.418118   4.443402
    22  H    6.704531   5.658467   5.687872   4.476912   4.737459
                   11         12         13         14         15
    11  C    0.000000
    12  H    1.095788   0.000000
    13  H    1.095515   1.772097   0.000000
    14  H    1.093844   1.775590   1.778296   0.000000
    15  C    2.537583   2.784762   2.805598   3.484875   0.000000
    16  O    3.367012   3.268287   3.800025   4.288536   1.227713
    17  N    3.104633   3.496533   2.862751   4.082018   1.361944
    18  H    3.032992   3.678232   2.567363   3.867547   2.043084
    19  C    4.441931   4.644239   4.117081   5.469379   2.472632
    20  H    4.711112   4.697456   4.578271   5.774667   2.530510
    21  H    5.223041   5.556992   4.903300   6.184088   3.129246
    22  H    4.756169   4.900579   4.218198   5.787316   3.247291
                   16         17         18         19         20
    16  O    0.000000
    17  N    2.282013   0.000000
    18  H    3.160240   1.010520   0.000000
    19  C    2.834992   1.453617   2.128467   0.000000
    20  H    2.385313   2.062287   2.972103   1.090615   0.000000
    21  H    3.483277   2.118569   2.542550   1.096930   1.779212
    22  H    3.674370   2.106308   2.505155   1.095339   1.783639
                   21         22
    21  H    0.000000
    22  H    1.783775   0.000000
 Stoichiometry    C6H12N2O2
 Framework group  C1[X(C6H12N2O2)]
 Deg. of freedom    60
 Full point group                 C1      NOp   1
 Largest Abelian subgroup         C1      NOp   1
 Largest concise Abelian subgroup C1      NOp   1
                         Standard orientation:                         
 ---------------------------------------------------------------------
 Center     Atomic      Atomic             Coordinates (Angstroms)
 Number     Number       Type             X           Y           Z
 ---------------------------------------------------------------------
      1          1           0        4.187418   -0.881591    0.091492
      2          6           0        3.230218   -1.005695   -0.419008
      3          1           0        2.956222   -2.066496   -0.370708
      4          1           0        3.335017   -0.725194   -1.471808
      5          6           0        2.175415   -0.184699    0.305392
      6          8           0        2.213814    0.013001    1.512892
      7          7           0        1.189113    0.334797   -0.507608
      8          1           0        1.052115   -0.134403   -1.397508
      9          6           0       -0.050789    0.823792    0.071592
     10          1           0        0.125910    0.900093    1.149292
     11          6           0       -0.423395    2.204891   -0.496108
     12          1           0       -0.581695    2.147990   -1.578908
     13          1           0       -1.341796    2.591287   -0.040708
     14          1           0        0.387302    2.913394   -0.303008
     15          6           0       -1.167585   -0.203912   -0.207708
     16          8           0       -1.050982   -1.049312   -1.090308
     17          7           0       -2.297286   -0.044917    0.536192
     18          1           0       -2.274188    0.612483    1.303292
     19          6           0       -3.455482   -0.913522    0.405392
     20          1           0       -3.312280   -1.516521   -0.492008
     21          1           0       -3.557580   -1.582122    1.268992
     22          1           0       -4.372185   -0.322725    0.303492
 ---------------------------------------------------------------------
 Rotational constants (GHZ):      2.2563458      0.7150209      0.6616835
 Standard basis: Aug-CC-pVDZ (5D, 7F)
 There are   338 symmetry adapted basis functions of A   symmetry.
 Integral buffers will be    131072 words long.
 Raffenetti 1 integral format.
 Two-electron integral symmetry is turned on.
   338 basis functions,   562 primitive gaussians,   358 cartesian basis functions
    39 alpha electrons       39 beta electrons
       nuclear repulsion energy       551.1384880439 Hartrees.
 NAtoms=   22 NActive=   22 NUniq=   22 SFac= 7.50D-01 NAtFMM=   80 NAOKFM=F Big=F
 One-electron integrals computed using PRISM.
 NBasis=   338 RedAO= T  NBF=   338
 NBsUse=   338 1.00D-06 NBFU=   338
 Harris functional with IExCor=  205 diagonalized for initial guess.
 ExpMin= 2.97D-02 ExpMax= 1.17D+04 ExpMxC= 4.01D+02 IAcc=3 IRadAn=         0 AccDes= 0.00D+00
 HarFok:  IExCor=  205 AccDes= 0.00D+00 IRadAn=         0 IDoV= 1
 ScaDFX=  1.000000  1.000000  1.000000  1.000000
 FoFCou: FMM=F IPFlag=           0 FMFlag=      100000 FMFlg1=           0
         NFxFlg=           0 DoJE=T BraDBF=F KetDBF=T FulRan=T
         Omega=  0.000000  0.000000  1.000000  0.000000  0.000000 ICntrl=     500 IOpCl=  0
         NMat0=    1 NMatS0=    1 NMatT0=    0 NMatD0=    1 NMtDS0=    0 NMtDT0=    0
         I1Cent=           4 NGrid=           0.
 Petite list used in FoFCou.
 Initial guess orbital symmetries:
       Occupied  (A) (A) (A) (A) (A) (A) (A) (A) (A) (A) (A) (A)
                 (A) (A) (A) (A) (A) (A) (A) (A) (A) (A) (A) (A)
                 (A) (A) (A) (A) (A) (A) (A) (A) (A) (A) (A) (A)
                 (A) (A) (A)
       Virtual   (A) (A) (A) (A) (A) (A) (A) (A) (A) (A) (A) (A)
                 (A) (A) (A) (A) (A) (A) (A) (A) (A) (A) (A) (A)
                 (A) (A) (A) (A) (A) (A) (A) (A) (A) (A) (A) (A)
                 (A) (A) (A) (A) (A) (A) (A) (A) (A) (A) (A) (A)
                 (A) (A) (A) (A) (A) (A) (A) (A) (A) (A) (A) (A)
                 (A) (A) (A) (A) (A) (A) (A) (A) (A) (A) (A) (A)
                 (A) (A) (A) (A) (A) (A) (A) (A) (A) (A) (A) (A)
                 (A) (A) (A) (A) (A) (A) (A) (A) (A) (A) (A) (A)
                 (A) (A) (A) (A) (A) (A) (A) (A) (A) (A) (A) (A)
                 (A) (A) (A) (A) (A) (A) (A) (A) (A) (A) (A) (A)
                 (A) (A) (A) (A) (A) (A) (A) (A) (A) (A) (A) (A)
                 (A) (A) (A) (A) (A) (A) (A) (A) (A) (A) (A) (A)
                 (A) (A) (A) (A) (A) (A) (A) (A) (A) (A) (A) (A)
                 (A) (A) (A) (A) (A) (A) (A) (A) (A) (A) (A) (A)
                 (A) (A) (A) (A) (A) (A) (A) (A) (A) (A) (A) (A)
                 (A) (A) (A) (A) (A) (A) (A) (A) (A) (A) (A) (A)
                 (A) (A) (A) (A) (A) (A) (A) (A) (A) (A) (A) (A)
                 (A) (A) (A) (A) (A) (A) (A) (A) (A) (A) (A) (A)
                 (A) (A) (A) (A) (A) (A) (A) (A) (A) (A) (A) (A)
                 (A) (A) (A) (A) (A) (A) (A) (A) (A) (A) (A) (A)
                 (A) (A) (A) (A) (A) (A) (A) (A) (A) (A) (A) (A)
                 (A) (A) (A) (A) (A) (A) (A) (A) (A) (A) (A) (A)
                 (A) (A) (A) (A) (A) (A) (A) (A) (A) (A) (A) (A)
                 (A) (A) (A) (A) (A) (A) (A) (A) (A) (A) (A) (A)
                 (A) (A) (A) (A) (A) (A) (A) (A) (A) (A) (A)
 The electronic state of the initial guess is 1-A.
 Requested convergence on RMS density matrix=1.00D-08 within 128 cycles.
 Requested convergence on MAX density matrix=1.00D-06.
 Requested convergence on             energy=1.00D-06.
 No special actions if energy rises.
 Initial convergence to 1.0D-05 achieved.  Increase integral accuracy.
 SCF Done:  E(RHF) =  -492.926936428     A.U. after   14 cycles
             Convg  =    0.7544D-08             -V/T =  2.0017
 ExpMin= 2.97D-02 ExpMax= 1.17D+04 ExpMxC= 4.01D+02 IAcc=3 IRadAn=         5 AccDes= 0.00D+00
 HarFok:  IExCor=  205 AccDes= 0.00D+00 IRadAn=         5 IDoV=-2
 ScaDFX=  1.000000  1.000000  1.000000  1.000000
 Range of M.O.s used for correlation:    11   338
 NBasis=   338 NAE=    39 NBE=    39 NFC=    10 NFV=     0
 NROrb=    328 NOA=    29 NOB=    29 NVA=   299 NVB=   299

 **** Warning!!: The largest alpha MO coefficient is  0.83452676D+02

 Disk-based method using OVN memory for 29 occupieds at a time.
 Estimated scratch disk usage=  1376074513 words.
 Actual    scratch disk usage=  1363104979 words.
 JobTyp=1 Pass  1:  I=   1 to  29 NPSUse=  8 ParTrn=T ParDer=T DoDerP=F.
 Spin components of T(2) and E(2):
     alpha-alpha T2 =       0.6778400118D-01 E2=     -0.2055052200D+00
     alpha-beta  T2 =       0.3757710811D+00 E2=     -0.1188735392D+01
     beta-beta   T2 =       0.6778400118D-01 E2=     -0.2055052200D+00
 ANorm=    0.1229365317D+01
 E2 =    -0.1599745832D+01 EUMP2 =    -0.49452668225972D+03

 **********************************************************************

            Population analysis using the SCF density.

 **********************************************************************

 Orbital symmetries:
       Occupied  (A) (A) (A) (A) (A) (A) (A) (A) (A) (A) (A) (A)
                 (A) (A) (A) (A) (A) (A) (A) (A) (A) (A) (A) (A)
                 (A) (A) (A) (A) (A) (A) (A) (A) (A) (A) (A) (A)
                 (A) (A) (A)
       Virtual   (A) (A) (A) (A) (A) (A) (A) (A) (A) (A) (A) (A)
                 (A) (A) (A) (A) (A) (A) (A) (A) (A) (A) (A) (A)
                 (A) (A) (A) (A) (A) (A) (A) (A) (A) (A) (A) (A)
                 (A) (A) (A) (A) (A) (A) (A) (A) (A) (A) (A) (A)
                 (A) (A) (A) (A) (A) (A) (A) (A) (A) (A) (A) (A)
                 (A) (A) (A) (A) (A) (A) (A) (A) (A) (A) (A) (A)
                 (A) (A) (A) (A) (A) (A) (A) (A) (A) (A) (A) (A)
                 (A) (A) (A) (A) (A) (A) (A) (A) (A) (A) (A) (A)
                 (A) (A) (A) (A) (A) (A) (A) (A) (A) (A) (A) (A)
                 (A) (A) (A) (A) (A) (A) (A) (A) (A) (A) (A) (A)
                 (A) (A) (A) (A) (A) (A) (A) (A) (A) (A) (A) (A)
                 (A) (A) (A) (A) (A) (A) (A) (A) (A) (A) (A) (A)
                 (A) (A) (A) (A) (A) (A) (A) (A) (A) (A) (A) (A)
                 (A) (A) (A) (A) (A) (A) (A) (A) (A) (A) (A) (A)
                 (A) (A) (A) (A) (A) (A) (A) (A) (A) (A) (A) (A)
                 (A) (A) (A) (A) (A) (A) (A) (A) (A) (A) (A) (A)
                 (A) (A) (A) (A) (A) (A) (A) (A) (A) (A) (A) (A)
                 (A) (A) (A) (A) (A) (A) (A) (A) (A) (A) (A) (A)
                 (A) (A) (A) (A) (A) (A) (A) (A) (A) (A) (A) (A)
                 (A) (A) (A) (A) (A) (A) (A) (A) (A) (A) (A) (A)
                 (A) (A) (A) (A) (A) (A) (A) (A) (A) (A) (A) (A)
                 (A) (A) (A) (A) (A) (A) (A) (A) (A) (A) (A) (A)
                 (A) (A) (A) (A) (A) (A) (A) (A) (A) (A) (A) (A)
                 (A) (A) (A) (A) (A) (A) (A) (A) (A) (A) (A) (A)
                 (A) (A) (A) (A) (A) (A) (A) (A) (A) (A) (A)
 The electronic state is 1-A.
 Alpha  occ. eigenvalues --  -20.54010 -20.53074 -15.60362 -15.58715 -11.36626
 Alpha  occ. eigenvalues --  -11.36012 -11.29030 -11.27420 -11.24262 -11.24198
 Alpha  occ. eigenvalues --   -1.39490  -1.38160  -1.24120  -1.23386  -1.05513
 Alpha  occ. eigenvalues --   -0.99061  -0.96159  -0.87836  -0.80086  -0.78246
 Alpha  occ. eigenvalues --   -0.73197  -0.67438  -0.66006  -0.63519  -0.63106
 Alpha  occ. eigenvalues --   -0.61906  -0.59998  -0.58557  -0.57332  -0.56487
 Alpha  occ. eigenvalues --   -0.55345  -0.53995  -0.52979  -0.51809  -0.49809
 Alpha  occ. eigenvalues --   -0.43529  -0.42458  -0.40365  -0.39348
 Alpha virt. eigenvalues --    0.02893   0.03938   0.04316   0.04653   0.05611
 Alpha virt. eigenvalues --    0.06133   0.06194   0.07146   0.07273   0.07835
 Alpha virt. eigenvalues --    0.09163   0.09697   0.10548   0.11807   0.12661
 Alpha virt. eigenvalues --    0.13480   0.14088   0.14562   0.14761   0.14825
 Alpha virt. eigenvalues --    0.15342   0.16085   0.16425   0.16766   0.17733
 Alpha virt. eigenvalues --    0.18075   0.18494   0.18535   0.18868   0.18974
 Alpha virt. eigenvalues --    0.19567   0.19837   0.21262   0.21741   0.22594
 Alpha virt. eigenvalues --    0.23262   0.24024   0.25367   0.25637   0.26393
 Alpha virt. eigenvalues --    0.26738   0.27419   0.28909   0.29613   0.30145
 Alpha virt. eigenvalues --    0.31264   0.31953   0.32676   0.33345   0.33597
 Alpha virt. eigenvalues --    0.33946   0.34437   0.35284   0.36222   0.36681
 Alpha virt. eigenvalues --    0.37050   0.37448   0.38983   0.39134   0.39964
 Alpha virt. eigenvalues --    0.40587   0.41119   0.41507   0.42158   0.43174
 Alpha virt. eigenvalues --    0.43735   0.44123   0.44662   0.45051   0.45617
 Alpha virt. eigenvalues --    0.46347   0.47762   0.48061   0.48260   0.48744
 Alpha virt. eigenvalues --    0.49723   0.49874   0.51083   0.51969   0.52303
 Alpha virt. eigenvalues --    0.53263   0.54403   0.54796   0.54938   0.55840
 Alpha virt. eigenvalues --    0.56159   0.56706   0.57349   0.58419   0.58619
 Alpha virt. eigenvalues --    0.59551   0.60155   0.60975   0.61463   0.61786
 Alpha virt. eigenvalues --    0.62972   0.63599   0.64030   0.64473   0.64807
 Alpha virt. eigenvalues --    0.65651   0.65708   0.66886   0.67870   0.68506
 Alpha virt. eigenvalues --    0.68780   0.69552   0.70429   0.70726   0.71192
 Alpha virt. eigenvalues --    0.71542   0.72480   0.73734   0.74393   0.74858
 Alpha virt. eigenvalues --    0.75444   0.76047   0.76769   0.76894   0.77746
 Alpha virt. eigenvalues --    0.79261   0.80302   0.81215   0.82360   0.83301
 Alpha virt. eigenvalues --    0.83989   0.84694   0.85160   0.86904   0.88315
 Alpha virt. eigenvalues --    0.88642   0.90241   0.91263   0.91745   0.93505
 Alpha virt. eigenvalues --    0.94190   0.95560   0.96355   0.98556   0.99094
 Alpha virt. eigenvalues --    0.99921   1.00439   1.02241   1.04042   1.04624
 Alpha virt. eigenvalues --    1.06136   1.06648   1.08161   1.10636   1.11128
 Alpha virt. eigenvalues --    1.11446   1.12452   1.12958   1.14282   1.15198
 Alpha virt. eigenvalues --    1.16007   1.17843   1.19005   1.19824   1.21504
 Alpha virt. eigenvalues --    1.24199   1.24628   1.25543   1.27398   1.28806
 Alpha virt. eigenvalues --    1.30732   1.32134   1.33642   1.35069   1.37199
 Alpha virt. eigenvalues --    1.38318   1.39829   1.43367   1.44204   1.45917
 Alpha virt. eigenvalues --    1.48449   1.50009   1.51414   1.52625   1.54083
 Alpha virt. eigenvalues --    1.55802   1.56885   1.59574   1.60502   1.64144
 Alpha virt. eigenvalues --    1.64458   1.65275   1.69122   1.69751   1.70386
 Alpha virt. eigenvalues --    1.73917   1.74929   1.77246   1.78538   1.79428
 Alpha virt. eigenvalues --    1.81222   1.83525   1.84556   1.86127   1.86628
 Alpha virt. eigenvalues --    1.88875   1.89370   1.90773   1.92919   1.93810
 Alpha virt. eigenvalues --    1.95555   1.98517   1.98643   1.99414   2.01260
 Alpha virt. eigenvalues --    2.02912   2.03679   2.05455   2.05990   2.08018
 Alpha virt. eigenvalues --    2.09613   2.10442   2.12068   2.14737   2.16029
 Alpha virt. eigenvalues --    2.17637   2.20520   2.20976   2.21479   2.23817
 Alpha virt. eigenvalues --    2.24891   2.26601   2.27348   2.28228   2.29914
 Alpha virt. eigenvalues --    2.30748   2.32172   2.33965   2.34764   2.35586
 Alpha virt. eigenvalues --    2.38935   2.40164   2.40979   2.41375   2.44235
 Alpha virt. eigenvalues --    2.45858   2.46614   2.48582   2.50231   2.52046
 Alpha virt. eigenvalues --    2.53216   2.54245   2.55052   2.57973   2.59666
 Alpha virt. eigenvalues --    2.60923   2.63332   2.65984   2.68146   2.69286
 Alpha virt. eigenvalues --    2.69864   2.71204   2.74297   2.76652   2.78176
 Alpha virt. eigenvalues --    2.80635   2.84023   2.85881   2.88031   2.88431
 Alpha virt. eigenvalues --    2.89549   2.91954   2.96349   2.96909   2.98428
 Alpha virt. eigenvalues --    2.99875   3.01766   3.02703   3.05581   3.08253
 Alpha virt. eigenvalues --    3.09326   3.10687   3.16055   3.21108   3.24403
 Alpha virt. eigenvalues --    3.26645   3.29265   3.40045   3.46325   3.51492
 Alpha virt. eigenvalues --    3.61244   3.66663   3.73518   3.80670   3.83327
 Alpha virt. eigenvalues --    3.84195   3.88003   3.90722   3.99425   4.01539
 Alpha virt. eigenvalues --    4.07415   4.09850   4.19975   4.26825
          Condensed to atoms (all electrons):
              1          2          3          4          5          6
     1  H    0.807834   0.365100  -0.062089  -0.100633  -0.044787   0.026771
     2  C    0.365100   4.491253   0.346587   0.351865   0.258855  -0.039405
     3  H   -0.062089   0.346587   0.722458  -0.064767  -0.059246   0.016054
     4  H   -0.100633   0.351865  -0.064767   0.984781   0.055958  -0.006721
     5  C   -0.044787   0.258855  -0.059246   0.055958   5.146552   0.158882
     6  O    0.026771  -0.039405   0.016054  -0.006721   0.158882   8.722421
     7  N    0.033099   0.003800   0.020776  -0.127291   0.143900  -0.103116
     8  H   -0.005059  -0.063707  -0.001713   0.013065  -0.080777   0.006673
     9  C   -0.000580  -0.094030   0.001215  -0.022937  -0.153240   0.033201
    10  H    0.000823  -0.004088  -0.000383   0.000228   0.024754  -0.019715
    11  C   -0.001903   0.005677   0.002233  -0.003348  -0.005879  -0.000751
    12  H   -0.000561  -0.003724  -0.000337   0.000572  -0.007396   0.000403
    13  H    0.000230   0.003188   0.000240  -0.000539  -0.000019  -0.001170
    14  H    0.000020   0.001890   0.000187   0.000249   0.018545  -0.001219
    15  C   -0.003993   0.022925   0.012477  -0.010290  -0.086943   0.054422
    16  O   -0.000716  -0.000414   0.000257   0.001827   0.016116  -0.003802
    17  N    0.000225   0.002831   0.000056   0.000762   0.001097  -0.002521
    18  H   -0.000039  -0.000966   0.000025  -0.000348  -0.000756   0.001646
    19  C    0.000212   0.002572  -0.000075  -0.000097   0.001202   0.001559
    20  H   -0.000003   0.000288  -0.000045   0.000094   0.000186   0.000155
    21  H   -0.000001   0.000135  -0.000018  -0.000010  -0.001507   0.000227
    22  H    0.000023   0.000158   0.000030  -0.000015   0.001913  -0.000064
              7          8          9         10         11         12
     1  H    0.033099  -0.005059  -0.000580   0.000823  -0.001903  -0.000561
     2  C    0.003800  -0.063707  -0.094030  -0.004088   0.005677  -0.003724
     3  H    0.020776  -0.001713   0.001215  -0.000383   0.002233  -0.000337
     4  H   -0.127291   0.013065  -0.022937   0.000228  -0.003348   0.000572
     5  C    0.143900  -0.080777  -0.153240   0.024754  -0.005879  -0.007396
     6  O   -0.103116   0.006673   0.033201  -0.019715  -0.000751   0.000403
     7  N    7.875393   0.262492  -0.992941  -0.007992   0.017402  -0.083943
     8  H    0.262492   0.863665   0.104994   0.003489  -0.033713   0.005927
     9  C   -0.992941   0.104994   9.941639  -0.273682  -0.122636   0.097943
    10  H   -0.007992   0.003489  -0.273682   1.385334  -0.029508   0.075358
    11  C    0.017402  -0.033713  -0.122636  -0.029508   4.357124   0.356403
    12  H   -0.083943   0.005927   0.097943   0.075358   0.356403   1.036701
    13  H    0.147041  -0.000574  -0.282704  -0.056857   0.286089  -0.149121
    14  H   -0.029833  -0.004745  -0.026303  -0.044059   0.305608  -0.200468
    15  C    0.476037  -0.062781  -1.968181   0.058440   0.021896  -0.109264
    16  O   -0.053676   0.004034   0.144576  -0.021720  -0.002250   0.014718
    17  N   -0.074358  -0.003157   0.100210  -0.016266   0.018780   0.005236
    18  H    0.011257   0.002651  -0.111480   0.016385  -0.015427   0.000986
    19  C    0.004603  -0.005067  -0.183902   0.005644   0.015967  -0.005406
    20  H    0.000393  -0.000650   0.013493   0.003988  -0.014544  -0.002396
    21  H   -0.001793  -0.000747   0.003822  -0.000755   0.005661   0.000861
    22  H    0.004596   0.000521  -0.040340  -0.003296   0.010742  -0.001212
             13         14         15         16         17         18
     1  H    0.000230   0.000020  -0.003993  -0.000716   0.000225  -0.000039
     2  C    0.003188   0.001890   0.022925  -0.000414   0.002831  -0.000966
     3  H    0.000240   0.000187   0.012477   0.000257   0.000056   0.000025
     4  H   -0.000539   0.000249  -0.010290   0.001827   0.000762  -0.000348
     5  C   -0.000019   0.018545  -0.086943   0.016116   0.001097  -0.000756
     6  O   -0.001170  -0.001219   0.054422  -0.003802  -0.002521   0.001646
     7  N    0.147041  -0.029833   0.476037  -0.053676  -0.074358   0.011257
     8  H   -0.000574  -0.004745  -0.062781   0.004034  -0.003157   0.002651
     9  C   -0.282704  -0.026303  -1.968181   0.144576   0.100210  -0.111480
    10  H   -0.056857  -0.044059   0.058440  -0.021720  -0.016266   0.016385
    11  C    0.286089   0.305608   0.021896  -0.002250   0.018780  -0.015427
    12  H   -0.149121  -0.200468  -0.109264   0.014718   0.005236   0.000986
    13  H    1.185434  -0.143261   0.126290  -0.012578  -0.038247   0.001140
    14  H   -0.143261   1.095858   0.067392  -0.001423   0.023804  -0.004580
    15  C    0.126290   0.067392   6.000863   0.173385   0.096794   0.045446
    16  O   -0.012578  -0.001423   0.173385   8.732100  -0.164716   0.006141
    17  N   -0.038247   0.023804   0.096794  -0.164716   7.212771   0.222251
    18  H    0.001140  -0.004580   0.045446   0.006141   0.222251   1.029294
    19  C   -0.002530   0.008494  -0.031865   0.011737   0.249180  -0.105281
    20  H    0.000335   0.000661   0.008172  -0.002029  -0.046052  -0.002124
    21  H   -0.001402   0.000302  -0.058746   0.008572   0.015464   0.001385
    22  H    0.002652   0.000456   0.017203   0.011229  -0.104094   0.014208
             19         20         21         22
     1  H    0.000212  -0.000003  -0.000001   0.000023
     2  C    0.002572   0.000288   0.000135   0.000158
     3  H   -0.000075  -0.000045  -0.000018   0.000030
     4  H   -0.000097   0.000094  -0.000010  -0.000015
     5  C    0.001202   0.000186  -0.001507   0.001913
     6  O    0.001559   0.000155   0.000227  -0.000064
     7  N    0.004603   0.000393  -0.001793   0.004596
     8  H   -0.005067  -0.000650  -0.000747   0.000521
     9  C   -0.183902   0.013493   0.003822  -0.040340
    10  H    0.005644   0.003988  -0.000755  -0.003296
    11  C    0.015967  -0.014544   0.005661   0.010742
    12  H   -0.005406  -0.002396   0.000861  -0.001212
    13  H   -0.002530   0.000335  -0.001402   0.002652
    14  H    0.008494   0.000661   0.000302   0.000456
    15  C   -0.031865   0.008172  -0.058746   0.017203
    16  O    0.011737  -0.002029   0.008572   0.011229
    17  N    0.249180  -0.046052   0.015464  -0.104094
    18  H   -0.105281  -0.002124   0.001385   0.014208
    19  C    4.155358   0.461869   0.348474   0.366129
    20  H    0.461869   0.957887  -0.104642  -0.134298
    21  H    0.348474  -0.104642   1.011575  -0.148332
    22  H    0.366129  -0.134298  -0.148332   1.127354
 Mulliken atomic charges:
              1
     1  H   -0.013972
     2  C    0.349210
     3  H    0.066076
     4  H   -0.072406
     5  C    0.612589
     6  O   -0.843932
     7  N   -0.525846
     8  H   -0.004822
     9  C   -0.168137
    10  H   -0.096121
    11  C    0.826376
    12  H   -0.031282
    13  H   -0.063637
    14  H   -0.067573
    15  C    1.150319
    16  O   -0.861369
    17  N   -0.500049
    18  H   -0.111816
    19  C    0.701224
    20  H   -0.140738
    21  H   -0.078525
    22  H   -0.125565
 Sum of Mulliken atomic charges =   0.00000
 Mulliken charges with hydrogens summed into heavy atoms:
              1
     2  C    0.328908
     5  C    0.612589
     6  O   -0.843932
     7  N   -0.530669
     9  C   -0.264258
    11  C    0.663884
    15  C    1.150319
    16  O   -0.861369
    17  N   -0.611866
    19  C    0.356396
 Sum of Mulliken charges with hydrogens summed into heavy atoms =   0.00000
 Electronic spatial extent (au):  <R**2>=           1881.5590
 Charge=              0.0000 electrons
 Dipole moment (field-independent basis, Debye):
    X=             -2.3456    Y=              1.3483    Z=             -0.6299  Tot=              2.7778
 Quadrupole moment (field-independent basis, Debye-Ang):
   XX=            -53.7765   YY=            -60.7836   ZZ=            -66.3824
   XY=             -4.4706   XZ=            -12.9568   YZ=             -1.1375
 Traceless Quadrupole moment (field-independent basis, Debye-Ang):
   XX=              6.5376   YY=             -0.4694   ZZ=             -6.0682
   XY=             -4.4706   XZ=            -12.9568   YZ=             -1.1375
 Octapole moment (field-independent basis, Debye-Ang**2):
  XXX=            -19.5669  YYY=             -0.7930  ZZZ=             -6.4697  XYY=              1.4622
  XXY=            -12.8204  XXZ=             -8.2308  XZZ=            -13.4270  YZZ=              3.5616
  YYZ=              5.3538  XYZ=              2.5357
 Hexadecapole moment (field-independent basis, Debye-Ang**3):
 XXXX=          -1593.2513 YYYY=           -467.8664 ZZZZ=           -277.4801 XXXY=             -3.8522
 XXXZ=            -52.5107 YYYX=             -0.5648 YYYZ=              1.9971 ZZZX=            -33.3665
 ZZZY=              2.8023 XXYY=           -355.4344 XXZZ=           -358.8706 YYZZ=           -126.8577
 XXYZ=              5.0369 YYXZ=             -3.3660 ZZXY=             -5.7248
 N-N= 5.511384880439D+02 E-N=-2.257555493109D+03  KE= 4.920836378990D+02
 1\1\GINC-NODE004\SP\RMP2-FC\Aug-CC-pVDZ\C6H12N2O2\STEBOSS\13-Feb-2017\
 0\\#SP MP2/aug-cc-pVDZ\\Single Point calculation at MP2\\0,1\H,0,4.187
 4,-0.8816,0.0915\C,0,3.2302,-1.0057,-0.419\H,0,2.9562,-2.0665,-0.3707\
 H,0,3.335,-0.7252,-1.4718\C,0,2.1754,-0.1847,0.3054\O,0,2.2138,0.013,1
 .5129\N,0,1.1891,0.3348,-0.5076\H,0,1.0521,-0.1344,-1.3975\C,0,-0.0508
 ,0.8238,0.0716\H,0,0.1259,0.9001,1.1493\C,0,-0.4234,2.2049,-0.4961\H,0
 ,-0.5817,2.148,-1.5789\H,0,-1.3418,2.5913,-0.0407\H,0,0.3873,2.9134,-0
 .303\C,0,-1.1676,-0.2039,-0.2077\O,0,-1.051,-1.0493,-1.0903\N,0,-2.297
 3,-0.0449,0.5362\H,0,-2.2742,0.6125,1.3033\C,0,-3.4555,-0.9135,0.4054\
 H,0,-3.3123,-1.5165,-0.492\H,0,-3.5576,-1.5821,1.269\H,0,-4.3722,-0.32
 27,0.3035\\Version=EM64L-G09RevA.02\State=1-A\HF=-492.9269364\MP2=-494
 .5266823\RMSD=7.544e-09\PG=C01 [X(C6H12N2O2)]\\@


 FESTINA LENTE!
     - IMPERATOR AUGUSTUS 
 Job cpu time:  0 days 12 hours 58 minutes  9.2 seconds.
 File lengths (MBytes):  RWF=  10516 Int=      0 D2E=      0 Chk=      7 Scr=      2
 Normal termination of Gaussian 09 at Mon Feb 13 09:36:00 2017.
