 Entering Gaussian System, Link 0=g09
 Initial command:
 /home/steboss/Software/g09/l1.exe /home/steboss/projects/phi_psi_scan/alanine/MP2/255/5449/Gau-24355.inp -scrdir=/home/steboss/projects/phi_psi_scan/alanine/MP2/255/5449/
 Entering Link 1 = /home/steboss/Software/g09/l1.exe PID=     24357.
  
 Copyright (c) 1988,1990,1992,1993,1995,1998,2003,2009, Gaussian, Inc.
                  All Rights Reserved.
  
 This is part of the Gaussian(R) 09 program.  It is based on
 the Gaussian(R) 03 system (copyright 2003, Gaussian, Inc.),
 the Gaussian(R) 98 system (copyright 1998, Gaussian, Inc.),
 the Gaussian(R) 94 system (copyright 1995, Gaussian, Inc.),
 the Gaussian 92(TM) system (copyright 1992, Gaussian, Inc.),
 the Gaussian 90(TM) system (copyright 1990, Gaussian, Inc.),
 the Gaussian 88(TM) system (copyright 1988, Gaussian, Inc.),
 the Gaussian 86(TM) system (copyright 1986, Carnegie Mellon
 University), and the Gaussian 82(TM) system (copyright 1983,
 Carnegie Mellon University). Gaussian is a federally registered
 trademark of Gaussian, Inc.
  
 This software contains proprietary and confidential information,
 including trade secrets, belonging to Gaussian, Inc.
  
 This software is provided under written license and may be
 used, copied, transmitted, or stored only in accord with that
 written license.
  
 The following legend is applicable only to US Government
 contracts under FAR:
  
                    RESTRICTED RIGHTS LEGEND
  
 Use, reproduction and disclosure by the US Government is
 subject to restrictions as set forth in subparagraphs (a)
 and (c) of the Commercial Computer Software - Restricted
 Rights clause in FAR 52.227-19.
  
 Gaussian, Inc.
 340 Quinnipiac St., Bldg. 40, Wallingford CT 06492
  
  
 ---------------------------------------------------------------
 Warning -- This program may not be used in any manner that
 competes with the business of Gaussian, Inc. or will provide
 assistance to any competitor of Gaussian, Inc.  The licensee
 of this program is prohibited from giving any competitor of
 Gaussian, Inc. access to this program.  By using this program,
 the user acknowledges that Gaussian, Inc. is engaged in the
 business of creating and licensing software in the field of
 computational chemistry and represents and warrants to the
 licensee that it is not a competitor of Gaussian, Inc. and that
 it will not use this program in any manner prohibited above.
 ---------------------------------------------------------------
  

 Cite this work as:
 Gaussian 09, Revision A.02,
 M. J. Frisch, G. W. Trucks, H. B. Schlegel, G. E. Scuseria, 
 M. A. Robb, J. R. Cheeseman, G. Scalmani, V. Barone, B. Mennucci, 
 G. A. Petersson, H. Nakatsuji, M. Caricato, X. Li, H. P. Hratchian, 
 A. F. Izmaylov, J. Bloino, G. Zheng, J. L. Sonnenberg, M. Hada, 
 M. Ehara, K. Toyota, R. Fukuda, J. Hasegawa, M. Ishida, T. Nakajima, 
 Y. Honda, O. Kitao, H. Nakai, T. Vreven, J. A. Montgomery, Jr., 
 J. E. Peralta, F. Ogliaro, M. Bearpark, J. J. Heyd, E. Brothers, 
 K. N. Kudin, V. N. Staroverov, R. Kobayashi, J. Normand, 
 K. Raghavachari, A. Rendell, J. C. Burant, S. S. Iyengar, J. Tomasi, 
 M. Cossi, N. Rega, J. M. Millam, M. Klene, J. E. Knox, J. B. Cross, 
 V. Bakken, C. Adamo, J. Jaramillo, R. Gomperts, R. E. Stratmann, 
 O. Yazyev, A. J. Austin, R. Cammi, C. Pomelli, J. W. Ochterski, 
 R. L. Martin, K. Morokuma, V. G. Zakrzewski, G. A. Voth, 
 P. Salvador, J. J. Dannenberg, S. Dapprich, A. D. Daniels, 
 O. Farkas, J. B. Foresman, J. V. Ortiz, J. Cioslowski, 
 and D. J. Fox, Gaussian, Inc., Wallingford CT, 2009.
 
 ******************************************
 Gaussian 09:  EM64L-G09RevA.02 11-Jun-2009
                13-Feb-2017 
 ******************************************
 %chk=structure_15.chk
 %NProcShared=8
 Will use up to    8 processors via shared memory.
 -------------------
 #SP MP2/aug-cc-pVDZ
 -------------------
 1/38=1/1;
 2/12=2,17=6,18=5,40=1/2;
 3/5=16,7=10,11=9,16=1,25=1,30=1/1,2,3;
 4//1;
 5/5=2,38=5/2;
 8/10=1/1;
 9/16=-3/6;
 6/7=2,8=2,9=2,10=2/1;
 99/5=1,9=1/99;
 -------------------------------
 Single Point calculation at MP2
 -------------------------------
 Symbolic Z-matrix:
 Charge =  0 Multiplicity = 1
 H                     3.433    -1.8161   -0.3391 
 C                     3.183    -0.7916   -0.6271 
 H                     2.999    -0.7546   -1.7057 
 H                     4.0537   -0.167    -0.3993 
 C                     2.0061   -0.3176    0.2137 
 O                     1.9584   -0.4914    1.4235 
 N                     1.0055    0.3207   -0.4826 
 H                     1.1456    0.5041   -1.4673 
 C                    -0.1072    1.0021    0.1751 
 H                     0.1599    1.0346    1.2375 
 C                    -0.2791    2.4274   -0.3569 
 H                    -0.4561    2.4264   -1.4403 
 H                    -1.1453    2.8897    0.1194 
 H                     0.6143    3.0245   -0.1501 
 C                    -1.4499    0.2363    0.1134 
 O                    -2.4985    0.8046    0.3996 
 N                    -1.3701   -1.0731   -0.2436 
 H                    -0.45     -1.4567   -0.4018 
 C                    -2.5209   -1.9568   -0.2311 
 H                    -3.4025   -1.3425   -0.0424 
 H                    -2.634    -2.4661   -1.1951 
 H                    -2.4369   -2.7124    0.5598 
 
                          Input orientation:                          
 ---------------------------------------------------------------------
 Center     Atomic      Atomic             Coordinates (Angstroms)
 Number     Number       Type             X           Y           Z
 ---------------------------------------------------------------------
      1          1           0        3.433000   -1.816100   -0.339100
      2          6           0        3.183000   -0.791600   -0.627100
      3          1           0        2.999000   -0.754600   -1.705700
      4          1           0        4.053700   -0.167000   -0.399300
      5          6           0        2.006100   -0.317600    0.213700
      6          8           0        1.958400   -0.491400    1.423500
      7          7           0        1.005500    0.320700   -0.482600
      8          1           0        1.145600    0.504100   -1.467300
      9          6           0       -0.107200    1.002100    0.175100
     10          1           0        0.159900    1.034600    1.237500
     11          6           0       -0.279100    2.427400   -0.356900
     12          1           0       -0.456100    2.426400   -1.440300
     13          1           0       -1.145300    2.889700    0.119400
     14          1           0        0.614300    3.024500   -0.150100
     15          6           0       -1.449900    0.236300    0.113400
     16          8           0       -2.498500    0.804600    0.399600
     17          7           0       -1.370100   -1.073100   -0.243600
     18          1           0       -0.450000   -1.456700   -0.401800
     19          6           0       -2.520900   -1.956800   -0.231100
     20          1           0       -3.402500   -1.342500   -0.042400
     21          1           0       -2.634000   -2.466100   -1.195100
     22          1           0       -2.436900   -2.712400    0.559800
 ---------------------------------------------------------------------
                    Distance matrix (angstroms):
                    1          2          3          4          5
     1  H    0.000000
     2  C    1.093181   0.000000
     3  H    1.784022   1.094807   0.000000
     4  H    1.763072   1.095507   1.778861   0.000000
     5  C    2.141759   1.522076   2.204748   2.142689   0.000000
     6  O    2.652552   2.407224   3.308174   2.796090   1.223151
     7  N    3.237169   2.449408   2.574157   3.088092   1.376031
     8  H    3.447950   2.556516   2.253054   3.169865   2.059469
     9  C    4.554083   3.832271   4.033842   4.360025   2.491814
    10  H    4.617937   3.993854   4.463648   4.391427   2.507003
    11  C    5.638022   4.735093   4.763436   5.050333   3.617008
    12  H    5.859739   4.925431   4.703925   5.305441   4.040753
    13  H    6.581459   5.730917   5.812670   6.053269   4.497442
    14  H    5.604659   4.624756   4.731626   4.698643   3.638556
    15  C    5.315996   4.802987   4.907517   5.542123   3.501543
    16  O    6.526595   5.990109   6.089819   6.671849   4.646000
    17  N    4.861166   4.577885   4.618248   5.501170   3.489789
    18  H    3.900101   3.700244   3.753492   4.684725   2.776476
    19  C    5.956541   5.835151   5.838581   6.815940   4.835137
    20  H    6.858308   6.634318   6.640135   7.556725   5.510804
    21  H    6.161471   6.079808   5.909368   7.116494   5.303895
    22  H    6.005589   6.056524   6.206004   7.037530   5.059160
                    6          7          8          9         10
     6  O    0.000000
     7  N    2.280514   0.000000
     8  H    3.163604   1.011384   0.000000
     9  C    2.838265   1.461156   2.124850   0.000000
    10  H    2.365983   2.045345   2.927282   1.095944   0.000000
    11  C    4.086028   2.470664   2.638530   1.531030   2.162111
    12  H    4.748128   2.736318   2.502281   2.181715   3.080126
    13  H    4.771317   3.404131   3.668368   2.154945   2.528852
    14  H    4.079752   2.752113   2.893045   2.171732   2.468120
    15  C    3.723227   2.528108   3.050729   1.546965   2.119514
    16  O    4.753098   3.645607   4.105494   2.409922   2.796796
    17  N    3.767826   2.764647   3.211502   2.465093   2.996157
    18  H    3.172367   2.298730   2.743349   2.548730   3.043987
    19  C    4.994920   4.205444   4.585569   3.840057   4.276909
    20  H    5.622498   4.731857   5.111310   4.050118   4.469837
    21  H    5.643283   4.638951   4.814723   4.504506   5.096893
    22  H    4.999748   4.704935   5.223917   4.401478   4.608976
                   11         12         13         14         15
    11  C    0.000000
    12  H    1.097764   0.000000
    13  H    1.091277   1.767005   0.000000
    14  H    1.094284   1.779915   1.785215   0.000000
    15  C    2.528413   2.863243   2.670833   3.479140   0.000000
    16  O    2.851580   3.191687   2.501460   3.862596   1.226555
    17  N    3.668326   3.809723   3.985736   4.553780   1.359539
    18  H    3.888117   4.019575   4.432413   4.612726   2.032604
    19  C    4.925718   4.993797   5.050118   5.886373   2.464834
    20  H    4.905781   4.983975   4.799234   5.934389   2.515856
    21  H    5.494950   5.360963   5.712156   6.464531   3.227574
    22  H    5.649246   5.859286   5.765909   6.536498   3.141381
                   16         17         18         19         20
    16  O    0.000000
    17  N    2.283145   0.000000
    18  H    3.154690   1.009337   0.000000
    19  C    2.832598   1.451007   2.137256   0.000000
    20  H    2.371206   2.060026   2.976486   1.090959   0.000000
    21  H    3.641278   2.107900   2.533391   1.096118   1.783756
    22  H    3.521186   2.114431   2.539533   1.097046   1.780914
                   21         22
    21  H    0.000000
    22  H    1.783027   0.000000
 Stoichiometry    C6H12N2O2
 Framework group  C1[X(C6H12N2O2)]
 Deg. of freedom    60
 Full point group                 C1      NOp   1
 Largest Abelian subgroup         C1      NOp   1
 Largest concise Abelian subgroup C1      NOp   1
                         Standard orientation:                         
 ---------------------------------------------------------------------
 Center     Atomic      Atomic             Coordinates (Angstroms)
 Number     Number       Type             X           Y           Z
 ---------------------------------------------------------------------
      1          1           0        3.433024   -1.816082   -0.339095
      2          6           0        3.183013   -0.791584   -0.627095
      3          1           0        2.999012   -0.754586   -1.705695
      4          1           0        4.053706   -0.166975   -0.399295
      5          6           0        2.006107   -0.317597    0.213705
      6          8           0        1.958409   -0.491398    1.423505
      7          7           0        1.005500    0.320692   -0.482595
      8          1           0        1.145598    0.504093   -1.467295
      9          6           0       -0.107207    1.002080    0.175105
     10          1           0        0.159893    1.034583    1.237505
     11          6           0       -0.279123    2.427378   -0.356895
     12          1           0       -0.456123    2.426376   -1.440295
     13          1           0       -1.145328    2.889668    0.119405
     14          1           0        0.614271    3.024487   -0.150095
     15          6           0       -1.449899    0.236265    0.113405
     16          8           0       -2.498505    0.804553    0.399605
     17          7           0       -1.370084   -1.073134   -0.243595
     18          1           0       -0.449980   -1.456724   -0.401795
     19          6           0       -2.520875   -1.956847   -0.231095
     20          1           0       -3.402481   -1.342556   -0.042395
     21          1           0       -2.633969   -2.466148   -1.195095
     22          1           0       -2.436866   -2.712446    0.559805
 ---------------------------------------------------------------------
 Rotational constants (GHZ):      1.8461174      0.8456611      0.6685169
 Standard basis: Aug-CC-pVDZ (5D, 7F)
 There are   338 symmetry adapted basis functions of A   symmetry.
 Integral buffers will be    131072 words long.
 Raffenetti 1 integral format.
 Two-electron integral symmetry is turned on.
   338 basis functions,   562 primitive gaussians,   358 cartesian basis functions
    39 alpha electrons       39 beta electrons
       nuclear repulsion energy       553.4315534552 Hartrees.
 NAtoms=   22 NActive=   22 NUniq=   22 SFac= 7.50D-01 NAtFMM=   80 NAOKFM=F Big=F
 One-electron integrals computed using PRISM.
 NBasis=   338 RedAO= T  NBF=   338
 NBsUse=   338 1.00D-06 NBFU=   338
 Harris functional with IExCor=  205 diagonalized for initial guess.
 ExpMin= 2.97D-02 ExpMax= 1.17D+04 ExpMxC= 4.01D+02 IAcc=3 IRadAn=         0 AccDes= 0.00D+00
 HarFok:  IExCor=  205 AccDes= 0.00D+00 IRadAn=         0 IDoV= 1
 ScaDFX=  1.000000  1.000000  1.000000  1.000000
 FoFCou: FMM=F IPFlag=           0 FMFlag=      100000 FMFlg1=           0
         NFxFlg=           0 DoJE=T BraDBF=F KetDBF=T FulRan=T
         Omega=  0.000000  0.000000  1.000000  0.000000  0.000000 ICntrl=     500 IOpCl=  0
         NMat0=    1 NMatS0=    1 NMatT0=    0 NMatD0=    1 NMtDS0=    0 NMtDT0=    0
         I1Cent=           4 NGrid=           0.
 Petite list used in FoFCou.
 Initial guess orbital symmetries:
       Occupied  (A) (A) (A) (A) (A) (A) (A) (A) (A) (A) (A) (A)
                 (A) (A) (A) (A) (A) (A) (A) (A) (A) (A) (A) (A)
                 (A) (A) (A) (A) (A) (A) (A) (A) (A) (A) (A) (A)
                 (A) (A) (A)
       Virtual   (A) (A) (A) (A) (A) (A) (A) (A) (A) (A) (A) (A)
                 (A) (A) (A) (A) (A) (A) (A) (A) (A) (A) (A) (A)
                 (A) (A) (A) (A) (A) (A) (A) (A) (A) (A) (A) (A)
                 (A) (A) (A) (A) (A) (A) (A) (A) (A) (A) (A) (A)
                 (A) (A) (A) (A) (A) (A) (A) (A) (A) (A) (A) (A)
                 (A) (A) (A) (A) (A) (A) (A) (A) (A) (A) (A) (A)
                 (A) (A) (A) (A) (A) (A) (A) (A) (A) (A) (A) (A)
                 (A) (A) (A) (A) (A) (A) (A) (A) (A) (A) (A) (A)
                 (A) (A) (A) (A) (A) (A) (A) (A) (A) (A) (A) (A)
                 (A) (A) (A) (A) (A) (A) (A) (A) (A) (A) (A) (A)
                 (A) (A) (A) (A) (A) (A) (A) (A) (A) (A) (A) (A)
                 (A) (A) (A) (A) (A) (A) (A) (A) (A) (A) (A) (A)
                 (A) (A) (A) (A) (A) (A) (A) (A) (A) (A) (A) (A)
                 (A) (A) (A) (A) (A) (A) (A) (A) (A) (A) (A) (A)
                 (A) (A) (A) (A) (A) (A) (A) (A) (A) (A) (A) (A)
                 (A) (A) (A) (A) (A) (A) (A) (A) (A) (A) (A) (A)
                 (A) (A) (A) (A) (A) (A) (A) (A) (A) (A) (A) (A)
                 (A) (A) (A) (A) (A) (A) (A) (A) (A) (A) (A) (A)
                 (A) (A) (A) (A) (A) (A) (A) (A) (A) (A) (A) (A)
                 (A) (A) (A) (A) (A) (A) (A) (A) (A) (A) (A) (A)
                 (A) (A) (A) (A) (A) (A) (A) (A) (A) (A) (A) (A)
                 (A) (A) (A) (A) (A) (A) (A) (A) (A) (A) (A) (A)
                 (A) (A) (A) (A) (A) (A) (A) (A) (A) (A) (A) (A)
                 (A) (A) (A) (A) (A) (A) (A) (A) (A) (A) (A) (A)
                 (A) (A) (A) (A) (A) (A) (A) (A) (A) (A) (A)
 The electronic state of the initial guess is 1-A.
 Requested convergence on RMS density matrix=1.00D-08 within 128 cycles.
 Requested convergence on MAX density matrix=1.00D-06.
 Requested convergence on             energy=1.00D-06.
 No special actions if energy rises.
 Initial convergence to 1.0D-05 achieved.  Increase integral accuracy.
 SCF Done:  E(RHF) =  -492.925010593     A.U. after   14 cycles
             Convg  =    0.6613D-08             -V/T =  2.0017
 ExpMin= 2.97D-02 ExpMax= 1.17D+04 ExpMxC= 4.01D+02 IAcc=3 IRadAn=         5 AccDes= 0.00D+00
 HarFok:  IExCor=  205 AccDes= 0.00D+00 IRadAn=         5 IDoV=-2
 ScaDFX=  1.000000  1.000000  1.000000  1.000000
 Range of M.O.s used for correlation:    11   338
 NBasis=   338 NAE=    39 NBE=    39 NFC=    10 NFV=     0
 NROrb=    328 NOA=    29 NOB=    29 NVA=   299 NVB=   299

 **** Warning!!: The largest alpha MO coefficient is  0.61153818D+02

 Disk-based method using OVN memory for 29 occupieds at a time.
 Estimated scratch disk usage=  1383898449 words.
 Actual    scratch disk usage=  1370814059 words.
 JobTyp=1 Pass  1:  I=   1 to  29 NPSUse=  8 ParTrn=T ParDer=T DoDerP=F.
 Spin components of T(2) and E(2):
     alpha-alpha T2 =       0.6800124046D-01 E2=     -0.2059749575D+00
     alpha-beta  T2 =       0.3762935872D+00 E2=     -0.1189776811D+01
     beta-beta   T2 =       0.6800124046D-01 E2=     -0.2059749575D+00
 ANorm=    0.1229754475D+01
 E2 =    -0.1601726726D+01 EUMP2 =    -0.49452673731878D+03

 **********************************************************************

            Population analysis using the SCF density.

 **********************************************************************

 Orbital symmetries:
       Occupied  (A) (A) (A) (A) (A) (A) (A) (A) (A) (A) (A) (A)
                 (A) (A) (A) (A) (A) (A) (A) (A) (A) (A) (A) (A)
                 (A) (A) (A) (A) (A) (A) (A) (A) (A) (A) (A) (A)
                 (A) (A) (A)
       Virtual   (A) (A) (A) (A) (A) (A) (A) (A) (A) (A) (A) (A)
                 (A) (A) (A) (A) (A) (A) (A) (A) (A) (A) (A) (A)
                 (A) (A) (A) (A) (A) (A) (A) (A) (A) (A) (A) (A)
                 (A) (A) (A) (A) (A) (A) (A) (A) (A) (A) (A) (A)
                 (A) (A) (A) (A) (A) (A) (A) (A) (A) (A) (A) (A)
                 (A) (A) (A) (A) (A) (A) (A) (A) (A) (A) (A) (A)
                 (A) (A) (A) (A) (A) (A) (A) (A) (A) (A) (A) (A)
                 (A) (A) (A) (A) (A) (A) (A) (A) (A) (A) (A) (A)
                 (A) (A) (A) (A) (A) (A) (A) (A) (A) (A) (A) (A)
                 (A) (A) (A) (A) (A) (A) (A) (A) (A) (A) (A) (A)
                 (A) (A) (A) (A) (A) (A) (A) (A) (A) (A) (A) (A)
                 (A) (A) (A) (A) (A) (A) (A) (A) (A) (A) (A) (A)
                 (A) (A) (A) (A) (A) (A) (A) (A) (A) (A) (A) (A)
                 (A) (A) (A) (A) (A) (A) (A) (A) (A) (A) (A) (A)
                 (A) (A) (A) (A) (A) (A) (A) (A) (A) (A) (A) (A)
                 (A) (A) (A) (A) (A) (A) (A) (A) (A) (A) (A) (A)
                 (A) (A) (A) (A) (A) (A) (A) (A) (A) (A) (A) (A)
                 (A) (A) (A) (A) (A) (A) (A) (A) (A) (A) (A) (A)
                 (A) (A) (A) (A) (A) (A) (A) (A) (A) (A) (A) (A)
                 (A) (A) (A) (A) (A) (A) (A) (A) (A) (A) (A) (A)
                 (A) (A) (A) (A) (A) (A) (A) (A) (A) (A) (A) (A)
                 (A) (A) (A) (A) (A) (A) (A) (A) (A) (A) (A) (A)
                 (A) (A) (A) (A) (A) (A) (A) (A) (A) (A) (A) (A)
                 (A) (A) (A) (A) (A) (A) (A) (A) (A) (A) (A) (A)
                 (A) (A) (A) (A) (A) (A) (A) (A) (A) (A) (A)
 The electronic state is 1-A.
 Alpha  occ. eigenvalues --  -20.54238 -20.52609 -15.61049 -15.59333 -11.37627
 Alpha  occ. eigenvalues --  -11.35699 -11.29319 -11.26645 -11.25967 -11.23655
 Alpha  occ. eigenvalues --   -1.39740  -1.38047  -1.25484  -1.22613  -1.05890
 Alpha  occ. eigenvalues --   -1.00002  -0.96114  -0.87691  -0.81081  -0.78636
 Alpha  occ. eigenvalues --   -0.73162  -0.68552  -0.67075  -0.63693  -0.62259
 Alpha  occ. eigenvalues --   -0.62083  -0.60036  -0.59349  -0.58264  -0.55635
 Alpha  occ. eigenvalues --   -0.54706  -0.54282  -0.52979  -0.52105  -0.50016
 Alpha  occ. eigenvalues --   -0.44536  -0.43557  -0.39670  -0.38707
 Alpha virt. eigenvalues --    0.02242   0.03717   0.04201   0.04555   0.05623
 Alpha virt. eigenvalues --    0.06183   0.06256   0.06518   0.07180   0.08063
 Alpha virt. eigenvalues --    0.08618   0.09460   0.11552   0.12066   0.12433
 Alpha virt. eigenvalues --    0.12712   0.13462   0.14350   0.14832   0.15277
 Alpha virt. eigenvalues --    0.15686   0.15929   0.16541   0.17306   0.17391
 Alpha virt. eigenvalues --    0.17647   0.17870   0.18426   0.18697   0.19493
 Alpha virt. eigenvalues --    0.19804   0.20237   0.20565   0.20957   0.21814
 Alpha virt. eigenvalues --    0.23055   0.23587   0.24671   0.25469   0.26318
 Alpha virt. eigenvalues --    0.26714   0.27447   0.28812   0.30298   0.30758
 Alpha virt. eigenvalues --    0.31225   0.31558   0.32185   0.32562   0.33418
 Alpha virt. eigenvalues --    0.34209   0.34719   0.35240   0.35994   0.36646
 Alpha virt. eigenvalues --    0.36800   0.36978   0.37473   0.38719   0.40060
 Alpha virt. eigenvalues --    0.40610   0.41941   0.42100   0.42175   0.42830
 Alpha virt. eigenvalues --    0.43377   0.44052   0.44654   0.45249   0.45409
 Alpha virt. eigenvalues --    0.46394   0.46944   0.47889   0.48213   0.49338
 Alpha virt. eigenvalues --    0.50283   0.50695   0.51033   0.51115   0.52494
 Alpha virt. eigenvalues --    0.53124   0.53567   0.53937   0.54696   0.55173
 Alpha virt. eigenvalues --    0.55432   0.56692   0.57012   0.57752   0.57869
 Alpha virt. eigenvalues --    0.58887   0.59661   0.60409   0.61222   0.61667
 Alpha virt. eigenvalues --    0.62753   0.63165   0.63327   0.63913   0.65046
 Alpha virt. eigenvalues --    0.65910   0.66191   0.66838   0.67804   0.68317
 Alpha virt. eigenvalues --    0.68926   0.69829   0.69971   0.71193   0.71716
 Alpha virt. eigenvalues --    0.72315   0.72930   0.73112   0.74175   0.74595
 Alpha virt. eigenvalues --    0.75286   0.76261   0.76830   0.78567   0.79416
 Alpha virt. eigenvalues --    0.79944   0.81044   0.81428   0.82681   0.83656
 Alpha virt. eigenvalues --    0.83924   0.84757   0.85587   0.86658   0.88333
 Alpha virt. eigenvalues --    0.88803   0.90138   0.90931   0.91774   0.93598
 Alpha virt. eigenvalues --    0.94248   0.96400   0.97120   0.97563   0.99037
 Alpha virt. eigenvalues --    1.00312   1.01001   1.01840   1.03789   1.05217
 Alpha virt. eigenvalues --    1.06356   1.07944   1.08526   1.10306   1.10557
 Alpha virt. eigenvalues --    1.10999   1.12392   1.14037   1.16057   1.16498
 Alpha virt. eigenvalues --    1.17501   1.18714   1.19929   1.20603   1.21690
 Alpha virt. eigenvalues --    1.22840   1.24911   1.26754   1.27759   1.28257
 Alpha virt. eigenvalues --    1.30276   1.31959   1.34656   1.35593   1.36184
 Alpha virt. eigenvalues --    1.38839   1.40803   1.42610   1.45186   1.46570
 Alpha virt. eigenvalues --    1.47268   1.48940   1.52999   1.53915   1.54644
 Alpha virt. eigenvalues --    1.55371   1.58580   1.59255   1.61556   1.64220
 Alpha virt. eigenvalues --    1.65245   1.67410   1.69209   1.70876   1.73236
 Alpha virt. eigenvalues --    1.74298   1.76980   1.77637   1.79564   1.79823
 Alpha virt. eigenvalues --    1.83103   1.83469   1.84246   1.84361   1.87761
 Alpha virt. eigenvalues --    1.88011   1.89361   1.90069   1.90875   1.93265
 Alpha virt. eigenvalues --    1.94214   1.96427   1.97835   1.98328   2.01321
 Alpha virt. eigenvalues --    2.02254   2.03032   2.04778   2.05334   2.06028
 Alpha virt. eigenvalues --    2.10277   2.12043   2.13746   2.15144   2.16555
 Alpha virt. eigenvalues --    2.18893   2.19261   2.20643   2.22720   2.23428
 Alpha virt. eigenvalues --    2.24067   2.25282   2.26220   2.28546   2.30279
 Alpha virt. eigenvalues --    2.31394   2.32715   2.33806   2.34317   2.36248
 Alpha virt. eigenvalues --    2.39822   2.40418   2.41983   2.43607   2.44076
 Alpha virt. eigenvalues --    2.45777   2.48004   2.48395   2.49333   2.51865
 Alpha virt. eigenvalues --    2.53067   2.54283   2.56528   2.58286   2.59842
 Alpha virt. eigenvalues --    2.60761   2.62263   2.65387   2.66947   2.69729
 Alpha virt. eigenvalues --    2.70704   2.72292   2.75081   2.76789   2.81075
 Alpha virt. eigenvalues --    2.82311   2.84532   2.85873   2.87316   2.89304
 Alpha virt. eigenvalues --    2.89918   2.92858   2.94420   2.97451   2.97682
 Alpha virt. eigenvalues --    3.00140   3.02178   3.03657   3.04648   3.05951
 Alpha virt. eigenvalues --    3.09992   3.15715   3.17202   3.20801   3.24901
 Alpha virt. eigenvalues --    3.31312   3.33719   3.42700   3.46180   3.48433
 Alpha virt. eigenvalues --    3.57757   3.65490   3.74271   3.82371   3.84271
 Alpha virt. eigenvalues --    3.85978   3.86818   3.88469   3.97366   4.01352
 Alpha virt. eigenvalues --    4.04798   4.10955   4.20645   4.25120
          Condensed to atoms (all electrons):
              1          2          3          4          5          6
     1  H    0.740698   0.368968  -0.085037  -0.047538  -0.091203   0.031696
     2  C    0.368968   4.578424   0.359723   0.371059   0.203036  -0.047147
     3  H   -0.085037   0.359723   1.111707  -0.076608   0.107873  -0.012866
     4  H   -0.047538   0.371059  -0.076608   0.722955  -0.046716   0.003751
     5  C   -0.091203   0.203036   0.107873  -0.046716   5.504646   0.136917
     6  O    0.031696  -0.047147  -0.012866   0.003751   0.136917   8.737077
     7  N    0.055740  -0.042006  -0.227304   0.037646  -0.040300  -0.074664
     8  H   -0.004203  -0.042142   0.009906  -0.005210  -0.137472   0.002051
     9  C   -0.001169  -0.084799  -0.011229  -0.011618  -0.243702   0.061750
    10  H   -0.000458  -0.009969   0.000835  -0.001792   0.069864  -0.024048
    11  C    0.000067   0.010685   0.006712   0.001234   0.047271  -0.007317
    12  H   -0.000575  -0.012538   0.001654  -0.001021  -0.004446   0.000133
    13  H    0.000100   0.003419   0.000012   0.000210  -0.012993   0.000917
    14  H    0.000251   0.007697   0.000813   0.000663   0.035380  -0.003460
    15  C   -0.001262  -0.015487  -0.019331   0.005725  -0.165145   0.041067
    16  O    0.000180   0.001219   0.000220   0.000030   0.017882  -0.002076
    17  N   -0.000350  -0.000277  -0.001086  -0.001106   0.027812   0.009181
    18  H    0.004464  -0.004252  -0.004487  -0.003205   0.020375  -0.004950
    19  C   -0.000052  -0.000209  -0.001524   0.000265  -0.005829   0.004363
    20  H    0.000147   0.000872  -0.000196   0.000082  -0.001801   0.000209
    21  H   -0.000261  -0.001494  -0.000120   0.000037   0.002158   0.000013
    22  H    0.000011   0.001200   0.000300  -0.000019   0.004022  -0.000208
              7          8          9         10         11         12
     1  H    0.055740  -0.004203  -0.001169  -0.000458   0.000067  -0.000575
     2  C   -0.042006  -0.042142  -0.084799  -0.009969   0.010685  -0.012538
     3  H   -0.227304   0.009906  -0.011229   0.000835   0.006712   0.001654
     4  H    0.037646  -0.005210  -0.011618  -0.001792   0.001234  -0.001021
     5  C   -0.040300  -0.137472  -0.243702   0.069864   0.047271  -0.004446
     6  O   -0.074664   0.002051   0.061750  -0.024048  -0.007317   0.000133
     7  N    7.914560   0.349530  -0.650482  -0.112626   0.005142  -0.132492
     8  H    0.349530   0.944670  -0.009655  -0.016058  -0.020570   0.003258
     9  C   -0.650482  -0.009655   7.439096   0.182851   0.132170  -0.010378
    10  H   -0.112626  -0.016058   0.182851   1.086926  -0.073141   0.081374
    11  C    0.005142  -0.020570   0.132170  -0.073141   4.243316   0.358554
    12  H   -0.132492   0.003258  -0.010378   0.081374   0.358554   1.102148
    13  H    0.052824   0.000192  -0.072843  -0.028559   0.315151  -0.142036
    14  H    0.012447  -0.004219   0.074990  -0.083364   0.272301  -0.211557
    15  C    0.208907   0.022389  -0.491710  -0.112091  -0.102367  -0.014482
    16  O    0.001988   0.001043  -0.053214   0.014564   0.005874   0.017111
    17  N   -0.126464  -0.008501   0.150219   0.023699   0.014885   0.015522
    18  H    0.027206  -0.006694  -0.038789  -0.000559  -0.003216   0.001870
    19  C    0.010381  -0.000919  -0.012053   0.000008  -0.004758   0.002341
    20  H    0.006770  -0.000134  -0.027254  -0.000706  -0.004712  -0.000304
    21  H    0.002640   0.000858  -0.000836   0.000260  -0.002982  -0.000903
    22  H    0.002934  -0.000555   0.003688  -0.002696   0.006272   0.000596
             13         14         15         16         17         18
     1  H    0.000100   0.000251  -0.001262   0.000180  -0.000350   0.004464
     2  C    0.003419   0.007697  -0.015487   0.001219  -0.000277  -0.004252
     3  H    0.000012   0.000813  -0.019331   0.000220  -0.001086  -0.004487
     4  H    0.000210   0.000663   0.005725   0.000030  -0.001106  -0.003205
     5  C   -0.012993   0.035380  -0.165145   0.017882   0.027812   0.020375
     6  O    0.000917  -0.003460   0.041067  -0.002076   0.009181  -0.004950
     7  N    0.052824   0.012447   0.208907   0.001988  -0.126464   0.027206
     8  H    0.000192  -0.004219   0.022389   0.001043  -0.008501  -0.006694
     9  C   -0.072843   0.074990  -0.491710  -0.053214   0.150219  -0.038789
    10  H   -0.028559  -0.083364  -0.112091   0.014564   0.023699  -0.000559
    11  C    0.315151   0.272301  -0.102367   0.005874   0.014885  -0.003216
    12  H   -0.142036  -0.211557  -0.014482   0.017111   0.015522   0.001870
    13  H    1.068483  -0.157544   0.059037  -0.028115  -0.023102  -0.000388
    14  H   -0.157544   1.136449  -0.055985   0.005095   0.009815  -0.002037
    15  C    0.059037  -0.055985   5.515921   0.203947  -0.001033  -0.064458
    16  O   -0.028115   0.005095   0.203947   8.800474  -0.148685   0.010888
    17  N   -0.023102   0.009815  -0.001033  -0.148685   7.125868   0.251798
    18  H   -0.000388  -0.002037  -0.064458   0.010888   0.251798   1.016400
    19  C   -0.002435  -0.000212  -0.096403  -0.004321   0.284761  -0.127903
    20  H   -0.000447   0.000031   0.038709  -0.001050  -0.053381  -0.001398
    21  H    0.000135  -0.000094   0.006641   0.004264  -0.067956   0.013757
    22  H    0.000252   0.000237  -0.039314   0.008646   0.032804  -0.011840
             19         20         21         22
     1  H   -0.000052   0.000147  -0.000261   0.000011
     2  C   -0.000209   0.000872  -0.001494   0.001200
     3  H   -0.001524  -0.000196  -0.000120   0.000300
     4  H    0.000265   0.000082   0.000037  -0.000019
     5  C   -0.005829  -0.001801   0.002158   0.004022
     6  O    0.004363   0.000209   0.000013  -0.000208
     7  N    0.010381   0.006770   0.002640   0.002934
     8  H   -0.000919  -0.000134   0.000858  -0.000555
     9  C   -0.012053  -0.027254  -0.000836   0.003688
    10  H    0.000008  -0.000706   0.000260  -0.002696
    11  C   -0.004758  -0.004712  -0.002982   0.006272
    12  H    0.002341  -0.000304  -0.000903   0.000596
    13  H   -0.002435  -0.000447   0.000135   0.000252
    14  H   -0.000212   0.000031  -0.000094   0.000237
    15  C   -0.096403   0.038709   0.006641  -0.039314
    16  O   -0.004321  -0.001050   0.004264   0.008646
    17  N    0.284761  -0.053381  -0.067956   0.032804
    18  H   -0.127903  -0.001398   0.013757  -0.011840
    19  C    4.119056   0.479395   0.335221   0.309498
    20  H    0.479395   0.979787  -0.144141  -0.115786
    21  H    0.335221  -0.144141   1.102791  -0.148017
    22  H    0.309498  -0.115786  -0.148017   1.027746
 Mulliken atomic charges:
              1
     1  H    0.029787
     2  C    0.354019
     3  H   -0.159967
     4  H    0.051176
     5  C    0.572374
     6  O   -0.852387
     7  N   -0.282377
     8  H   -0.077565
     9  C   -0.325033
    10  H    0.005685
    11  C    0.799430
    12  H   -0.053830
    13  H   -0.032270
    14  H   -0.037696
    15  C    1.076726
    16  O   -0.855964
    17  N   -0.514423
    18  H   -0.072582
    19  C    0.711330
    20  H   -0.154690
    21  H   -0.101970
    22  H   -0.079772
 Sum of Mulliken atomic charges =   0.00000
 Mulliken charges with hydrogens summed into heavy atoms:
              1
     2  C    0.275014
     5  C    0.572374
     6  O   -0.852387
     7  N   -0.359943
     9  C   -0.319347
    11  C    0.675634
    15  C    1.076726
    16  O   -0.855964
    17  N   -0.587005
    19  C    0.374899
 Sum of Mulliken charges with hydrogens summed into heavy atoms =   0.00000
 Electronic spatial extent (au):  <R**2>=           1809.0824
 Charge=              0.0000 electrons
 Dipole moment (field-independent basis, Debye):
    X=              2.8667    Y=             -1.3001    Z=             -4.5531  Tot=              5.5352
 Quadrupole moment (field-independent basis, Debye-Ang):
   XX=            -66.6552   YY=            -56.9171   ZZ=            -64.3570
   XY=              6.7808   XZ=             -5.7533   YZ=              1.5312
 Traceless Quadrupole moment (field-independent basis, Debye-Ang):
   XX=             -4.0121   YY=              5.7260   ZZ=             -1.7139
   XY=              6.7808   XZ=             -5.7533   YZ=              1.5312
 Octapole moment (field-independent basis, Debye-Ang**2):
  XXX=             38.3728  YYY=             -7.3348  ZZZ=             -9.6402  XYY=             -0.9179
  XXY=            -20.7774  XXZ=            -20.9768  XZZ=             -7.3168  YZZ=              3.8695
  YYZ=             -0.6217  XYZ=              5.7557
 Hexadecapole moment (field-independent basis, Debye-Ang**3):
 XXXX=          -1462.9914 YYYY=           -668.4183 ZZZZ=           -212.3572 XXXY=             43.2000
 XXXZ=            -12.5049 YYYX=              1.1868 YYYZ=              4.5353 ZZZX=            -19.0928
 ZZZY=              2.5511 XXYY=           -349.5469 XXZZ=           -306.5631 YYZZ=           -150.3597
 XXYZ=              4.7868 YYXZ=              1.9372 ZZXY=              8.0712
 N-N= 5.534315534552D+02 E-N=-2.261944252625D+03  KE= 4.920732782684D+02
 1\1\GINC-NODE003\SP\RMP2-FC\Aug-CC-pVDZ\C6H12N2O2\STEBOSS\13-Feb-2017\
 0\\#SP MP2/aug-cc-pVDZ\\Single Point calculation at MP2\\0,1\H,0,3.433
 ,-1.8161,-0.3391\C,0,3.183,-0.7916,-0.6271\H,0,2.999,-0.7546,-1.7057\H
 ,0,4.0537,-0.167,-0.3993\C,0,2.0061,-0.3176,0.2137\O,0,1.9584,-0.4914,
 1.4235\N,0,1.0055,0.3207,-0.4826\H,0,1.1456,0.5041,-1.4673\C,0,-0.1072
 ,1.0021,0.1751\H,0,0.1599,1.0346,1.2375\C,0,-0.2791,2.4274,-0.3569\H,0
 ,-0.4561,2.4264,-1.4403\H,0,-1.1453,2.8897,0.1194\H,0,0.6143,3.0245,-0
 .1501\C,0,-1.4499,0.2363,0.1134\O,0,-2.4985,0.8046,0.3996\N,0,-1.3701,
 -1.0731,-0.2436\H,0,-0.45,-1.4567,-0.4018\C,0,-2.5209,-1.9568,-0.2311\
 H,0,-3.4025,-1.3425,-0.0424\H,0,-2.634,-2.4661,-1.1951\H,0,-2.4369,-2.
 7124,0.5598\\Version=EM64L-G09RevA.02\State=1-A\HF=-492.9250106\MP2=-4
 94.5267373\RMSD=6.613e-09\PG=C01 [X(C6H12N2O2)]\\@


 YE HAVE SOWN MUCH, AND BRING IN LITTLE.
 YE EAT, BUT YE HAVE NOT ENOUGH.
 YE DRINK, BUT YE ARE NOT FILLED WITH DRINK.
 YE CLOTHE YOU, BUT THERE IS NONE WARM.
 AND HE THAT EARNETH WAGES EARNETH WAGES TO PUT
 IT INTO A BAG WITH HOLES.
                                     HAGGAI I,6
 Job cpu time:  0 days 13 hours 10 minutes 41.4 seconds.
 File lengths (MBytes):  RWF=  10575 Int=      0 D2E=      0 Chk=      7 Scr=      2
 Normal termination of Gaussian 09 at Mon Feb 13 09:31:56 2017.
