 Entering Gaussian System, Link 0=g09
 Initial command:
 /home/steboss/Software/g09/l1.exe /home/steboss/projects/phi_psi_scan/alanine/MP2/255/5456/Gau-32104.inp -scrdir=/home/steboss/projects/phi_psi_scan/alanine/MP2/255/5456/
 Entering Link 1 = /home/steboss/Software/g09/l1.exe PID=     32122.
  
 Copyright (c) 1988,1990,1992,1993,1995,1998,2003,2009, Gaussian, Inc.
                  All Rights Reserved.
  
 This is part of the Gaussian(R) 09 program.  It is based on
 the Gaussian(R) 03 system (copyright 2003, Gaussian, Inc.),
 the Gaussian(R) 98 system (copyright 1998, Gaussian, Inc.),
 the Gaussian(R) 94 system (copyright 1995, Gaussian, Inc.),
 the Gaussian 92(TM) system (copyright 1992, Gaussian, Inc.),
 the Gaussian 90(TM) system (copyright 1990, Gaussian, Inc.),
 the Gaussian 88(TM) system (copyright 1988, Gaussian, Inc.),
 the Gaussian 86(TM) system (copyright 1986, Carnegie Mellon
 University), and the Gaussian 82(TM) system (copyright 1983,
 Carnegie Mellon University). Gaussian is a federally registered
 trademark of Gaussian, Inc.
  
 This software contains proprietary and confidential information,
 including trade secrets, belonging to Gaussian, Inc.
  
 This software is provided under written license and may be
 used, copied, transmitted, or stored only in accord with that
 written license.
  
 The following legend is applicable only to US Government
 contracts under FAR:
  
                    RESTRICTED RIGHTS LEGEND
  
 Use, reproduction and disclosure by the US Government is
 subject to restrictions as set forth in subparagraphs (a)
 and (c) of the Commercial Computer Software - Restricted
 Rights clause in FAR 52.227-19.
  
 Gaussian, Inc.
 340 Quinnipiac St., Bldg. 40, Wallingford CT 06492
  
  
 ---------------------------------------------------------------
 Warning -- This program may not be used in any manner that
 competes with the business of Gaussian, Inc. or will provide
 assistance to any competitor of Gaussian, Inc.  The licensee
 of this program is prohibited from giving any competitor of
 Gaussian, Inc. access to this program.  By using this program,
 the user acknowledges that Gaussian, Inc. is engaged in the
 business of creating and licensing software in the field of
 computational chemistry and represents and warrants to the
 licensee that it is not a competitor of Gaussian, Inc. and that
 it will not use this program in any manner prohibited above.
 ---------------------------------------------------------------
  

 Cite this work as:
 Gaussian 09, Revision A.02,
 M. J. Frisch, G. W. Trucks, H. B. Schlegel, G. E. Scuseria, 
 M. A. Robb, J. R. Cheeseman, G. Scalmani, V. Barone, B. Mennucci, 
 G. A. Petersson, H. Nakatsuji, M. Caricato, X. Li, H. P. Hratchian, 
 A. F. Izmaylov, J. Bloino, G. Zheng, J. L. Sonnenberg, M. Hada, 
 M. Ehara, K. Toyota, R. Fukuda, J. Hasegawa, M. Ishida, T. Nakajima, 
 Y. Honda, O. Kitao, H. Nakai, T. Vreven, J. A. Montgomery, Jr., 
 J. E. Peralta, F. Ogliaro, M. Bearpark, J. J. Heyd, E. Brothers, 
 K. N. Kudin, V. N. Staroverov, R. Kobayashi, J. Normand, 
 K. Raghavachari, A. Rendell, J. C. Burant, S. S. Iyengar, J. Tomasi, 
 M. Cossi, N. Rega, J. M. Millam, M. Klene, J. E. Knox, J. B. Cross, 
 V. Bakken, C. Adamo, J. Jaramillo, R. Gomperts, R. E. Stratmann, 
 O. Yazyev, A. J. Austin, R. Cammi, C. Pomelli, J. W. Ochterski, 
 R. L. Martin, K. Morokuma, V. G. Zakrzewski, G. A. Voth, 
 P. Salvador, J. J. Dannenberg, S. Dapprich, A. D. Daniels, 
 O. Farkas, J. B. Foresman, J. V. Ortiz, J. Cioslowski, 
 and D. J. Fox, Gaussian, Inc., Wallingford CT, 2009.
 
 ******************************************
 Gaussian 09:  EM64L-G09RevA.02 11-Jun-2009
                13-Feb-2017 
 ******************************************
 %chk=structure_255.chk
 %NProcShared=8
 Will use up to    8 processors via shared memory.
 -------------------
 #SP MP2/aug-cc-pVDZ
 -------------------
 1/38=1/1;
 2/12=2,17=6,18=5,40=1/2;
 3/5=16,7=10,11=9,16=1,25=1,30=1/1,2,3;
 4//1;
 5/5=2,38=5/2;
 8/10=1/1;
 9/16=-3/6;
 6/7=2,8=2,9=2,10=2/1;
 99/5=1,9=1/99;
 -------------------------------
 Single Point calculation at MP2
 -------------------------------
 Symbolic Z-matrix:
 Charge =  0 Multiplicity = 1
 H                    -4.1231   -0.7751    0.729 
 C                    -3.0736   -0.9741    0.9556 
 H                    -2.8917   -2.0433    0.7955 
 H                    -2.8781   -0.7439    2.0083 
 C                    -2.2042   -0.1767   -0.0046 
 O                    -2.5324    0.0378   -1.1613 
 N                    -1.0274    0.2964    0.5369 
 H                    -0.7682   -0.0395    1.4556 
 C                     0.0447    0.818    -0.3073 
 H                    -0.3814    0.8458   -1.3134 
 C                     0.4455    2.2359    0.1165 
 H                     0.7683    2.28      1.1653 
 H                     1.2521    2.6271   -0.5147 
 H                    -0.4161    2.9021    0.017 
 C                     1.177    -0.2343   -0.3701 
 O                     1.0218   -1.28     -0.9858 
 N                     2.2987    0.0363    0.3667 
 H                     2.4095    0.9578    0.7623 
 C                     3.4465   -0.8555    0.3787 
 H                     3.1208   -1.8127   -0.0301 
 H                     4.2684   -0.4698   -0.238 
 H                     3.81     -0.9992    1.4019 
 
                          Input orientation:                          
 ---------------------------------------------------------------------
 Center     Atomic      Atomic             Coordinates (Angstroms)
 Number     Number       Type             X           Y           Z
 ---------------------------------------------------------------------
      1          1           0       -4.123100   -0.775100    0.729000
      2          6           0       -3.073600   -0.974100    0.955600
      3          1           0       -2.891700   -2.043300    0.795500
      4          1           0       -2.878100   -0.743900    2.008300
      5          6           0       -2.204200   -0.176700   -0.004600
      6          8           0       -2.532400    0.037800   -1.161300
      7          7           0       -1.027400    0.296400    0.536900
      8          1           0       -0.768200   -0.039500    1.455600
      9          6           0        0.044700    0.818000   -0.307300
     10          1           0       -0.381400    0.845800   -1.313400
     11          6           0        0.445500    2.235900    0.116500
     12          1           0        0.768300    2.280000    1.165300
     13          1           0        1.252100    2.627100   -0.514700
     14          1           0       -0.416100    2.902100    0.017000
     15          6           0        1.177000   -0.234300   -0.370100
     16          8           0        1.021800   -1.280000   -0.985800
     17          7           0        2.298700    0.036300    0.366700
     18          1           0        2.409500    0.957800    0.762300
     19          6           0        3.446500   -0.855500    0.378700
     20          1           0        3.120800   -1.812700   -0.030100
     21          1           0        4.268400   -0.469800   -0.238000
     22          1           0        3.810000   -0.999200    1.401900
 ---------------------------------------------------------------------
                    Distance matrix (angstroms):
                    1          2          3          4          5
     1  H    0.000000
     2  C    1.091970   0.000000
     3  H    1.768926   1.096316   0.000000
     4  H    1.785387   1.095166   1.777501   0.000000
     5  C    2.139726   1.521081   2.144064   2.197185   0.000000
     6  O    2.600840   2.407925   2.879087   3.282823   1.221344
     7  N    3.281520   2.444671   3.002779   2.583086   1.379095
     8  H    3.510614   2.537390   2.993359   2.292015   2.052585
     9  C    4.580660   3.811867   4.245663   4.042808   2.477621
    10  H    4.560596   3.963375   4.369893   4.449084   2.465981
    11  C    5.505759   4.836554   5.468958   4.848137   3.585556
    12  H    5.783579   5.039180   5.676555   4.811533   4.029863
    13  H    6.481862   5.817397   6.379682   5.898112   4.479677
    14  H    5.269781   4.792515   5.584948   4.829082   3.560446
    15  C    5.439811   4.513578   4.602763   4.728669   3.401385
    16  O    5.446601   4.542566   4.367052   4.945832   3.547830
    17  N    6.482989   5.498120   5.607928   5.486604   4.523200
    18  H    6.758618   5.816699   6.091833   5.692716   4.812635
    19  C    7.578128   6.546647   6.461994   6.532122   5.704218
    20  H    7.357101   6.328147   6.073298   6.425279   5.570707
    21  H    8.452548   7.455465   7.403449   7.496230   6.483435
    22  H    7.964740   6.898098   6.809600   6.720385   6.230999
                    6          7          8          9         10
     6  O    0.000000
     7  N    2.283809   0.000000
     8  H    3.156983   1.011940   0.000000
     9  C    2.824796   1.460869   2.122246   0.000000
    10  H    2.302781   2.035379   2.932700   1.092964   0.000000
    11  C    3.915649   2.471403   2.905805   1.533195   2.158878
    12  H    4.618999   2.748471   2.797353   2.197633   3.085886
    13  H    4.630875   3.425514   3.882583   2.184874   2.545442
    14  H    3.751177   2.726473   3.293411   2.158930   2.449395
    15  C    3.802589   2.442063   2.674870   1.547056   2.117792
    16  O    3.794698   3.000479   3.271601   2.411782   2.568135
    17  N    5.066983   3.340593   3.255353   2.479082   3.265113
    18  H    5.382287   3.507212   3.401918   2.599205   3.479971
    19  C    6.238336   4.622519   4.425976   3.852719   4.517792
    20  H    6.054968   4.688001   4.525026   4.057070   4.580381
    21  H    6.881934   5.406758   5.331114   4.416206   4.950548
    22  H    6.918916   5.082051   4.678015   4.516754   5.323975
                   11         12         13         14         15
    11  C    0.000000
    12  H    1.098238   0.000000
    13  H    1.096382   1.782398   0.000000
    14  H    1.093653   1.763067   1.772349   0.000000
    15  C    2.621786   2.974255   2.866035   3.539042   0.000000
    16  O    3.729442   4.167145   3.942132   4.534658   1.223381
    17  N    2.887073   2.830914   2.929929   3.962984   1.369054
    18  H    2.430616   2.145730   2.399347   3.509956   2.054869
    19  C    4.316423   4.197958   4.212132   5.400932   2.469255
    20  H    4.854882   4.869644   4.841353   5.894168   2.526916
    21  H    4.696919   4.667049   4.331907   5.777480   3.103170
    22  H    4.841279   4.478959   4.833866   5.915912   3.264620
                   16         17         18         19         20
    16  O    0.000000
    17  N    2.278678   0.000000
    18  H    3.160588   1.008929   0.000000
    19  C    2.814468   1.453580   2.123811   0.000000
    20  H    2.367051   2.062062   2.968083   1.090610   0.000000
    21  H    3.428708   2.121678   2.548362   1.097544   1.778648
    22  H    3.681578   2.104264   2.490048   1.095317   1.785330
                   21         22
    21  H    0.000000
    22  H    1.783162   0.000000
 Stoichiometry    C6H12N2O2
 Framework group  C1[X(C6H12N2O2)]
 Deg. of freedom    60
 Full point group                 C1      NOp   1
 Largest Abelian subgroup         C1      NOp   1
 Largest concise Abelian subgroup C1      NOp   1
                         Standard orientation:                         
 ---------------------------------------------------------------------
 Center     Atomic      Atomic             Coordinates (Angstroms)
 Number     Number       Type             X           Y           Z
 ---------------------------------------------------------------------
      1          1           0       -4.123102   -0.775106    0.729001
      2          6           0       -3.073602   -0.974106    0.955601
      3          1           0       -2.891702   -2.043306    0.795501
      4          1           0       -2.878102   -0.743906    2.008301
      5          6           0       -2.204203   -0.176705   -0.004599
      6          8           0       -2.532403    0.037795   -1.161299
      7          7           0       -1.027403    0.296395    0.536901
      8          1           0       -0.768203   -0.039505    1.455601
      9          6           0        0.044697    0.817995   -0.307299
     10          1           0       -0.381403    0.845795   -1.313399
     11          6           0        0.445497    2.235895    0.116501
     12          1           0        0.768297    2.279995    1.165301
     13          1           0        1.252097    2.627095   -0.514699
     14          1           0       -0.416103    2.902095    0.017001
     15          6           0        1.176997   -0.234305   -0.370099
     16          8           0        1.021798   -1.280005   -0.985799
     17          7           0        2.298697    0.036295    0.366701
     18          1           0        2.409497    0.957795    0.762301
     19          6           0        3.446498   -0.855505    0.378701
     20          1           0        3.120798   -1.812705   -0.030099
     21          1           0        4.268398   -0.469805   -0.237999
     22          1           0        3.809998   -0.999205    1.401901
 ---------------------------------------------------------------------
 Rotational constants (GHZ):      2.2915738      0.7235666      0.6512944
 Standard basis: Aug-CC-pVDZ (5D, 7F)
 There are   338 symmetry adapted basis functions of A   symmetry.
 Integral buffers will be    131072 words long.
 Raffenetti 1 integral format.
 Two-electron integral symmetry is turned on.
   338 basis functions,   562 primitive gaussians,   358 cartesian basis functions
    39 alpha electrons       39 beta electrons
       nuclear repulsion energy       550.7817911308 Hartrees.
 NAtoms=   22 NActive=   22 NUniq=   22 SFac= 7.50D-01 NAtFMM=   80 NAOKFM=F Big=F
 One-electron integrals computed using PRISM.
 NBasis=   338 RedAO= T  NBF=   338
 NBsUse=   338 1.00D-06 NBFU=   338
 Harris functional with IExCor=  205 diagonalized for initial guess.
 ExpMin= 2.97D-02 ExpMax= 1.17D+04 ExpMxC= 4.01D+02 IAcc=3 IRadAn=         0 AccDes= 0.00D+00
 HarFok:  IExCor=  205 AccDes= 0.00D+00 IRadAn=         0 IDoV= 1
 ScaDFX=  1.000000  1.000000  1.000000  1.000000
 FoFCou: FMM=F IPFlag=           0 FMFlag=      100000 FMFlg1=           0
         NFxFlg=           0 DoJE=T BraDBF=F KetDBF=T FulRan=T
         Omega=  0.000000  0.000000  1.000000  0.000000  0.000000 ICntrl=     500 IOpCl=  0
         NMat0=    1 NMatS0=    1 NMatT0=    0 NMatD0=    1 NMtDS0=    0 NMtDT0=    0
         I1Cent=           4 NGrid=           0.
 Petite list used in FoFCou.
 Initial guess orbital symmetries:
       Occupied  (A) (A) (A) (A) (A) (A) (A) (A) (A) (A) (A) (A)
                 (A) (A) (A) (A) (A) (A) (A) (A) (A) (A) (A) (A)
                 (A) (A) (A) (A) (A) (A) (A) (A) (A) (A) (A) (A)
                 (A) (A) (A)
       Virtual   (A) (A) (A) (A) (A) (A) (A) (A) (A) (A) (A) (A)
                 (A) (A) (A) (A) (A) (A) (A) (A) (A) (A) (A) (A)
                 (A) (A) (A) (A) (A) (A) (A) (A) (A) (A) (A) (A)
                 (A) (A) (A) (A) (A) (A) (A) (A) (A) (A) (A) (A)
                 (A) (A) (A) (A) (A) (A) (A) (A) (A) (A) (A) (A)
                 (A) (A) (A) (A) (A) (A) (A) (A) (A) (A) (A) (A)
                 (A) (A) (A) (A) (A) (A) (A) (A) (A) (A) (A) (A)
                 (A) (A) (A) (A) (A) (A) (A) (A) (A) (A) (A) (A)
                 (A) (A) (A) (A) (A) (A) (A) (A) (A) (A) (A) (A)
                 (A) (A) (A) (A) (A) (A) (A) (A) (A) (A) (A) (A)
                 (A) (A) (A) (A) (A) (A) (A) (A) (A) (A) (A) (A)
                 (A) (A) (A) (A) (A) (A) (A) (A) (A) (A) (A) (A)
                 (A) (A) (A) (A) (A) (A) (A) (A) (A) (A) (A) (A)
                 (A) (A) (A) (A) (A) (A) (A) (A) (A) (A) (A) (A)
                 (A) (A) (A) (A) (A) (A) (A) (A) (A) (A) (A) (A)
                 (A) (A) (A) (A) (A) (A) (A) (A) (A) (A) (A) (A)
                 (A) (A) (A) (A) (A) (A) (A) (A) (A) (A) (A) (A)
                 (A) (A) (A) (A) (A) (A) (A) (A) (A) (A) (A) (A)
                 (A) (A) (A) (A) (A) (A) (A) (A) (A) (A) (A) (A)
                 (A) (A) (A) (A) (A) (A) (A) (A) (A) (A) (A) (A)
                 (A) (A) (A) (A) (A) (A) (A) (A) (A) (A) (A) (A)
                 (A) (A) (A) (A) (A) (A) (A) (A) (A) (A) (A) (A)
                 (A) (A) (A) (A) (A) (A) (A) (A) (A) (A) (A) (A)
                 (A) (A) (A) (A) (A) (A) (A) (A) (A) (A) (A) (A)
                 (A) (A) (A) (A) (A) (A) (A) (A) (A) (A) (A)
 The electronic state of the initial guess is 1-A.
 Requested convergence on RMS density matrix=1.00D-08 within 128 cycles.
 Requested convergence on MAX density matrix=1.00D-06.
 Requested convergence on             energy=1.00D-06.
 No special actions if energy rises.
 Initial convergence to 1.0D-05 achieved.  Increase integral accuracy.
 SCF Done:  E(RHF) =  -492.917328546     A.U. after   14 cycles
             Convg  =    0.6776D-08             -V/T =  2.0017
 ExpMin= 2.97D-02 ExpMax= 1.17D+04 ExpMxC= 4.01D+02 IAcc=3 IRadAn=         5 AccDes= 0.00D+00
 HarFok:  IExCor=  205 AccDes= 0.00D+00 IRadAn=         5 IDoV=-2
 ScaDFX=  1.000000  1.000000  1.000000  1.000000
 Range of M.O.s used for correlation:    11   338
 NBasis=   338 NAE=    39 NBE=    39 NFC=    10 NFV=     0
 NROrb=    328 NOA=    29 NOB=    29 NVA=   299 NVB=   299

 **** Warning!!: The largest alpha MO coefficient is  0.72888075D+02

 Disk-based method using OVN memory for 29 occupieds at a time.
 Estimated scratch disk usage=  1375480362 words.
 Actual    scratch disk usage=  1362215502 words.
 JobTyp=1 Pass  1:  I=   1 to  29 NPSUse=  8 ParTrn=T ParDer=T DoDerP=F.
 Spin components of T(2) and E(2):
     alpha-alpha T2 =       0.6797796947D-01 E2=     -0.2057362412D+00
     alpha-beta  T2 =       0.3769348918D+00 E2=     -0.1190165385D+01
     beta-beta   T2 =       0.6797796947D-01 E2=     -0.2057362412D+00
 ANorm=    0.1229996273D+01
 E2 =    -0.1601637867D+01 EUMP2 =    -0.49451896641350D+03

 **********************************************************************

            Population analysis using the SCF density.

 **********************************************************************

 Orbital symmetries:
       Occupied  (A) (A) (A) (A) (A) (A) (A) (A) (A) (A) (A) (A)
                 (A) (A) (A) (A) (A) (A) (A) (A) (A) (A) (A) (A)
                 (A) (A) (A) (A) (A) (A) (A) (A) (A) (A) (A) (A)
                 (A) (A) (A)
       Virtual   (A) (A) (A) (A) (A) (A) (A) (A) (A) (A) (A) (A)
                 (A) (A) (A) (A) (A) (A) (A) (A) (A) (A) (A) (A)
                 (A) (A) (A) (A) (A) (A) (A) (A) (A) (A) (A) (A)
                 (A) (A) (A) (A) (A) (A) (A) (A) (A) (A) (A) (A)
                 (A) (A) (A) (A) (A) (A) (A) (A) (A) (A) (A) (A)
                 (A) (A) (A) (A) (A) (A) (A) (A) (A) (A) (A) (A)
                 (A) (A) (A) (A) (A) (A) (A) (A) (A) (A) (A) (A)
                 (A) (A) (A) (A) (A) (A) (A) (A) (A) (A) (A) (A)
                 (A) (A) (A) (A) (A) (A) (A) (A) (A) (A) (A) (A)
                 (A) (A) (A) (A) (A) (A) (A) (A) (A) (A) (A) (A)
                 (A) (A) (A) (A) (A) (A) (A) (A) (A) (A) (A) (A)
                 (A) (A) (A) (A) (A) (A) (A) (A) (A) (A) (A) (A)
                 (A) (A) (A) (A) (A) (A) (A) (A) (A) (A) (A) (A)
                 (A) (A) (A) (A) (A) (A) (A) (A) (A) (A) (A) (A)
                 (A) (A) (A) (A) (A) (A) (A) (A) (A) (A) (A) (A)
                 (A) (A) (A) (A) (A) (A) (A) (A) (A) (A) (A) (A)
                 (A) (A) (A) (A) (A) (A) (A) (A) (A) (A) (A) (A)
                 (A) (A) (A) (A) (A) (A) (A) (A) (A) (A) (A) (A)
                 (A) (A) (A) (A) (A) (A) (A) (A) (A) (A) (A) (A)
                 (A) (A) (A) (A) (A) (A) (A) (A) (A) (A) (A) (A)
                 (A) (A) (A) (A) (A) (A) (A) (A) (A) (A) (A) (A)
                 (A) (A) (A) (A) (A) (A) (A) (A) (A) (A) (A) (A)
                 (A) (A) (A) (A) (A) (A) (A) (A) (A) (A) (A) (A)
                 (A) (A) (A) (A) (A) (A) (A) (A) (A) (A) (A) (A)
                 (A) (A) (A) (A) (A) (A) (A) (A) (A) (A) (A)
 The electronic state is 1-A.
 Alpha  occ. eigenvalues --  -20.53143 -20.52841 -15.60297 -15.59784 -11.36237
 Alpha  occ. eigenvalues --  -11.36152 -11.29140 -11.27288 -11.24855 -11.24523
 Alpha  occ. eigenvalues --   -1.38911  -1.38058  -1.24269  -1.23295  -1.05761
 Alpha  occ. eigenvalues --   -0.99286  -0.95886  -0.88874  -0.79603  -0.79403
 Alpha  occ. eigenvalues --   -0.72938  -0.67330  -0.65532  -0.65061  -0.62576
 Alpha  occ. eigenvalues --   -0.61606  -0.59136  -0.58816  -0.57543  -0.56562
 Alpha  occ. eigenvalues --   -0.55302  -0.54753  -0.52966  -0.51714  -0.50208
 Alpha  occ. eigenvalues --   -0.43842  -0.42174  -0.39754  -0.38945
 Alpha virt. eigenvalues --    0.02351   0.03596   0.03998   0.04583   0.05576
 Alpha virt. eigenvalues --    0.05950   0.06103   0.06688   0.07556   0.07948
 Alpha virt. eigenvalues --    0.08531   0.09107   0.11439   0.11536   0.12724
 Alpha virt. eigenvalues --    0.13849   0.14170   0.14575   0.14704   0.14974
 Alpha virt. eigenvalues --    0.15468   0.15946   0.16258   0.16436   0.17184
 Alpha virt. eigenvalues --    0.17753   0.17951   0.18340   0.19150   0.19308
 Alpha virt. eigenvalues --    0.19487   0.20142   0.21144   0.21667   0.21748
 Alpha virt. eigenvalues --    0.22521   0.24038   0.25197   0.25564   0.26395
 Alpha virt. eigenvalues --    0.27191   0.27460   0.27995   0.29446   0.30381
 Alpha virt. eigenvalues --    0.30765   0.31853   0.32894   0.33011   0.33885
 Alpha virt. eigenvalues --    0.34058   0.34506   0.34986   0.36179   0.36469
 Alpha virt. eigenvalues --    0.37292   0.37990   0.38630   0.39280   0.39459
 Alpha virt. eigenvalues --    0.40310   0.41236   0.41640   0.42236   0.42818
 Alpha virt. eigenvalues --    0.43425   0.43680   0.44399   0.44886   0.45535
 Alpha virt. eigenvalues --    0.45769   0.46830   0.46980   0.47627   0.49207
 Alpha virt. eigenvalues --    0.49447   0.50366   0.50832   0.52028   0.52069
 Alpha virt. eigenvalues --    0.53046   0.53741   0.54817   0.55422   0.55841
 Alpha virt. eigenvalues --    0.56448   0.56856   0.57296   0.57544   0.58261
 Alpha virt. eigenvalues --    0.58988   0.59063   0.60943   0.61441   0.61943
 Alpha virt. eigenvalues --    0.62153   0.62475   0.63181   0.63766   0.64923
 Alpha virt. eigenvalues --    0.65388   0.66427   0.66547   0.67449   0.67830
 Alpha virt. eigenvalues --    0.69258   0.70343   0.70600   0.70943   0.71514
 Alpha virt. eigenvalues --    0.72133   0.72717   0.74077   0.74601   0.75105
 Alpha virt. eigenvalues --    0.75445   0.76714   0.77420   0.78087   0.79012
 Alpha virt. eigenvalues --    0.79688   0.80646   0.82297   0.83104   0.83772
 Alpha virt. eigenvalues --    0.84303   0.85143   0.85393   0.86698   0.87511
 Alpha virt. eigenvalues --    0.89177   0.89375   0.90530   0.92184   0.92892
 Alpha virt. eigenvalues --    0.93403   0.94249   0.96047   0.97337   0.98378
 Alpha virt. eigenvalues --    0.99683   1.00904   1.03741   1.04595   1.05410
 Alpha virt. eigenvalues --    1.06120   1.06615   1.08462   1.09763   1.10587
 Alpha virt. eigenvalues --    1.10920   1.13557   1.14163   1.15393   1.15917
 Alpha virt. eigenvalues --    1.16556   1.16812   1.19372   1.19615   1.22011
 Alpha virt. eigenvalues --    1.23079   1.24233   1.25747   1.26646   1.27769
 Alpha virt. eigenvalues --    1.31969   1.33233   1.33812   1.35901   1.37712
 Alpha virt. eigenvalues --    1.38964   1.43767   1.44802   1.46147   1.46945
 Alpha virt. eigenvalues --    1.48295   1.49191   1.51145   1.52705   1.53520
 Alpha virt. eigenvalues --    1.56309   1.56696   1.58413   1.60312   1.63724
 Alpha virt. eigenvalues --    1.63988   1.67303   1.67800   1.69094   1.73071
 Alpha virt. eigenvalues --    1.73762   1.75963   1.76694   1.79052   1.81004
 Alpha virt. eigenvalues --    1.81139   1.82496   1.84405   1.85884   1.87476
 Alpha virt. eigenvalues --    1.89620   1.89959   1.90198   1.91401   1.92799
 Alpha virt. eigenvalues --    1.94664   1.96782   1.98378   1.98819   1.99703
 Alpha virt. eigenvalues --    2.02264   2.04516   2.05863   2.06566   2.08778
 Alpha virt. eigenvalues --    2.08903   2.11389   2.12933   2.14991   2.15478
 Alpha virt. eigenvalues --    2.17546   2.19492   2.21004   2.23790   2.24781
 Alpha virt. eigenvalues --    2.25970   2.26428   2.28082   2.29291   2.29832
 Alpha virt. eigenvalues --    2.31074   2.32277   2.33554   2.34573   2.36431
 Alpha virt. eigenvalues --    2.37639   2.39180   2.42226   2.43307   2.44257
 Alpha virt. eigenvalues --    2.44908   2.45284   2.47425   2.48631   2.50002
 Alpha virt. eigenvalues --    2.51580   2.53812   2.55631   2.57823   2.61295
 Alpha virt. eigenvalues --    2.62567   2.63905   2.66071   2.67247   2.69234
 Alpha virt. eigenvalues --    2.71057   2.71511   2.73525   2.75447   2.80730
 Alpha virt. eigenvalues --    2.83034   2.84942   2.85591   2.87197   2.88111
 Alpha virt. eigenvalues --    2.88831   2.91802   2.94193   2.97790   2.98563
 Alpha virt. eigenvalues --    2.99613   3.01345   3.03633   3.05229   3.07915
 Alpha virt. eigenvalues --    3.09325   3.10843   3.11346   3.19091   3.21058
 Alpha virt. eigenvalues --    3.25064   3.29077   3.42535   3.47061   3.48581
 Alpha virt. eigenvalues --    3.61568   3.71841   3.75514   3.82549   3.83499
 Alpha virt. eigenvalues --    3.85607   3.86458   3.90309   3.97879   4.03066
 Alpha virt. eigenvalues --    4.03908   4.17380   4.21524   4.26962
          Condensed to atoms (all electrons):
              1          2          3          4          5          6
     1  H    0.787975   0.358295  -0.049514  -0.099912  -0.065256   0.027678
     2  C    0.358295   4.511948   0.345569   0.359955   0.236978  -0.035870
     3  H   -0.049514   0.345569   0.706299  -0.069012  -0.055777   0.014842
     4  H   -0.099912   0.359955  -0.069012   1.042281   0.083373  -0.008978
     5  C   -0.065256   0.236978  -0.055777   0.083373   5.311913   0.170669
     6  O    0.027678  -0.035870   0.014842  -0.008978   0.170669   8.702142
     7  N    0.047859  -0.025214   0.034646  -0.179962   0.112012  -0.111110
     8  H   -0.004906  -0.065436  -0.002340   0.011648  -0.124060   0.003903
     9  C    0.003411  -0.023879   0.004046  -0.017058  -0.385062   0.092912
    10  H   -0.000745  -0.011967  -0.001198  -0.001674   0.054495  -0.021127
    11  C   -0.000598   0.004869   0.003699  -0.004378  -0.007696  -0.015203
    12  H   -0.000537  -0.002698   0.000195   0.000178  -0.014788  -0.001238
    13  H    0.000299   0.001930   0.000163  -0.000894  -0.013364  -0.000694
    14  H    0.000161   0.002976   0.000106   0.000907   0.045220  -0.002129
    15  C    0.000745   0.009267  -0.000986  -0.011453  -0.024181   0.010696
    16  O   -0.000749  -0.005208   0.000143   0.000936   0.004806   0.001883
    17  N    0.000243  -0.005286   0.000277  -0.001110   0.001086  -0.000882
    18  H    0.000029   0.000825   0.000031  -0.000032   0.001591   0.000291
    19  C   -0.000122  -0.003194  -0.000071  -0.000750  -0.003925   0.000030
    20  H    0.000029  -0.000175   0.000040  -0.000081  -0.000717  -0.000186
    21  H   -0.000003  -0.000002  -0.000019   0.000002   0.000471   0.000026
    22  H   -0.000007   0.000016  -0.000030   0.000006   0.000123   0.000047
              7          8          9         10         11         12
     1  H    0.047859  -0.004906   0.003411  -0.000745  -0.000598  -0.000537
     2  C   -0.025214  -0.065436  -0.023879  -0.011967   0.004869  -0.002698
     3  H    0.034646  -0.002340   0.004046  -0.001198   0.003699   0.000195
     4  H   -0.179962   0.011648  -0.017058  -0.001674  -0.004378   0.000178
     5  C    0.112012  -0.124060  -0.385062   0.054495  -0.007696  -0.014788
     6  O   -0.111110   0.003903   0.092912  -0.021127  -0.015203  -0.001238
     7  N    7.651087   0.290691  -0.401229   0.066607  -0.078872  -0.069571
     8  H    0.290691   0.995631   0.044217  -0.006156  -0.017563   0.008236
     9  C   -0.401229   0.044217   7.715644  -0.249655   0.154090  -0.034672
    10  H    0.066607  -0.006156  -0.249655   1.298390  -0.034853   0.051582
    11  C   -0.078872  -0.017563   0.154090  -0.034853   4.376870   0.412697
    12  H   -0.069571   0.008236  -0.034672   0.051582   0.412697   1.053135
    13  H    0.117272   0.002745  -0.260189  -0.068021   0.336852  -0.150163
    14  H   -0.072907  -0.005499   0.167925  -0.034015   0.193605  -0.250894
    15  C   -0.007275  -0.068131  -0.378685  -0.074429  -0.124018  -0.064408
    16  O    0.024659   0.005163  -0.050151   0.046374   0.019730   0.005789
    17  N    0.055836   0.029346  -0.147507   0.066277   0.004472   0.013111
    18  H   -0.006297  -0.000108  -0.015691  -0.001337   0.022410   0.027950
    19  C    0.009238   0.004641  -0.037714   0.007497  -0.030655  -0.007195
    20  H   -0.000542  -0.001369  -0.039373   0.001516  -0.003455   0.001332
    21  H    0.000312   0.000539  -0.007674  -0.002318   0.006812  -0.002609
    22  H   -0.003280  -0.001503   0.026176   0.000720  -0.002597  -0.001306
             13         14         15         16         17         18
     1  H    0.000299   0.000161   0.000745  -0.000749   0.000243   0.000029
     2  C    0.001930   0.002976   0.009267  -0.005208  -0.005286   0.000825
     3  H    0.000163   0.000106  -0.000986   0.000143   0.000277   0.000031
     4  H   -0.000894   0.000907  -0.011453   0.000936  -0.001110  -0.000032
     5  C   -0.013364   0.045220  -0.024181   0.004806   0.001086   0.001591
     6  O   -0.000694  -0.002129   0.010696   0.001883  -0.000882   0.000291
     7  N    0.117272  -0.072907  -0.007275   0.024659   0.055836  -0.006297
     8  H    0.002745  -0.005499  -0.068131   0.005163   0.029346  -0.000108
     9  C   -0.260189   0.167925  -0.378685  -0.050151  -0.147507  -0.015691
    10  H   -0.068021  -0.034015  -0.074429   0.046374   0.066277  -0.001337
    11  C    0.336852   0.193605  -0.124018   0.019730   0.004472   0.022410
    12  H   -0.150163  -0.250894  -0.064408   0.005789   0.013111   0.027950
    13  H    1.199997  -0.191874   0.048278  -0.006824   0.009159  -0.004894
    14  H   -0.191874   1.270436   0.048892  -0.000301  -0.023155   0.002294
    15  C    0.048278   0.048892   5.319031   0.233892   0.114937  -0.075776
    16  O   -0.006824  -0.000301   0.233892   8.730598  -0.132153   0.017337
    17  N    0.009159  -0.023155   0.114937  -0.132153   7.148104   0.282302
    18  H   -0.004894   0.002294  -0.075776   0.017337   0.282302   1.023850
    19  C    0.000471   0.001797  -0.069243  -0.023390   0.230103  -0.143530
    20  H   -0.000516   0.000062   0.045753  -0.019990  -0.055943  -0.002592
    21  H    0.000876   0.000943  -0.000894   0.002354   0.035741  -0.009850
    22  H   -0.001305   0.000845  -0.033211   0.012261  -0.104099   0.010724
             19         20         21         22
     1  H   -0.000122   0.000029  -0.000003  -0.000007
     2  C   -0.003194  -0.000175  -0.000002   0.000016
     3  H   -0.000071   0.000040  -0.000019  -0.000030
     4  H   -0.000750  -0.000081   0.000002   0.000006
     5  C   -0.003925  -0.000717   0.000471   0.000123
     6  O    0.000030  -0.000186   0.000026   0.000047
     7  N    0.009238  -0.000542   0.000312  -0.003280
     8  H    0.004641  -0.001369   0.000539  -0.001503
     9  C   -0.037714  -0.039373  -0.007674   0.026176
    10  H    0.007497   0.001516  -0.002318   0.000720
    11  C   -0.030655  -0.003455   0.006812  -0.002597
    12  H   -0.007195   0.001332  -0.002609  -0.001306
    13  H    0.000471  -0.000516   0.000876  -0.001305
    14  H    0.001797   0.000062   0.000943   0.000845
    15  C   -0.069243   0.045753  -0.000894  -0.033211
    16  O   -0.023390  -0.019990   0.002354   0.012261
    17  N    0.230103  -0.055943   0.035741  -0.104099
    18  H   -0.143530  -0.002592  -0.009850   0.010724
    19  C    4.130497   0.488269   0.298484   0.365204
    20  H    0.488269   0.979295  -0.102287  -0.146309
    21  H    0.298484  -0.102287   1.012555  -0.152626
    22  H    0.365204  -0.146309  -0.152626   1.160453
 Mulliken atomic charges:
              1
     1  H   -0.004374
     2  C    0.346302
     3  H    0.068892
     4  H   -0.103991
     5  C    0.672087
     6  O   -0.827701
     7  N   -0.453959
     8  H   -0.099688
     9  C   -0.159881
    10  H   -0.085962
    11  C    0.783782
    12  H    0.025874
    13  H   -0.019303
    14  H   -0.155395
    15  C    1.101201
    16  O   -0.867159
    17  N   -0.520859
    18  H   -0.129528
    19  C    0.783556
    20  H   -0.142761
    21  H   -0.080833
    22  H   -0.130301
 Sum of Mulliken atomic charges =   0.00000
 Mulliken charges with hydrogens summed into heavy atoms:
              1
     2  C    0.306829
     5  C    0.672087
     6  O   -0.827701
     7  N   -0.553647
     9  C   -0.245842
    11  C    0.634959
    15  C    1.101201
    16  O   -0.867159
    17  N   -0.650387
    19  C    0.429661
 Sum of Mulliken charges with hydrogens summed into heavy atoms =   0.00000
 Electronic spatial extent (au):  <R**2>=           1880.2987
 Charge=              0.0000 electrons
 Dipole moment (field-independent basis, Debye):
    X=              2.9793    Y=              2.3196    Z=              5.3185  Tot=              6.5226
 Quadrupole moment (field-independent basis, Debye-Ang):
   XX=            -56.9138   YY=            -61.2621   ZZ=            -64.0922
   XY=              5.4019   XZ=             -5.5747   YZ=             -4.1199
 Traceless Quadrupole moment (field-independent basis, Debye-Ang):
   XX=              3.8422   YY=             -0.5061   ZZ=             -3.3362
   XY=              5.4019   XZ=             -5.5747   YZ=             -4.1199
 Octapole moment (field-independent basis, Debye-Ang**2):
  XXX=             32.6163  YYY=              2.2673  ZZZ=              7.5636  XYY=             -1.9684
  XXY=             -9.1393  XXZ=             27.5473  XZZ=              7.0679  YZZ=              3.1340
  YYZ=              2.7127  XYZ=             -0.0275
 Hexadecapole moment (field-independent basis, Debye-Ang**3):
 XXXX=          -1637.5702 YYYY=           -485.4614 ZZZZ=           -247.2781 XXXY=              9.2476
 XXXZ=            -44.7089 YYYX=              4.2454 YYYZ=             -5.1973 ZZZX=             -3.8899
 ZZZY=             -3.0872 XXYY=           -354.5109 XXZZ=           -351.9655 YYZZ=           -129.2772
 XXYZ=             -4.0918 YYXZ=              7.7301 ZZXY=              5.4592
 N-N= 5.507817911308D+02 E-N=-2.256776922550D+03  KE= 4.920659719493D+02
 1\1\GINC-NODE007\SP\RMP2-FC\Aug-CC-pVDZ\C6H12N2O2\MANAGER\13-Feb-2017\
 0\\#SP MP2/aug-cc-pVDZ\\Single Point calculation at MP2\\0,1\H,0,-4.12
 31,-0.7751,0.729\C,0,-3.0736,-0.9741,0.9556\H,0,-2.8917,-2.0433,0.7955
 \H,0,-2.8781,-0.7439,2.0083\C,0,-2.2042,-0.1767,-0.0046\O,0,-2.5324,0.
 0378,-1.1613\N,0,-1.0274,0.2964,0.5369\H,0,-0.7682,-0.0395,1.4556\C,0,
 0.0447,0.818,-0.3073\H,0,-0.3814,0.8458,-1.3134\C,0,0.4455,2.2359,0.11
 65\H,0,0.7683,2.28,1.1653\H,0,1.2521,2.6271,-0.5147\H,0,-0.4161,2.9021
 ,0.017\C,0,1.177,-0.2343,-0.3701\O,0,1.0218,-1.28,-0.9858\N,0,2.2987,0
 .0363,0.3667\H,0,2.4095,0.9578,0.7623\C,0,3.4465,-0.8555,0.3787\H,0,3.
 1208,-1.8127,-0.0301\H,0,4.2684,-0.4698,-0.238\H,0,3.81,-0.9992,1.4019
 \\Version=EM64L-G09RevA.02\State=1-A\HF=-492.9173285\MP2=-494.5189664\
 RMSD=6.776e-09\PG=C01 [X(C6H12N2O2)]\\@


 "WOULD YOU TELL ME PLEASE, WHICH WAY I OUGHT TO WALK FROM HERE?"
 "THAT DEPENDS A GREAT DEAL ON WHERE YOU WANT TO GO," SAID THE CAT.
 "I DON'T MUCH CARE WHERE -- ", SAID ALICE.
 "THEN IT DOESN'T MATTER WHICH WAY YOU WALK," SAID THE CAT.

                                      -- LEWIS CARROLL
 Job cpu time:  0 days 20 hours 52 minutes 15.0 seconds.
 File lengths (MBytes):  RWF=  10509 Int=      0 D2E=      0 Chk=      7 Scr=      2
 Normal termination of Gaussian 09 at Mon Feb 13 11:22:13 2017.
