 Entering Gaussian System, Link 0=g09
 Initial command:
 /home/steboss/Software/g09/l1.exe /home/steboss/projects/phi_psi_scan/alanine/MP2/255/5451/Gau-11465.inp -scrdir=/home/steboss/projects/phi_psi_scan/alanine/MP2/255/5451/
 Entering Link 1 = /home/steboss/Software/g09/l1.exe PID=     11499.
  
 Copyright (c) 1988,1990,1992,1993,1995,1998,2003,2009, Gaussian, Inc.
                  All Rights Reserved.
  
 This is part of the Gaussian(R) 09 program.  It is based on
 the Gaussian(R) 03 system (copyright 2003, Gaussian, Inc.),
 the Gaussian(R) 98 system (copyright 1998, Gaussian, Inc.),
 the Gaussian(R) 94 system (copyright 1995, Gaussian, Inc.),
 the Gaussian 92(TM) system (copyright 1992, Gaussian, Inc.),
 the Gaussian 90(TM) system (copyright 1990, Gaussian, Inc.),
 the Gaussian 88(TM) system (copyright 1988, Gaussian, Inc.),
 the Gaussian 86(TM) system (copyright 1986, Carnegie Mellon
 University), and the Gaussian 82(TM) system (copyright 1983,
 Carnegie Mellon University). Gaussian is a federally registered
 trademark of Gaussian, Inc.
  
 This software contains proprietary and confidential information,
 including trade secrets, belonging to Gaussian, Inc.
  
 This software is provided under written license and may be
 used, copied, transmitted, or stored only in accord with that
 written license.
  
 The following legend is applicable only to US Government
 contracts under FAR:
  
                    RESTRICTED RIGHTS LEGEND
  
 Use, reproduction and disclosure by the US Government is
 subject to restrictions as set forth in subparagraphs (a)
 and (c) of the Commercial Computer Software - Restricted
 Rights clause in FAR 52.227-19.
  
 Gaussian, Inc.
 340 Quinnipiac St., Bldg. 40, Wallingford CT 06492
  
  
 ---------------------------------------------------------------
 Warning -- This program may not be used in any manner that
 competes with the business of Gaussian, Inc. or will provide
 assistance to any competitor of Gaussian, Inc.  The licensee
 of this program is prohibited from giving any competitor of
 Gaussian, Inc. access to this program.  By using this program,
 the user acknowledges that Gaussian, Inc. is engaged in the
 business of creating and licensing software in the field of
 computational chemistry and represents and warrants to the
 licensee that it is not a competitor of Gaussian, Inc. and that
 it will not use this program in any manner prohibited above.
 ---------------------------------------------------------------
  

 Cite this work as:
 Gaussian 09, Revision A.02,
 M. J. Frisch, G. W. Trucks, H. B. Schlegel, G. E. Scuseria, 
 M. A. Robb, J. R. Cheeseman, G. Scalmani, V. Barone, B. Mennucci, 
 G. A. Petersson, H. Nakatsuji, M. Caricato, X. Li, H. P. Hratchian, 
 A. F. Izmaylov, J. Bloino, G. Zheng, J. L. Sonnenberg, M. Hada, 
 M. Ehara, K. Toyota, R. Fukuda, J. Hasegawa, M. Ishida, T. Nakajima, 
 Y. Honda, O. Kitao, H. Nakai, T. Vreven, J. A. Montgomery, Jr., 
 J. E. Peralta, F. Ogliaro, M. Bearpark, J. J. Heyd, E. Brothers, 
 K. N. Kudin, V. N. Staroverov, R. Kobayashi, J. Normand, 
 K. Raghavachari, A. Rendell, J. C. Burant, S. S. Iyengar, J. Tomasi, 
 M. Cossi, N. Rega, J. M. Millam, M. Klene, J. E. Knox, J. B. Cross, 
 V. Bakken, C. Adamo, J. Jaramillo, R. Gomperts, R. E. Stratmann, 
 O. Yazyev, A. J. Austin, R. Cammi, C. Pomelli, J. W. Ochterski, 
 R. L. Martin, K. Morokuma, V. G. Zakrzewski, G. A. Voth, 
 P. Salvador, J. J. Dannenberg, S. Dapprich, A. D. Daniels, 
 O. Farkas, J. B. Foresman, J. V. Ortiz, J. Cioslowski, 
 and D. J. Fox, Gaussian, Inc., Wallingford CT, 2009.
 
 ******************************************
 Gaussian 09:  EM64L-G09RevA.02 11-Jun-2009
                13-Feb-2017 
 ******************************************
 %chk=structure_180.chk
 %NProcShared=8
 Will use up to    8 processors via shared memory.
 -------------------
 #SP MP2/aug-cc-pVDZ
 -------------------
 1/38=1/1;
 2/12=2,17=6,18=5,40=1/2;
 3/5=16,7=10,11=9,16=1,25=1,30=1/1,2,3;
 4//1;
 5/5=2,38=5/2;
 8/10=1/1;
 9/16=-3/6;
 6/7=2,8=2,9=2,10=2/1;
 99/5=1,9=1/99;
 -------------------------------
 Single Point calculation at MP2
 -------------------------------
 Symbolic Z-matrix:
 Charge =  0 Multiplicity = 1
 H                     4.184    -0.9132    0.1201 
 C                     3.2331   -1.0057   -0.4077 
 H                     2.9111   -2.0529   -0.3558 
 H                     3.368    -0.7426   -1.4618 
 C                     2.1984   -0.1297    0.2795 
 O                     2.2763    0.1785    1.461 
 N                     1.1768    0.307    -0.5426 
 H                     1.0202   -0.2603   -1.3696 
 C                    -0.0546    0.8073    0.0457 
 H                     0.1537    0.9426    1.113 
 C                    -0.453     2.1571   -0.5773 
 H                    -0.6631    2.0479   -1.6473 
 H                    -1.3432    2.5845   -0.1028 
 H                     0.3701    2.8676   -0.4604 
 C                    -1.1548   -0.266    -0.1224 
 O                    -0.9449   -1.3099   -0.7325 
 N                    -2.3752    0.0666    0.3861 
 H                    -2.4441    0.8937    0.962 
 C                    -3.5086   -0.8436    0.3573 
 H                    -3.2861   -1.6237   -0.3714 
 H                    -3.6794   -1.3126    1.3346 
 H                    -4.4169   -0.3116    0.0555 
 
                          Input orientation:                          
 ---------------------------------------------------------------------
 Center     Atomic      Atomic             Coordinates (Angstroms)
 Number     Number       Type             X           Y           Z
 ---------------------------------------------------------------------
      1          1           0        4.184000   -0.913200    0.120100
      2          6           0        3.233100   -1.005700   -0.407700
      3          1           0        2.911100   -2.052900   -0.355800
      4          1           0        3.368000   -0.742600   -1.461800
      5          6           0        2.198400   -0.129700    0.279500
      6          8           0        2.276300    0.178500    1.461000
      7          7           0        1.176800    0.307000   -0.542600
      8          1           0        1.020200   -0.260300   -1.369600
      9          6           0       -0.054600    0.807300    0.045700
     10          1           0        0.153700    0.942600    1.113000
     11          6           0       -0.453000    2.157100   -0.577300
     12          1           0       -0.663100    2.047900   -1.647300
     13          1           0       -1.343200    2.584500   -0.102800
     14          1           0        0.370100    2.867600   -0.460400
     15          6           0       -1.154800   -0.266000   -0.122400
     16          8           0       -0.944900   -1.309900   -0.732500
     17          7           0       -2.375200    0.066600    0.386100
     18          1           0       -2.444100    0.893700    0.962000
     19          6           0       -3.508600   -0.843600    0.357300
     20          1           0       -3.286100   -1.623700   -0.371400
     21          1           0       -3.679400   -1.312600    1.334600
     22          1           0       -4.416900   -0.311600    0.055500
 ---------------------------------------------------------------------
                    Distance matrix (angstroms):
                    1          2          3          4          5
     1  H    0.000000
     2  C    1.091485   0.000000
     3  H    1.773604   1.096816   0.000000
     4  H    1.788119   1.094781   1.774508   0.000000
     5  C    2.140535   1.519942   2.147148   2.185346   0.000000
     6  O    2.574712   2.410360   2.946673   3.253151   1.223519
     7  N    3.312297   2.443307   2.934590   2.597681   1.382108
     8  H    3.557403   2.525430   2.795838   2.398599   2.030946
     9  C    4.575083   3.781734   4.139725   4.048325   2.451253
    10  H    4.546775   3.948557   4.328238   4.449856   2.454658
    11  C    5.604898   4.859980   5.393545   4.877565   3.604647
    12  H    5.948630   5.103083   5.591014   4.906227   4.079544
    13  H    6.544733   5.824519   6.298298   5.925528   4.478389
    14  H    5.401598   4.816845   5.538858   4.798307   3.588027
    15  C    5.383350   4.458948   4.447362   4.740977   3.379948
    16  O    5.214395   4.201633   3.944957   4.410761   3.506758
    17  N    6.637309   5.764805   5.743489   6.087190   4.579052
    18  H    6.921372   6.141205   6.252777   6.506365   4.802703
    19  C    7.696571   6.786901   6.571413   7.113856   5.752004
    20  H    7.519892   6.548527   6.212064   6.800173   5.721490
    21  H    7.966655   7.135296   6.843989   7.603328   6.087776
    22  H    8.622156   7.695377   7.543267   7.943087   6.621590
                    6          7          8          9         10
     6  O    0.000000
     7  N    2.289067   0.000000
     8  H    3.127719   1.015028   0.000000
     9  C    2.798492   1.453528   2.073171   0.000000
    10  H    2.282626   2.047372   2.891556   1.095821   0.000000
    11  C    3.939366   2.465831   2.939708   1.539094   2.167997
    12  H    4.668646   2.763390   2.870262   2.185317   3.083522
    13  H    4.618992   3.425030   3.909390   2.200223   2.532729
    14  H    3.815316   2.685925   3.321601   2.163641   2.495604
    15  C    3.804889   2.437469   2.507223   1.546179   2.167741
    16  O    4.171679   2.674330   2.317148   2.425029   3.112322
    17  N    4.775394   3.679263   3.836416   2.459612   2.773282
    18  H    4.800280   3.964714   4.332372   2.560621   2.602644
    19  C    5.977283   4.907818   4.881849   3.840922   4.144157
    20  H    6.127472   4.865633   4.625957   4.065258   4.541097
    21  H    6.140824   5.452491   5.523248   4.392541   4.452829
    22  H    6.856716   5.659494   5.620996   4.503520   4.856100
                   11         12         13         14         15
    11  C    0.000000
    12  H    1.095886   0.000000
    13  H    1.095572   1.770863   0.000000
    14  H    1.093604   1.774300   1.772969   0.000000
    15  C    2.563371   2.814467   2.856786   3.501287   0.000000
    16  O    3.505159   3.491574   3.965037   4.388026   1.227195
    17  N    2.998864   3.315351   2.764755   4.012335   1.363294
    18  H    2.816044   3.363419   2.281356   3.720111   2.045268
    19  C    4.383420   4.525048   4.080750   5.430097   2.470649
    20  H    4.728985   4.689211   4.642839   5.792020   2.539250
    21  H    5.109191   5.411354   4.765641   6.090529   3.097067
    22  H    4.712475   4.749503   4.226119   5.769648   3.267266
                   16         17         18         19         20
    16  O    0.000000
    17  N    2.278547   0.000000
    18  H    3.158288   1.010199   0.000000
    19  C    2.824475   1.453922   2.125331   0.000000
    20  H    2.389578   2.064136   2.970559   1.090443   0.000000
    21  H    3.427886   2.121976   2.555887   1.097383   1.778174
    22  H    3.697612   2.102587   2.483230   1.095042   1.783973
                   21         22
    21  H    0.000000
    22  H    1.783817   0.000000
 Stoichiometry    C6H12N2O2
 Framework group  C1[X(C6H12N2O2)]
 Deg. of freedom    60
 Full point group                 C1      NOp   1
 Largest Abelian subgroup         C1      NOp   1
 Largest concise Abelian subgroup C1      NOp   1
                         Standard orientation:                         
 ---------------------------------------------------------------------
 Center     Atomic      Atomic             Coordinates (Angstroms)
 Number     Number       Type             X           Y           Z
 ---------------------------------------------------------------------
      1          1           0        4.184007   -0.913183    0.120110
      2          6           0        3.233107   -1.005686   -0.407690
      3          1           0        2.911111   -2.052887   -0.355790
      4          1           0        3.368006   -0.742585   -1.461790
      5          6           0        2.198404   -0.129690    0.279510
      6          8           0        2.276303    0.178511    1.461010
      7          7           0        1.176803    0.307007   -0.542590
      8          1           0        1.020205   -0.260294   -1.369590
      9          6           0       -0.054599    0.807302    0.045710
     10          1           0        0.153700    0.942603    1.113010
     11          6           0       -0.453004    2.157101   -0.577290
     12          1           0       -0.663103    2.047900   -1.647290
     13          1           0       -1.343205    2.584498   -0.102790
     14          1           0        0.370094    2.867604   -0.460390
     15          6           0       -1.154795   -0.266002   -0.122390
     16          8           0       -0.944891   -1.309901   -0.732490
     17          7           0       -2.375196    0.066594    0.386110
     18          1           0       -2.444099    0.893694    0.962010
     19          6           0       -3.508593   -0.843610    0.357310
     20          1           0       -3.286090   -1.623709   -0.371390
     21          1           0       -3.679391   -1.312611    1.334610
     22          1           0       -4.416895   -0.311613    0.055510
 ---------------------------------------------------------------------
 Rotational constants (GHZ):      2.3578845      0.7165653      0.6458184
 Standard basis: Aug-CC-pVDZ (5D, 7F)
 There are   338 symmetry adapted basis functions of A   symmetry.
 Integral buffers will be    131072 words long.
 Raffenetti 1 integral format.
 Two-electron integral symmetry is turned on.
   338 basis functions,   562 primitive gaussians,   358 cartesian basis functions
    39 alpha electrons       39 beta electrons
       nuclear repulsion energy       551.4246951334 Hartrees.
 NAtoms=   22 NActive=   22 NUniq=   22 SFac= 7.50D-01 NAtFMM=   80 NAOKFM=F Big=F
 One-electron integrals computed using PRISM.
 NBasis=   338 RedAO= T  NBF=   338
 NBsUse=   338 1.00D-06 NBFU=   338
 Harris functional with IExCor=  205 diagonalized for initial guess.
 ExpMin= 2.97D-02 ExpMax= 1.17D+04 ExpMxC= 4.01D+02 IAcc=3 IRadAn=         0 AccDes= 0.00D+00
 HarFok:  IExCor=  205 AccDes= 0.00D+00 IRadAn=         0 IDoV= 1
 ScaDFX=  1.000000  1.000000  1.000000  1.000000
 FoFCou: FMM=F IPFlag=           0 FMFlag=      100000 FMFlg1=           0
         NFxFlg=           0 DoJE=T BraDBF=F KetDBF=T FulRan=T
         Omega=  0.000000  0.000000  1.000000  0.000000  0.000000 ICntrl=     500 IOpCl=  0
         NMat0=    1 NMatS0=    1 NMatT0=    0 NMatD0=    1 NMtDS0=    0 NMtDT0=    0
         I1Cent=           4 NGrid=           0.
 Petite list used in FoFCou.
 Initial guess orbital symmetries:
       Occupied  (A) (A) (A) (A) (A) (A) (A) (A) (A) (A) (A) (A)
                 (A) (A) (A) (A) (A) (A) (A) (A) (A) (A) (A) (A)
                 (A) (A) (A) (A) (A) (A) (A) (A) (A) (A) (A) (A)
                 (A) (A) (A)
       Virtual   (A) (A) (A) (A) (A) (A) (A) (A) (A) (A) (A) (A)
                 (A) (A) (A) (A) (A) (A) (A) (A) (A) (A) (A) (A)
                 (A) (A) (A) (A) (A) (A) (A) (A) (A) (A) (A) (A)
                 (A) (A) (A) (A) (A) (A) (A) (A) (A) (A) (A) (A)
                 (A) (A) (A) (A) (A) (A) (A) (A) (A) (A) (A) (A)
                 (A) (A) (A) (A) (A) (A) (A) (A) (A) (A) (A) (A)
                 (A) (A) (A) (A) (A) (A) (A) (A) (A) (A) (A) (A)
                 (A) (A) (A) (A) (A) (A) (A) (A) (A) (A) (A) (A)
                 (A) (A) (A) (A) (A) (A) (A) (A) (A) (A) (A) (A)
                 (A) (A) (A) (A) (A) (A) (A) (A) (A) (A) (A) (A)
                 (A) (A) (A) (A) (A) (A) (A) (A) (A) (A) (A) (A)
                 (A) (A) (A) (A) (A) (A) (A) (A) (A) (A) (A) (A)
                 (A) (A) (A) (A) (A) (A) (A) (A) (A) (A) (A) (A)
                 (A) (A) (A) (A) (A) (A) (A) (A) (A) (A) (A) (A)
                 (A) (A) (A) (A) (A) (A) (A) (A) (A) (A) (A) (A)
                 (A) (A) (A) (A) (A) (A) (A) (A) (A) (A) (A) (A)
                 (A) (A) (A) (A) (A) (A) (A) (A) (A) (A) (A) (A)
                 (A) (A) (A) (A) (A) (A) (A) (A) (A) (A) (A) (A)
                 (A) (A) (A) (A) (A) (A) (A) (A) (A) (A) (A) (A)
                 (A) (A) (A) (A) (A) (A) (A) (A) (A) (A) (A) (A)
                 (A) (A) (A) (A) (A) (A) (A) (A) (A) (A) (A) (A)
                 (A) (A) (A) (A) (A) (A) (A) (A) (A) (A) (A) (A)
                 (A) (A) (A) (A) (A) (A) (A) (A) (A) (A) (A) (A)
                 (A) (A) (A) (A) (A) (A) (A) (A) (A) (A) (A) (A)
                 (A) (A) (A) (A) (A) (A) (A) (A) (A) (A) (A)
 The electronic state of the initial guess is 1-A.
 Requested convergence on RMS density matrix=1.00D-08 within 128 cycles.
 Requested convergence on MAX density matrix=1.00D-06.
 Requested convergence on             energy=1.00D-06.
 No special actions if energy rises.
 Initial convergence to 1.0D-05 achieved.  Increase integral accuracy.
 SCF Done:  E(RHF) =  -492.925341930     A.U. after   14 cycles
             Convg  =    0.7402D-08             -V/T =  2.0017
 ExpMin= 2.97D-02 ExpMax= 1.17D+04 ExpMxC= 4.01D+02 IAcc=3 IRadAn=         5 AccDes= 0.00D+00
 HarFok:  IExCor=  205 AccDes= 0.00D+00 IRadAn=         5 IDoV=-2
 ScaDFX=  1.000000  1.000000  1.000000  1.000000
 Range of M.O.s used for correlation:    11   338
 NBasis=   338 NAE=    39 NBE=    39 NFC=    10 NFV=     0
 NROrb=    328 NOA=    29 NOB=    29 NVA=   299 NVB=   299

 **** Warning!!: The largest alpha MO coefficient is  0.87513815D+02

 Disk-based method using OVN memory for 29 occupieds at a time.
 Estimated scratch disk usage=  1373673969 words.
 Actual    scratch disk usage=  1360840449 words.
 JobTyp=1 Pass  1:  I=   1 to  29 NPSUse=  8 ParTrn=T ParDer=T DoDerP=F.
 Spin components of T(2) and E(2):
     alpha-alpha T2 =       0.6780720685D-01 E2=     -0.2055364451D+00
     alpha-beta  T2 =       0.3758603641D+00 E2=     -0.1188813332D+01
     beta-beta   T2 =       0.6780720685D-01 E2=     -0.2055364451D+00
 ANorm=    0.1229420505D+01
 E2 =    -0.1599886222D+01 EUMP2 =    -0.49452522815228D+03

 **********************************************************************

            Population analysis using the SCF density.

 **********************************************************************

 Orbital symmetries:
       Occupied  (A) (A) (A) (A) (A) (A) (A) (A) (A) (A) (A) (A)
                 (A) (A) (A) (A) (A) (A) (A) (A) (A) (A) (A) (A)
                 (A) (A) (A) (A) (A) (A) (A) (A) (A) (A) (A) (A)
                 (A) (A) (A)
       Virtual   (A) (A) (A) (A) (A) (A) (A) (A) (A) (A) (A) (A)
                 (A) (A) (A) (A) (A) (A) (A) (A) (A) (A) (A) (A)
                 (A) (A) (A) (A) (A) (A) (A) (A) (A) (A) (A) (A)
                 (A) (A) (A) (A) (A) (A) (A) (A) (A) (A) (A) (A)
                 (A) (A) (A) (A) (A) (A) (A) (A) (A) (A) (A) (A)
                 (A) (A) (A) (A) (A) (A) (A) (A) (A) (A) (A) (A)
                 (A) (A) (A) (A) (A) (A) (A) (A) (A) (A) (A) (A)
                 (A) (A) (A) (A) (A) (A) (A) (A) (A) (A) (A) (A)
                 (A) (A) (A) (A) (A) (A) (A) (A) (A) (A) (A) (A)
                 (A) (A) (A) (A) (A) (A) (A) (A) (A) (A) (A) (A)
                 (A) (A) (A) (A) (A) (A) (A) (A) (A) (A) (A) (A)
                 (A) (A) (A) (A) (A) (A) (A) (A) (A) (A) (A) (A)
                 (A) (A) (A) (A) (A) (A) (A) (A) (A) (A) (A) (A)
                 (A) (A) (A) (A) (A) (A) (A) (A) (A) (A) (A) (A)
                 (A) (A) (A) (A) (A) (A) (A) (A) (A) (A) (A) (A)
                 (A) (A) (A) (A) (A) (A) (A) (A) (A) (A) (A) (A)
                 (A) (A) (A) (A) (A) (A) (A) (A) (A) (A) (A) (A)
                 (A) (A) (A) (A) (A) (A) (A) (A) (A) (A) (A) (A)
                 (A) (A) (A) (A) (A) (A) (A) (A) (A) (A) (A) (A)
                 (A) (A) (A) (A) (A) (A) (A) (A) (A) (A) (A) (A)
                 (A) (A) (A) (A) (A) (A) (A) (A) (A) (A) (A) (A)
                 (A) (A) (A) (A) (A) (A) (A) (A) (A) (A) (A) (A)
                 (A) (A) (A) (A) (A) (A) (A) (A) (A) (A) (A) (A)
                 (A) (A) (A) (A) (A) (A) (A) (A) (A) (A) (A) (A)
                 (A) (A) (A) (A) (A) (A) (A) (A) (A) (A) (A)
 The electronic state is 1-A.
 Alpha  occ. eigenvalues --  -20.54058 -20.53094 -15.60306 -15.58580 -11.36681
 Alpha  occ. eigenvalues --  -11.35899 -11.29064 -11.27410 -11.24410 -11.24084
 Alpha  occ. eigenvalues --   -1.39549  -1.38149  -1.24072  -1.23310  -1.05475
 Alpha  occ. eigenvalues --   -0.99007  -0.96008  -0.88038  -0.79938  -0.78155
 Alpha  occ. eigenvalues --   -0.73191  -0.67378  -0.65978  -0.63611  -0.63047
 Alpha  occ. eigenvalues --   -0.61846  -0.59805  -0.58610  -0.57177  -0.56441
 Alpha  occ. eigenvalues --   -0.55349  -0.54081  -0.53235  -0.51774  -0.49672
 Alpha  occ. eigenvalues --   -0.43404  -0.42415  -0.40323  -0.39572
 Alpha virt. eigenvalues --    0.02818   0.03939   0.04315   0.04601   0.05642
 Alpha virt. eigenvalues --    0.06117   0.06216   0.07015   0.07371   0.07871
 Alpha virt. eigenvalues --    0.09049   0.09777   0.10584   0.11688   0.12658
 Alpha virt. eigenvalues --    0.13568   0.14124   0.14629   0.14756   0.15012
 Alpha virt. eigenvalues --    0.15455   0.16104   0.16464   0.16902   0.17610
 Alpha virt. eigenvalues --    0.17967   0.18329   0.18851   0.18960   0.19122
 Alpha virt. eigenvalues --    0.19250   0.20058   0.21073   0.21713   0.22384
 Alpha virt. eigenvalues --    0.23472   0.23981   0.25137   0.25480   0.26251
 Alpha virt. eigenvalues --    0.26602   0.27813   0.28855   0.30008   0.30229
 Alpha virt. eigenvalues --    0.31656   0.31797   0.32204   0.32840   0.33489
 Alpha virt. eigenvalues --    0.33996   0.34420   0.35615   0.36241   0.36611
 Alpha virt. eigenvalues --    0.37160   0.37628   0.38531   0.38758   0.39956
 Alpha virt. eigenvalues --    0.40839   0.41310   0.41691   0.42681   0.43426
 Alpha virt. eigenvalues --    0.43910   0.44112   0.44253   0.45240   0.45781
 Alpha virt. eigenvalues --    0.46963   0.47419   0.47793   0.48162   0.48920
 Alpha virt. eigenvalues --    0.49505   0.50101   0.51574   0.52079   0.52583
 Alpha virt. eigenvalues --    0.53353   0.54008   0.54697   0.55340   0.55526
 Alpha virt. eigenvalues --    0.56079   0.56627   0.57604   0.58643   0.58970
 Alpha virt. eigenvalues --    0.59055   0.60525   0.60843   0.61171   0.61673
 Alpha virt. eigenvalues --    0.62762   0.63542   0.63895   0.64301   0.65145
 Alpha virt. eigenvalues --    0.65815   0.66757   0.67545   0.68188   0.68764
 Alpha virt. eigenvalues --    0.68921   0.69309   0.69890   0.70787   0.71425
 Alpha virt. eigenvalues --    0.72092   0.72956   0.73230   0.73901   0.74733
 Alpha virt. eigenvalues --    0.75672   0.76324   0.76850   0.77220   0.77499
 Alpha virt. eigenvalues --    0.79621   0.80689   0.81193   0.82301   0.82760
 Alpha virt. eigenvalues --    0.84497   0.85042   0.85310   0.86733   0.87295
 Alpha virt. eigenvalues --    0.88396   0.89707   0.91168   0.91827   0.93504
 Alpha virt. eigenvalues --    0.94242   0.96397   0.96769   0.98284   0.99065
 Alpha virt. eigenvalues --    0.99772   1.00692   1.01709   1.04288   1.05634
 Alpha virt. eigenvalues --    1.06176   1.07808   1.08764   1.10059   1.11254
 Alpha virt. eigenvalues --    1.11477   1.13043   1.13246   1.14197   1.15000
 Alpha virt. eigenvalues --    1.15517   1.18229   1.20168   1.20871   1.21537
 Alpha virt. eigenvalues --    1.24726   1.25109   1.25791   1.28018   1.29358
 Alpha virt. eigenvalues --    1.30779   1.31716   1.34247   1.34527   1.37663
 Alpha virt. eigenvalues --    1.38692   1.39168   1.42246   1.44220   1.46589
 Alpha virt. eigenvalues --    1.48416   1.50384   1.51636   1.54151   1.55126
 Alpha virt. eigenvalues --    1.55779   1.56504   1.58122   1.61575   1.63370
 Alpha virt. eigenvalues --    1.64984   1.65471   1.68938   1.69164   1.70718
 Alpha virt. eigenvalues --    1.73870   1.75020   1.77108   1.78609   1.80400
 Alpha virt. eigenvalues --    1.81099   1.83039   1.84712   1.86177   1.87248
 Alpha virt. eigenvalues --    1.88791   1.89162   1.89703   1.92457   1.93947
 Alpha virt. eigenvalues --    1.94313   1.96544   1.99818   2.00690   2.00919
 Alpha virt. eigenvalues --    2.02942   2.04117   2.04610   2.06713   2.07320
 Alpha virt. eigenvalues --    2.09153   2.10866   2.11818   2.13939   2.15664
 Alpha virt. eigenvalues --    2.17434   2.19785   2.20535   2.21498   2.23356
 Alpha virt. eigenvalues --    2.23999   2.26301   2.27402   2.29264   2.29515
 Alpha virt. eigenvalues --    2.31291   2.31843   2.34040   2.34750   2.35367
 Alpha virt. eigenvalues --    2.38580   2.39765   2.40939   2.41766   2.43816
 Alpha virt. eigenvalues --    2.45183   2.46491   2.48653   2.49734   2.51625
 Alpha virt. eigenvalues --    2.52466   2.53923   2.55991   2.57298   2.58741
 Alpha virt. eigenvalues --    2.61337   2.63500   2.65864   2.66590   2.68812
 Alpha virt. eigenvalues --    2.71237   2.72858   2.75762   2.76056   2.78921
 Alpha virt. eigenvalues --    2.80793   2.84323   2.86591   2.87809   2.88434
 Alpha virt. eigenvalues --    2.90699   2.91297   2.95770   2.96861   2.97415
 Alpha virt. eigenvalues --    2.99511   3.01318   3.03330   3.03530   3.07881
 Alpha virt. eigenvalues --    3.09535   3.10962   3.16793   3.20614   3.24607
 Alpha virt. eigenvalues --    3.26599   3.28294   3.42440   3.47380   3.50718
 Alpha virt. eigenvalues --    3.59259   3.65983   3.76016   3.82024   3.83476
 Alpha virt. eigenvalues --    3.85178   3.87065   3.90189   3.98969   4.02505
 Alpha virt. eigenvalues --    4.07417   4.12303   4.20113   4.26499
          Condensed to atoms (all electrons):
              1          2          3          4          5          6
     1  H    0.840457   0.343986  -0.071110  -0.104754  -0.027904   0.027128
     2  C    0.343986   4.494205   0.357621   0.353895   0.261141  -0.037743
     3  H   -0.071110   0.357621   0.724745  -0.065336  -0.059491   0.014865
     4  H   -0.104754   0.353895  -0.065336   0.956208   0.033457  -0.003848
     5  C   -0.027904   0.261141  -0.059491   0.033457   5.070022   0.170138
     6  O    0.027128  -0.037743   0.014865  -0.003848   0.170138   8.717771
     7  N    0.033299   0.001935   0.008558  -0.108202   0.149648  -0.105460
     8  H   -0.005648  -0.065898  -0.000523   0.013869  -0.070048   0.007367
     9  C    0.001492  -0.089212   0.004147  -0.016764  -0.088814   0.014828
    10  H    0.000834   0.001824   0.000653   0.000027   0.039548  -0.026156
    11  C   -0.000778   0.006438   0.000878  -0.002561   0.000083  -0.001827
    12  H   -0.000396  -0.002412  -0.000196   0.000336  -0.007075   0.000091
    13  H    0.000278   0.002612   0.000169  -0.000518  -0.000747  -0.002061
    14  H    0.000094   0.001774  -0.000061   0.000466   0.018470  -0.001182
    15  C   -0.001423   0.024124   0.012119  -0.012880  -0.128796   0.060437
    16  O   -0.001462  -0.000439   0.000778   0.002566   0.016656  -0.003604
    17  N    0.000172   0.002478  -0.000061   0.000856   0.003535  -0.001868
    18  H   -0.000072  -0.001029   0.000030  -0.000294  -0.000890   0.001730
    19  C    0.000198   0.002700  -0.000128   0.000054  -0.001674   0.001597
    20  H   -0.000014   0.000188  -0.000108   0.000103  -0.000324   0.000101
    21  H    0.000015   0.000299  -0.000013   0.000007   0.000477   0.000196
    22  H    0.000023   0.000139   0.000027  -0.000021   0.000678  -0.000027
              7          8          9         10         11         12
     1  H    0.033299  -0.005648   0.001492   0.000834  -0.000778  -0.000396
     2  C    0.001935  -0.065898  -0.089212   0.001824   0.006438  -0.002412
     3  H    0.008558  -0.000523   0.004147   0.000653   0.000878  -0.000196
     4  H   -0.108202   0.013869  -0.016764   0.000027  -0.002561   0.000336
     5  C    0.149648  -0.070048  -0.088814   0.039548   0.000083  -0.007075
     6  O   -0.105460   0.007367   0.014828  -0.026156  -0.001827   0.000091
     7  N    7.834284   0.278739  -0.822528  -0.040157  -0.007154  -0.068692
     8  H    0.278739   0.856632   0.060429   0.003428  -0.032105   0.002116
     9  C   -0.822528   0.060429   8.774790  -0.058658   0.101402   0.052582
    10  H   -0.040157   0.003428  -0.058658   1.261990  -0.071798   0.072426
    11  C   -0.007154  -0.032105   0.101402  -0.071798   4.238193   0.350438
    12  H   -0.068692   0.002116   0.052582   0.072426   0.350438   1.040756
    13  H    0.136704   0.001481  -0.283654  -0.056548   0.315525  -0.133276
    14  H   -0.046169  -0.004457  -0.008703  -0.041905   0.332328  -0.192234
    15  C    0.409323  -0.044381  -1.554056   0.003576  -0.049573  -0.080679
    16  O   -0.017311   0.003126   0.092836  -0.019924  -0.000425   0.003406
    17  N   -0.052892  -0.003616   0.077870  -0.023404  -0.005309   0.000788
    18  H    0.012042   0.002204  -0.097431   0.008611   0.001826   0.002191
    19  C   -0.002927  -0.006445  -0.130613  -0.003141   0.009805  -0.006531
    20  H   -0.000471  -0.000620   0.009622   0.002741  -0.011538  -0.002248
    21  H   -0.000889  -0.000261   0.019513  -0.000768  -0.002610   0.000556
    22  H    0.003322  -0.000117  -0.048568  -0.002667   0.018845  -0.000525
             13         14         15         16         17         18
     1  H    0.000278   0.000094  -0.001423  -0.001462   0.000172  -0.000072
     2  C    0.002612   0.001774   0.024124  -0.000439   0.002478  -0.001029
     3  H    0.000169  -0.000061   0.012119   0.000778  -0.000061   0.000030
     4  H   -0.000518   0.000466  -0.012880   0.002566   0.000856  -0.000294
     5  C   -0.000747   0.018470  -0.128796   0.016656   0.003535  -0.000890
     6  O   -0.002061  -0.001182   0.060437  -0.003604  -0.001868   0.001730
     7  N    0.136704  -0.046169   0.409323  -0.017311  -0.052892   0.012042
     8  H    0.001481  -0.004457  -0.044381   0.003126  -0.003616   0.002204
     9  C   -0.283654  -0.008703  -1.554056   0.092836   0.077870  -0.097431
    10  H   -0.056548  -0.041905   0.003576  -0.019924  -0.023404   0.008611
    11  C    0.315525   0.332328  -0.049573  -0.000425  -0.005309   0.001826
    12  H   -0.133276  -0.192234  -0.080679   0.003406   0.000788   0.002191
    13  H    1.168007  -0.144677   0.128521  -0.007404  -0.039131   0.009915
    14  H   -0.144677   1.085915   0.039676  -0.000528   0.028156  -0.004618
    15  C    0.128521   0.039676   5.889877   0.231579   0.138996   0.027460
    16  O   -0.007404  -0.000528   0.231579   8.677871  -0.166089   0.004238
    17  N   -0.039131   0.028156   0.138996  -0.166089   7.180333   0.231524
    18  H    0.009915  -0.004618   0.027460   0.004238   0.231524   1.020281
    19  C   -0.002269   0.009534  -0.071620   0.001639   0.273267  -0.126235
    20  H    0.001154   0.000572  -0.007621  -0.003974  -0.039034  -0.001483
    21  H   -0.001762   0.000043  -0.043049   0.003232   0.045478  -0.001704
    22  H    0.002035   0.000855   0.015037   0.014220  -0.126921   0.013864
             19         20         21         22
     1  H    0.000198  -0.000014   0.000015   0.000023
     2  C    0.002700   0.000188   0.000299   0.000139
     3  H   -0.000128  -0.000108  -0.000013   0.000027
     4  H    0.000054   0.000103   0.000007  -0.000021
     5  C   -0.001674  -0.000324   0.000477   0.000678
     6  O    0.001597   0.000101   0.000196  -0.000027
     7  N   -0.002927  -0.000471  -0.000889   0.003322
     8  H   -0.006445  -0.000620  -0.000261  -0.000117
     9  C   -0.130613   0.009622   0.019513  -0.048568
    10  H   -0.003141   0.002741  -0.000768  -0.002667
    11  C    0.009805  -0.011538  -0.002610   0.018845
    12  H   -0.006531  -0.002248   0.000556  -0.000525
    13  H   -0.002269   0.001154  -0.001762   0.002035
    14  H    0.009534   0.000572   0.000043   0.000855
    15  C   -0.071620  -0.007621  -0.043049   0.015037
    16  O    0.001639  -0.003974   0.003232   0.014220
    17  N    0.273267  -0.039034   0.045478  -0.126921
    18  H   -0.126235  -0.001483  -0.001704   0.013864
    19  C    4.173997   0.469232   0.310153   0.388823
    20  H    0.469232   0.964782  -0.094720  -0.148850
    21  H    0.310153  -0.094720   0.993730  -0.153114
    22  H    0.388823  -0.148850  -0.153114   1.157943
 Mulliken atomic charges:
              1
     1  H   -0.034417
     2  C    0.341374
     3  H    0.072436
     4  H   -0.046666
     5  C    0.621909
     6  O   -0.832474
     7  N   -0.595004
     8  H    0.004730
     9  C   -0.010510
    10  H   -0.050533
    11  C    0.809917
    12  H   -0.031422
    13  H   -0.094353
    14  H   -0.073350
    15  C    1.013354
    16  O   -0.830988
    17  N   -0.525128
    18  H   -0.102159
    19  C    0.710583
    20  H   -0.137491
    21  H   -0.074809
    22  H   -0.135000
 Sum of Mulliken atomic charges =   0.00000
 Mulliken charges with hydrogens summed into heavy atoms:
              1
     2  C    0.332728
     5  C    0.621909
     6  O   -0.832474
     7  N   -0.590273
     9  C   -0.061043
    11  C    0.610792
    15  C    1.013354
    16  O   -0.830988
    17  N   -0.627288
    19  C    0.363283
 Sum of Mulliken charges with hydrogens summed into heavy atoms =   0.00000
 Electronic spatial extent (au):  <R**2>=           1889.2805
 Charge=              0.0000 electrons
 Dipole moment (field-independent basis, Debye):
    X=             -2.7187    Y=              1.5903    Z=             -1.2821  Tot=              3.4006
 Quadrupole moment (field-independent basis, Debye-Ang):
   XX=            -53.4015   YY=            -61.8978   ZZ=            -65.3023
   XY=             -6.0377   XZ=            -11.5762   YZ=             -1.0034
 Traceless Quadrupole moment (field-independent basis, Debye-Ang):
   XX=              6.7990   YY=             -1.6972   ZZ=             -5.1018
   XY=             -6.0377   XZ=            -11.5762   YZ=             -1.0034
 Octapole moment (field-independent basis, Debye-Ang**2):
  XXX=            -23.9925  YYY=              3.0519  ZZZ=             -8.6241  XYY=              1.3059
  XXY=            -12.8561  XXZ=             -9.6746  XZZ=            -13.1467  YZZ=             -0.0426
  YYZ=              5.7344  XYZ=             -0.0313
 Hexadecapole moment (field-independent basis, Debye-Ang**3):
 XXXX=          -1625.0018 YYYY=           -479.5567 ZZZZ=           -242.1697 XXXY=            -13.1143
 XXXZ=            -53.5282 YYYX=             -4.1819 YYYZ=              2.8817 ZZZX=            -25.0129
 ZZZY=              3.3800 XXYY=           -360.6243 XXZZ=           -360.9663 YYZZ=           -122.1245
 XXYZ=              3.5083 YYXZ=             -4.8020 ZZXY=             -6.0650
 N-N= 5.514246951334D+02 E-N=-2.258137813662D+03  KE= 4.920816460182D+02
 1\1\GINC-NODE010\SP\RMP2-FC\Aug-CC-pVDZ\C6H12N2O2\MANAGER\13-Feb-2017\
 0\\#SP MP2/aug-cc-pVDZ\\Single Point calculation at MP2\\0,1\H,0,4.184
 ,-0.9132,0.1201\C,0,3.2331,-1.0057,-0.4077\H,0,2.9111,-2.0529,-0.3558\
 H,0,3.368,-0.7426,-1.4618\C,0,2.1984,-0.1297,0.2795\O,0,2.2763,0.1785,
 1.461\N,0,1.1768,0.307,-0.5426\H,0,1.0202,-0.2603,-1.3696\C,0,-0.0546,
 0.8073,0.0457\H,0,0.1537,0.9426,1.113\C,0,-0.453,2.1571,-0.5773\H,0,-0
 .6631,2.0479,-1.6473\H,0,-1.3432,2.5845,-0.1028\H,0,0.3701,2.8676,-0.4
 604\C,0,-1.1548,-0.266,-0.1224\O,0,-0.9449,-1.3099,-0.7325\N,0,-2.3752
 ,0.0666,0.3861\H,0,-2.4441,0.8937,0.962\C,0,-3.5086,-0.8436,0.3573\H,0
 ,-3.2861,-1.6237,-0.3714\H,0,-3.6794,-1.3126,1.3346\H,0,-4.4169,-0.311
 6,0.0555\\Version=EM64L-G09RevA.02\State=1-A\HF=-492.9253419\MP2=-494.
 5252282\RMSD=7.402e-09\PG=C01 [X(C6H12N2O2)]\\@


 THERE IS SOMETHING FASCINATING ABOUT SCIENCE.
 ONE GETS SUCH WHOLESALE CONJECTURE OUT OF SUCH TRIFLING INVESTMENTS.

                                                       -- MARK TWAIN
 Job cpu time:  0 days 13 hours  6 minutes 50.9 seconds.
 File lengths (MBytes):  RWF=  10499 Int=      0 D2E=      0 Chk=      7 Scr=      2
 Normal termination of Gaussian 09 at Mon Feb 13 09:42:48 2017.
