 Entering Gaussian System, Link 0=g09
 Initial command:
 /home/steboss/Software/g09/l1.exe /home/steboss/projects/phi_psi_scan/alanine/MP2/255/5445/Gau-25267.inp -scrdir=/home/steboss/projects/phi_psi_scan/alanine/MP2/255/5445/
 Entering Link 1 = /home/steboss/Software/g09/l1.exe PID=     25269.
  
 Copyright (c) 1988,1990,1992,1993,1995,1998,2003,2009, Gaussian, Inc.
                  All Rights Reserved.
  
 This is part of the Gaussian(R) 09 program.  It is based on
 the Gaussian(R) 03 system (copyright 2003, Gaussian, Inc.),
 the Gaussian(R) 98 system (copyright 1998, Gaussian, Inc.),
 the Gaussian(R) 94 system (copyright 1995, Gaussian, Inc.),
 the Gaussian 92(TM) system (copyright 1992, Gaussian, Inc.),
 the Gaussian 90(TM) system (copyright 1990, Gaussian, Inc.),
 the Gaussian 88(TM) system (copyright 1988, Gaussian, Inc.),
 the Gaussian 86(TM) system (copyright 1986, Carnegie Mellon
 University), and the Gaussian 82(TM) system (copyright 1983,
 Carnegie Mellon University). Gaussian is a federally registered
 trademark of Gaussian, Inc.
  
 This software contains proprietary and confidential information,
 including trade secrets, belonging to Gaussian, Inc.
  
 This software is provided under written license and may be
 used, copied, transmitted, or stored only in accord with that
 written license.
  
 The following legend is applicable only to US Government
 contracts under FAR:
  
                    RESTRICTED RIGHTS LEGEND
  
 Use, reproduction and disclosure by the US Government is
 subject to restrictions as set forth in subparagraphs (a)
 and (c) of the Commercial Computer Software - Restricted
 Rights clause in FAR 52.227-19.
  
 Gaussian, Inc.
 340 Quinnipiac St., Bldg. 40, Wallingford CT 06492
  
  
 ---------------------------------------------------------------
 Warning -- This program may not be used in any manner that
 competes with the business of Gaussian, Inc. or will provide
 assistance to any competitor of Gaussian, Inc.  The licensee
 of this program is prohibited from giving any competitor of
 Gaussian, Inc. access to this program.  By using this program,
 the user acknowledges that Gaussian, Inc. is engaged in the
 business of creating and licensing software in the field of
 computational chemistry and represents and warrants to the
 licensee that it is not a competitor of Gaussian, Inc. and that
 it will not use this program in any manner prohibited above.
 ---------------------------------------------------------------
  

 Cite this work as:
 Gaussian 09, Revision A.02,
 M. J. Frisch, G. W. Trucks, H. B. Schlegel, G. E. Scuseria, 
 M. A. Robb, J. R. Cheeseman, G. Scalmani, V. Barone, B. Mennucci, 
 G. A. Petersson, H. Nakatsuji, M. Caricato, X. Li, H. P. Hratchian, 
 A. F. Izmaylov, J. Bloino, G. Zheng, J. L. Sonnenberg, M. Hada, 
 M. Ehara, K. Toyota, R. Fukuda, J. Hasegawa, M. Ishida, T. Nakajima, 
 Y. Honda, O. Kitao, H. Nakai, T. Vreven, J. A. Montgomery, Jr., 
 J. E. Peralta, F. Ogliaro, M. Bearpark, J. J. Heyd, E. Brothers, 
 K. N. Kudin, V. N. Staroverov, R. Kobayashi, J. Normand, 
 K. Raghavachari, A. Rendell, J. C. Burant, S. S. Iyengar, J. Tomasi, 
 M. Cossi, N. Rega, J. M. Millam, M. Klene, J. E. Knox, J. B. Cross, 
 V. Bakken, C. Adamo, J. Jaramillo, R. Gomperts, R. E. Stratmann, 
 O. Yazyev, A. J. Austin, R. Cammi, C. Pomelli, J. W. Ochterski, 
 R. L. Martin, K. Morokuma, V. G. Zakrzewski, G. A. Voth, 
 P. Salvador, J. J. Dannenberg, S. Dapprich, A. D. Daniels, 
 O. Farkas, J. B. Foresman, J. V. Ortiz, J. Cioslowski, 
 and D. J. Fox, Gaussian, Inc., Wallingford CT, 2009.
 
 ******************************************
 Gaussian 09:  EM64L-G09RevA.02 11-Jun-2009
                13-Feb-2017 
 ******************************************
 %chk=structure_105.chk
 %NProcShared=8
 Will use up to    8 processors via shared memory.
 -------------------
 #SP MP2/aug-cc-pVDZ
 -------------------
 1/38=1/1;
 2/12=2,17=6,18=5,40=1/2;
 3/5=16,7=10,11=9,16=1,25=1,30=1/1,2,3;
 4//1;
 5/5=2,38=5/2;
 8/10=1/1;
 9/16=-3/6;
 6/7=2,8=2,9=2,10=2/1;
 99/5=1,9=1/99;
 -------------------------------
 Single Point calculation at MP2
 -------------------------------
 Symbolic Z-matrix:
 Charge =  0 Multiplicity = 1
 H                    -3.1223   -1.8352    1.1115 
 C                    -3.1341   -0.7677    0.8712 
 H                    -3.0954   -0.191     1.8005 
 H                    -4.081    -0.5587    0.3637 
 C                    -1.9921   -0.4666   -0.0863 
 O                    -1.8817   -1.0417   -1.1651 
 N                    -1.1107    0.4936    0.3303 
 H                    -1.1602    0.8495    1.2752 
 C                     0.0488    0.8789   -0.4696 
 H                    -0.1278    0.451    -1.4586 
 C                     0.182     2.4002   -0.5575 
 H                     0.3861    2.821     0.4318 
 H                     1.016     2.6731   -1.2132 
 H                    -0.7366    2.8397   -0.9582 
 C                     1.303     0.2645    0.1804 
 O                     1.7747    0.7259    1.2149 
 N                     1.8139   -0.8143   -0.477 
 H                     1.2645   -1.2046   -1.2312 
 C                     2.9202   -1.5953    0.0503 
 H                     3.4084   -0.9965    0.8204 
 H                     2.5763   -2.5356    0.4998 
 H                     3.6386   -1.8247   -0.7434 
 
                          Input orientation:                          
 ---------------------------------------------------------------------
 Center     Atomic      Atomic             Coordinates (Angstroms)
 Number     Number       Type             X           Y           Z
 ---------------------------------------------------------------------
      1          1           0       -3.122300   -1.835200    1.111500
      2          6           0       -3.134100   -0.767700    0.871200
      3          1           0       -3.095400   -0.191000    1.800500
      4          1           0       -4.081000   -0.558700    0.363700
      5          6           0       -1.992100   -0.466600   -0.086300
      6          8           0       -1.881700   -1.041700   -1.165100
      7          7           0       -1.110700    0.493600    0.330300
      8          1           0       -1.160200    0.849500    1.275200
      9          6           0        0.048800    0.878900   -0.469600
     10          1           0       -0.127800    0.451000   -1.458600
     11          6           0        0.182000    2.400200   -0.557500
     12          1           0        0.386100    2.821000    0.431800
     13          1           0        1.016000    2.673100   -1.213200
     14          1           0       -0.736600    2.839700   -0.958200
     15          6           0        1.303000    0.264500    0.180400
     16          8           0        1.774700    0.725900    1.214900
     17          7           0        1.813900   -0.814300   -0.477000
     18          1           0        1.264500   -1.204600   -1.231200
     19          6           0        2.920200   -1.595300    0.050300
     20          1           0        3.408400   -0.996500    0.820400
     21          1           0        2.576300   -2.535600    0.499800
     22          1           0        3.638600   -1.824700   -0.743400
 ---------------------------------------------------------------------
                    Distance matrix (angstroms):
                    1          2          3          4          5
     1  H    0.000000
     2  C    1.094276   0.000000
     3  H    1.782930   1.094385   0.000000
     4  H    1.762885   1.094466   1.780732   0.000000
     5  C    2.141295   1.520405   2.203007   2.138805   0.000000
     6  O    2.711390   2.406263   3.315349   2.721661   1.227492
     7  N    3.174920   2.444913   2.563045   3.151370   1.368359
     8  H    3.329301   2.583570   2.259110   3.368224   2.068299
     9  C    4.463417   3.826211   4.022938   4.451554   2.474381
    10  H    4.560609   3.993875   4.454273   4.468564   2.490143
    11  C    5.625173   4.803467   4.797482   5.270376   3.628675
    12  H    5.869503   5.046152   4.802742   5.601963   4.090547
    13  H    6.546337   5.779893   5.847142   6.237832   4.491802
    14  H    5.641800   4.701919   4.728584   4.947884   3.642542
    15  C    4.985877   4.607656   4.709366   5.449653   3.385753
    16  O    5.527254   5.142498   4.990141   6.055077   4.159803
    17  N    5.285039   5.128598   5.447636   5.960030   3.841768
    18  H    5.012975   4.894757   5.406230   5.615627   3.529998
    19  C    6.139666   6.165496   6.420491   7.084459   5.042154
    20  H    6.590766   6.546697   6.626375   7.516073   5.501663
    21  H    5.773974   5.989330   6.273528   6.945956   5.049213
    22  H    7.010744   7.042276   7.381542   7.900674   5.829322
                    6          7          8          9         10
     6  O    0.000000
     7  N    2.277676   0.000000
     8  H    3.170531   1.010916   0.000000
     9  C    2.810561   1.460389   2.122940   0.000000
    10  H    2.321737   2.041585   2.949290   1.091974   0.000000
    11  C    4.058905   2.468681   2.750447   1.529648   2.169640
    12  H    4.755361   2.769026   2.643706   2.167498   3.074834
    13  H    4.711552   3.414010   3.775381   2.169694   2.511220
    14  H    4.052077   2.702659   3.021326   2.168022   2.515338
    15  C    3.695787   2.429178   2.758290   1.540456   2.183642
    16  O    4.707236   3.026882   2.938120   2.416543   3.292822
    17  N    3.765986   3.303880   3.831932   2.445927   2.516887
    18  H    3.151108   3.311154   4.047288   2.529611   2.175137
    19  C    4.984166   4.548633   4.911934   3.825820   3.969185
    20  H    5.650612   4.783603   4.948400   4.058095   4.449023
    21  H    4.987724   4.774804   5.101135   4.357385   4.479650
    22  H    5.591479   5.392884   5.852741   4.502342   4.458261
                   11         12         13         14         15
    11  C    0.000000
    12  H    1.094278   0.000000
    13  H    1.095433   1.767675   0.000000
    14  H    1.094325   1.786870   1.778872   0.000000
    15  C    2.522370   2.727563   2.797471   3.476785   0.000000
    16  O    2.912280   2.632660   3.203573   3.936641   1.227021
    17  N    3.605910   4.009980   3.652478   4.482000   1.362719
    18  H    3.823645   4.443266   3.885696   4.520541   2.037732
    19  C    4.881719   5.105968   4.841658   5.835965   2.468019
    20  H    4.883220   4.884528   4.829604   5.921222   2.536224
    21  H    5.586831   5.787466   5.700830   6.480349   3.092551
    22  H    5.461906   5.791578   5.227710   6.398839   3.266985
                   16         17         18         19         20
    16  O    0.000000
    17  N    2.288292   0.000000
    18  H    3.157616   1.011431   0.000000
    19  C    2.838386   1.453240   2.129843   0.000000
    20  H    2.406505   2.063704   2.974672   1.090850   0.000000
    21  H    3.433848   2.120912   2.547301   1.097489   1.778765
    22  H    3.716803   2.102714   2.501764   1.094844   1.784482
                   21         22
    21  H    0.000000
    22  H    1.783089   0.000000
 Stoichiometry    C6H12N2O2
 Framework group  C1[X(C6H12N2O2)]
 Deg. of freedom    60
 Full point group                 C1      NOp   1
 Largest Abelian subgroup         C1      NOp   1
 Largest concise Abelian subgroup C1      NOp   1
                         Standard orientation:                         
 ---------------------------------------------------------------------
 Center     Atomic      Atomic             Coordinates (Angstroms)
 Number     Number       Type             X           Y           Z
 ---------------------------------------------------------------------
      1          1           0       -3.122280   -1.835239    1.111490
      2          6           0       -3.134090   -0.767740    0.871190
      3          1           0       -3.095396   -0.191039    1.800490
      4          1           0       -4.080992   -0.558749    0.363690
      5          6           0       -1.992093   -0.466628   -0.086310
      6          8           0       -1.881687   -1.041727   -1.165110
      7          7           0       -1.110702    0.493580    0.330290
      8          1           0       -1.160206    0.849480    1.275190
      9          6           0        0.048794    0.878892   -0.469610
     10          1           0       -0.127802    0.450990   -1.458610
     11          6           0        0.181979    2.400193   -0.557510
     12          1           0        0.386075    2.820995    0.431790
     13          1           0        1.015976    2.673101   -1.213210
     14          1           0       -0.736625    2.839684   -0.958210
     15          6           0        1.303000    0.264504    0.180390
     16          8           0        1.774695    0.725908    1.214890
     17          7           0        1.813911   -0.814291   -0.477010
     18          1           0        1.264514   -1.204597   -1.231210
     19          6           0        2.920218   -1.595280    0.050290
     20          1           0        3.408412   -0.996476    0.820390
     21          1           0        2.576327   -2.535584    0.499790
     22          1           0        3.638620   -1.824673   -0.743410
 ---------------------------------------------------------------------
 Rotational constants (GHZ):      1.8194270      0.8261547      0.6917290
 Standard basis: Aug-CC-pVDZ (5D, 7F)
 There are   338 symmetry adapted basis functions of A   symmetry.
 Integral buffers will be    131072 words long.
 Raffenetti 1 integral format.
 Two-electron integral symmetry is turned on.
   338 basis functions,   562 primitive gaussians,   358 cartesian basis functions
    39 alpha electrons       39 beta electrons
       nuclear repulsion energy       553.0786946966 Hartrees.
 NAtoms=   22 NActive=   22 NUniq=   22 SFac= 7.50D-01 NAtFMM=   80 NAOKFM=F Big=F
 One-electron integrals computed using PRISM.
 NBasis=   338 RedAO= T  NBF=   338
 NBsUse=   338 1.00D-06 NBFU=   338
 Harris functional with IExCor=  205 diagonalized for initial guess.
 ExpMin= 2.97D-02 ExpMax= 1.17D+04 ExpMxC= 4.01D+02 IAcc=3 IRadAn=         0 AccDes= 0.00D+00
 HarFok:  IExCor=  205 AccDes= 0.00D+00 IRadAn=         0 IDoV= 1
 ScaDFX=  1.000000  1.000000  1.000000  1.000000
 FoFCou: FMM=F IPFlag=           0 FMFlag=      100000 FMFlg1=           0
         NFxFlg=           0 DoJE=T BraDBF=F KetDBF=T FulRan=T
         Omega=  0.000000  0.000000  1.000000  0.000000  0.000000 ICntrl=     500 IOpCl=  0
         NMat0=    1 NMatS0=    1 NMatT0=    0 NMatD0=    1 NMtDS0=    0 NMtDT0=    0
         I1Cent=           4 NGrid=           0.
 Petite list used in FoFCou.
 Initial guess orbital symmetries:
       Occupied  (A) (A) (A) (A) (A) (A) (A) (A) (A) (A) (A) (A)
                 (A) (A) (A) (A) (A) (A) (A) (A) (A) (A) (A) (A)
                 (A) (A) (A) (A) (A) (A) (A) (A) (A) (A) (A) (A)
                 (A) (A) (A)
       Virtual   (A) (A) (A) (A) (A) (A) (A) (A) (A) (A) (A) (A)
                 (A) (A) (A) (A) (A) (A) (A) (A) (A) (A) (A) (A)
                 (A) (A) (A) (A) (A) (A) (A) (A) (A) (A) (A) (A)
                 (A) (A) (A) (A) (A) (A) (A) (A) (A) (A) (A) (A)
                 (A) (A) (A) (A) (A) (A) (A) (A) (A) (A) (A) (A)
                 (A) (A) (A) (A) (A) (A) (A) (A) (A) (A) (A) (A)
                 (A) (A) (A) (A) (A) (A) (A) (A) (A) (A) (A) (A)
                 (A) (A) (A) (A) (A) (A) (A) (A) (A) (A) (A) (A)
                 (A) (A) (A) (A) (A) (A) (A) (A) (A) (A) (A) (A)
                 (A) (A) (A) (A) (A) (A) (A) (A) (A) (A) (A) (A)
                 (A) (A) (A) (A) (A) (A) (A) (A) (A) (A) (A) (A)
                 (A) (A) (A) (A) (A) (A) (A) (A) (A) (A) (A) (A)
                 (A) (A) (A) (A) (A) (A) (A) (A) (A) (A) (A) (A)
                 (A) (A) (A) (A) (A) (A) (A) (A) (A) (A) (A) (A)
                 (A) (A) (A) (A) (A) (A) (A) (A) (A) (A) (A) (A)
                 (A) (A) (A) (A) (A) (A) (A) (A) (A) (A) (A) (A)
                 (A) (A) (A) (A) (A) (A) (A) (A) (A) (A) (A) (A)
                 (A) (A) (A) (A) (A) (A) (A) (A) (A) (A) (A) (A)
                 (A) (A) (A) (A) (A) (A) (A) (A) (A) (A) (A) (A)
                 (A) (A) (A) (A) (A) (A) (A) (A) (A) (A) (A) (A)
                 (A) (A) (A) (A) (A) (A) (A) (A) (A) (A) (A) (A)
                 (A) (A) (A) (A) (A) (A) (A) (A) (A) (A) (A) (A)
                 (A) (A) (A) (A) (A) (A) (A) (A) (A) (A) (A) (A)
                 (A) (A) (A) (A) (A) (A) (A) (A) (A) (A) (A) (A)
                 (A) (A) (A) (A) (A) (A) (A) (A) (A) (A) (A)
 The electronic state of the initial guess is 1-A.
 Requested convergence on RMS density matrix=1.00D-08 within 128 cycles.
 Requested convergence on MAX density matrix=1.00D-06.
 Requested convergence on             energy=1.00D-06.
 No special actions if energy rises.
 Initial convergence to 1.0D-05 achieved.  Increase integral accuracy.
 SCF Done:  E(RHF) =  -492.927807552     A.U. after   14 cycles
             Convg  =    0.6775D-08             -V/T =  2.0017
 ExpMin= 2.97D-02 ExpMax= 1.17D+04 ExpMxC= 4.01D+02 IAcc=3 IRadAn=         5 AccDes= 0.00D+00
 HarFok:  IExCor=  205 AccDes= 0.00D+00 IRadAn=         5 IDoV=-2
 ScaDFX=  1.000000  1.000000  1.000000  1.000000
 Range of M.O.s used for correlation:    11   338
 NBasis=   338 NAE=    39 NBE=    39 NFC=    10 NFV=     0
 NROrb=    328 NOA=    29 NOB=    29 NVA=   299 NVB=   299

 **** Warning!!: The largest alpha MO coefficient is  0.83448839D+02

 Disk-based method using OVN memory for 29 occupieds at a time.
 Estimated scratch disk usage=  1381578742 words.
 Actual    scratch disk usage=  1368575542 words.
 JobTyp=1 Pass  1:  I=   1 to  29 NPSUse=  8 ParTrn=T ParDer=T DoDerP=F.
 Spin components of T(2) and E(2):
     alpha-alpha T2 =       0.6784476515D-01 E2=     -0.2056070704D+00
     alpha-beta  T2 =       0.3760358619D+00 E2=     -0.1189265632D+01
     beta-beta   T2 =       0.6784476515D-01 E2=     -0.2056070704D+00
 ANorm=    0.1229522424D+01
 E2 =    -0.1600479773D+01 EUMP2 =    -0.49452828732531D+03

 **********************************************************************

            Population analysis using the SCF density.

 **********************************************************************

 Orbital symmetries:
       Occupied  (A) (A) (A) (A) (A) (A) (A) (A) (A) (A) (A) (A)
                 (A) (A) (A) (A) (A) (A) (A) (A) (A) (A) (A) (A)
                 (A) (A) (A) (A) (A) (A) (A) (A) (A) (A) (A) (A)
                 (A) (A) (A)
       Virtual   (A) (A) (A) (A) (A) (A) (A) (A) (A) (A) (A) (A)
                 (A) (A) (A) (A) (A) (A) (A) (A) (A) (A) (A) (A)
                 (A) (A) (A) (A) (A) (A) (A) (A) (A) (A) (A) (A)
                 (A) (A) (A) (A) (A) (A) (A) (A) (A) (A) (A) (A)
                 (A) (A) (A) (A) (A) (A) (A) (A) (A) (A) (A) (A)
                 (A) (A) (A) (A) (A) (A) (A) (A) (A) (A) (A) (A)
                 (A) (A) (A) (A) (A) (A) (A) (A) (A) (A) (A) (A)
                 (A) (A) (A) (A) (A) (A) (A) (A) (A) (A) (A) (A)
                 (A) (A) (A) (A) (A) (A) (A) (A) (A) (A) (A) (A)
                 (A) (A) (A) (A) (A) (A) (A) (A) (A) (A) (A) (A)
                 (A) (A) (A) (A) (A) (A) (A) (A) (A) (A) (A) (A)
                 (A) (A) (A) (A) (A) (A) (A) (A) (A) (A) (A) (A)
                 (A) (A) (A) (A) (A) (A) (A) (A) (A) (A) (A) (A)
                 (A) (A) (A) (A) (A) (A) (A) (A) (A) (A) (A) (A)
                 (A) (A) (A) (A) (A) (A) (A) (A) (A) (A) (A) (A)
                 (A) (A) (A) (A) (A) (A) (A) (A) (A) (A) (A) (A)
                 (A) (A) (A) (A) (A) (A) (A) (A) (A) (A) (A) (A)
                 (A) (A) (A) (A) (A) (A) (A) (A) (A) (A) (A) (A)
                 (A) (A) (A) (A) (A) (A) (A) (A) (A) (A) (A) (A)
                 (A) (A) (A) (A) (A) (A) (A) (A) (A) (A) (A) (A)
                 (A) (A) (A) (A) (A) (A) (A) (A) (A) (A) (A) (A)
                 (A) (A) (A) (A) (A) (A) (A) (A) (A) (A) (A) (A)
                 (A) (A) (A) (A) (A) (A) (A) (A) (A) (A) (A) (A)
                 (A) (A) (A) (A) (A) (A) (A) (A) (A) (A) (A) (A)
                 (A) (A) (A) (A) (A) (A) (A) (A) (A) (A) (A)
 The electronic state is 1-A.
 Alpha  occ. eigenvalues --  -20.53434 -20.53265 -15.60304 -15.59812 -11.36958
 Alpha  occ. eigenvalues --  -11.35969 -11.29087 -11.26852 -11.25150 -11.23472
 Alpha  occ. eigenvalues --   -1.39103  -1.38339  -1.24532  -1.23241  -1.05716
 Alpha  occ. eigenvalues --   -0.99515  -0.96193  -0.87456  -0.80476  -0.78904
 Alpha  occ. eigenvalues --   -0.73024  -0.67896  -0.66231  -0.64525  -0.62100
 Alpha  occ. eigenvalues --   -0.61922  -0.60196  -0.58816  -0.57598  -0.56348
 Alpha  occ. eigenvalues --   -0.54736  -0.53612  -0.51973  -0.51770  -0.51218
 Alpha  occ. eigenvalues --   -0.43904  -0.42993  -0.39652  -0.39027
 Alpha virt. eigenvalues --    0.03084   0.03756   0.04234   0.05023   0.05656
 Alpha virt. eigenvalues --    0.05876   0.06158   0.07163   0.07432   0.07808
 Alpha virt. eigenvalues --    0.08889   0.09414   0.11377   0.12014   0.12108
 Alpha virt. eigenvalues --    0.13227   0.13749   0.14389   0.14832   0.15217
 Alpha virt. eigenvalues --    0.15551   0.15735   0.16838   0.16997   0.17115
 Alpha virt. eigenvalues --    0.17739   0.18181   0.18292   0.18699   0.19385
 Alpha virt. eigenvalues --    0.19574   0.20123   0.20440   0.21155   0.22213
 Alpha virt. eigenvalues --    0.23193   0.24318   0.24748   0.25454   0.26191
 Alpha virt. eigenvalues --    0.26989   0.27306   0.28829   0.30364   0.30935
 Alpha virt. eigenvalues --    0.31754   0.31883   0.32073   0.33064   0.33125
 Alpha virt. eigenvalues --    0.34049   0.34424   0.35417   0.36039   0.36558
 Alpha virt. eigenvalues --    0.37078   0.37547   0.38569   0.39356   0.39923
 Alpha virt. eigenvalues --    0.40458   0.41162   0.41756   0.42462   0.42727
 Alpha virt. eigenvalues --    0.42970   0.43950   0.44738   0.45094   0.45651
 Alpha virt. eigenvalues --    0.46259   0.47190   0.47932   0.48363   0.49163
 Alpha virt. eigenvalues --    0.49290   0.50030   0.50612   0.51345   0.51620
 Alpha virt. eigenvalues --    0.53188   0.53439   0.55023   0.55309   0.56450
 Alpha virt. eigenvalues --    0.57044   0.57288   0.57766   0.58058   0.58153
 Alpha virt. eigenvalues --    0.59376   0.59751   0.60775   0.61609   0.62093
 Alpha virt. eigenvalues --    0.62467   0.62965   0.64118   0.64340   0.64816
 Alpha virt. eigenvalues --    0.65322   0.66388   0.66988   0.67476   0.67679
 Alpha virt. eigenvalues --    0.68523   0.69728   0.70538   0.70986   0.71523
 Alpha virt. eigenvalues --    0.71866   0.73207   0.73936   0.74249   0.74923
 Alpha virt. eigenvalues --    0.75079   0.76470   0.77611   0.77845   0.78392
 Alpha virt. eigenvalues --    0.78962   0.80129   0.81239   0.81895   0.83300
 Alpha virt. eigenvalues --    0.84328   0.84625   0.85868   0.86696   0.87522
 Alpha virt. eigenvalues --    0.88586   0.89509   0.89849   0.91966   0.92918
 Alpha virt. eigenvalues --    0.94425   0.94891   0.96282   0.98205   0.98640
 Alpha virt. eigenvalues --    0.99744   1.01842   1.02167   1.03499   1.03740
 Alpha virt. eigenvalues --    1.05547   1.06732   1.07539   1.09383   1.10295
 Alpha virt. eigenvalues --    1.11629   1.12593   1.14094   1.15111   1.16225
 Alpha virt. eigenvalues --    1.16761   1.17463   1.18450   1.19748   1.20617
 Alpha virt. eigenvalues --    1.22701   1.24216   1.25137   1.26369   1.28596
 Alpha virt. eigenvalues --    1.29481   1.32707   1.33029   1.35389   1.37085
 Alpha virt. eigenvalues --    1.37706   1.41287   1.42220   1.44510   1.46394
 Alpha virt. eigenvalues --    1.47922   1.49935   1.51905   1.52599   1.53182
 Alpha virt. eigenvalues --    1.55783   1.57064   1.59139   1.61108   1.63590
 Alpha virt. eigenvalues --    1.65285   1.68567   1.69894   1.71499   1.72006
 Alpha virt. eigenvalues --    1.73901   1.75931   1.76968   1.78204   1.80615
 Alpha virt. eigenvalues --    1.81979   1.84223   1.84741   1.85800   1.87859
 Alpha virt. eigenvalues --    1.88346   1.89286   1.91293   1.92415   1.93435
 Alpha virt. eigenvalues --    1.94619   1.95044   1.96880   2.00307   2.01021
 Alpha virt. eigenvalues --    2.03218   2.04406   2.06209   2.08307   2.09774
 Alpha virt. eigenvalues --    2.10531   2.12460   2.14144   2.15563   2.17427
 Alpha virt. eigenvalues --    2.17883   2.19530   2.20280   2.21453   2.24044
 Alpha virt. eigenvalues --    2.24751   2.26732   2.27774   2.28290   2.29217
 Alpha virt. eigenvalues --    2.31256   2.32817   2.34612   2.36151   2.36902
 Alpha virt. eigenvalues --    2.38310   2.40142   2.40796   2.41794   2.42961
 Alpha virt. eigenvalues --    2.44963   2.46835   2.48575   2.50609   2.51618
 Alpha virt. eigenvalues --    2.53386   2.54967   2.58184   2.59336   2.61184
 Alpha virt. eigenvalues --    2.63051   2.63754   2.65356   2.67273   2.69432
 Alpha virt. eigenvalues --    2.72571   2.73803   2.75209   2.77897   2.81272
 Alpha virt. eigenvalues --    2.82342   2.84154   2.85448   2.87040   2.88332
 Alpha virt. eigenvalues --    2.89976   2.92873   2.94113   2.95331   2.97199
 Alpha virt. eigenvalues --    2.98913   3.02227   3.04580   3.05142   3.07588
 Alpha virt. eigenvalues --    3.08802   3.12511   3.16244   3.21001   3.22688
 Alpha virt. eigenvalues --    3.31668   3.37383   3.38988   3.44172   3.47586
 Alpha virt. eigenvalues --    3.59046   3.64488   3.72791   3.82782   3.83952
 Alpha virt. eigenvalues --    3.85135   3.86981   3.92195   4.00558   4.02617
 Alpha virt. eigenvalues --    4.04900   4.14250   4.19798   4.32279
          Condensed to atoms (all electrons):
              1          2          3          4          5          6
     1  H    0.729792   0.323301  -0.074873  -0.045857  -0.062838   0.021043
     2  C    0.323301   4.512612   0.378802   0.382150   0.240849  -0.043671
     3  H   -0.074873   0.378802   1.108762  -0.079878   0.065156  -0.011686
     4  H   -0.045857   0.382150  -0.079878   0.720808  -0.072273   0.015040
     5  C   -0.062838   0.240849   0.065156  -0.072273   5.455238   0.135581
     6  O    0.021043  -0.043671  -0.011686   0.015040   0.135581   8.767435
     7  N    0.059014  -0.087213  -0.223733   0.043420   0.094148  -0.103229
     8  H   -0.000887  -0.064725   0.000279  -0.003442  -0.127830  -0.000460
     9  C    0.004658  -0.005067  -0.005109  -0.008670  -0.502663   0.147255
    10  H   -0.002168  -0.007258   0.000864  -0.000993   0.081489  -0.033218
    11  C    0.002434   0.001933  -0.001259   0.001684   0.019141  -0.023996
    12  H   -0.000406  -0.005693   0.000600  -0.000478  -0.019673   0.000556
    13  H    0.000227   0.003246  -0.000532   0.000393   0.005975  -0.000717
    14  H    0.000060   0.004972   0.001778   0.000090   0.031726  -0.002609
    15  C    0.000326  -0.033214  -0.008919  -0.003208  -0.022599   0.008308
    16  O   -0.000082   0.004930   0.001064   0.000429   0.015042  -0.000407
    17  N    0.001244   0.002982  -0.000074   0.000099   0.026568  -0.002546
    18  H    0.000379  -0.001544  -0.000427  -0.000378  -0.013708   0.003280
    19  C   -0.000045   0.001389   0.000581   0.000202   0.010505  -0.001070
    20  H    0.000076   0.000341   0.000165  -0.000044  -0.002798  -0.000088
    21  H    0.000241   0.000253   0.000073  -0.000061   0.002149   0.000804
    22  H   -0.000125  -0.000171  -0.000029   0.000042   0.000622   0.000150
              7          8          9         10         11         12
     1  H    0.059014  -0.000887   0.004658  -0.002168   0.002434  -0.000406
     2  C   -0.087213  -0.064725  -0.005067  -0.007258   0.001933  -0.005693
     3  H   -0.223733   0.000279  -0.005109   0.000864  -0.001259   0.000600
     4  H    0.043420  -0.003442  -0.008670  -0.000993   0.001684  -0.000478
     5  C    0.094148  -0.127830  -0.502663   0.081489   0.019141  -0.019673
     6  O   -0.103229  -0.000460   0.147255  -0.033218  -0.023996   0.000556
     7  N    7.617441   0.343609  -0.527375   0.048703  -0.071272  -0.060494
     8  H    0.343609   0.980204  -0.002652  -0.009916  -0.026555   0.011655
     9  C   -0.527375  -0.002652   8.609270  -0.549012   0.079155  -0.032054
    10  H    0.048703  -0.009916  -0.549012   1.661665   0.014049   0.065988
    11  C   -0.071272  -0.026555   0.079155   0.014049   4.401478   0.426705
    12  H   -0.060494   0.011655  -0.032054   0.065988   0.426705   0.988343
    13  H    0.118115   0.003730  -0.214432  -0.060518   0.265893  -0.133886
    14  H   -0.070756  -0.009697   0.218384  -0.040062   0.177175  -0.216626
    15  C    0.016890   0.032477  -0.716986   0.090813  -0.007400   0.025790
    16  O   -0.011297  -0.007202  -0.000941  -0.015184  -0.000107  -0.020114
    17  N    0.051431  -0.014977  -0.065277  -0.016648  -0.012875  -0.014432
    18  H    0.002437   0.002624  -0.024256   0.025532   0.007817   0.000434
    19  C    0.003352  -0.004326  -0.053748   0.015788  -0.002717  -0.001651
    20  H   -0.005714  -0.001883   0.025709   0.005581   0.000631   0.000403
    21  H   -0.001192  -0.001036   0.015678  -0.001051   0.006788   0.000240
    22  H   -0.000347   0.000697  -0.007720   0.000360  -0.004510   0.000046
             13         14         15         16         17         18
     1  H    0.000227   0.000060   0.000326  -0.000082   0.001244   0.000379
     2  C    0.003246   0.004972  -0.033214   0.004930   0.002982  -0.001544
     3  H   -0.000532   0.001778  -0.008919   0.001064  -0.000074  -0.000427
     4  H    0.000393   0.000090  -0.003208   0.000429   0.000099  -0.000378
     5  C    0.005975   0.031726  -0.022599   0.015042   0.026568  -0.013708
     6  O   -0.000717  -0.002609   0.008308  -0.000407  -0.002546   0.003280
     7  N    0.118115  -0.070756   0.016890  -0.011297   0.051431   0.002437
     8  H    0.003730  -0.009697   0.032477  -0.007202  -0.014977   0.002624
     9  C   -0.214432   0.218384  -0.716986  -0.000941  -0.065277  -0.024256
    10  H   -0.060518  -0.040062   0.090813  -0.015184  -0.016648   0.025532
    11  C    0.265893   0.177175  -0.007400  -0.000107  -0.012875   0.007817
    12  H   -0.133886  -0.216626   0.025790  -0.020114  -0.014432   0.000434
    13  H    1.146375  -0.149581   0.012109   0.009087  -0.000298   0.005723
    14  H   -0.149581   1.101957  -0.054976   0.007491   0.018909  -0.003256
    15  C    0.012109  -0.054976   5.343336   0.172648   0.142203  -0.080463
    16  O    0.009087   0.007491   0.172648   8.787185  -0.155138   0.010290
    17  N   -0.000298   0.018909   0.142203  -0.155138   7.146397   0.279896
    18  H    0.005723  -0.003256  -0.080463   0.010290   0.279896   0.953936
    19  C   -0.000849   0.001327  -0.093221   0.025045   0.234120  -0.096985
    20  H   -0.001330   0.000390  -0.004789   0.005769  -0.051148   0.000959
    21  H    0.000255   0.000389  -0.080673   0.015364   0.049344  -0.010262
    22  H   -0.000276  -0.000437   0.010391   0.005641  -0.114965   0.015788
             19         20         21         22
     1  H   -0.000045   0.000076   0.000241  -0.000125
     2  C    0.001389   0.000341   0.000253  -0.000171
     3  H    0.000581   0.000165   0.000073  -0.000029
     4  H    0.000202  -0.000044  -0.000061   0.000042
     5  C    0.010505  -0.002798   0.002149   0.000622
     6  O   -0.001070  -0.000088   0.000804   0.000150
     7  N    0.003352  -0.005714  -0.001192  -0.000347
     8  H   -0.004326  -0.001883  -0.001036   0.000697
     9  C   -0.053748   0.025709   0.015678  -0.007720
    10  H    0.015788   0.005581  -0.001051   0.000360
    11  C   -0.002717   0.000631   0.006788  -0.004510
    12  H   -0.001651   0.000403   0.000240   0.000046
    13  H   -0.000849  -0.001330   0.000255  -0.000276
    14  H    0.001327   0.000390   0.000389  -0.000437
    15  C   -0.093221  -0.004789  -0.080673   0.010391
    16  O    0.025045   0.005769   0.015364   0.005641
    17  N    0.234120  -0.051148   0.049344  -0.114965
    18  H   -0.096985   0.000959  -0.010262   0.015788
    19  C    4.083310   0.441315   0.327987   0.385050
    20  H    0.441315   0.971464  -0.098194  -0.148916
    21  H    0.327987  -0.098194   1.020249  -0.157665
    22  H    0.385050  -0.148916  -0.157665   1.142101
 Mulliken atomic charges:
              1
     1  H    0.044488
     2  C    0.390793
     3  H   -0.151605
     4  H    0.050923
     5  C    0.640193
     6  O   -0.875754
     7  N   -0.235938
     8  H   -0.099686
     9  C   -0.384146
    10  H   -0.274805
    11  C    0.745809
    12  H   -0.015253
    13  H   -0.008709
    14  H   -0.016650
    15  C    1.251157
    16  O   -0.849515
    17  N   -0.504817
    18  H   -0.077819
    19  C    0.724641
    20  H   -0.137898
    21  H   -0.089680
    22  H   -0.125728
 Sum of Mulliken atomic charges =   0.00000
 Mulliken charges with hydrogens summed into heavy atoms:
              1
     2  C    0.334598
     5  C    0.640193
     6  O   -0.875754
     7  N   -0.335624
     9  C   -0.658952
    11  C    0.705197
    15  C    1.251157
    16  O   -0.849515
    17  N   -0.582636
    19  C    0.371334
 Sum of Mulliken charges with hydrogens summed into heavy atoms =   0.00000
 Electronic spatial extent (au):  <R**2>=           1806.4427
 Charge=              0.0000 electrons
 Dipole moment (field-independent basis, Debye):
    X=             -0.7708    Y=             -0.1590    Z=              0.3057  Tot=              0.8443
 Quadrupole moment (field-independent basis, Debye-Ang):
   XX=            -59.0992   YY=            -59.9319   ZZ=            -64.6900
   XY=             -7.9431   XZ=            -12.5790   YZ=             -4.4305
 Traceless Quadrupole moment (field-independent basis, Debye-Ang):
   XX=              2.1412   YY=              1.3084   ZZ=             -3.4496
   XY=             -7.9431   XZ=            -12.5790   YZ=             -4.4305
 Octapole moment (field-independent basis, Debye-Ang**2):
  XXX=             -9.8992  YYY=             -3.5041  ZZZ=              0.0903  XYY=              7.2813
  XXY=            -12.4148  XXZ=              7.0039  XZZ=             -1.4111  YZZ=              0.7613
  YYZ=              1.7410  XYZ=              3.7807
 Hexadecapole moment (field-independent basis, Debye-Ang**3):
 XXXX=          -1388.3079 YYYY=           -622.4912 ZZZZ=           -273.2731 XXXY=            -29.5080
 XXXZ=            -32.4580 YYYX=             -6.3239 YYYZ=             -0.9605 ZZZX=            -19.8388
 ZZZY=              6.0407 XXYY=           -347.5654 XXZZ=           -311.1391 YYZZ=           -148.8340
 XXYZ=            -20.6474 YYXZ=            -15.3231 ZZXY=            -18.1495
 N-N= 5.530786946966D+02 E-N=-2.261389992884D+03  KE= 4.920833902925D+02
 1\1\GINC-NODE005\SP\RMP2-FC\Aug-CC-pVDZ\C6H12N2O2\MANAGER\13-Feb-2017\
 0\\#SP MP2/aug-cc-pVDZ\\Single Point calculation at MP2\\0,1\H,0,-3.12
 23,-1.8352,1.1115\C,0,-3.1341,-0.7677,0.8712\H,0,-3.0954,-0.191,1.8005
 \H,0,-4.081,-0.5587,0.3637\C,0,-1.9921,-0.4666,-0.0863\O,0,-1.8817,-1.
 0417,-1.1651\N,0,-1.1107,0.4936,0.3303\H,0,-1.1602,0.8495,1.2752\C,0,0
 .0488,0.8789,-0.4696\H,0,-0.1278,0.451,-1.4586\C,0,0.182,2.4002,-0.557
 5\H,0,0.3861,2.821,0.4318\H,0,1.016,2.6731,-1.2132\H,0,-0.7366,2.8397,
 -0.9582\C,0,1.303,0.2645,0.1804\O,0,1.7747,0.7259,1.2149\N,0,1.8139,-0
 .8143,-0.477\H,0,1.2645,-1.2046,-1.2312\C,0,2.9202,-1.5953,0.0503\H,0,
 3.4084,-0.9965,0.8204\H,0,2.5763,-2.5356,0.4998\H,0,3.6386,-1.8247,-0.
 7434\\Version=EM64L-G09RevA.02\State=1-A\HF=-492.9278076\MP2=-494.5282
 873\RMSD=6.775e-09\PG=C01 [X(C6H12N2O2)]\\@


 TIME IS IN FACT THE HERO OF THE PLOT. THE TIME
 WITH WHICH WE HAVE TO DEAL IS OF THE ORDER OF TWO
 BILLION YEARS...GIVEN SO MUCH TIME, THE "IMPOSSIBLE"
 BECOMES POSSIBLE, THE POSSIBLE PROBABLE, THE PROBABLE
 VIRTUALLY CERTAIN.  ONE HAS ONLY TO WAIT, TIME
 ITSELF PERFORMS THE MIRACLES.
 "ORIGIN OF LIFE" LECTURES, GEORGE WALD, 1954
 Job cpu time:  0 days 16 hours 14 minutes 50.2 seconds.
 File lengths (MBytes):  RWF=  10558 Int=      0 D2E=      0 Chk=      7 Scr=      2
 Normal termination of Gaussian 09 at Mon Feb 13 09:50:41 2017.
