 Entering Gaussian System, Link 0=/home/steboss/local/g09/g09
 Initial command:
 /home/steboss/local//g09/l1.exe /tmp/Gau-22925.inp -scrdir=/tmp/
 Entering Link 1 = /home/steboss/local//g09/l1.exe PID=     22927.
  
 Copyright (c) 1988,1990,1992,1993,1995,1998,2003,2009, Gaussian, Inc.
                  All Rights Reserved.
  
 This is part of the Gaussian(R) 09 program.  It is based on
 the Gaussian(R) 03 system (copyright 2003, Gaussian, Inc.),
 the Gaussian(R) 98 system (copyright 1998, Gaussian, Inc.),
 the Gaussian(R) 94 system (copyright 1995, Gaussian, Inc.),
 the Gaussian 92(TM) system (copyright 1992, Gaussian, Inc.),
 the Gaussian 90(TM) system (copyright 1990, Gaussian, Inc.),
 the Gaussian 88(TM) system (copyright 1988, Gaussian, Inc.),
 the Gaussian 86(TM) system (copyright 1986, Carnegie Mellon
 University), and the Gaussian 82(TM) system (copyright 1983,
 Carnegie Mellon University). Gaussian is a federally registered
 trademark of Gaussian, Inc.
  
 This software contains proprietary and confidential information,
 including trade secrets, belonging to Gaussian, Inc.
  
 This software is provided under written license and may be
 used, copied, transmitted, or stored only in accord with that
 written license.
  
 The following legend is applicable only to US Government
 contracts under FAR:
  
                    RESTRICTED RIGHTS LEGEND
  
 Use, reproduction and disclosure by the US Government is
 subject to restrictions as set forth in subparagraphs (a)
 and (c) of the Commercial Computer Software - Restricted
 Rights clause in FAR 52.227-19.
  
 Gaussian, Inc.
 340 Quinnipiac St., Bldg. 40, Wallingford CT 06492
  
  
 ---------------------------------------------------------------
 Warning -- This program may not be used in any manner that
 competes with the business of Gaussian, Inc. or will provide
 assistance to any competitor of Gaussian, Inc.  The licensee
 of this program is prohibited from giving any competitor of
 Gaussian, Inc. access to this program.  By using this program,
 the user acknowledges that Gaussian, Inc. is engaged in the
 business of creating and licensing software in the field of
 computational chemistry and represents and warrants to the
 licensee that it is not a competitor of Gaussian, Inc. and that
 it will not use this program in any manner prohibited above.
 ---------------------------------------------------------------
  

 Cite this work as:
 Gaussian 09, Revision A.02,
 M. J. Frisch, G. W. Trucks, H. B. Schlegel, G. E. Scuseria, 
 M. A. Robb, J. R. Cheeseman, G. Scalmani, V. Barone, B. Mennucci, 
 G. A. Petersson, H. Nakatsuji, M. Caricato, X. Li, H. P. Hratchian, 
 A. F. Izmaylov, J. Bloino, G. Zheng, J. L. Sonnenberg, M. Hada, 
 M. Ehara, K. Toyota, R. Fukuda, J. Hasegawa, M. Ishida, T. Nakajima, 
 Y. Honda, O. Kitao, H. Nakai, T. Vreven, J. A. Montgomery, Jr., 
 J. E. Peralta, F. Ogliaro, M. Bearpark, J. J. Heyd, E. Brothers, 
 K. N. Kudin, V. N. Staroverov, R. Kobayashi, J. Normand, 
 K. Raghavachari, A. Rendell, J. C. Burant, S. S. Iyengar, J. Tomasi, 
 M. Cossi, N. Rega, J. M. Millam, M. Klene, J. E. Knox, J. B. Cross, 
 V. Bakken, C. Adamo, J. Jaramillo, R. Gomperts, R. E. Stratmann, 
 O. Yazyev, A. J. Austin, R. Cammi, C. Pomelli, J. W. Ochterski, 
 R. L. Martin, K. Morokuma, V. G. Zakrzewski, G. A. Voth, 
 P. Salvador, J. J. Dannenberg, S. Dapprich, A. D. Daniels, 
 O. Farkas, J. B. Foresman, J. V. Ortiz, J. Cioslowski, 
 and D. J. Fox, Gaussian, Inc., Wallingford CT, 2009.
 
 ******************************************
 Gaussian 09:  EM64L-G09RevA.02 11-Jun-2009
                19-Mar-2017 
 ******************************************
 %nproc=8
 Will use up to    8 processors via shared memory.
 %mem=4096MB
 %chk=IPolQout.vacu.chk
 ----------------------------------------------------------------------
 #MP2/cc-pvTZ density=MP2, maxdisk=16GB, pop=(minimal, MK), 5d, punch=m
 o
 ----------------------------------------------------------------------
 1/30=1,38=1/1;
 2/12=2,17=6,18=5,40=1/2;
 3/5=16,6=1,8=1,11=9,16=1,25=1,30=1,71=1/1,2,3;
 4//1;
 5/5=2,38=5/2;
 8/6=4,10=1/1;
 9/15=1,16=-3/6;
 10/5=1,13=10/2;
 6/7=2,8=2,9=2,10=2,15=8,20=1,22=2/1,2;
 99/5=1,9=1,10=32/99;
 -----------------
 Generated by mdgx
 -----------------
 Symbolic Z-matrix:
 Charge =  0 Multiplicity = 1
 H                     16.40348   17.32921   12.53026 
 C                     16.91783   16.56166   13.10854 
 H                     17.9906   16.47515   12.93598 
 H                     16.43806   15.60266   12.91299 
 C                     16.69672   16.85055   14.52635 
 O                     16.41474   17.97171   14.84603 
 N                     16.93788   15.85396   15.3745 
 H                     17.16017   14.96538   14.94893 
 C                     16.94491   15.93228   16.86879 
 H                     16.86659   14.94263   17.31887 
 C                     18.30557   16.59125   17.32051 
 H                     19.15208   16.10314   16.83753 
 H                     18.38059   17.62644   16.98757 
 H                     18.36125   16.58209   18.40905 
 C                     15.68354   16.67359   17.45268 
 O                     14.55466   16.46543   16.96347 
 N                     15.9636   17.47949   18.46591 
 H                     16.93066   17.57075   18.74261 
 C                     14.93126   18.18195   19.26541 
 H                     15.10187   17.90386   20.30544 
 H                     15.03646   19.22841   18.97912 
 H                     13.92959   17.8449   18.99866 
 
                          Input orientation:                          
 ---------------------------------------------------------------------
 Center     Atomic      Atomic             Coordinates (Angstroms)
 Number     Number       Type             X           Y           Z
 ---------------------------------------------------------------------
      1          1           0       16.403481   17.329214   12.530257
      2          6           0       16.917829   16.561663   13.108542
      3          1           0       17.990600   16.475146   12.935984
      4          1           0       16.438065   15.602661   12.912988
      5          6           0       16.696720   16.850552   14.526346
      6          8           0       16.414742   17.971711   14.846029
      7          7           0       16.937877   15.853961   15.374496
      8          1           0       17.160171   14.965377   14.948933
      9          6           0       16.944908   15.932276   16.868785
     10          1           0       16.866595   14.942632   17.318866
     11          6           0       18.305573   16.591248   17.320515
     12          1           0       19.152083   16.103142   16.837532
     13          1           0       18.380593   17.626437   16.987565
     14          1           0       18.361255   16.582086   18.409053
     15          6           0       15.683535   16.673589   17.452683
     16          8           0       14.554658   16.465433   16.963474
     17          7           0       15.963597   17.479487   18.465906
     18          1           0       16.930656   17.570755   18.742614
     19          6           0       14.931257   18.181951   19.265407
     20          1           0       15.101866   17.903860   20.305435
     21          1           0       15.036461   19.228407   18.979116
     22          1           0       13.929587   17.844898   18.998665
 ---------------------------------------------------------------------
                    Distance matrix (angstroms):
                    1          2          3          4          5
     1  H    0.000000
     2  C    1.090000   0.000000
     3  H    1.847429   1.090000   0.000000
     4  H    1.768803   1.090000   1.781046   0.000000
     5  C    2.073518   1.463733   2.084301   2.055981   0.000000
     6  O    2.403274   2.293511   2.893321   3.057709   1.199461
     7  N    3.248329   2.373982   2.727717   2.524279   1.330680
     8  H    3.465587   2.448244   2.649713   2.252252   1.986769
     9  C    4.589924   3.812649   4.105497   4.001733   2.528211
    10  H    5.370383   4.511176   4.777200   4.475604   3.386323
    11  C    5.206641   4.434797   4.397363   4.887860   3.234660
    12  H    5.254587   4.371213   4.087726   4.797752   3.453840
    13  H    4.885172   4.280215   4.229997   4.946843   3.081400
    14  H    6.241099   5.493570   5.486648   5.904631   4.232985
    15  C    5.017812   4.517474   5.075677   4.724936   3.101823
    16  O    4.880335   4.522647   5.294003   4.549508   3.267466
    17  N    5.953823   5.518542   5.974737   5.880688   4.056249
    18  H    6.239362   5.723740   6.003399   6.172566   4.283729
    19  C    6.946715   6.669242   7.234249   7.019717   5.229549
    20  H    7.904291   7.542843   8.043309   7.856794   6.086944
    21  H    6.860281   6.716748   7.268207   7.204750   5.313926
    22  H    6.944521   6.728286   7.424564   6.953815   5.352325
                    6          7          8          9         10
     6  O    0.000000
     7  N    2.244507   0.000000
     8  H    3.099080   1.010000   0.000000
     9  C    2.920944   1.496357   2.160339   0.000000
    10  H    3.936294   2.148529   2.388155   1.090000   0.000000
    11  C    3.406465   2.490215   3.095126   1.577882   2.188286
    12  H    3.866610   2.665572   2.971368   2.214000   2.608050
    13  H    2.927450   2.797336   3.567449   2.223844   3.099155
    14  H    4.291283   3.429972   4.003597   2.191054   2.471908
    15  C    3.002404   2.562035   3.371529   1.575291   2.100892
    16  O    3.195678   2.928905   3.619011   2.450819   2.791107
    17  N    3.680941   3.626069   4.485715   2.430561   2.926899
    18  H    3.950988   3.780430   4.607894   2.489187   2.989681
    19  C    4.666458   4.958352   5.826351   3.854818   4.245909
    20  H    5.615457   5.646874   6.446970   4.369727   4.561002
    21  H    4.534463   5.291083   6.239066   4.354325   4.947089
    22  H    4.841122   5.113535   5.926943   4.157724   4.457678
                   11         12         13         14         15
    11  C    0.000000
    12  H    1.090000   0.000000
    13  H    1.090000   1.714099   0.000000
    14  H    1.090000   1.823315   1.763993   0.000000
    15  C    2.626657   3.568563   2.897994   2.844855   0.000000
    16  O    3.769969   4.613397   3.998285   4.073510   1.247805
    17  N    2.754222   3.835671   2.837068   2.560727   1.324586
    18  H    2.207305   3.273830   2.277194   1.770689   2.006026
    19  C    4.207012   5.294468   4.170740   3.880437   2.475288
    20  H    4.571262   5.627894   4.672823   3.995868   3.160713
    21  H    4.515823   5.593926   4.209014   4.287451   3.045620
    22  H    4.851503   5.914278   4.889141   4.645645   2.615026
                   16         17         18         19         20
    16  O    0.000000
    17  N    2.295804   0.000000
    18  H    3.167403   1.010000   0.000000
    19  C    2.896059   1.482695   2.155103   0.000000
    20  H    3.679296   2.075221   2.428547   1.090000   0.000000
    21  H    3.453835   2.044917   2.528184   1.090000   1.875586
    22  H    2.536856   2.134140   3.024423   1.090000   1.756521
                   21         22
    21  H    0.000000
    22  H    1.771906   0.000000
 Stoichiometry    C6H12N2O2
 Framework group  C1[X(C6H12N2O2)]
 Deg. of freedom    60
 Full point group                 C1      NOp   1
 Largest Abelian subgroup         C1      NOp   1
 Largest concise Abelian subgroup C1      NOp   1
                         Standard orientation:                         
 ---------------------------------------------------------------------
 Center     Atomic      Atomic             Coordinates (Angstroms)
 Number     Number       Type             X           Y           Z
 ---------------------------------------------------------------------
      1          1           0        3.585201   -1.480052   -0.689404
      2          6           0        3.341439   -0.573292   -0.135809
      3          1           0        3.840625    0.336381   -0.469584
      4          1           0        3.559351   -0.743493    0.918538
      5          6           0        1.894781   -0.370897   -0.229259
      6          8           0        1.302136   -0.879520   -1.139632
      7          7           0        1.359328    0.466020    0.655936
      8          1           0        1.989786    0.808305    1.366896
      9          6           0       -0.051239    0.964983    0.676436
     10          1           0       -0.311324    1.381201    1.649687
     11          6           0       -0.188811    2.096336   -0.414815
     12          1           0        0.607847    2.833153   -0.312171
     13          1           0       -0.047793    1.702771   -1.421453
     14          1           0       -1.188860    2.526143   -0.357641
     15          6           0       -1.113891   -0.184729    0.501864
     16          8           0       -0.955806   -1.275515    1.086854
     17          7           0       -2.128152    0.145056   -0.283657
     18          1           0       -2.114140    1.058959   -0.713406
     19          6           0       -3.316621   -0.716031   -0.494504
     20          1           0       -4.186693   -0.112966   -0.234913
     21          1           0       -3.212308   -1.070665   -1.519908
     22          1           0       -3.304513   -1.575211    0.176141
 ---------------------------------------------------------------------
 Rotational constants (GHZ):      2.3217292      0.8177372      0.7314673
 Standard basis: CC-pVTZ (5D, 7F)
 There are   468 symmetry adapted basis functions of A   symmetry.
 Integral buffers will be    131072 words long.
 Raffenetti 1 integral format.
 Two-electron integral symmetry is turned on.
   468 basis functions,   724 primitive gaussians,   530 cartesian basis functions
    39 alpha electrons       39 beta electrons
       nuclear repulsion energy       562.7774737479 Hartrees.
 NAtoms=   22 NActive=   22 NUniq=   22 SFac= 7.50D-01 NAtFMM=   80 NAOKFM=F Big=F
 One-electron integrals computed using PRISM.
 NBasis=   468 RedAO= T  NBF=   468
 NBsUse=   468 1.00D-06 NBFU=   468
 Harris functional with IExCor=  205 diagonalized for initial guess.
 ExpMin= 1.03D-01 ExpMax= 1.53D+04 ExpMxC= 5.22D+02 IAcc=1 IRadAn=         1 AccDes= 0.00D+00
 HarFok:  IExCor=  205 AccDes= 0.00D+00 IRadAn=         1 IDoV= 1
 ScaDFX=  1.000000  1.000000  1.000000  1.000000
 FoFCou: FMM=F IPFlag=           0 FMFlag=      100000 FMFlg1=           0
         NFxFlg=           0 DoJE=T BraDBF=F KetDBF=T FulRan=T
         Omega=  0.000000  0.000000  1.000000  0.000000  0.000000 ICntrl=     500 IOpCl=  0
         NMat0=    1 NMatS0=    1 NMatT0=    0 NMatD0=    1 NMtDS0=    0 NMtDT0=    0
         I1Cent=           4 NGrid=           0.
 Petite list used in FoFCou.
 Initial guess orbital symmetries:
       Occupied  (A) (A) (A) (A) (A) (A) (A) (A) (A) (A) (A) (A)
                 (A) (A) (A) (A) (A) (A) (A) (A) (A) (A) (A) (A)
                 (A) (A) (A) (A) (A) (A) (A) (A) (A) (A) (A) (A)
                 (A) (A) (A)
       Virtual   (A) (A) (A) (A) (A) (A) (A) (A) (A) (A) (A) (A)
                 (A) (A) (A) (A) (A) (A) (A) (A) (A) (A) (A) (A)
                 (A) (A) (A) (A) (A) (A) (A) (A) (A) (A) (A) (A)
                 (A) (A) (A) (A) (A) (A) (A) (A) (A) (A) (A) (A)
                 (A) (A) (A) (A) (A) (A) (A) (A) (A) (A) (A) (A)
                 (A) (A) (A) (A) (A) (A) (A) (A) (A) (A) (A) (A)
                 (A) (A) (A) (A) (A) (A) (A) (A) (A) (A) (A) (A)
                 (A) (A) (A) (A) (A) (A) (A) (A) (A) (A) (A) (A)
                 (A) (A) (A) (A) (A) (A) (A) (A) (A) (A) (A) (A)
                 (A) (A) (A) (A) (A) (A) (A) (A) (A) (A) (A) (A)
                 (A) (A) (A) (A) (A) (A) (A) (A) (A) (A) (A) (A)
                 (A) (A) (A) (A) (A) (A) (A) (A) (A) (A) (A) (A)
                 (A) (A) (A) (A) (A) (A) (A) (A) (A) (A) (A) (A)
                 (A) (A) (A) (A) (A) (A) (A) (A) (A) (A) (A) (A)
                 (A) (A) (A) (A) (A) (A) (A) (A) (A) (A) (A) (A)
                 (A) (A) (A) (A) (A) (A) (A) (A) (A) (A) (A) (A)
                 (A) (A) (A) (A) (A) (A) (A) (A) (A) (A) (A) (A)
                 (A) (A) (A) (A) (A) (A) (A) (A) (A) (A) (A) (A)
                 (A) (A) (A) (A) (A) (A) (A) (A) (A) (A) (A) (A)
                 (A) (A) (A) (A) (A) (A) (A) (A) (A) (A) (A) (A)
                 (A) (A) (A) (A) (A) (A) (A) (A) (A) (A) (A) (A)
                 (A) (A) (A) (A) (A) (A) (A) (A) (A) (A) (A) (A)
                 (A) (A) (A) (A) (A) (A) (A) (A) (A) (A) (A) (A)
                 (A) (A) (A) (A) (A) (A) (A) (A) (A) (A) (A) (A)
                 (A) (A) (A) (A) (A) (A) (A) (A) (A) (A) (A) (A)
                 (A) (A) (A) (A) (A) (A) (A) (A) (A) (A) (A) (A)
                 (A) (A) (A) (A) (A) (A) (A) (A) (A) (A) (A) (A)
                 (A) (A) (A) (A) (A) (A) (A) (A) (A) (A) (A) (A)
                 (A) (A) (A) (A) (A) (A) (A) (A) (A) (A) (A) (A)
                 (A) (A) (A) (A) (A) (A) (A) (A) (A) (A) (A) (A)
                 (A) (A) (A) (A) (A) (A) (A) (A) (A) (A) (A) (A)
                 (A) (A) (A) (A) (A) (A) (A) (A) (A) (A) (A) (A)
                 (A) (A) (A) (A) (A) (A) (A) (A) (A) (A) (A) (A)
                 (A) (A) (A) (A) (A) (A) (A) (A) (A) (A) (A) (A)
                 (A) (A) (A) (A) (A) (A) (A) (A) (A) (A) (A) (A)
                 (A) (A) (A) (A) (A) (A) (A) (A) (A)
 The electronic state of the initial guess is 1-A.
 Requested convergence on RMS density matrix=1.00D-08 within 128 cycles.
 Requested convergence on MAX density matrix=1.00D-06.
 Requested convergence on             energy=1.00D-06.
 No special actions if energy rises.
 Integral accuracy reduced to 1.0D-05 until final iterations.
 Initial convergence to 1.0D-05 achieved.  Increase integral accuracy.
 SCF Done:  E(RHF) =  -493.003805306     A.U. after   13 cycles
             Convg  =    0.9491D-08             -V/T =  2.0014
 ExpMin= 1.03D-01 ExpMax= 1.53D+04 ExpMxC= 5.22D+02 IAcc=1 IRadAn=         1 AccDes= 0.00D+00
 HarFok:  IExCor=  205 AccDes= 0.00D+00 IRadAn=         1 IDoV=-2
 ScaDFX=  1.000000  1.000000  1.000000  1.000000
 Range of M.O.s used for correlation:    11   468
 NBasis=   468 NAE=    39 NBE=    39 NFC=    10 NFV=     0
 NROrb=    458 NOA=    29 NOB=    29 NVA=   429 NVB=   429

 **** Warning!!: The largest alpha MO coefficient is  0.11205851D+02

 Disk-based method using ON**2 memory for  8 occupieds at a time.
 Estimated scratch disk usage=  1884617068 words.
 Actual    scratch disk usage=  1724307308 words.
 JobTyp=1 Pass  1:  I=  11 to  18 NPSUse=  8 ParTrn=T ParDer=T DoDerP=T.
 JobTyp=1 Pass  2:  I=  19 to  25 NPSUse=  8 ParTrn=T ParDer=T DoDerP=T.
 JobTyp=1 Pass  3:  I=  26 to  32 NPSUse=  8 ParTrn=T ParDer=T DoDerP=T.
 JobTyp=1 Pass  4:  I=  33 to  39 NPSUse=  8 ParTrn=T ParDer=T DoDerP=T.
 Spin components of T(2) and E(2):
     alpha-alpha T2 =       0.7020324011D-01 E2=     -0.2324838359D+00
     alpha-beta  T2 =       0.3983554769D+00 E2=     -0.1421195877D+01
     beta-beta   T2 =       0.7020324011D-01 E2=     -0.2324838359D+00
 ANorm=    0.1240468443D+01
 E2 =    -0.1886163549D+01 EUMP2 =    -0.49488996885577D+03
          Differentiating once with respect to electric field.
                with respect to dipole field.
          Electric field/nuclear overlap derivatives assumed to be zero.
          There are     1 degrees of freedom in the 1st order CPHF.  IDoFFX=0.
 LinEq1:  Iter=  0 NonCon=     1 RMS=2.78D-03 Max=5.95D-02
 AX will form     1 AO Fock derivatives at one time.
 LinEq1:  Iter=  1 NonCon=     1 RMS=7.90D-04 Max=1.64D-02
 LinEq1:  Iter=  2 NonCon=     1 RMS=2.87D-04 Max=4.46D-03
 LinEq1:  Iter=  3 NonCon=     1 RMS=1.29D-04 Max=2.13D-03
 LinEq1:  Iter=  4 NonCon=     1 RMS=3.60D-05 Max=6.34D-04
 LinEq1:  Iter=  5 NonCon=     1 RMS=1.15D-05 Max=1.79D-04
 LinEq1:  Iter=  6 NonCon=     1 RMS=4.97D-06 Max=1.29D-04
 LinEq1:  Iter=  7 NonCon=     1 RMS=1.95D-06 Max=4.91D-05
 LinEq1:  Iter=  8 NonCon=     1 RMS=7.30D-07 Max=1.38D-05
 LinEq1:  Iter=  9 NonCon=     1 RMS=2.44D-07 Max=4.48D-06
 LinEq1:  Iter= 10 NonCon=     1 RMS=7.16D-08 Max=9.73D-07
 LinEq1:  Iter= 11 NonCon=     1 RMS=2.28D-08 Max=4.00D-07
 LinEq1:  Iter= 12 NonCon=     1 RMS=6.89D-09 Max=1.23D-07
 LinEq1:  Iter= 13 NonCon=     1 RMS=2.29D-09 Max=4.29D-08
 LinEq1:  Iter= 14 NonCon=     1 RMS=7.43D-10 Max=1.21D-08
 LinEq1:  Iter= 15 NonCon=     1 RMS=2.44D-10 Max=2.73D-09
 LinEq1:  Iter= 16 NonCon=     1 RMS=7.58D-11 Max=1.14D-09
 LinEq1:  Iter= 17 NonCon=     0 RMS=1.87D-11 Max=2.75D-10
 Linear equations converged to 1.000D-10 1.000D-09 after    17 iterations.
 End of Minotr Frequency-dependent properties file   721 does not exist.
 End of Minotr Frequency-dependent properties file   722 does not exist.

 **********************************************************************

            Population analysis using the MP2 density.

 **********************************************************************

 Orbital symmetries:
       Occupied  (A) (A) (A) (A) (A) (A) (A) (A) (A) (A) (A) (A)
                 (A) (A) (A) (A) (A) (A) (A) (A) (A) (A) (A) (A)
                 (A) (A) (A) (A) (A) (A) (A) (A) (A) (A) (A) (A)
                 (A) (A) (A)
       Virtual   (A) (A) (A) (A) (A) (A) (A) (A) (A) (A) (A) (A)
                 (A) (A) (A) (A) (A) (A) (A) (A) (A) (A) (A) (A)
                 (A) (A) (A) (A) (A) (A) (A) (A) (A) (A) (A) (A)
                 (A) (A) (A) (A) (A) (A) (A) (A) (A) (A) (A) (A)
                 (A) (A) (A) (A) (A) (A) (A) (A) (A) (A) (A) (A)
                 (A) (A) (A) (A) (A) (A) (A) (A) (A) (A) (A) (A)
                 (A) (A) (A) (A) (A) (A) (A) (A) (A) (A) (A) (A)
                 (A) (A) (A) (A) (A) (A) (A) (A) (A) (A) (A) (A)
                 (A) (A) (A) (A) (A) (A) (A) (A) (A) (A) (A) (A)
                 (A) (A) (A) (A) (A) (A) (A) (A) (A) (A) (A) (A)
                 (A) (A) (A) (A) (A) (A) (A) (A) (A) (A) (A) (A)
                 (A) (A) (A) (A) (A) (A) (A) (A) (A) (A) (A) (A)
                 (A) (A) (A) (A) (A) (A) (A) (A) (A) (A) (A) (A)
                 (A) (A) (A) (A) (A) (A) (A) (A) (A) (A) (A) (A)
                 (A) (A) (A) (A) (A) (A) (A) (A) (A) (A) (A) (A)
                 (A) (A) (A) (A) (A) (A) (A) (A) (A) (A) (A) (A)
                 (A) (A) (A) (A) (A) (A) (A) (A) (A) (A) (A) (A)
                 (A) (A) (A) (A) (A) (A) (A) (A) (A) (A) (A) (A)
                 (A) (A) (A) (A) (A) (A) (A) (A) (A) (A) (A) (A)
                 (A) (A) (A) (A) (A) (A) (A) (A) (A) (A) (A) (A)
                 (A) (A) (A) (A) (A) (A) (A) (A) (A) (A) (A) (A)
                 (A) (A) (A) (A) (A) (A) (A) (A) (A) (A) (A) (A)
                 (A) (A) (A) (A) (A) (A) (A) (A) (A) (A) (A) (A)
                 (A) (A) (A) (A) (A) (A) (A) (A) (A) (A) (A) (A)
                 (A) (A) (A) (A) (A) (A) (A) (A) (A) (A) (A) (A)
                 (A) (A) (A) (A) (A) (A) (A) (A) (A) (A) (A) (A)
                 (A) (A) (A) (A) (A) (A) (A) (A) (A) (A) (A) (A)
                 (A) (A) (A) (A) (A) (A) (A) (A) (A) (A) (A) (A)
                 (A) (A) (A) (A) (A) (A) (A) (A) (A) (A) (A) (A)
                 (A) (A) (A) (A) (A) (A) (A) (A) (A) (A) (A) (A)
                 (A) (A) (A) (A) (A) (A) (A) (A) (A) (A) (A) (A)
                 (A) (A) (A) (A) (A) (A) (A) (A) (A) (A) (A) (A)
                 (A) (A) (A) (A) (A) (A) (A) (A) (A) (A) (A) (A)
                 (A) (A) (A) (A) (A) (A) (A) (A) (A) (A) (A) (A)
                 (A) (A) (A) (A) (A) (A) (A) (A) (A) (A) (A) (A)
                 (A) (A) (A) (A) (A) (A) (A) (A) (A)
 The electronic state is 1-A.
 Alpha  occ. eigenvalues --  -20.49668 -20.49636 -15.58547 -15.58268 -11.34383
 Alpha  occ. eigenvalues --  -11.32567 -11.30146 -11.26356 -11.23977 -11.22223
 Alpha  occ. eigenvalues --   -1.38198  -1.34945  -1.23272  -1.22851  -1.05430
 Alpha  occ. eigenvalues --   -0.99444  -0.95525  -0.89031  -0.79733  -0.77304
 Alpha  occ. eigenvalues --   -0.70622  -0.68615  -0.64494  -0.63480  -0.62979
 Alpha  occ. eigenvalues --   -0.62318  -0.59301  -0.57351  -0.56477  -0.55886
 Alpha  occ. eigenvalues --   -0.54799  -0.54176  -0.52549  -0.51498  -0.49496
 Alpha  occ. eigenvalues --   -0.41065  -0.40663  -0.38900  -0.38489
 Alpha virt. eigenvalues --    0.11644   0.13744   0.15910   0.16123   0.18335
 Alpha virt. eigenvalues --    0.19268   0.20110   0.20895   0.21087   0.22521
 Alpha virt. eigenvalues --    0.23151   0.23513   0.24733   0.24845   0.28473
 Alpha virt. eigenvalues --    0.29703   0.30081   0.33866   0.34551   0.36282
 Alpha virt. eigenvalues --    0.37335   0.38628   0.38929   0.39860   0.42110
 Alpha virt. eigenvalues --    0.43074   0.44771   0.47535   0.47887   0.49608
 Alpha virt. eigenvalues --    0.50957   0.53738   0.54634   0.55809   0.57275
 Alpha virt. eigenvalues --    0.57952   0.59141   0.59815   0.60521   0.61230
 Alpha virt. eigenvalues --    0.61747   0.62108   0.63095   0.63661   0.63776
 Alpha virt. eigenvalues --    0.64392   0.64833   0.65749   0.67061   0.67901
 Alpha virt. eigenvalues --    0.69311   0.70988   0.72344   0.72617   0.75330
 Alpha virt. eigenvalues --    0.76758   0.77268   0.77757   0.78604   0.80432
 Alpha virt. eigenvalues --    0.82344   0.82863   0.85934   0.86995   0.88151
 Alpha virt. eigenvalues --    0.89410   0.90275   0.92825   0.95045   0.95792
 Alpha virt. eigenvalues --    0.97039   0.98137   1.00243   1.00780   1.02183
 Alpha virt. eigenvalues --    1.03519   1.04749   1.05538   1.06708   1.08373
 Alpha virt. eigenvalues --    1.09801   1.10446   1.10967   1.12290   1.14587
 Alpha virt. eigenvalues --    1.16922   1.17919   1.18389   1.18930   1.20108
 Alpha virt. eigenvalues --    1.20931   1.21226   1.22152   1.24942   1.25929
 Alpha virt. eigenvalues --    1.27154   1.28791   1.31290   1.32219   1.32608
 Alpha virt. eigenvalues --    1.33861   1.35962   1.36479   1.37659   1.39192
 Alpha virt. eigenvalues --    1.39760   1.41629   1.43135   1.43721   1.45439
 Alpha virt. eigenvalues --    1.46080   1.48996   1.49374   1.50475   1.51630
 Alpha virt. eigenvalues --    1.52404   1.53150   1.54269   1.55907   1.56138
 Alpha virt. eigenvalues --    1.57355   1.58534   1.60219   1.61250   1.62714
 Alpha virt. eigenvalues --    1.63779   1.64706   1.66797   1.69316   1.70213
 Alpha virt. eigenvalues --    1.71152   1.71898   1.75172   1.77069   1.78133
 Alpha virt. eigenvalues --    1.79499   1.79882   1.81890   1.85561   1.87770
 Alpha virt. eigenvalues --    1.90004   1.90706   1.95702   1.97337   1.98947
 Alpha virt. eigenvalues --    2.02483   2.06581   2.10328   2.13745   2.14985
 Alpha virt. eigenvalues --    2.16330   2.20984   2.25019   2.26756   2.37593
 Alpha virt. eigenvalues --    2.40045   2.43639   2.43865   2.47962   2.49621
 Alpha virt. eigenvalues --    2.53332   2.55984   2.58821   2.60521   2.61401
 Alpha virt. eigenvalues --    2.64958   2.65379   2.69504   2.70287   2.73470
 Alpha virt. eigenvalues --    2.74208   2.76633   2.80873   2.81183   2.83328
 Alpha virt. eigenvalues --    2.83936   2.87058   2.89185   2.90777   2.91050
 Alpha virt. eigenvalues --    2.94247   2.95819   2.96657   2.98296   2.99009
 Alpha virt. eigenvalues --    3.00108   3.01807   3.02705   3.04432   3.07187
 Alpha virt. eigenvalues --    3.07427   3.09956   3.10931   3.11215   3.11410
 Alpha virt. eigenvalues --    3.13807   3.14298   3.15058   3.18174   3.18884
 Alpha virt. eigenvalues --    3.20844   3.22604   3.23385   3.25253   3.25604
 Alpha virt. eigenvalues --    3.28450   3.29148   3.30021   3.30848   3.31553
 Alpha virt. eigenvalues --    3.32743   3.34160   3.34814   3.36015   3.36642
 Alpha virt. eigenvalues --    3.38377   3.39304   3.40824   3.41402   3.43113
 Alpha virt. eigenvalues --    3.43935   3.46204   3.46976   3.49043   3.50198
 Alpha virt. eigenvalues --    3.51499   3.54524   3.54595   3.56447   3.57254
 Alpha virt. eigenvalues --    3.58364   3.59078   3.59645   3.60759   3.60906
 Alpha virt. eigenvalues --    3.61514   3.63051   3.64236   3.67014   3.69534
 Alpha virt. eigenvalues --    3.69855   3.70710   3.72299   3.73846   3.74497
 Alpha virt. eigenvalues --    3.75156   3.75518   3.76352   3.78013   3.80608
 Alpha virt. eigenvalues --    3.80781   3.81208   3.83396   3.84581   3.85562
 Alpha virt. eigenvalues --    3.86503   3.89565   3.91631   3.92375   3.93112
 Alpha virt. eigenvalues --    3.94374   3.95764   3.97911   3.98996   4.00501
 Alpha virt. eigenvalues --    4.03882   4.04954   4.07516   4.08153   4.09680
 Alpha virt. eigenvalues --    4.10251   4.12947   4.13136   4.16098   4.17573
 Alpha virt. eigenvalues --    4.18294   4.19031   4.19884   4.22042   4.22620
 Alpha virt. eigenvalues --    4.24062   4.24405   4.25652   4.28267   4.29548
 Alpha virt. eigenvalues --    4.30472   4.31105   4.32336   4.33725   4.34534
 Alpha virt. eigenvalues --    4.35292   4.36712   4.37410   4.39266   4.40779
 Alpha virt. eigenvalues --    4.42478   4.42911   4.44795   4.46465   4.47830
 Alpha virt. eigenvalues --    4.48941   4.49893   4.50942   4.52960   4.53688
 Alpha virt. eigenvalues --    4.55264   4.58065   4.59254   4.60758   4.61124
 Alpha virt. eigenvalues --    4.62520   4.65609   4.66554   4.67954   4.69893
 Alpha virt. eigenvalues --    4.70920   4.73129   4.74326   4.76611   4.79132
 Alpha virt. eigenvalues --    4.82779   4.84622   4.86502   4.88109   4.93676
 Alpha virt. eigenvalues --    4.94020   4.97517   4.99804   5.02098   5.08721
 Alpha virt. eigenvalues --    5.09718   5.12685   5.14861   5.15243   5.18443
 Alpha virt. eigenvalues --    5.19714   5.20318   5.21872   5.22939   5.24581
 Alpha virt. eigenvalues --    5.26866   5.28152   5.30155   5.32438   5.34964
 Alpha virt. eigenvalues --    5.36361   5.39787   5.41897   5.42485   5.43792
 Alpha virt. eigenvalues --    5.46126   5.46642   5.50021   5.52748   5.54107
 Alpha virt. eigenvalues --    5.54965   5.56147   5.57049   5.60664   5.62064
 Alpha virt. eigenvalues --    5.62532   5.62977   5.64365   5.65558   5.66519
 Alpha virt. eigenvalues --    5.68454   5.69368   5.70735   5.71407   5.71894
 Alpha virt. eigenvalues --    5.73249   5.75184   5.78399   5.79942   5.80054
 Alpha virt. eigenvalues --    5.80716   5.82923   5.86455   5.91785   5.92243
 Alpha virt. eigenvalues --    5.97814   6.01960   6.03642   6.06295   6.08491
 Alpha virt. eigenvalues --    6.12355   6.12701   6.16005   6.20632   6.22363
 Alpha virt. eigenvalues --    6.25772   6.29965   6.30851   6.34830   6.35835
 Alpha virt. eigenvalues --    6.37426   6.43444   6.47560   6.51519   6.52371
 Alpha virt. eigenvalues --    6.56839   6.67473   6.82654   6.84135   6.91117
 Alpha virt. eigenvalues --    6.92294   6.97518   6.98659   7.01125   7.10223
 Alpha virt. eigenvalues --    7.12007   7.32962   7.40832   7.41855   7.50564
 Alpha virt. eigenvalues --    7.58721   7.62954   7.65736   7.68536  10.05105
 Alpha virt. eigenvalues --   10.63992  12.21456  13.00547  13.46082  14.05610
 Alpha virt. eigenvalues --   14.11202  14.38812  14.57009  14.81755
          Condensed to atoms (all electrons):
              1          2          3          4          5          6
     1  H    0.542972   0.371913  -0.008764  -0.025600  -0.043909   0.009831
     2  C    0.371913   5.195987   0.372108   0.349590   0.285071  -0.090266
     3  H   -0.008764   0.372108   0.572278  -0.034729  -0.035198  -0.000392
     4  H   -0.025600   0.349590  -0.034729   0.647675  -0.054933   0.004070
     5  C   -0.043909   0.285071  -0.035198  -0.054933   4.711156   0.715716
     6  O    0.009831  -0.090266  -0.000392   0.004070   0.715716   7.797354
     7  N    0.007804  -0.103375   0.004739   0.012720   0.293849  -0.142478
     8  H   -0.000407  -0.000930  -0.000476  -0.003234  -0.020413   0.005974
     9  C   -0.000913   0.005522  -0.000425   0.000442  -0.060233   0.013617
    10  H    0.000016  -0.000219   0.000009  -0.000006   0.005717   0.000200
    11  C   -0.000004  -0.001350   0.000061   0.000355  -0.002734  -0.005370
    12  H    0.000027   0.000229   0.000118  -0.000148  -0.001285  -0.000421
    13  H   -0.000052   0.000600  -0.000269  -0.000005   0.002194   0.009891
    14  H    0.000002   0.000058  -0.000001  -0.000008   0.000868  -0.000144
    15  C    0.000203  -0.000233   0.000023  -0.000337  -0.010648   0.014509
    16  O    0.000025  -0.000504  -0.000003   0.000203   0.015734  -0.005196
    17  N    0.000001  -0.000132   0.000003   0.000021  -0.000719  -0.003982
    18  H    0.000000  -0.000011   0.000002   0.000001  -0.000310  -0.000361
    19  C    0.000001  -0.000002   0.000000   0.000000   0.000001  -0.000305
    20  H    0.000000   0.000000   0.000000   0.000000  -0.000011   0.000000
    21  H    0.000000   0.000003   0.000000   0.000000   0.000094   0.000188
    22  H    0.000000   0.000001   0.000000   0.000000  -0.000096   0.000011
              7          8          9         10         11         12
     1  H    0.007804  -0.000407  -0.000913   0.000016  -0.000004   0.000027
     2  C   -0.103375  -0.000930   0.005522  -0.000219  -0.001350   0.000229
     3  H    0.004739  -0.000476  -0.000425   0.000009   0.000061   0.000118
     4  H    0.012720  -0.003234   0.000442  -0.000006   0.000355  -0.000148
     5  C    0.293849  -0.020413  -0.060233   0.005717  -0.002734  -0.001285
     6  O   -0.142478   0.005974   0.013617   0.000200  -0.005370  -0.000421
     7  N    6.629968   0.318476   0.244543  -0.019041  -0.070191   0.011921
     8  H    0.318476   0.552229  -0.027181  -0.007775   0.001061   0.001114
     9  C    0.244543  -0.027181   5.338315   0.348084   0.251344  -0.027933
    10  H   -0.019041  -0.007775   0.348084   0.561339  -0.029469  -0.002632
    11  C   -0.070191   0.001061   0.251344  -0.029469   5.246827   0.342186
    12  H    0.011921   0.001114  -0.027933  -0.002632   0.342186   0.582602
    13  H   -0.011014   0.000002  -0.028388   0.005182   0.386973  -0.030947
    14  H    0.008361  -0.000324  -0.031107  -0.006637   0.348887  -0.015545
    15  C   -0.025546   0.003261   0.170721  -0.014295  -0.069881   0.006803
    16  O   -0.003220  -0.000791  -0.072898   0.002989   0.006432  -0.000277
    17  N    0.001503  -0.000296  -0.057167  -0.001147  -0.000518  -0.000145
    18  H    0.000435  -0.000037  -0.003079   0.000068  -0.008246   0.000338
    19  C   -0.000086   0.000022   0.008670  -0.000493  -0.001463   0.000084
    20  H   -0.000002   0.000000  -0.000384   0.000111   0.000283   0.000004
    21  H    0.000015  -0.000001  -0.000383  -0.000021  -0.000156  -0.000013
    22  H   -0.000021   0.000005   0.002313  -0.000109  -0.000437   0.000017
             13         14         15         16         17         18
     1  H   -0.000052   0.000002   0.000203   0.000025   0.000001   0.000000
     2  C    0.000600   0.000058  -0.000233  -0.000504  -0.000132  -0.000011
     3  H   -0.000269  -0.000001   0.000023  -0.000003   0.000003   0.000002
     4  H   -0.000005  -0.000008  -0.000337   0.000203   0.000021   0.000001
     5  C    0.002194   0.000868  -0.010648   0.015734  -0.000719  -0.000310
     6  O    0.009891  -0.000144   0.014509  -0.005196  -0.003982  -0.000361
     7  N   -0.011014   0.008361  -0.025546  -0.003220   0.001503   0.000435
     8  H    0.000002  -0.000324   0.003261  -0.000791  -0.000296  -0.000037
     9  C   -0.028388  -0.031107   0.170721  -0.072898  -0.057167  -0.003079
    10  H    0.005182  -0.006637  -0.014295   0.002989  -0.001147   0.000068
    11  C    0.386973   0.348887  -0.069881   0.006432  -0.000518  -0.008246
    12  H   -0.030947  -0.015545   0.006803  -0.000277  -0.000145   0.000338
    13  H    0.552847  -0.038575  -0.003619  -0.000204   0.003227  -0.000532
    14  H   -0.038575   0.631916   0.008393  -0.000277  -0.007132  -0.002284
    15  C   -0.003619   0.008393   4.871901   0.697107   0.261347  -0.019881
    16  O   -0.000204  -0.000277   0.697107   7.802239  -0.121066   0.005068
    17  N    0.003227  -0.007132   0.261347  -0.121066   6.589214   0.327595
    18  H   -0.000532  -0.002284  -0.019881   0.005068   0.327595   0.543030
    19  C   -0.000500   0.000798  -0.052060  -0.006454   0.257591  -0.035035
    20  H    0.000060  -0.000148   0.002808   0.000290  -0.037368  -0.005210
    21  H   -0.000042   0.000274   0.005138  -0.000681  -0.048434  -0.002703
    22  H   -0.000018  -0.000101  -0.007745   0.023558  -0.028467   0.005650
             19         20         21         22
     1  H    0.000001   0.000000   0.000000   0.000000
     2  C   -0.000002   0.000000   0.000003   0.000001
     3  H    0.000000   0.000000   0.000000   0.000000
     4  H    0.000000   0.000000   0.000000   0.000000
     5  C    0.000001  -0.000011   0.000094  -0.000096
     6  O   -0.000305   0.000000   0.000188   0.000011
     7  N   -0.000086  -0.000002   0.000015  -0.000021
     8  H    0.000022   0.000000  -0.000001   0.000005
     9  C    0.008670  -0.000384  -0.000383   0.002313
    10  H   -0.000493   0.000111  -0.000021  -0.000109
    11  C   -0.001463   0.000283  -0.000156  -0.000437
    12  H    0.000084   0.000004  -0.000013   0.000017
    13  H   -0.000500   0.000060  -0.000042  -0.000018
    14  H    0.000798  -0.000148   0.000274  -0.000101
    15  C   -0.052060   0.002808   0.005138  -0.007745
    16  O   -0.006454   0.000290  -0.000681   0.023558
    17  N    0.257591  -0.037368  -0.048434  -0.028467
    18  H   -0.035035  -0.005210  -0.002703   0.005650
    19  C    4.943372   0.389128   0.394281   0.373919
    20  H    0.389128   0.584390  -0.028560  -0.027016
    21  H    0.394281  -0.028560   0.572715  -0.029366
    22  H    0.373919  -0.027016  -0.029366   0.532781
 Mulliken atomic charges:
              1
     1  H    0.146854
     2  C   -0.384060
     3  H    0.130919
     4  H    0.103926
     5  C    0.200088
     6  O   -0.322443
     7  N   -0.159359
     8  H    0.179722
     9  C   -0.073480
    10  H    0.158131
    11  C   -0.394588
    12  H    0.133906
    13  H    0.153190
    14  H    0.102727
    15  C    0.162032
    16  O   -0.342074
    17  N   -0.133928
    18  H    0.195503
    19  C   -0.271466
    20  H    0.121625
    21  H    0.137653
    22  H    0.155122
 Sum of Mulliken atomic charges =   0.00000
 Mulliken charges with hydrogens summed into heavy atoms:
              1
     2  C   -0.002361
     5  C    0.200088
     6  O   -0.322443
     7  N    0.020363
     9  C    0.084651
    11  C   -0.004765
    15  C    0.162032
    16  O   -0.342074
    17  N    0.061575
    19  C    0.142934
 Sum of Mulliken charges with hydrogens summed into heavy atoms =   0.00000
 Electronic spatial extent (au):  <R**2>=           1719.1244
 Charge=              0.0000 electrons
 Dipole moment (field-independent basis, Debye):
    X=             -0.7100    Y=              4.6515    Z=              0.5570  Tot=              4.7382
 Quadrupole moment (field-independent basis, Debye-Ang):
   XX=            -47.1967   YY=            -62.5106   ZZ=            -63.5261
   XY=             -0.0776   XZ=              6.7433   YZ=              1.8801
 Traceless Quadrupole moment (field-independent basis, Debye-Ang):
   XX=             10.5478   YY=             -4.7662   ZZ=             -5.7816
   XY=             -0.0776   XZ=              6.7433   YZ=              1.8801
 Octapole moment (field-independent basis, Debye-Ang**2):
  XXX=            -13.2446  YYY=             -0.6798  ZZZ=              3.7633  XYY=             -0.0055
  XXY=             -1.4170  XXZ=              0.0722  XZZ=              0.2353  YZZ=              7.7148
  YYZ=             -2.2665  XYZ=             -2.6329
 Hexadecapole moment (field-independent basis, Debye-Ang**3):
 XXXX=          -1459.3969 YYYY=           -479.1604 ZZZZ=           -244.6502 XXXY=             10.9840
 XXXZ=              6.1782 YYYX=             -0.3337 YYYZ=              5.3859 ZZZX=             14.0253
 ZZZY=              7.5934 XXYY=           -318.2836 XXZZ=           -299.3229 YYZZ=           -122.2613
 XXYZ=              2.4336 YYXZ=              6.4780 ZZXY=              4.5552
 N-N= 5.627774737479D+02 E-N=-2.283392733325D+03  KE= 4.946168067514D+02
 Merz-Kollman atomic radii used.

 **********************************************************************

          Electrostatic Properties Using The MP2 Density

 **********************************************************************

       Atomic Center    1 is at   3.585201 -1.480052 -0.689404
       Atomic Center    2 is at   3.341439 -0.573292 -0.135809
       Atomic Center    3 is at   3.840625  0.336381 -0.469584
       Atomic Center    4 is at   3.559351 -0.743493  0.918538
       Atomic Center    5 is at   1.894781 -0.370897 -0.229259
       Atomic Center    6 is at   1.302136 -0.879520 -1.139632
       Atomic Center    7 is at   1.359328  0.466020  0.655936
       Atomic Center    8 is at   1.989786  0.808305  1.366896
       Atomic Center    9 is at  -0.051239  0.964983  0.676436
       Atomic Center   10 is at  -0.311324  1.381201  1.649687
       Atomic Center   11 is at  -0.188811  2.096336 -0.414815
       Atomic Center   12 is at   0.607847  2.833153 -0.312171
       Atomic Center   13 is at  -0.047793  1.702771 -1.421453
       Atomic Center   14 is at  -1.188860  2.526143 -0.357641
       Atomic Center   15 is at  -1.113891 -0.184729  0.501864
       Atomic Center   16 is at  -0.955806 -1.275515  1.086854
       Atomic Center   17 is at  -2.128152  0.145056 -0.283657
       Atomic Center   18 is at  -2.114140  1.058959 -0.713406
       Atomic Center   19 is at  -3.316621 -0.716031 -0.494504
       Atomic Center   20 is at  -4.186693 -0.112966 -0.234913
       Atomic Center   21 is at  -3.212308 -1.070665 -1.519908
       Atomic Center   22 is at  -3.304513 -1.575211  0.176141
     996 points will be used for fitting atomic charges
 Fitting point charges to electrostatic potential
 Charges from ESP fit, RMS=   0.00178 RRMS=   0.07636:
 Charge=   0.00000 Dipole=    -0.7253     4.6643     0.5252 Tot=     4.7495
              1
     1  H    0.171635
     2  C   -0.593973
     3  H    0.150330
     4  H    0.119201
     5  C    0.812859
     6  O   -0.537316
     7  N   -0.586360
     8  H    0.327732
     9  C    0.004670
    10  H    0.138305
    11  C   -0.358089
    12  H    0.130899
    13  H    0.119608
    14  H    0.068638
    15  C    0.275589
    16  O   -0.451119
    17  N   -0.129493
    18  H    0.237257
    19  C   -0.256066
    20  H    0.088473
    21  H    0.114427
    22  H    0.152791
 -----------------------------------------------------------------

              Electrostatic Properties (Atomic Units)

 -----------------------------------------------------------------
    Center     Electric         -------- Electric Field --------
               Potential          X             Y             Z
 -----------------------------------------------------------------
    1 Atom     -1.104321
    2 Atom    -14.771362
    3 Atom     -1.090724
    4 Atom     -1.100756
    5 Atom    -14.684086
    6 Atom    -22.400745
    7 Atom    -18.349027
    8 Atom     -1.009373
    9 Atom    -14.687611
   10 Atom     -1.079944
   11 Atom    -14.749296
   12 Atom     -1.093187
   13 Atom     -1.098918
   14 Atom     -1.086606
   15 Atom    -14.665548
   16 Atom    -22.394970
   17 Atom    -18.344012
   18 Atom     -1.000353
   19 Atom    -14.720916
   20 Atom     -1.091050
   21 Atom     -1.096723
   22 Atom     -1.095942
 -----------------------------------------------------------------
 1\1\GINC-TACHIKOMA\SP\RMP2-FC\CC-pVTZ\C6H12N2O2\STEBOSS\19-Mar-2017\0\
 \#MP2/cc-pvTZ density=MP2, maxdisk=16GB, pop=(minimal, MK), 5d, punch=
 mo\\Generated by mdgx\\0,1\H,0,16.4034814,17.329214,12.5302573\C,0,16.
 917829,16.5616634,13.1085419\H,0,17.9906004,16.4751464,12.9359838\H,0,
 16.4380646,15.6026614,12.9129884\C,0,16.6967199,16.8505524,14.5263462\
 O,0,16.4147417,17.9717111,14.846029\N,0,16.9378774,15.853961,15.374495
 9\H,0,17.1601713,14.9653771,14.9489326\C,0,16.9449076,15.9322756,16.86
 87852\H,0,16.8665946,14.9426319,17.3188655\C,0,18.3055725,16.5912478,1
 7.3205149\H,0,19.1520833,16.1031423,16.837532\H,0,18.3805926,17.626436
 9,16.9875652\H,0,18.3612548,16.5820864,18.4090533\C,0,15.6835353,16.67
 35887,17.4526827\O,0,14.5546581,16.4654333,16.9634735\N,0,15.963597,17
 .4794867,18.4659061\H,0,16.9306559,17.5707547,18.7426142\C,0,14.931257
 4,18.1819511,19.2654074\H,0,15.1018663,17.9038603,20.3054353\H,0,15.03
 64614,19.2284068,18.9791163\H,0,13.9295866,17.8448983,18.9986645\\Vers
 ion=EM64L-G09RevA.02\State=1-A\HF=-493.0038053\MP2=-494.8899689\RMSD=9
 .491e-09\Dipole=1.4389784,-0.7582598,0.9107256\Quadrupole=-4.7059325,-
 1.2136345,5.919567,-2.8813658,-1.3808271,5.8153318\PG=C01 [X(C6H12N2O2
 )]\\@


 I MET A TRAVELLER FROM AN ANTIQUE LAND
 WHO SAID... TWO VAST AND TRUNKLESS LEGS OF STONE
 STAND IN THE DESERT..... NEAR THEM,  ON THE SAND,
 HALF SUNK,  A SHATTERED VISAGE LIES,  WHOSE FROWN,
 AND WRINKLED LIP,  AND SNEER OF COLD COMMAND
 TELL THAT ITS SCULPTOR WELL THOSE PASSIONS READ
 WHICH YET SURVIVE,  STAMPED ON THESE LIFELESS THINGS
 THE HAND THAT MOCKED THEM,  AND THE HEART THAT FED-
 AND ON THE PEDESTAL THESE WORDS APPEAR 
 MY NAME IS OZYMANDIAS, KING OF KINGS--   
 LOOK ON MY WORKS YE MIGHTY AND DESPAIR. 
 NOTHING BESIDE REMAINS,  ROUND THE DECAY 
 OF THAT COLOSSAL WRECK,  BOUNDLESS AND BARE
 THE LONE AND LEVEL SANDS STRETCH FAR AWAY.
                                    SHELLEY
 Job cpu time:  0 days  2 hours 57 minutes 34.8 seconds.
 File lengths (MBytes):  RWF=  13277 Int=      0 D2E=      0 Chk=     14 Scr=      1
 Normal termination of Gaussian 09 at Sun Mar 19 17:54:52 2017.
