 Entering Gaussian System, Link 0=g09
 Initial command:
 /home/steboss/Software/g09/l1.exe /tmp/Gau-23437.inp -scrdir=/tmp/
 Entering Link 1 = /home/steboss/Software/g09/l1.exe PID=     23439.
  
 Copyright (c) 1988,1990,1992,1993,1995,1998,2003,2009, Gaussian, Inc.
                  All Rights Reserved.
  
 This is part of the Gaussian(R) 09 program.  It is based on
 the Gaussian(R) 03 system (copyright 2003, Gaussian, Inc.),
 the Gaussian(R) 98 system (copyright 1998, Gaussian, Inc.),
 the Gaussian(R) 94 system (copyright 1995, Gaussian, Inc.),
 the Gaussian 92(TM) system (copyright 1992, Gaussian, Inc.),
 the Gaussian 90(TM) system (copyright 1990, Gaussian, Inc.),
 the Gaussian 88(TM) system (copyright 1988, Gaussian, Inc.),
 the Gaussian 86(TM) system (copyright 1986, Carnegie Mellon
 University), and the Gaussian 82(TM) system (copyright 1983,
 Carnegie Mellon University). Gaussian is a federally registered
 trademark of Gaussian, Inc.
  
 This software contains proprietary and confidential information,
 including trade secrets, belonging to Gaussian, Inc.
  
 This software is provided under written license and may be
 used, copied, transmitted, or stored only in accord with that
 written license.
  
 The following legend is applicable only to US Government
 contracts under FAR:
  
                    RESTRICTED RIGHTS LEGEND
  
 Use, reproduction and disclosure by the US Government is
 subject to restrictions as set forth in subparagraphs (a)
 and (c) of the Commercial Computer Software - Restricted
 Rights clause in FAR 52.227-19.
  
 Gaussian, Inc.
 340 Quinnipiac St., Bldg. 40, Wallingford CT 06492
  
  
 ---------------------------------------------------------------
 Warning -- This program may not be used in any manner that
 competes with the business of Gaussian, Inc. or will provide
 assistance to any competitor of Gaussian, Inc.  The licensee
 of this program is prohibited from giving any competitor of
 Gaussian, Inc. access to this program.  By using this program,
 the user acknowledges that Gaussian, Inc. is engaged in the
 business of creating and licensing software in the field of
 computational chemistry and represents and warrants to the
 licensee that it is not a competitor of Gaussian, Inc. and that
 it will not use this program in any manner prohibited above.
 ---------------------------------------------------------------
  

 Cite this work as:
 Gaussian 09, Revision A.02,
 M. J. Frisch, G. W. Trucks, H. B. Schlegel, G. E. Scuseria, 
 M. A. Robb, J. R. Cheeseman, G. Scalmani, V. Barone, B. Mennucci, 
 G. A. Petersson, H. Nakatsuji, M. Caricato, X. Li, H. P. Hratchian, 
 A. F. Izmaylov, J. Bloino, G. Zheng, J. L. Sonnenberg, M. Hada, 
 M. Ehara, K. Toyota, R. Fukuda, J. Hasegawa, M. Ishida, T. Nakajima, 
 Y. Honda, O. Kitao, H. Nakai, T. Vreven, J. A. Montgomery, Jr., 
 J. E. Peralta, F. Ogliaro, M. Bearpark, J. J. Heyd, E. Brothers, 
 K. N. Kudin, V. N. Staroverov, R. Kobayashi, J. Normand, 
 K. Raghavachari, A. Rendell, J. C. Burant, S. S. Iyengar, J. Tomasi, 
 M. Cossi, N. Rega, J. M. Millam, M. Klene, J. E. Knox, J. B. Cross, 
 V. Bakken, C. Adamo, J. Jaramillo, R. Gomperts, R. E. Stratmann, 
 O. Yazyev, A. J. Austin, R. Cammi, C. Pomelli, J. W. Ochterski, 
 R. L. Martin, K. Morokuma, V. G. Zakrzewski, G. A. Voth, 
 P. Salvador, J. J. Dannenberg, S. Dapprich, A. D. Daniels, 
 O. Farkas, J. B. Foresman, J. V. Ortiz, J. Cioslowski, 
 and D. J. Fox, Gaussian, Inc., Wallingford CT, 2009.
 
 ******************************************
 Gaussian 09:  EM64L-G09RevA.02 11-Jun-2009
                30-Dec-2016 
 ******************************************
 %chk=structure_300.chk
 ----------------------------------------------------------------------
 # b3lyp/6-31G* Opt=(ModRedundant, maxcycles=1000, calcfc) geom=nocrowd
 ----------------------------------------------------------------------
 1/6=1000,10=4,14=-1,18=120,19=15,26=3,38=1/1,3;
 2/9=110,12=1,17=6,18=5,40=1/2;
 3/5=1,6=6,7=1,11=2,16=1,25=1,30=1,71=2,74=-5/1,2,3;
 4//1;
 5/5=2,38=5/2;
 8/6=4,10=90,11=11/1;
 11/6=1,8=1,9=11,15=111,16=1/1,2,10;
 10/6=1,7=6,13=1/2;
 6/7=2,8=2,9=2,10=2,28=1/1;
 7/10=1,18=20,25=1/1,2,3,16;
 1/6=1000,10=4,14=-1,18=20,19=15/3(2);
 2/9=110,12=1/2;
 99//99;
 2/9=110,12=1/2;
 3/5=1,6=6,7=1,11=2,16=1,25=1,30=1,71=1,74=-5/1,2,3;
 4/5=5,16=3/1;
 5/5=2,38=5/2;
 7//1,2,3,16;
 1/6=1000,14=-1,18=20,19=15/3(-5);
 2/9=110,12=1/2;
 6/7=2,8=2,9=2,10=2,19=2,28=1/1;
 99/9=1/99;
 ------------------
 Phi Psi fixed scan
 ------------------
 Symbolic Z-matrix:
 Charge =  0 Multiplicity = 1
 H                     9.1768    1.       -1.923 
 C                     9.1768    2.09     -1.923 
 H                     9.1768    2.4539   -2.9505 
 H                     10.0666   2.4538   -1.4093 
 C                     7.9406    2.6408   -1.2093 
 O                     7.1065    1.8774   -0.7277 
 N                     7.8298    3.9697   -1.1453 
 H                     8.5419    4.5562   -1.5565 
 C                     6.7058    4.6139   -0.4964 
 H                     5.7809    4.3155   -0.9898 
 C                     6.6221    4.2208    0.9747 
 H                     7.5376    4.5213    1.4843 
 H                     5.7696    4.7189    1.4365 
 H                     6.4992    3.1409    1.0563 
 C                     6.8276    6.1294   -0.5667 
 O                     7.7906    6.6527   -1.1227 
 N                     5.846     6.8349    0. 
 H                     5.0745    6.3592    0.4455 
 C                     5.8461    8.2839    0. 
 H                     5.3323    8.6477   -0.8898 
 C                     5.1347    8.8329    1.2322 
 H                     5.6431    8.4846    2.1312 
 H                     5.1499    9.9224    1.2058 
 H                     4.1019    8.4846    1.2414 
 C                     7.266     8.8318    0. 
 O                     7.6573    9.5503   -0.9171 
 N                     8.0386    8.4902    1.0338 
 H                     7.6716    7.8967    1.764 
 C                     9.4087    8.9471    1.1497 
 H                     9.9824    8.5986    0.2909 
 C                     9.4775    10.4699   1.1962 
 H                     8.9152    10.8334   2.0563 
 H                     10.5174   10.7846   1.2833 
 H                     9.0492    10.8815   0.2824 
 C                     10.059    8.4131    2.418 
 O                     9.4267    7.693     3.1875 
 N                     11.3274   8.7685    2.6346 
 H                     11.8055   9.3628    1.9725 
 C                     12.0574   8.3257    3.8053 
 H                     11.413    7.6969    4.4196 
 H                     12.932    7.7544    3.4942 
 H                     12.3772   9.1923    4.3841 
 
 The following ModRedundant input section has been read:
 D   15   17   19   25 F                                                       
 D   17   19   25   27 F                                                       

 GradGradGradGradGradGradGradGradGradGradGradGradGradGradGradGradGradGrad
 Berny optimization.
 Initialization pass.
                           ----------------------------
                           !    Initial Parameters    !
                           ! (Angstroms and Degrees)  !
 --------------------------                            --------------------------
 ! Name  Definition              Value          Derivative Info.                !
 --------------------------------------------------------------------------------
 ! R1    R(1,2)                  1.09           calculate D2E/DX2 analytically  !
 ! R2    R(2,3)                  1.09           calculate D2E/DX2 analytically  !
 ! R3    R(2,4)                  1.0899         calculate D2E/DX2 analytically  !
 ! R4    R(2,5)                  1.53           calculate D2E/DX2 analytically  !
 ! R5    R(5,6)                  1.229          calculate D2E/DX2 analytically  !
 ! R6    R(5,7)                  1.335          calculate D2E/DX2 analytically  !
 ! R7    R(7,8)                  1.01           calculate D2E/DX2 analytically  !
 ! R8    R(7,9)                  1.4489         calculate D2E/DX2 analytically  !
 ! R9    R(9,10)                 1.0899         calculate D2E/DX2 analytically  !
 ! R10   R(9,11)                 1.525          calculate D2E/DX2 analytically  !
 ! R11   R(9,15)                 1.522          calculate D2E/DX2 analytically  !
 ! R12   R(11,12)                1.09           calculate D2E/DX2 analytically  !
 ! R13   R(11,13)                1.09           calculate D2E/DX2 analytically  !
 ! R14   R(11,14)                1.0899         calculate D2E/DX2 analytically  !
 ! R15   R(15,16)                1.229          calculate D2E/DX2 analytically  !
 ! R16   R(15,17)                1.3351         calculate D2E/DX2 analytically  !
 ! R17   R(17,18)                1.0099         calculate D2E/DX2 analytically  !
 ! R18   R(17,19)                1.449          calculate D2E/DX2 analytically  !
 ! R19   R(19,20)                1.09           calculate D2E/DX2 analytically  !
 ! R20   R(19,21)                1.5251         calculate D2E/DX2 analytically  !
 ! R21   R(19,25)                1.5219         calculate D2E/DX2 analytically  !
 ! R22   R(21,22)                1.0899         calculate D2E/DX2 analytically  !
 ! R23   R(21,23)                1.0899         calculate D2E/DX2 analytically  !
 ! R24   R(21,24)                1.09           calculate D2E/DX2 analytically  !
 ! R25   R(25,26)                1.229          calculate D2E/DX2 analytically  !
 ! R26   R(25,27)                1.335          calculate D2E/DX2 analytically  !
 ! R27   R(27,28)                1.01           calculate D2E/DX2 analytically  !
 ! R28   R(27,29)                1.4489         calculate D2E/DX2 analytically  !
 ! R29   R(29,30)                1.09           calculate D2E/DX2 analytically  !
 ! R30   R(29,31)                1.5251         calculate D2E/DX2 analytically  !
 ! R31   R(29,35)                1.522          calculate D2E/DX2 analytically  !
 ! R32   R(31,32)                1.09           calculate D2E/DX2 analytically  !
 ! R33   R(31,33)                1.09           calculate D2E/DX2 analytically  !
 ! R34   R(31,34)                1.0899         calculate D2E/DX2 analytically  !
 ! R35   R(35,36)                1.229          calculate D2E/DX2 analytically  !
 ! R36   R(35,37)                1.3349         calculate D2E/DX2 analytically  !
 ! R37   R(37,38)                1.01           calculate D2E/DX2 analytically  !
 ! R38   R(37,39)                1.449          calculate D2E/DX2 analytically  !
 ! R39   R(39,40)                1.09           calculate D2E/DX2 analytically  !
 ! R40   R(39,41)                1.09           calculate D2E/DX2 analytically  !
 ! R41   R(39,42)                1.0901         calculate D2E/DX2 analytically  !
 ! A1    A(1,2,3)              109.5021         calculate D2E/DX2 analytically  !
 ! A2    A(1,2,4)              109.4982         calculate D2E/DX2 analytically  !
 ! A3    A(1,2,5)              111.1            calculate D2E/DX2 analytically  !
 ! A4    A(3,2,4)              109.4412         calculate D2E/DX2 analytically  !
 ! A5    A(3,2,5)              108.6341         calculate D2E/DX2 analytically  !
 ! A6    A(4,2,5)              108.6383         calculate D2E/DX2 analytically  !
 ! A7    A(2,5,6)              120.4994         calculate D2E/DX2 analytically  !
 ! A8    A(2,5,7)              116.5999         calculate D2E/DX2 analytically  !
 ! A9    A(6,5,7)              122.9007         calculate D2E/DX2 analytically  !
 ! A10   A(5,7,8)              119.9983         calculate D2E/DX2 analytically  !
 ! A11   A(5,7,9)              121.8976         calculate D2E/DX2 analytically  !
 ! A12   A(8,7,9)              118.1041         calculate D2E/DX2 analytically  !
 ! A13   A(7,9,10)             109.5012         calculate D2E/DX2 analytically  !
 ! A14   A(7,9,11)             111.0992         calculate D2E/DX2 analytically  !
 ! A15   A(7,9,15)             111.0961         calculate D2E/DX2 analytically  !
 ! A16   A(10,9,11)            108.6353         calculate D2E/DX2 analytically  !
 ! A17   A(10,9,15)            108.6394         calculate D2E/DX2 analytically  !
 ! A18   A(11,9,15)            107.7951         calculate D2E/DX2 analytically  !
 ! A19   A(9,11,12)            109.5013         calculate D2E/DX2 analytically  !
 ! A20   A(9,11,13)            109.5009         calculate D2E/DX2 analytically  !
 ! A21   A(9,11,14)            109.4999         calculate D2E/DX2 analytically  !
 ! A22   A(12,11,13)           109.441          calculate D2E/DX2 analytically  !
 ! A23   A(12,11,14)           109.442          calculate D2E/DX2 analytically  !
 ! A24   A(13,11,14)           109.4422         calculate D2E/DX2 analytically  !
 ! A25   A(9,15,16)            120.5033         calculate D2E/DX2 analytically  !
 ! A26   A(9,15,17)            116.5982         calculate D2E/DX2 analytically  !
 ! A27   A(16,15,17)           122.8984         calculate D2E/DX2 analytically  !
 ! A28   A(15,17,18)           119.9997         calculate D2E/DX2 analytically  !
 ! A29   A(15,17,19)           121.8964         calculate D2E/DX2 analytically  !
 ! A30   A(18,17,19)           118.1039         calculate D2E/DX2 analytically  !
 ! A31   A(17,19,20)           109.4954         calculate D2E/DX2 analytically  !
 ! A32   A(17,19,21)           111.0974         calculate D2E/DX2 analytically  !
 ! A33   A(17,19,25)           111.1042         calculate D2E/DX2 analytically  !
 ! A34   A(20,19,21)           108.6349         calculate D2E/DX2 analytically  !
 ! A35   A(20,19,25)           108.6399         calculate D2E/DX2 analytically  !
 ! A36   A(21,19,25)           107.7944         calculate D2E/DX2 analytically  !
 ! A37   A(19,21,22)           109.4996         calculate D2E/DX2 analytically  !
 ! A38   A(19,21,23)           109.4977         calculate D2E/DX2 analytically  !
 ! A39   A(19,21,24)           109.4988         calculate D2E/DX2 analytically  !
 ! A40   A(22,21,23)           109.4452         calculate D2E/DX2 analytically  !
 ! A41   A(22,21,24)           109.4447         calculate D2E/DX2 analytically  !
 ! A42   A(23,21,24)           109.4412         calculate D2E/DX2 analytically  !
 ! A43   A(19,25,26)           120.4979         calculate D2E/DX2 analytically  !
 ! A44   A(19,25,27)           116.6021         calculate D2E/DX2 analytically  !
 ! A45   A(26,25,27)           122.8999         calculate D2E/DX2 analytically  !
 ! A46   A(25,27,28)           119.9937         calculate D2E/DX2 analytically  !
 ! A47   A(25,27,29)           121.9029         calculate D2E/DX2 analytically  !
 ! A48   A(28,27,29)           118.1034         calculate D2E/DX2 analytically  !
 ! A49   A(27,29,30)           109.5027         calculate D2E/DX2 analytically  !
 ! A50   A(27,29,31)           111.0983         calculate D2E/DX2 analytically  !
 ! A51   A(27,29,35)           111.1022         calculate D2E/DX2 analytically  !
 ! A52   A(30,29,31)           108.6343         calculate D2E/DX2 analytically  !
 ! A53   A(30,29,35)           108.6318         calculate D2E/DX2 analytically  !
 ! A54   A(31,29,35)           107.7967         calculate D2E/DX2 analytically  !
 ! A55   A(29,31,32)           109.4984         calculate D2E/DX2 analytically  !
 ! A56   A(29,31,33)           109.4981         calculate D2E/DX2 analytically  !
 ! A57   A(29,31,34)           109.4994         calculate D2E/DX2 analytically  !
 ! A58   A(32,31,33)           109.4411         calculate D2E/DX2 analytically  !
 ! A59   A(32,31,34)           109.4464         calculate D2E/DX2 analytically  !
 ! A60   A(33,31,34)           109.444          calculate D2E/DX2 analytically  !
 ! A61   A(29,35,36)           120.4962         calculate D2E/DX2 analytically  !
 ! A62   A(29,35,37)           116.5998         calculate D2E/DX2 analytically  !
 ! A63   A(36,35,37)           122.9039         calculate D2E/DX2 analytically  !
 ! A64   A(35,37,38)           120.0032         calculate D2E/DX2 analytically  !
 ! A65   A(35,37,39)           121.8994         calculate D2E/DX2 analytically  !
 ! A66   A(38,37,39)           118.0974         calculate D2E/DX2 analytically  !
 ! A67   A(37,39,40)           109.4999         calculate D2E/DX2 analytically  !
 ! A68   A(37,39,41)           109.5008         calculate D2E/DX2 analytically  !
 ! A69   A(37,39,42)           109.503          calculate D2E/DX2 analytically  !
 ! A70   A(40,39,41)           109.4432         calculate D2E/DX2 analytically  !
 ! A71   A(40,39,42)           109.4402         calculate D2E/DX2 analytically  !
 ! A72   A(41,39,42)           109.4403         calculate D2E/DX2 analytically  !
 ! D1    D(1,2,5,6)              0.0022         calculate D2E/DX2 analytically  !
 ! D2    D(1,2,5,7)            179.9987         calculate D2E/DX2 analytically  !
 ! D3    D(3,2,5,6)            120.5158         calculate D2E/DX2 analytically  !
 ! D4    D(3,2,5,7)            -59.4876         calculate D2E/DX2 analytically  !
 ! D5    D(4,2,5,6)           -120.5094         calculate D2E/DX2 analytically  !
 ! D6    D(4,2,5,7)             59.4871         calculate D2E/DX2 analytically  !
 ! D7    D(2,5,7,8)              0.0058         calculate D2E/DX2 analytically  !
 ! D8    D(2,5,7,9)            179.9989         calculate D2E/DX2 analytically  !
 ! D9    D(6,5,7,8)           -179.9977         calculate D2E/DX2 analytically  !
 ! D10   D(6,5,7,9)             -0.0046         calculate D2E/DX2 analytically  !
 ! D11   D(5,7,9,10)           -59.9963         calculate D2E/DX2 analytically  !
 ! D12   D(5,7,9,11)            60.0033         calculate D2E/DX2 analytically  !
 ! D13   D(5,7,9,15)          -179.9991         calculate D2E/DX2 analytically  !
 ! D14   D(8,7,9,10)           119.9969         calculate D2E/DX2 analytically  !
 ! D15   D(8,7,9,11)          -120.0035         calculate D2E/DX2 analytically  !
 ! D16   D(8,7,9,15)            -0.0059         calculate D2E/DX2 analytically  !
 ! D17   D(7,9,11,12)           59.9963         calculate D2E/DX2 analytically  !
 ! D18   D(7,9,11,13)          179.996          calculate D2E/DX2 analytically  !
 ! D19   D(7,9,11,14)          -60.0039         calculate D2E/DX2 analytically  !
 ! D20   D(10,9,11,12)        -179.4909         calculate D2E/DX2 analytically  !
 ! D21   D(10,9,11,13)         -59.4913         calculate D2E/DX2 analytically  !
 ! D22   D(10,9,11,14)          60.5089         calculate D2E/DX2 analytically  !
 ! D23   D(15,9,11,12)         -61.9436         calculate D2E/DX2 analytically  !
 ! D24   D(15,9,11,13)          58.056          calculate D2E/DX2 analytically  !
 ! D25   D(15,9,11,14)         178.0562         calculate D2E/DX2 analytically  !
 ! D26   D(7,9,15,16)            0.0028         calculate D2E/DX2 analytically  !
 ! D27   D(7,9,15,17)         -179.9997         calculate D2E/DX2 analytically  !
 ! D28   D(10,9,15,16)        -120.5108         calculate D2E/DX2 analytically  !
 ! D29   D(10,9,15,17)          59.4868         calculate D2E/DX2 analytically  !
 ! D30   D(11,9,15,16)         121.9446         calculate D2E/DX2 analytically  !
 ! D31   D(11,9,15,17)         -58.0579         calculate D2E/DX2 analytically  !
 ! D32   D(9,15,17,18)           0.0061         calculate D2E/DX2 analytically  !
 ! D33   D(9,15,17,19)         179.9983         calculate D2E/DX2 analytically  !
 ! D34   D(16,15,17,18)       -179.9964         calculate D2E/DX2 analytically  !
 ! D35   D(16,15,17,19)         -0.0042         calculate D2E/DX2 analytically  !
 ! D36   D(15,17,19,20)         90.0072         calculate D2E/DX2 analytically  !
 ! D37   D(15,17,19,21)       -149.9985         calculate D2E/DX2 analytically  !
 ! D38   D(15,17,19,25)        -29.9976         frozen, calculate D2E/DX2 analyt!
 ! D39   D(18,17,19,20)        -90.0004         calculate D2E/DX2 analytically  !
 ! D40   D(18,17,19,21)         29.9939         calculate D2E/DX2 analytically  !
 ! D41   D(18,17,19,25)        149.9948         calculate D2E/DX2 analytically  !
 ! D42   D(17,19,21,22)         60.0039         calculate D2E/DX2 analytically  !
 ! D43   D(17,19,21,23)       -179.9943         calculate D2E/DX2 analytically  !
 ! D44   D(17,19,21,24)        -59.998          calculate D2E/DX2 analytically  !
 ! D45   D(20,19,21,22)       -179.4919         calculate D2E/DX2 analytically  !
 ! D46   D(20,19,21,23)        -59.4901         calculate D2E/DX2 analytically  !
 ! D47   D(20,19,21,24)         60.5062         calculate D2E/DX2 analytically  !
 ! D48   D(25,19,21,22)        -61.9445         calculate D2E/DX2 analytically  !
 ! D49   D(25,19,21,23)         58.0573         calculate D2E/DX2 analytically  !
 ! D50   D(25,19,21,24)        178.0536         calculate D2E/DX2 analytically  !
 ! D51   D(17,19,25,26)        119.9986         calculate D2E/DX2 analytically  !
 ! D52   D(17,19,25,27)        -60.0013         frozen, calculate D2E/DX2 analyt!
 ! D53   D(20,19,25,26)         -0.5131         calculate D2E/DX2 analytically  !
 ! D54   D(20,19,25,27)        179.487          calculate D2E/DX2 analytically  !
 ! D55   D(21,19,25,26)       -118.0573         calculate D2E/DX2 analytically  !
 ! D56   D(21,19,25,27)         61.9428         calculate D2E/DX2 analytically  !
 ! D57   D(19,25,27,28)          0.0016         calculate D2E/DX2 analytically  !
 ! D58   D(19,25,27,29)        179.9976         calculate D2E/DX2 analytically  !
 ! D59   D(26,25,27,28)       -179.9983         calculate D2E/DX2 analytically  !
 ! D60   D(26,25,27,29)         -0.0023         calculate D2E/DX2 analytically  !
 ! D61   D(25,27,29,30)        -59.9983         calculate D2E/DX2 analytically  !
 ! D62   D(25,27,29,31)         60.0005         calculate D2E/DX2 analytically  !
 ! D63   D(25,27,29,35)       -179.9964         calculate D2E/DX2 analytically  !
 ! D64   D(28,27,29,30)        119.9978         calculate D2E/DX2 analytically  !
 ! D65   D(28,27,29,31)       -120.0034         calculate D2E/DX2 analytically  !
 ! D66   D(28,27,29,35)         -0.0003         calculate D2E/DX2 analytically  !
 ! D67   D(27,29,31,32)         60.0037         calculate D2E/DX2 analytically  !
 ! D68   D(27,29,31,33)        179.9999         calculate D2E/DX2 analytically  !
 ! D69   D(27,29,31,34)        -59.9998         calculate D2E/DX2 analytically  !
 ! D70   D(30,29,31,32)       -179.483          calculate D2E/DX2 analytically  !
 ! D71   D(30,29,31,33)        -59.4868         calculate D2E/DX2 analytically  !
 ! D72   D(30,29,31,34)         60.5135         calculate D2E/DX2 analytically  !
 ! D73   D(35,29,31,32)        -61.9443         calculate D2E/DX2 analytically  !
 ! D74   D(35,29,31,33)         58.0519         calculate D2E/DX2 analytically  !
 ! D75   D(35,29,31,34)        178.0522         calculate D2E/DX2 analytically  !
 ! D76   D(27,29,35,36)         -0.0034         calculate D2E/DX2 analytically  !
 ! D77   D(27,29,35,37)       -179.9977         calculate D2E/DX2 analytically  !
 ! D78   D(30,29,35,36)       -120.5175         calculate D2E/DX2 analytically  !
 ! D79   D(30,29,35,37)         59.4881         calculate D2E/DX2 analytically  !
 ! D80   D(31,29,35,36)        121.9422         calculate D2E/DX2 analytically  !
 ! D81   D(31,29,35,37)        -58.0522         calculate D2E/DX2 analytically  !
 ! D82   D(29,35,37,38)          0.0023         calculate D2E/DX2 analytically  !
 ! D83   D(29,35,37,39)        179.9984         calculate D2E/DX2 analytically  !
 ! D84   D(36,35,37,38)       -179.992          calculate D2E/DX2 analytically  !
 ! D85   D(36,35,37,39)          0.0042         calculate D2E/DX2 analytically  !
 ! D86   D(35,37,39,40)         -0.0008         calculate D2E/DX2 analytically  !
 ! D87   D(35,37,39,41)        120.0005         calculate D2E/DX2 analytically  !
 ! D88   D(35,37,39,42)       -119.9998         calculate D2E/DX2 analytically  !
 ! D89   D(38,37,39,40)        179.9955         calculate D2E/DX2 analytically  !
 ! D90   D(38,37,39,41)        -60.0033         calculate D2E/DX2 analytically  !
 ! D91   D(38,37,39,42)         59.9964         calculate D2E/DX2 analytically  !
 --------------------------------------------------------------------------------
 Trust Radius=3.00D-01 FncErr=1.00D-07 GrdErr=1.00D-06
 Number of steps in this run= 252 maximum allowed number of steps= 252.
 GradGradGradGradGradGradGradGradGradGradGradGradGradGradGradGradGradGrad

                          Input orientation:                          
 ---------------------------------------------------------------------
 Center     Atomic      Atomic             Coordinates (Angstroms)
 Number     Number       Type             X           Y           Z
 ---------------------------------------------------------------------
      1          1           0        9.176800    1.000000   -1.923000
      2          6           0        9.176800    2.090000   -1.923000
      3          1           0        9.176800    2.453900   -2.950500
      4          1           0       10.066600    2.453800   -1.409300
      5          6           0        7.940600    2.640800   -1.209300
      6          8           0        7.106500    1.877400   -0.727700
      7          7           0        7.829800    3.969700   -1.145300
      8          1           0        8.541900    4.556200   -1.556500
      9          6           0        6.705800    4.613900   -0.496400
     10          1           0        5.780900    4.315500   -0.989800
     11          6           0        6.622100    4.220800    0.974700
     12          1           0        7.537600    4.521300    1.484300
     13          1           0        5.769600    4.718900    1.436500
     14          1           0        6.499200    3.140900    1.056300
     15          6           0        6.827600    6.129400   -0.566700
     16          8           0        7.790600    6.652700   -1.122700
     17          7           0        5.846000    6.834900    0.000000
     18          1           0        5.074500    6.359200    0.445500
     19          6           0        5.846100    8.283900    0.000000
     20          1           0        5.332300    8.647700   -0.889800
     21          6           0        5.134700    8.832900    1.232200
     22          1           0        5.643100    8.484600    2.131200
     23          1           0        5.149900    9.922400    1.205800
     24          1           0        4.101900    8.484600    1.241400
     25          6           0        7.266000    8.831800    0.000000
     26          8           0        7.657300    9.550300   -0.917100
     27          7           0        8.038600    8.490200    1.033800
     28          1           0        7.671600    7.896700    1.764000
     29          6           0        9.408700    8.947100    1.149700
     30          1           0        9.982400    8.598600    0.290900
     31          6           0        9.477500   10.469900    1.196200
     32          1           0        8.915200   10.833400    2.056300
     33          1           0       10.517400   10.784600    1.283300
     34          1           0        9.049200   10.881500    0.282400
     35          6           0       10.059000    8.413100    2.418000
     36          8           0        9.426700    7.693000    3.187500
     37          7           0       11.327400    8.768500    2.634600
     38          1           0       11.805500    9.362800    1.972500
     39          6           0       12.057400    8.325700    3.805300
     40          1           0       11.413000    7.696900    4.419600
     41          1           0       12.932000    7.754400    3.494200
     42          1           0       12.377200    9.192300    4.384100
 ---------------------------------------------------------------------
                    Distance matrix (angstroms):
                    1          2          3          4          5
     1  H    0.000000
     2  C    1.090000   0.000000
     3  H    1.780332   1.090036   0.000000
     4  H    1.780215   1.089946   1.779618   0.000000
     5  C    2.174806   1.530013   2.143572   2.143559   0.000000
     6  O    2.546510   2.400017   3.091817   3.091764   1.229000
     7  N    3.352364   2.439774   2.714923   2.714944   1.335046
     8  H    3.630975   2.572851   2.601153   2.601243   2.037368
     9  C    4.604487   3.809344   4.098054   4.098097   2.434354
    10  H    4.836894   4.166035   4.340741   4.691389   2.741734
    11  C    5.029583   4.411742   5.005559   4.546463   3.000783
    12  H    5.166839   4.495319   5.160288   4.363865   3.309708
    13  H    6.060154   5.459521   5.998750   5.629695   4.003998
    14  H    4.541940   4.141275   4.867849   4.390630   2.731424
    15  C    5.802502   4.865701   4.970970   4.971029   3.717800
    16  O    5.874951   4.835314   4.784592   4.784671   4.015637
    17  N    6.988434   6.107883   6.244425   6.244488   4.841511
    18  H    7.152600   6.376890   6.604018   6.604051   4.977890
    19  C    8.236910   7.290809   7.334024   7.334086   6.139537
    20  H    8.621775   7.671448   7.575607   7.813314   6.556535
    21  C    9.362061   8.471160   8.632798   8.484932   7.223303
    22  H    9.216442   8.355506   8.641762   8.274844   7.112485
    23  H   10.276893   9.346219   9.448240   9.316259   8.163480
    24  H    9.580568   8.755509   8.927260   8.886754   7.408883
    25  C    8.287712   7.266426   7.282459   7.106924   6.343971
    26  O    8.742331   7.679635   7.536743   7.510479   6.921476
    27  N    8.132728   7.141479   7.321684   6.820531   6.265507
    28  H    7.963923   7.041119   7.356372   6.740254   6.044614
    29  C    8.523594   7.517651   7.682907   7.010297   6.891271
    30  H    7.955443   6.921865   6.993783   6.376232   6.474174
    31  C    9.974910   8.946650   9.030050   8.449469   8.333265
    32  H   10.611268   9.609907   9.764861   9.140777   8.873144
    33  H   10.383447   9.363420   9.440489   8.766729   8.898002
    34  H   10.125419   9.064797   9.027312   8.655812   8.447680
    35  C    8.635775   7.720372   8.069147   7.082481   7.138933
    36  O    8.424720   7.587705   8.073764   6.999233   6.860399
    37  N    9.259935   8.366550   8.700149   7.603827   7.987158
    38  H    9.592779   8.659019   8.881379   7.886357   8.381324
    39  C    9.735356   8.944005   9.403017   8.101515   8.626259
    40  H    9.490924   8.755940   9.317082   7.954808   8.325036
    41  H    9.437664   8.690973   9.150464   7.768603   8.554875
    42  H   10.822932  10.023210  10.461594   9.182033   9.689773
                    6          7          8          9         10
     6  O    0.000000
     7  N    2.252836   0.000000
     8  H    3.150119   1.010027   0.000000
     9  C    2.775336   1.448945   2.120944   0.000000
    10  H    2.787516   2.083686   2.828817   1.089920   0.000000
    11  C    2.936721   2.452752   3.194542   1.525014   2.139123
    12  H    3.474046   2.702673   3.202546   2.150265   3.041302
    13  H    3.813815   3.386948   4.082912   2.150255   2.459632
    14  H    2.268899   2.702674   3.605887   2.150184   2.466205
    15  C    4.264178   2.450201   2.528535   1.522011   2.136546
    16  O    4.840197   2.683382   2.268909   2.392854   3.085297
    17  N    5.166741   3.668316   3.857855   2.432799   2.707641
    18  H    5.058849   3.978949   4.391090   2.567954   2.595341
    19  C    6.569733   4.884578   4.856519   3.801894   4.090496
    20  H    7.000787   5.309093   5.242747   4.279347   4.356512
    21  C    7.490540   6.047048   6.138080   4.822486   5.075605
    22  H    7.346424   5.991780   6.118374   4.797492   5.209705
    23  H    8.502278   6.938600   6.923299   5.787787   6.054432
    24  H    7.520643   6.322808   6.555469   4.978209   5.017837
    25  C    6.994188   5.026888   4.725608   4.283797   4.856150
    26  O    7.694975   5.587927   5.111984   5.044838   5.561411
    27  N    6.906578   5.022648   4.737016   4.375337   5.159485
    28  H    6.539104   4.889824   4.789789   4.101092   4.897260
    29  C    7.668469   5.703899   5.230188   5.365812   6.260201
    30  H    7.381252   5.303119   4.672143   5.218600   6.134961
    31  C    9.118886   7.102826   6.589731   6.696264   7.504671
    32  H    9.551544   7.651060   7.252235   7.076716   7.847648
    33  H    9.747644   7.717782   7.124607   7.468143   8.333707
    34  H    9.266510   7.162279   6.606688   6.736532   7.443966
    35  C    7.831223   6.116391   5.742292   5.845648   6.834147
    36  O    7.384668   5.931796   5.755686   5.518630   6.492241
    37  N    8.752618   7.039129   6.562606   6.958667   7.983054
    38  H    9.241369   7.390020   6.797671   7.392865   8.399182
    39  C    9.308065   7.832993   7.437524   7.805236   8.858281
    40  H    8.882974   7.596016   7.336279   7.471926   8.509761
    41  H    9.289780   7.866471   7.416942   8.034500   9.114303
    42  H   10.364292   8.861640   8.455393   8.771876   9.806791
                   11         12         13         14         15
    11  C    0.000000
    12  H    1.090015   0.000000
    13  H    1.090009   1.779650   0.000000
    14  H    1.089930   1.779596   1.779593   0.000000
    15  C    2.461889   2.701238   2.668648   3.416593   0.000000
    16  O    3.417399   3.376881   3.791244   4.329953   1.228962
    17  N    2.895840   3.227600   2.558676   3.897188   1.335072
    18  H    2.692187   3.244047   2.038585   3.572156   2.037331
    19  C    4.249823   4.384231   3.844296   5.290818   2.434412
    20  H    4.973669   5.246606   4.586761   5.955989   2.946549
    21  C    4.852848   4.942406   4.167713   5.855909   3.662085
    22  H    4.525033   4.440198   3.831332   5.517558   3.772091
    23  H    5.893134   5.911899   5.245347   6.916047   4.510353
    24  H    4.960093   5.250789   4.123079   5.859730   4.030587
    25  C    4.756676   4.566982   4.606375   5.838672   2.795766
    26  O    5.749271   5.574217   5.696075   6.805579   3.537476
    27  N    4.498638   4.025682   4.419642   5.566441   3.098628
    28  H    3.903420   3.389618   3.717966   4.949040   3.044314
    29  C    5.489415   4.816708   5.585963   6.495065   4.188978
    30  H    5.560965   4.901594   5.840561   6.519587   4.096973
    31  C    6.874127   6.263550   6.846917   7.912274   5.382353
    32  H    7.081994   6.485952   6.904061   8.124753   5.776315
    33  H    7.638852   6.938915   7.704401   8.638496   6.221576
    34  H    7.122852   6.646927   7.075688   8.186471   5.314032
    35  C    5.609882   4.730260   5.745381   6.505574   4.956376
    36  O    4.981811   4.065620   5.028484   5.816690   4.826405
    37  N    6.751051   5.807278   6.980247   7.581057   6.120569
    38  H    7.369084   6.472514   7.634474   8.228504   6.456152
    39  C    7.375974   6.347369   7.626051   8.082867   7.161629
    40  H    6.848601   5.806819   7.043815   7.497623   6.953139
    41  H    7.658267   6.602438   8.046637   8.283034   7.509676
    42  H    8.334326   7.324535   8.506470   9.068880   8.042999
                   16         17         18         19         20
    16  O    0.000000
    17  N    2.252803   0.000000
    18  H    3.150015   1.009937   0.000000
    19  C    2.775311   1.449000   2.120921   0.000000
    20  H    3.174509   2.083717   2.662089   1.089993   0.000000
    21  C    4.165649   2.452808   2.596481   1.525060   2.139212
    22  H    4.307607   2.702719   2.771681   2.150233   3.041322
    23  H    4.804805   3.386911   3.644192   2.150193   2.459608
    24  H    4.748824   2.702678   2.469156   2.150253   2.466272
    25  C    2.506818   2.450308   3.333901   1.521943   2.136547
    26  O    2.907942   3.390469   4.325581   2.392757   2.494205
    27  N    2.844012   2.935346   3.697722   2.432768   3.324019
    28  H    3.145590   2.751714   3.293520   2.567892   3.616487
    29  C    3.611969   4.298375   5.096902   3.801811   4.567958
    30  H    3.254040   4.506114   5.396878   4.158442   4.797905
    31  C    4.774300   5.275596   6.070240   4.404152   4.985428
    32  H    5.371128   5.443929   6.112620   4.488618   5.127764
    33  H    5.504259   6.250517   7.064788   5.451734   6.014480
    34  H    4.630457   5.168676   6.022959   4.133658   4.492133
    35  C    4.558641   5.107525   5.740601   4.859212   5.773930
    36  O    4.726190   4.870103   5.314060   4.830115   5.856615
    37  N    5.576994   6.381667   7.049514   6.100869   6.955373
    38  H    5.748420   6.767324   7.527264   6.369398   7.113821
    39  C    6.729762   7.435340   7.994765   7.284388   8.208204
    40  H    6.702927   7.160125   7.599967   7.132167   8.128263
    41  H    6.997393   7.954012   8.542919   7.918319   8.818893
    42  H    7.603375   8.211835   8.767466   7.918383   8.817099
                   21         22         23         24         25
    21  C    0.000000
    22  H    1.089947   0.000000
    23  H    1.089926   1.779573   0.000000
    24  H    1.089988   1.779618   1.779562   0.000000
    25  C    2.461861   2.701179   2.668565   3.416599   0.000000
    26  O    3.390821   3.805897   3.306390   4.293682   1.228996
    27  N    2.930775   2.634908   3.228834   3.942174   1.335044
    28  H    2.755929   2.143659   3.282380   3.655338   2.037307
    29  C    4.276321   3.918800   4.369409   5.327705   2.434393
    30  H    4.943798   4.714788   5.093382   5.957913   2.741867
    31  C    4.641226   4.417948   4.362106   5.730666   3.000833
    32  H    4.355838   4.028537   3.966202   5.417451   3.309778
    33  H    5.725836   5.455982   5.436860   6.815453   4.003984
    34  H    4.519092   4.556831   4.120325   5.580375   2.731451
    35  C    5.082429   4.425781   5.276995   6.072606   3.717914
    36  O    4.852199   4.007247   5.214248   5.724284   4.015675
    37  N    6.349835   5.713605   6.444723   7.364065   4.841497
    38  H    6.732638   6.226684   6.722945   7.787888   4.977929
    39  C    7.402829   6.631071   7.551186   8.359953   6.139541
    40  H    7.132115   6.256916   7.382939   8.010843   6.165912
    41  H    8.190097   7.451109   8.396313   9.142153   6.743425
    42  H    7.906798   7.136140   7.928966   8.880202   6.743490
                   26         27         28         29         30
    26  O    0.000000
    27  N    2.252823   0.000000
    28  H    3.150063   1.010012   0.000000
    29  C    2.775412   1.448918   2.120901   0.000000
    30  H    2.787667   2.083749   2.828866   1.090010   0.000000
    31  C    2.936806   2.452757   3.194531   1.525062   2.139218
    32  H    3.474157   2.702688   3.202528   2.150254   3.041362
    33  H    3.813847   3.386882   4.082844   2.150226   2.459609
    34  H    2.268982   2.702634   3.605822   2.150198   2.466286
    35  C    4.264303   2.450300   2.528649   1.522048   2.136547
    36  O    4.840256   2.683426   2.268969   2.392848   3.085321
    37  N    5.166761   3.668272   3.857830   2.432742   2.707549
    38  H    5.058904   3.978960   4.391133   2.567967   2.595279
    39  C    6.569748   4.884570   4.856561   3.801837   4.090368
    40  H    6.783859   4.845569   4.592407   4.033914   4.461596
    41  H    7.106848   5.526331   5.539463   4.396914   4.435532
    42  H    7.106922   5.526383   5.539510   4.396983   4.779313
                   31         32         33         34         35
    31  C    0.000000
    32  H    1.089993   0.000000
    33  H    1.089961   1.779594   0.000000
    34  H    1.089902   1.779604   1.779551   0.000000
    35  C    2.461984   2.701288   2.668649   3.416648   0.000000
    36  O    3.417460   3.376886   3.791252   4.329970   1.229015
    37  N    2.895840   3.227530   2.558666   3.897154   1.334939
    38  H    2.692192   3.243998   2.038557   3.572125   2.037317
    39  C    4.249809   4.384174   3.844252   5.290766   2.434305
    40  H    4.671830   4.654226   4.491366   5.731113   2.520449
    41  H    4.958661   5.261414   4.460996   5.930476   3.137869
    42  H    4.494800   4.483002   3.950853   5.545532   3.137954
                   36         37         38         39         40
    36  O    0.000000
    37  N    2.252789   0.000000
    38  H    3.150103   1.010024   0.000000
    39  C    2.775350   1.448969   2.120893   0.000000
    40  H    2.337407   2.083718   2.986231   1.089957   0.000000
    41  H    3.519228   2.083759   2.484255   1.089996   1.779616
    42  H    3.519262   2.083851   2.484296   1.090081   1.779653
                   41         42
    41  H    0.000000
    42  H    1.779686   0.000000
 Stoichiometry    C12H22N4O4
 Framework group  C1[X(C12H22N4O4)]
 Deg. of freedom   120
 Full point group                 C1      NOp   1
 Largest Abelian subgroup         C1      NOp   1
 Largest concise Abelian subgroup C1      NOp   1
                         Standard orientation:                         
 ---------------------------------------------------------------------
 Center     Atomic      Atomic             Coordinates (Angstroms)
 Number     Number       Type             X           Y           Z
 ---------------------------------------------------------------------
      1          1           0        5.598361    2.881366   -0.982132
      2          6           0        4.678672    2.377217   -1.278957
      3          1           0        4.815429    1.917187   -2.257654
      4          1           0        3.866318    3.102159   -1.329178
      5          6           0        4.299564    1.286777   -0.274887
      6          8           0        5.001443    1.076019    0.711718
      7          7           0        3.185964    0.597239   -0.533303
      8          1           0        2.641811    0.807334   -1.357871
      9          6           0        2.720288   -0.460559    0.340568
     10          1           0        3.479876   -1.239468    0.405777
     11          6           0        2.443237    0.068619    1.743736
     12          1           0        1.677875    0.843260    1.695952
     13          1           0        2.095137   -0.746686    2.377947
     14          1           0        3.358320    0.488037    2.161658
     15          6           0        1.433136   -1.079167   -0.185819
     16          8           0        0.924906   -0.670215   -1.227360
     17          7           0        0.905869   -2.069050    0.538431
     18          1           0        1.360646   -2.370546    1.388285
     19          6           0       -0.316759   -2.739160    0.143801
     20          1           0       -0.075680   -3.591602   -0.491266
     21          6           0       -1.085518   -3.240769    1.361671
     22          1           0       -1.341929   -2.397420    2.002764
     23          1           0       -1.998226   -3.739415    1.035704
     24          1           0       -0.466529   -3.944532    1.918128
     25          6           0       -1.231477   -1.799971   -0.629197
     26          8           0       -1.566279   -2.064007   -1.781856
     27          7           0       -1.635947   -0.699543    0.009399
     28          1           0       -1.333631   -0.525975    0.957346
     29          6           0       -2.508075    0.272813   -0.617722
     30          1           0       -2.025893    0.672041   -1.510044
     31          6           0       -3.834947   -0.360527   -1.022825
     32          1           0       -4.333979   -0.756749   -0.138483
     33          1           0       -4.469442    0.392081   -1.490812
     34          1           0       -3.651076   -1.170077   -1.729015
     35          6           0       -2.812524    1.426085    0.327743
     36          8           0       -2.335830    1.446534    1.460361
     37          7           0       -3.610101    2.388556   -0.140854
     38          1           0       -3.977906    2.327268   -1.079529
     39          6           0       -3.974739    3.538879    0.661211
     40          1           0       -3.504191    3.462874    1.641421
     41          1           0       -3.637009    4.449388    0.166233
     42          1           0       -5.057830    3.570992    0.780213
 ---------------------------------------------------------------------
 Rotational constants (GHZ):      0.4106963      0.1888131      0.1511296
 Standard basis: 6-31G(d) (6D, 7F)
 There are   344 symmetry adapted basis functions of A   symmetry.
 Integral buffers will be    131072 words long.
 Raffenetti 2 integral format.
 Two-electron integral symmetry is turned on.
   344 basis functions,   648 primitive gaussians,   344 cartesian basis functions
    77 alpha electrons       77 beta electrons
       nuclear repulsion energy      1675.4237392036 Hartrees.
 NAtoms=   42 NActive=   42 NUniq=   42 SFac= 7.50D-01 NAtFMM=   80 NAOKFM=F Big=F
 One-electron integrals computed using PRISM.
 NBasis=   344 RedAO= T  NBF=   344
 NBsUse=   344 1.00D-06 NBFU=   344
 Harris functional with IExCor=  402 diagonalized for initial guess.
 ExpMin= 1.61D-01 ExpMax= 5.48D+03 ExpMxC= 8.25D+02 IAcc=1 IRadAn=         1 AccDes= 0.00D+00
 HarFok:  IExCor=  402 AccDes= 0.00D+00 IRadAn=         1 IDoV= 1
 ScaDFX=  1.000000  1.000000  1.000000  1.000000
 FoFCou: FMM=F IPFlag=           0 FMFlag=      100000 FMFlg1=           0
         NFxFlg=           0 DoJE=T BraDBF=F KetDBF=T FulRan=T
         Omega=  0.000000  0.000000  1.000000  0.000000  0.000000 ICntrl=     500 IOpCl=  0
         NMat0=    1 NMatS0=    1 NMatT0=    0 NMatD0=    1 NMtDS0=    0 NMtDT0=    0
         I1Cent=           4 NGrid=           0.
 Petite list used in FoFCou.
 Initial guess orbital symmetries:
       Occupied  (A) (A) (A) (A) (A) (A) (A) (A) (A) (A) (A) (A)
                 (A) (A) (A) (A) (A) (A) (A) (A) (A) (A) (A) (A)
                 (A) (A) (A) (A) (A) (A) (A) (A) (A) (A) (A) (A)
                 (A) (A) (A) (A) (A) (A) (A) (A) (A) (A) (A) (A)
                 (A) (A) (A) (A) (A) (A) (A) (A) (A) (A) (A) (A)
                 (A) (A) (A) (A) (A) (A) (A) (A) (A) (A) (A) (A)
                 (A) (A) (A) (A) (A)
       Virtual   (A) (A) (A) (A) (A) (A) (A) (A) (A) (A) (A) (A)
                 (A) (A) (A) (A) (A) (A) (A) (A) (A) (A) (A) (A)
                 (A) (A) (A) (A) (A) (A) (A) (A) (A) (A) (A) (A)
                 (A) (A) (A) (A) (A) (A) (A) (A) (A) (A) (A) (A)
                 (A) (A) (A) (A) (A) (A) (A) (A) (A) (A) (A) (A)
                 (A) (A) (A) (A) (A) (A) (A) (A) (A) (A) (A) (A)
                 (A) (A) (A) (A) (A) (A) (A) (A) (A) (A) (A) (A)
                 (A) (A) (A) (A) (A) (A) (A) (A) (A) (A) (A) (A)
                 (A) (A) (A) (A) (A) (A) (A) (A) (A) (A) (A) (A)
                 (A) (A) (A) (A) (A) (A) (A) (A) (A) (A) (A) (A)
                 (A) (A) (A) (A) (A) (A) (A) (A) (A) (A) (A) (A)
                 (A) (A) (A) (A) (A) (A) (A) (A) (A) (A) (A) (A)
                 (A) (A) (A) (A) (A) (A) (A) (A) (A) (A) (A) (A)
                 (A) (A) (A) (A) (A) (A) (A) (A) (A) (A) (A) (A)
                 (A) (A) (A) (A) (A) (A) (A) (A) (A) (A) (A) (A)
                 (A) (A) (A) (A) (A) (A) (A) (A) (A) (A) (A) (A)
                 (A) (A) (A) (A) (A) (A) (A) (A) (A) (A) (A) (A)
                 (A) (A) (A) (A) (A) (A) (A) (A) (A) (A) (A) (A)
                 (A) (A) (A) (A) (A) (A) (A) (A) (A) (A) (A) (A)
                 (A) (A) (A) (A) (A) (A) (A) (A) (A) (A) (A) (A)
                 (A) (A) (A) (A) (A) (A) (A) (A) (A) (A) (A) (A)
                 (A) (A) (A) (A) (A) (A) (A) (A) (A) (A) (A) (A)
                 (A) (A) (A)
 The electronic state of the initial guess is 1-A.
 Requested convergence on RMS density matrix=1.00D-08 within 128 cycles.
 Requested convergence on MAX density matrix=1.00D-06.
 Requested convergence on             energy=1.00D-06.
 No special actions if energy rises.
 Integral accuracy reduced to 1.0D-05 until final iterations.
 Initial convergence to 1.0D-05 achieved.  Increase integral accuracy.
 SCF Done:  E(RB3LYP) =  -990.477771209     A.U. after   15 cycles
             Convg  =    0.5241D-08             -V/T =  2.0086
 Range of M.O.s used for correlation:     1   344
 NBasis=   344 NAE=    77 NBE=    77 NFC=     0 NFV=     0
 NROrb=    344 NOA=    77 NOB=    77 NVA=   267 NVB=   267
 Symmetrizing basis deriv contribution to polar:
 IMax=3 JMax=2 DiffMx= 0.00D+00
 G2DrvN: will do    43 centers at a time, making    1 passes doing MaxLOS=2.
 Calling FoFCou, ICntrl=  3107 FMM=F I1Cent=   0 AccDes= 0.00D+00.
 FoFDir/FoFCou used for L=0 through L=2.
 End of G2Drv Frequency-dependent properties file   721 does not exist.
 End of G2Drv Frequency-dependent properties file   722 does not exist.
          IDoAtm=111111111111111111111111111111111111111111
          Differentiating once with respect to nuclear coordinates.
          There are   129 degrees of freedom in the 1st order CPHF.  IDoFFX=5.
    123 vectors produced by pass  0 Test12= 2.06D-10 1.00D-07 XBig12= 1.72D-01 7.19D-02.
 AX will form   123 AO Fock derivatives at one time.
    123 vectors produced by pass  1 Test12= 2.06D-10 1.00D-07 XBig12= 4.19D-02 6.68D-02.
    123 vectors produced by pass  2 Test12= 2.06D-10 1.00D-07 XBig12= 3.16D-05 1.21D-03.
    123 vectors produced by pass  3 Test12= 2.06D-10 1.00D-07 XBig12= 8.99D-08 5.32D-05.
     68 vectors produced by pass  4 Test12= 2.06D-10 1.00D-07 XBig12= 9.18D-11 1.60D-06.
 Inverted reduced A of dimension   560 with in-core refinement.
 End of Minotr Frequency-dependent properties file   721 does not exist.
 End of Minotr Frequency-dependent properties file   722 does not exist.

 **********************************************************************

            Population analysis using the SCF density.

 **********************************************************************

 Orbital symmetries:
       Occupied  (A) (A) (A) (A) (A) (A) (A) (A) (A) (A) (A) (A)
                 (A) (A) (A) (A) (A) (A) (A) (A) (A) (A) (A) (A)
                 (A) (A) (A) (A) (A) (A) (A) (A) (A) (A) (A) (A)
                 (A) (A) (A) (A) (A) (A) (A) (A) (A) (A) (A) (A)
                 (A) (A) (A) (A) (A) (A) (A) (A) (A) (A) (A) (A)
                 (A) (A) (A) (A) (A) (A) (A) (A) (A) (A) (A) (A)
                 (A) (A) (A) (A) (A)
       Virtual   (A) (A) (A) (A) (A) (A) (A) (A) (A) (A) (A) (A)
                 (A) (A) (A) (A) (A) (A) (A) (A) (A) (A) (A) (A)
                 (A) (A) (A) (A) (A) (A) (A) (A) (A) (A) (A) (A)
                 (A) (A) (A) (A) (A) (A) (A) (A) (A) (A) (A) (A)
                 (A) (A) (A) (A) (A) (A) (A) (A) (A) (A) (A) (A)
                 (A) (A) (A) (A) (A) (A) (A) (A) (A) (A) (A) (A)
                 (A) (A) (A) (A) (A) (A) (A) (A) (A) (A) (A) (A)
                 (A) (A) (A) (A) (A) (A) (A) (A) (A) (A) (A) (A)
                 (A) (A) (A) (A) (A) (A) (A) (A) (A) (A) (A) (A)
                 (A) (A) (A) (A) (A) (A) (A) (A) (A) (A) (A) (A)
                 (A) (A) (A) (A) (A) (A) (A) (A) (A) (A) (A) (A)
                 (A) (A) (A) (A) (A) (A) (A) (A) (A) (A) (A) (A)
                 (A) (A) (A) (A) (A) (A) (A) (A) (A) (A) (A) (A)
                 (A) (A) (A) (A) (A) (A) (A) (A) (A) (A) (A) (A)
                 (A) (A) (A) (A) (A) (A) (A) (A) (A) (A) (A) (A)
                 (A) (A) (A) (A) (A) (A) (A) (A) (A) (A) (A) (A)
                 (A) (A) (A) (A) (A) (A) (A) (A) (A) (A) (A) (A)
                 (A) (A) (A) (A) (A) (A) (A) (A) (A) (A) (A) (A)
                 (A) (A) (A) (A) (A) (A) (A) (A) (A) (A) (A) (A)
                 (A) (A) (A) (A) (A) (A) (A) (A) (A) (A) (A) (A)
                 (A) (A) (A) (A) (A) (A) (A) (A) (A) (A) (A) (A)
                 (A) (A) (A) (A) (A) (A) (A) (A) (A) (A) (A) (A)
                 (A) (A) (A)
 The electronic state is 1-A.
 Alpha  occ. eigenvalues --  -19.12118 -19.11761 -19.09581 -19.09385 -14.37775
 Alpha  occ. eigenvalues --  -14.37345 -14.35276 -14.35031 -10.29436 -10.29103
 Alpha  occ. eigenvalues --  -10.27557 -10.27501 -10.23915 -10.23635 -10.23392
 Alpha  occ. eigenvalues --  -10.22526 -10.20041 -10.18264 -10.17790 -10.17776
 Alpha  occ. eigenvalues --   -1.05220  -1.04359  -1.02181  -1.01797  -0.94673
 Alpha  occ. eigenvalues --   -0.93622  -0.92042  -0.91825  -0.80764  -0.78162
 Alpha  occ. eigenvalues --   -0.76632  -0.72117  -0.71553  -0.67398  -0.66000
 Alpha  occ. eigenvalues --   -0.64273  -0.61534  -0.60113  -0.57511  -0.57333
 Alpha  occ. eigenvalues --   -0.55090  -0.54165  -0.49914  -0.49393  -0.49194
 Alpha  occ. eigenvalues --   -0.48285  -0.46308  -0.45708  -0.45254  -0.44860
 Alpha  occ. eigenvalues --   -0.44075  -0.43406  -0.42738  -0.41751  -0.41324
 Alpha  occ. eigenvalues --   -0.40826  -0.40703  -0.40115  -0.39627  -0.39509
 Alpha  occ. eigenvalues --   -0.38702  -0.38552  -0.38120  -0.36939  -0.36851
 Alpha  occ. eigenvalues --   -0.36754  -0.36218  -0.34748  -0.34003  -0.27238
 Alpha  occ. eigenvalues --   -0.26457  -0.25833  -0.25599  -0.24679  -0.24278
 Alpha  occ. eigenvalues --   -0.23403  -0.23339
 Alpha virt. eigenvalues --    0.01733   0.02555   0.03496   0.04202   0.05857
 Alpha virt. eigenvalues --    0.06184   0.09391   0.09987   0.11495   0.11853
 Alpha virt. eigenvalues --    0.13425   0.13605   0.14012   0.14442   0.15054
 Alpha virt. eigenvalues --    0.15198   0.15642   0.16155   0.16298   0.16319
 Alpha virt. eigenvalues --    0.17349   0.17935   0.18343   0.18548   0.19395
 Alpha virt. eigenvalues --    0.19877   0.20221   0.20484   0.21454   0.22644
 Alpha virt. eigenvalues --    0.23367   0.24344   0.25143   0.25664   0.26761
 Alpha virt. eigenvalues --    0.28423   0.30266   0.33983   0.34551   0.35207
 Alpha virt. eigenvalues --    0.35898   0.40130   0.42467   0.42695   0.45548
 Alpha virt. eigenvalues --    0.49559   0.50373   0.50995   0.51708   0.51941
 Alpha virt. eigenvalues --    0.52421   0.53295   0.53322   0.54441   0.54739
 Alpha virt. eigenvalues --    0.55754   0.55961   0.56860   0.57599   0.57757
 Alpha virt. eigenvalues --    0.59107   0.60391   0.61124   0.61764   0.63321
 Alpha virt. eigenvalues --    0.63873   0.65590   0.66305   0.67642   0.68187
 Alpha virt. eigenvalues --    0.69470   0.70195   0.70608   0.72360   0.72744
 Alpha virt. eigenvalues --    0.73755   0.74618   0.75220   0.75405   0.76762
 Alpha virt. eigenvalues --    0.78106   0.78648   0.79636   0.81099   0.83548
 Alpha virt. eigenvalues --    0.84069   0.84309   0.84868   0.85765   0.86276
 Alpha virt. eigenvalues --    0.86750   0.86956   0.87299   0.87758   0.88401
 Alpha virt. eigenvalues --    0.88981   0.89375   0.89957   0.90347   0.90679
 Alpha virt. eigenvalues --    0.91661   0.92426   0.93454   0.93602   0.94254
 Alpha virt. eigenvalues --    0.94717   0.95571   0.95756   0.96170   0.96481
 Alpha virt. eigenvalues --    0.98549   0.99621   0.99772   1.02154   1.02657
 Alpha virt. eigenvalues --    1.03639   1.05265   1.08305   1.08940   1.09307
 Alpha virt. eigenvalues --    1.11396   1.11728   1.13383   1.15988   1.16607
 Alpha virt. eigenvalues --    1.20365   1.21880   1.24623   1.26372   1.28972
 Alpha virt. eigenvalues --    1.29271   1.30344   1.31055   1.33790   1.34439
 Alpha virt. eigenvalues --    1.35595   1.36331   1.38013   1.38511   1.41709
 Alpha virt. eigenvalues --    1.43623   1.43809   1.46743   1.47409   1.48190
 Alpha virt. eigenvalues --    1.50090   1.50846   1.51889   1.53929   1.61857
 Alpha virt. eigenvalues --    1.64733   1.65920   1.66938   1.68574   1.70215
 Alpha virt. eigenvalues --    1.71203   1.72720   1.74919   1.75755   1.77808
 Alpha virt. eigenvalues --    1.78134   1.78608   1.80346   1.81391   1.82567
 Alpha virt. eigenvalues --    1.83552   1.83847   1.84170   1.84648   1.86117
 Alpha virt. eigenvalues --    1.87213   1.89184   1.89589   1.90801   1.91584
 Alpha virt. eigenvalues --    1.92688   1.94097   1.94136   1.95393   1.95693
 Alpha virt. eigenvalues --    1.96768   1.98012   1.99302   2.01676   2.03273
 Alpha virt. eigenvalues --    2.04290   2.04441   2.05797   2.06340   2.07556
 Alpha virt. eigenvalues --    2.10647   2.11628   2.12757   2.15067   2.16796
 Alpha virt. eigenvalues --    2.17259   2.19109   2.20313   2.24078   2.24915
 Alpha virt. eigenvalues --    2.25223   2.26197   2.28212   2.28435   2.28884
 Alpha virt. eigenvalues --    2.29907   2.30609   2.32520   2.33495   2.34387
 Alpha virt. eigenvalues --    2.36324   2.37911   2.39979   2.44001   2.44777
 Alpha virt. eigenvalues --    2.45569   2.47135   2.47311   2.48867   2.49862
 Alpha virt. eigenvalues --    2.54103   2.56178   2.59172   2.59788   2.62092
 Alpha virt. eigenvalues --    2.64462   2.65888   2.66781   2.68178   2.72161
 Alpha virt. eigenvalues --    2.73481   2.74673   2.78247   2.82992   2.87791
 Alpha virt. eigenvalues --    2.89816   2.89890   2.94447   2.95575   2.97712
 Alpha virt. eigenvalues --    3.00041   3.02051   3.04934   3.15391   3.18734
 Alpha virt. eigenvalues --    3.23769   3.25399   3.97087   3.98919   4.01641
 Alpha virt. eigenvalues --    4.05427   4.06897   4.08031   4.13641   4.20730
 Alpha virt. eigenvalues --    4.23104   4.23836   4.27196   4.29538   4.31132
 Alpha virt. eigenvalues --    4.42827   4.45601   4.51011   4.55289   4.59094
 Alpha virt. eigenvalues --    4.64556   4.72291
          Condensed to atoms (all electrons):
              1          2          3          4          5          6
     1  H    0.505709   0.360428  -0.021594  -0.021643  -0.018257   0.005056
     2  C    0.360428   5.325580   0.351286   0.351561   0.357881  -0.079293
     3  H   -0.021594   0.351286   0.549097  -0.026631  -0.025039   0.001460
     4  H   -0.021643   0.351561  -0.026631   0.552426  -0.026652   0.001294
     5  C   -0.018257   0.357881  -0.025039  -0.026652   4.336158   0.593228
     6  O    0.005056  -0.079293   0.001460   0.001294   0.593228   8.084417
     7  N    0.004594  -0.135033   0.004200   0.004613   0.227608  -0.108015
     8  H   -0.000144  -0.001196   0.001154   0.000860  -0.016073   0.003094
     9  C   -0.000147   0.007416  -0.000277   0.000007  -0.021439   0.013535
    10  H    0.000002   0.000146  -0.000020  -0.000002  -0.001521   0.005035
    11  C    0.000014  -0.000755   0.000017   0.000031  -0.006161  -0.018588
    12  H    0.000000  -0.000005  -0.000001   0.000002   0.000831  -0.000161
    13  H    0.000000   0.000007   0.000000  -0.000001   0.000336   0.000330
    14  H    0.000000   0.000617  -0.000008  -0.000055   0.003092   0.023633
    15  C    0.000000  -0.000049  -0.000016  -0.000014   0.006627   0.000820
    16  O    0.000000  -0.000049   0.000000  -0.000001   0.000479  -0.000004
    17  N    0.000000   0.000000   0.000000   0.000000  -0.000075  -0.000003
    18  H    0.000000   0.000000   0.000000   0.000000   0.000003   0.000003
    19  C    0.000000   0.000000   0.000000   0.000000   0.000001   0.000000
    20  H    0.000000   0.000000   0.000000   0.000000   0.000000   0.000000
    21  C    0.000000   0.000000   0.000000   0.000000   0.000000   0.000000
    22  H    0.000000   0.000000   0.000000   0.000000   0.000000   0.000000
    23  H    0.000000   0.000000   0.000000   0.000000   0.000000   0.000000
    24  H    0.000000   0.000000   0.000000   0.000000   0.000000   0.000000
    25  C    0.000000   0.000000   0.000000   0.000000   0.000000   0.000000
    26  O    0.000000   0.000000   0.000000   0.000000   0.000000   0.000000
    27  N    0.000000   0.000000   0.000000   0.000000   0.000000   0.000000
    28  H    0.000000   0.000000   0.000000   0.000000   0.000000   0.000000
    29  C    0.000000   0.000000   0.000000   0.000000   0.000000   0.000000
    30  H    0.000000   0.000000   0.000000   0.000000   0.000000   0.000000
    31  C    0.000000   0.000000   0.000000   0.000000   0.000000   0.000000
    32  H    0.000000   0.000000   0.000000   0.000000   0.000000   0.000000
    33  H    0.000000   0.000000   0.000000   0.000000   0.000000   0.000000
    34  H    0.000000   0.000000   0.000000   0.000000   0.000000   0.000000
    35  C    0.000000   0.000000   0.000000   0.000000   0.000000   0.000000
    36  O    0.000000   0.000000   0.000000   0.000000   0.000000   0.000000
    37  N    0.000000   0.000000   0.000000   0.000000   0.000000   0.000000
    38  H    0.000000   0.000000   0.000000   0.000000   0.000000   0.000000
    39  C    0.000000   0.000000   0.000000   0.000000   0.000000   0.000000
    40  H    0.000000   0.000000   0.000000   0.000000   0.000000   0.000000
    41  H    0.000000   0.000000   0.000000   0.000000   0.000000   0.000000
    42  H    0.000000   0.000000   0.000000   0.000000   0.000000   0.000000
              7          8          9         10         11         12
     1  H    0.004594  -0.000144  -0.000147   0.000002   0.000014   0.000000
     2  C   -0.135033  -0.001196   0.007416   0.000146  -0.000755  -0.000005
     3  H    0.004200   0.001154  -0.000277  -0.000020   0.000017  -0.000001
     4  H    0.004613   0.000860   0.000007  -0.000002   0.000031   0.000002
     5  C    0.227608  -0.016073  -0.021439  -0.001521  -0.006161   0.000831
     6  O   -0.108015   0.003094   0.013535   0.005035  -0.018588  -0.000161
     7  N    7.195914   0.291788   0.247279  -0.048845  -0.055034   0.000174
     8  H    0.291788   0.387010  -0.051723   0.004100   0.004502   0.000622
     9  C    0.247279  -0.051723   5.107222   0.369750   0.345246  -0.037258
    10  H   -0.048845   0.004100   0.369750   0.582677  -0.051170   0.006120
    11  C   -0.055034   0.004502   0.345246  -0.051170   5.212212   0.368756
    12  H    0.000174   0.000622  -0.037258   0.006120   0.368756   0.552058
    13  H    0.005259  -0.000127  -0.036951  -0.000075   0.350397  -0.026844
    14  H   -0.010639  -0.000296  -0.021025  -0.005954   0.359526  -0.024936
    15  C   -0.024967   0.001076   0.299388  -0.033897  -0.046275  -0.002888
    16  O   -0.008865   0.029840  -0.083205   0.001164  -0.000895   0.000926
    17  N    0.003372   0.001296  -0.126318   0.000979   0.002911  -0.000482
    18  H    0.000049  -0.000046   0.001127   0.001171   0.000614  -0.000068
    19  C   -0.000063  -0.000013   0.005806  -0.000299   0.000323  -0.000098
    20  H   -0.000001   0.000000  -0.000191   0.000016   0.000000   0.000000
    21  C    0.000001   0.000000  -0.000209  -0.000006  -0.000004  -0.000002
    22  H    0.000000   0.000000  -0.000031   0.000001   0.000006  -0.000004
    23  H    0.000000   0.000000   0.000003   0.000000   0.000000   0.000000
    24  H    0.000000   0.000000   0.000012   0.000000  -0.000009   0.000000
    25  C    0.000005  -0.000021   0.000108   0.000005  -0.000112   0.000020
    26  O    0.000000   0.000003  -0.000049   0.000000   0.000000   0.000000
    27  N    0.000003   0.000023  -0.000323  -0.000004   0.000028   0.000063
    28  H    0.000002   0.000002  -0.000335   0.000005   0.000233   0.000449
    29  C    0.000000   0.000000   0.000013   0.000000  -0.000004  -0.000012
    30  H    0.000000  -0.000002   0.000010   0.000000  -0.000001  -0.000003
    31  C    0.000000   0.000000   0.000000   0.000000   0.000000   0.000000
    32  H    0.000000   0.000000   0.000000   0.000000   0.000000   0.000000
    33  H    0.000000   0.000000   0.000000   0.000000   0.000000   0.000000
    34  H    0.000000   0.000000   0.000000   0.000000   0.000000   0.000000
    35  C    0.000000   0.000000  -0.000003   0.000000  -0.000001   0.000030
    36  O    0.000000   0.000000   0.000001   0.000000  -0.000020   0.000142
    37  N    0.000000   0.000000   0.000000   0.000000   0.000000   0.000000
    38  H    0.000000   0.000000   0.000000   0.000000   0.000000   0.000000
    39  C    0.000000   0.000000   0.000000   0.000000   0.000000   0.000000
    40  H    0.000000   0.000000   0.000000   0.000000   0.000000   0.000000
    41  H    0.000000   0.000000   0.000000   0.000000   0.000000   0.000000
    42  H    0.000000   0.000000   0.000000   0.000000   0.000000   0.000000
             13         14         15         16         17         18
     1  H    0.000000   0.000000   0.000000   0.000000   0.000000   0.000000
     2  C    0.000007   0.000617  -0.000049  -0.000049   0.000000   0.000000
     3  H    0.000000  -0.000008  -0.000016   0.000000   0.000000   0.000000
     4  H   -0.000001  -0.000055  -0.000014  -0.000001   0.000000   0.000000
     5  C    0.000336   0.003092   0.006627   0.000479  -0.000075   0.000003
     6  O    0.000330   0.023633   0.000820  -0.000004  -0.000003   0.000003
     7  N    0.005259  -0.010639  -0.024967  -0.008865   0.003372   0.000049
     8  H   -0.000127  -0.000296   0.001076   0.029840   0.001296  -0.000046
     9  C   -0.036951  -0.021025   0.299388  -0.083205  -0.126318   0.001127
    10  H   -0.000075  -0.005954  -0.033897   0.001164   0.000979   0.001171
    11  C    0.350397   0.359526  -0.046275  -0.000895   0.002911   0.000614
    12  H   -0.026844  -0.024936  -0.002888   0.000926  -0.000482  -0.000068
    13  H    0.605840  -0.021174  -0.008333  -0.000032   0.003871   0.007416
    14  H   -0.021174   0.481516   0.004085  -0.000081   0.000165  -0.000192
    15  C   -0.008333   0.004085   4.400831   0.579014   0.260593  -0.023570
    16  O   -0.000032  -0.000081   0.579014   8.103450  -0.102284   0.003564
    17  N    0.003871   0.000165   0.260593  -0.102284   7.195710   0.293811
    18  H    0.007416  -0.000192  -0.023570   0.003564   0.293811   0.405661
    19  C    0.000153  -0.000003  -0.038003  -0.001566   0.218242  -0.026313
    20  H    0.000009   0.000000  -0.001018   0.000759  -0.047167   0.000256
    21  C    0.000006  -0.000001   0.004356   0.000618  -0.044748  -0.003648
    22  H    0.000089   0.000001   0.000006  -0.000005  -0.001208   0.000303
    23  H    0.000000   0.000000   0.000011   0.000004   0.004337  -0.000157
    24  H   -0.000027   0.000000  -0.000068  -0.000001  -0.005124   0.005267
    25  C   -0.000032   0.000000  -0.001445   0.020401  -0.040377   0.003705
    26  O    0.000000   0.000000  -0.001149  -0.007107   0.001764  -0.000109
    27  N   -0.000007   0.000000   0.004499  -0.012071   0.000324  -0.000448
    28  H    0.000085   0.000001   0.000114  -0.000713   0.005772  -0.000104
    29  C    0.000000   0.000000  -0.000038   0.000135  -0.000220   0.000014
    30  H    0.000000   0.000000  -0.000098   0.002123  -0.000036   0.000000
    31  C    0.000000   0.000000   0.000020   0.000028  -0.000005   0.000000
    32  H    0.000000   0.000000  -0.000001   0.000000   0.000000   0.000000
    33  H    0.000000   0.000000   0.000000   0.000001   0.000000   0.000000
    34  H    0.000000   0.000000   0.000002   0.000006  -0.000005   0.000000
    35  C    0.000000   0.000000  -0.000046  -0.000107   0.000002   0.000001
    36  O    0.000000   0.000000  -0.000009   0.000001  -0.000002   0.000000
    37  N    0.000000   0.000000   0.000000   0.000000   0.000000   0.000000
    38  H    0.000000   0.000000   0.000000   0.000000   0.000000   0.000000
    39  C    0.000000   0.000000   0.000000   0.000000   0.000000   0.000000
    40  H    0.000000   0.000000   0.000000   0.000000   0.000000   0.000000
    41  H    0.000000   0.000000   0.000000   0.000000   0.000000   0.000000
    42  H    0.000000   0.000000   0.000000   0.000000   0.000000   0.000000
             19         20         21         22         23         24
     1  H    0.000000   0.000000   0.000000   0.000000   0.000000   0.000000
     2  C    0.000000   0.000000   0.000000   0.000000   0.000000   0.000000
     3  H    0.000000   0.000000   0.000000   0.000000   0.000000   0.000000
     4  H    0.000000   0.000000   0.000000   0.000000   0.000000   0.000000
     5  C    0.000001   0.000000   0.000000   0.000000   0.000000   0.000000
     6  O    0.000000   0.000000   0.000000   0.000000   0.000000   0.000000
     7  N   -0.000063  -0.000001   0.000001   0.000000   0.000000   0.000000
     8  H   -0.000013   0.000000   0.000000   0.000000   0.000000   0.000000
     9  C    0.005806  -0.000191  -0.000209  -0.000031   0.000003   0.000012
    10  H   -0.000299   0.000016  -0.000006   0.000001   0.000000   0.000000
    11  C    0.000323   0.000000  -0.000004   0.000006   0.000000  -0.000009
    12  H   -0.000098   0.000000  -0.000002  -0.000004   0.000000   0.000000
    13  H    0.000153   0.000009   0.000006   0.000089   0.000000  -0.000027
    14  H   -0.000003   0.000000  -0.000001   0.000001   0.000000   0.000000
    15  C   -0.038003  -0.001018   0.004356   0.000006   0.000011  -0.000068
    16  O   -0.001566   0.000759   0.000618  -0.000005   0.000004  -0.000001
    17  N    0.218242  -0.047167  -0.044748  -0.001208   0.004337  -0.005124
    18  H   -0.026313   0.000256  -0.003648   0.000303  -0.000157   0.005267
    19  C    5.059440   0.373255   0.332340  -0.032854  -0.029980  -0.028312
    20  H    0.373255   0.563605  -0.043788   0.005474  -0.000039  -0.005412
    21  C    0.332340  -0.043788   5.174493   0.367898   0.373015   0.360193
    22  H   -0.032854   0.005474   0.367898   0.553483  -0.023400  -0.029032
    23  H   -0.029980  -0.000039   0.373015  -0.023400   0.521393  -0.025759
    24  H   -0.028312  -0.005412   0.360193  -0.029032  -0.025759   0.573088
    25  C    0.356574  -0.035117  -0.038905  -0.012417  -0.001858   0.005066
    26  O   -0.064389   0.006063   0.000127  -0.000017   0.000955  -0.000107
    27  N   -0.121059   0.006362   0.002398   0.005811   0.000130   0.000121
    28  H   -0.003606   0.000157  -0.000647   0.005912   0.000020  -0.000186
    29  C    0.006843  -0.000136   0.000256   0.000052  -0.000119  -0.000001
    30  H   -0.000042  -0.000007   0.000022   0.000007  -0.000002   0.000001
    31  C   -0.000588   0.000012  -0.000079  -0.000036   0.000084  -0.000001
    32  H   -0.000068   0.000000   0.000071   0.000045   0.000026   0.000002
    33  H    0.000006   0.000000   0.000001   0.000000   0.000000   0.000000
    34  H    0.000541   0.000000  -0.000078  -0.000001  -0.000009   0.000001
    35  C   -0.000026  -0.000001  -0.000048  -0.000039  -0.000003   0.000000
    36  O   -0.000059   0.000000  -0.000002  -0.000077   0.000001   0.000000
    37  N    0.000001   0.000000   0.000000  -0.000001   0.000000   0.000000
    38  H    0.000000   0.000000   0.000000   0.000000   0.000000   0.000000
    39  C    0.000000   0.000000   0.000000   0.000000   0.000000   0.000000
    40  H    0.000000   0.000000   0.000000   0.000000   0.000000   0.000000
    41  H    0.000000   0.000000   0.000000   0.000000   0.000000   0.000000
    42  H    0.000000   0.000000   0.000000   0.000000   0.000000   0.000000
             25         26         27         28         29         30
     1  H    0.000000   0.000000   0.000000   0.000000   0.000000   0.000000
     2  C    0.000000   0.000000   0.000000   0.000000   0.000000   0.000000
     3  H    0.000000   0.000000   0.000000   0.000000   0.000000   0.000000
     4  H    0.000000   0.000000   0.000000   0.000000   0.000000   0.000000
     5  C    0.000000   0.000000   0.000000   0.000000   0.000000   0.000000
     6  O    0.000000   0.000000   0.000000   0.000000   0.000000   0.000000
     7  N    0.000005   0.000000   0.000003   0.000002   0.000000   0.000000
     8  H   -0.000021   0.000003   0.000023   0.000002   0.000000  -0.000002
     9  C    0.000108  -0.000049  -0.000323  -0.000335   0.000013   0.000010
    10  H    0.000005   0.000000  -0.000004   0.000005   0.000000   0.000000
    11  C   -0.000112   0.000000   0.000028   0.000233  -0.000004  -0.000001
    12  H    0.000020   0.000000   0.000063   0.000449  -0.000012  -0.000003
    13  H   -0.000032   0.000000  -0.000007   0.000085   0.000000   0.000000
    14  H    0.000000   0.000000   0.000000   0.000001   0.000000   0.000000
    15  C   -0.001445  -0.001149   0.004499   0.000114  -0.000038  -0.000098
    16  O    0.020401  -0.007107  -0.012071  -0.000713   0.000135   0.002123
    17  N   -0.040377   0.001764   0.000324   0.005772  -0.000220  -0.000036
    18  H    0.003705  -0.000109  -0.000448  -0.000104   0.000014   0.000000
    19  C    0.356574  -0.064389  -0.121059  -0.003606   0.006843  -0.000042
    20  H   -0.035117   0.006063   0.006362   0.000157  -0.000136  -0.000007
    21  C   -0.038905   0.000127   0.002398  -0.000647   0.000256   0.000022
    22  H   -0.012417  -0.000017   0.005811   0.005912   0.000052   0.000007
    23  H   -0.001858   0.000955   0.000130   0.000020  -0.000119  -0.000002
    24  H    0.005066  -0.000107   0.000121  -0.000186  -0.000001   0.000001
    25  C    4.386751   0.556130   0.196720  -0.015911  -0.029985  -0.001220
    26  O    0.556130   8.138935  -0.109647   0.003411   0.013418   0.004495
    27  N    0.196720  -0.109647   7.227113   0.281082   0.263668  -0.047020
    28  H   -0.015911   0.003411   0.281082   0.392688  -0.052063   0.003714
    29  C   -0.029985   0.013418   0.263668  -0.052063   5.086358   0.367540
    30  H   -0.001220   0.004495  -0.047020   0.003714   0.367540   0.571078
    31  C   -0.005347  -0.018594  -0.056182   0.004587   0.347982  -0.049981
    32  H    0.000628  -0.000138   0.000710   0.000596  -0.037662   0.006153
    33  H    0.000455   0.000328   0.005257  -0.000130  -0.036934   0.000388
    34  H    0.003473   0.023533  -0.010350  -0.000284  -0.021246  -0.005993
    35  C    0.006651   0.000816  -0.025478   0.000557   0.304878  -0.033271
    36  O    0.000772  -0.000004  -0.009048   0.032817  -0.089577   0.001232
    37  N   -0.000074  -0.000002   0.003332   0.001278  -0.120612   0.000598
    38  H    0.000002   0.000003   0.000054  -0.000052   0.000782   0.001101
    39  C    0.000002   0.000000  -0.000069  -0.000011   0.005789  -0.000266
    40  H    0.000000   0.000000  -0.000001  -0.000033   0.001190  -0.000035
    41  H    0.000000   0.000000   0.000000   0.000000  -0.000190   0.000022
    42  H    0.000000   0.000000   0.000001   0.000000  -0.000033  -0.000006
             31         32         33         34         35         36
     1  H    0.000000   0.000000   0.000000   0.000000   0.000000   0.000000
     2  C    0.000000   0.000000   0.000000   0.000000   0.000000   0.000000
     3  H    0.000000   0.000000   0.000000   0.000000   0.000000   0.000000
     4  H    0.000000   0.000000   0.000000   0.000000   0.000000   0.000000
     5  C    0.000000   0.000000   0.000000   0.000000   0.000000   0.000000
     6  O    0.000000   0.000000   0.000000   0.000000   0.000000   0.000000
     7  N    0.000000   0.000000   0.000000   0.000000   0.000000   0.000000
     8  H    0.000000   0.000000   0.000000   0.000000   0.000000   0.000000
     9  C    0.000000   0.000000   0.000000   0.000000  -0.000003   0.000001
    10  H    0.000000   0.000000   0.000000   0.000000   0.000000   0.000000
    11  C    0.000000   0.000000   0.000000   0.000000  -0.000001  -0.000020
    12  H    0.000000   0.000000   0.000000   0.000000   0.000030   0.000142
    13  H    0.000000   0.000000   0.000000   0.000000   0.000000   0.000000
    14  H    0.000000   0.000000   0.000000   0.000000   0.000000   0.000000
    15  C    0.000020  -0.000001   0.000000   0.000002  -0.000046  -0.000009
    16  O    0.000028   0.000000   0.000001   0.000006  -0.000107   0.000001
    17  N   -0.000005   0.000000   0.000000  -0.000005   0.000002  -0.000002
    18  H    0.000000   0.000000   0.000000   0.000000   0.000001   0.000000
    19  C   -0.000588  -0.000068   0.000006   0.000541  -0.000026  -0.000059
    20  H    0.000012   0.000000   0.000000   0.000000  -0.000001   0.000000
    21  C   -0.000079   0.000071   0.000001  -0.000078  -0.000048  -0.000002
    22  H   -0.000036   0.000045   0.000000  -0.000001  -0.000039  -0.000077
    23  H    0.000084   0.000026   0.000000  -0.000009  -0.000003   0.000001
    24  H   -0.000001   0.000002   0.000000   0.000001   0.000000   0.000000
    25  C   -0.005347   0.000628   0.000455   0.003473   0.006651   0.000772
    26  O   -0.018594  -0.000138   0.000328   0.023533   0.000816  -0.000004
    27  N   -0.056182   0.000710   0.005257  -0.010350  -0.025478  -0.009048
    28  H    0.004587   0.000596  -0.000130  -0.000284   0.000557   0.032817
    29  C    0.347982  -0.037662  -0.036934  -0.021246   0.304878  -0.089577
    30  H   -0.049981   0.006153   0.000388  -0.005993  -0.033271   0.001232
    31  C    5.206016   0.366530   0.350194   0.360092  -0.045542  -0.000597
    32  H    0.366530   0.567945  -0.026820  -0.026265  -0.002765   0.000982
    33  H    0.350194  -0.026820   0.605905  -0.021399  -0.007774  -0.000020
    34  H    0.360092  -0.026265  -0.021399   0.483862   0.003851  -0.000091
    35  C   -0.045542  -0.002765  -0.007774   0.003851   4.369113   0.597291
    36  O   -0.000597   0.000982  -0.000020  -0.000091   0.597291   8.093315
    37  N    0.002474  -0.000426   0.003229   0.000215   0.271583  -0.101446
    38  H    0.000662  -0.000093   0.007022  -0.000198  -0.021162   0.003613
    39  C    0.000017  -0.000074   0.000076   0.000005  -0.024145  -0.009094
    40  H   -0.000071  -0.000007  -0.000006   0.000001  -0.001225   0.021230
    41  H   -0.000006   0.000001   0.000005   0.000000   0.001304   0.000565
    42  H    0.000016   0.000001   0.000001  -0.000002   0.001362   0.000574
             37         38         39         40         41         42
     1  H    0.000000   0.000000   0.000000   0.000000   0.000000   0.000000
     2  C    0.000000   0.000000   0.000000   0.000000   0.000000   0.000000
     3  H    0.000000   0.000000   0.000000   0.000000   0.000000   0.000000
     4  H    0.000000   0.000000   0.000000   0.000000   0.000000   0.000000
     5  C    0.000000   0.000000   0.000000   0.000000   0.000000   0.000000
     6  O    0.000000   0.000000   0.000000   0.000000   0.000000   0.000000
     7  N    0.000000   0.000000   0.000000   0.000000   0.000000   0.000000
     8  H    0.000000   0.000000   0.000000   0.000000   0.000000   0.000000
     9  C    0.000000   0.000000   0.000000   0.000000   0.000000   0.000000
    10  H    0.000000   0.000000   0.000000   0.000000   0.000000   0.000000
    11  C    0.000000   0.000000   0.000000   0.000000   0.000000   0.000000
    12  H    0.000000   0.000000   0.000000   0.000000   0.000000   0.000000
    13  H    0.000000   0.000000   0.000000   0.000000   0.000000   0.000000
    14  H    0.000000   0.000000   0.000000   0.000000   0.000000   0.000000
    15  C    0.000000   0.000000   0.000000   0.000000   0.000000   0.000000
    16  O    0.000000   0.000000   0.000000   0.000000   0.000000   0.000000
    17  N    0.000000   0.000000   0.000000   0.000000   0.000000   0.000000
    18  H    0.000000   0.000000   0.000000   0.000000   0.000000   0.000000
    19  C    0.000001   0.000000   0.000000   0.000000   0.000000   0.000000
    20  H    0.000000   0.000000   0.000000   0.000000   0.000000   0.000000
    21  C    0.000000   0.000000   0.000000   0.000000   0.000000   0.000000
    22  H   -0.000001   0.000000   0.000000   0.000000   0.000000   0.000000
    23  H    0.000000   0.000000   0.000000   0.000000   0.000000   0.000000
    24  H    0.000000   0.000000   0.000000   0.000000   0.000000   0.000000
    25  C   -0.000074   0.000002   0.000002   0.000000   0.000000   0.000000
    26  O   -0.000002   0.000003   0.000000   0.000000   0.000000   0.000000
    27  N    0.003332   0.000054  -0.000069  -0.000001   0.000000   0.000001
    28  H    0.001278  -0.000052  -0.000011  -0.000033   0.000000   0.000000
    29  C   -0.120612   0.000782   0.005789   0.001190  -0.000190  -0.000033
    30  H    0.000598   0.001101  -0.000266  -0.000035   0.000022  -0.000006
    31  C    0.002474   0.000662   0.000017  -0.000071  -0.000006   0.000016
    32  H   -0.000426  -0.000093  -0.000074  -0.000007   0.000001   0.000001
    33  H    0.003229   0.007022   0.000076  -0.000006   0.000005   0.000001
    34  H    0.000215  -0.000198   0.000005   0.000001   0.000000  -0.000002
    35  C    0.271583  -0.021162  -0.024145  -0.001225   0.001304   0.001362
    36  O   -0.101446   0.003613  -0.009094   0.021230   0.000565   0.000574
    37  N    7.084165   0.303239   0.266009  -0.036880  -0.043370  -0.044471
[...]
    29  C    0.000001   0.000000  -0.000317   0.000655  -0.000165   0.000014
    30  H    0.000000   0.000000  -0.000163   0.000908  -0.000065   0.000001
    31  C    0.000000   0.000000   0.000019   0.000018  -0.000010   0.000000
    32  H    0.000000   0.000000  -0.000001   0.000000   0.000000   0.000000
    33  H    0.000000   0.000000   0.000000   0.000000   0.000000   0.000000
    34  H    0.000000   0.000000   0.000000   0.000000  -0.000001   0.000000
    35  C   -0.000008  -0.000001   0.000392   0.000300  -0.000090   0.000001
    36  O    0.000004   0.000024   0.000334  -0.000133  -0.000038  -0.000002
    37  N    0.000000   0.000000  -0.000005   0.000001   0.000000   0.000000
    38  H    0.000000   0.000000   0.000000   0.000000   0.000000   0.000000
    39  C    0.000000   0.000000   0.000000   0.000000   0.000000   0.000000
    40  H    0.000000   0.000000   0.000000   0.000000   0.000000   0.000000
    41  H    0.000000   0.000000   0.000000   0.000000   0.000000   0.000000
    42  H    0.000000   0.000000   0.000000   0.000000   0.000000   0.000000
             19         20         21         22         23         24
     1  H    0.000000   0.000000   0.000000   0.000000   0.000000   0.000000
     2  C    0.000000   0.000000   0.000000   0.000000   0.000000   0.000000
     3  H    0.000000   0.000000   0.000000   0.000000   0.000000   0.000000
     4  H    0.000000   0.000000   0.000000   0.000000   0.000000   0.000000
     5  C    0.000001   0.000000   0.000000   0.000000   0.000000   0.000000
     6  O    0.000000   0.000000   0.000000   0.000000   0.000000   0.000000
     7  N   -0.000101   0.000003   0.000001   0.000000   0.000000   0.000000
     8  H   -0.000027   0.000001   0.000000   0.000000   0.000000   0.000000
     9  C    0.006050  -0.000131  -0.000242  -0.000013   0.000003  -0.000002
    10  H   -0.000045  -0.000002  -0.000015   0.000001   0.000000  -0.000001
    11  C   -0.000210  -0.000005   0.000010  -0.000003   0.000000   0.000000
    12  H    0.000004   0.000000  -0.000003  -0.000002   0.000000   0.000000
    13  H   -0.000043   0.000005  -0.000002   0.000084   0.000000  -0.000009
    14  H    0.000001   0.000000   0.000000   0.000000   0.000000   0.000000
    15  C   -0.029262  -0.002028   0.004424  -0.000110  -0.000032  -0.000030
    16  O    0.002295   0.000854   0.000364  -0.000006   0.000003  -0.000001
    17  N    0.197402  -0.044228  -0.040187  -0.001226   0.004003  -0.004781
    18  H   -0.027609   0.001285  -0.003333   0.000893  -0.000106   0.004678
    19  C    5.067890   0.365638   0.341323  -0.030348  -0.029329  -0.027691
    20  H    0.365638   0.566151  -0.039558   0.005011  -0.000192  -0.005635
    21  C    0.341323  -0.039558   5.149527   0.368539   0.372792   0.364090
    22  H   -0.030348   0.005011   0.368539   0.550187  -0.023846  -0.031527
    23  H   -0.029329  -0.000192   0.372792  -0.023846   0.522268  -0.027016
    24  H   -0.027691  -0.005635   0.364090  -0.031527  -0.027016   0.569967
    25  C    0.348374  -0.040856  -0.032445  -0.009486  -0.001221   0.004146
    26  O   -0.064640   0.007951  -0.000632  -0.000030   0.001148  -0.000088
    27  N   -0.116259   0.006601   0.001228   0.005403   0.000135   0.000025
    28  H   -0.004369   0.000250  -0.000610   0.002310   0.000037  -0.000095
    29  C    0.006139  -0.000166   0.000040  -0.000041  -0.000064   0.000002
    30  H    0.000767  -0.000022   0.000009   0.000003  -0.000004   0.000001
    31  C   -0.000324   0.000004   0.000006  -0.000005   0.000016  -0.000001
    32  H    0.000000   0.000000   0.000003   0.000013   0.000000   0.000000
    33  H    0.000004   0.000000   0.000000   0.000000   0.000000   0.000000
    34  H    0.000066  -0.000001  -0.000017   0.000002  -0.000001   0.000000
    35  C    0.000024  -0.000002  -0.000016  -0.000021   0.000000   0.000000
    36  O   -0.000064   0.000000   0.000007  -0.000026   0.000000   0.000000
    37  N    0.000001   0.000000   0.000000   0.000000   0.000000   0.000000
    38  H    0.000000   0.000000   0.000000   0.000000   0.000000   0.000000
    39  C    0.000000   0.000000   0.000000   0.000000   0.000000   0.000000
    40  H    0.000000   0.000000   0.000000   0.000000   0.000000   0.000000
    41  H    0.000000   0.000000   0.000000   0.000000   0.000000   0.000000
    42  H    0.000000   0.000000   0.000000   0.000000   0.000000   0.000000
             25         26         27         28         29         30
     1  H    0.000000   0.000000   0.000000   0.000000   0.000000   0.000000
     2  C    0.000000   0.000000   0.000000   0.000000   0.000000   0.000000
     3  H    0.000000   0.000000   0.000000   0.000000   0.000000   0.000000
     4  H    0.000000   0.000000   0.000000   0.000000   0.000000   0.000000
     5  C    0.000000   0.000000   0.000000   0.000000   0.000000   0.000000
     6  O    0.000000   0.000000   0.000000   0.000000   0.000000   0.000000
     7  N    0.000005   0.000000   0.000002   0.000010   0.000000   0.000000
     8  H   -0.000015   0.000001   0.000008   0.000004  -0.000002  -0.000001
     9  C    0.000020  -0.000016  -0.000197  -0.000685   0.000048   0.000005
    10  H    0.000002   0.000000  -0.000003   0.000007   0.000000   0.000000
    11  C   -0.000024   0.000000   0.000011   0.000656  -0.000029   0.000002
    12  H   -0.000006   0.000000  -0.000046   0.000402   0.000028  -0.000010
    13  H   -0.000016   0.000000  -0.000024   0.000314   0.000001   0.000000
    14  H    0.000000   0.000000   0.000000   0.000005   0.000000   0.000000
    15  C    0.001206  -0.000571   0.004279   0.001359  -0.000317  -0.000163
    16  O    0.015803  -0.002668  -0.005362  -0.000950   0.000655   0.000908
    17  N   -0.038097   0.002179   0.000691   0.008346  -0.000165  -0.000065
    18  H    0.002679  -0.000085  -0.000326  -0.000045   0.000014   0.000001
    19  C    0.348374  -0.064640  -0.116259  -0.004369   0.006139   0.000767
    20  H   -0.040856   0.007951   0.006601   0.000250  -0.000166  -0.000022
    21  C   -0.032445  -0.000632   0.001228  -0.000610   0.000040   0.000009
    22  H   -0.009486  -0.000030   0.005403   0.002310  -0.000041   0.000003
    23  H   -0.001221   0.001148   0.000135   0.000037  -0.000064  -0.000004
    24  H    0.004146  -0.000088   0.000025  -0.000095   0.000002   0.000001
    25  C    4.370427   0.568952   0.227043  -0.015872  -0.021550  -0.000038
    26  O    0.568952   8.088258  -0.102390   0.002846   0.006406   0.012783
    27  N    0.227043  -0.102390   7.188962   0.275055   0.275617  -0.051977
    28  H   -0.015872   0.002846   0.275055   0.389927  -0.056301   0.004437
    29  C   -0.021550   0.006406   0.275617  -0.056301   5.075992   0.370177
    30  H   -0.000038   0.012783  -0.051977   0.004437   0.370177   0.554071
    31  C   -0.003669  -0.003924  -0.054216   0.003709   0.344434  -0.048423
    32  H    0.000308  -0.000018  -0.000026   0.000728  -0.033083   0.005171
    33  H    0.000055   0.000003   0.004634  -0.000136  -0.030118   0.000466
    34  H    0.002624   0.005764  -0.007064  -0.000183  -0.023307  -0.004315
    35  C    0.005217   0.000664  -0.034542  -0.003473   0.313252  -0.030696
    36  O    0.000676  -0.000006  -0.017735   0.042180  -0.079378   0.001477
    37  N   -0.000008  -0.000001   0.002805   0.001794  -0.111803   0.000383
    38  H   -0.000005   0.000001   0.000084  -0.000074   0.001623   0.001543
    39  C    0.000001   0.000000  -0.000095  -0.000020   0.005499  -0.000125
    40  H    0.000000   0.000000   0.000008  -0.000049   0.001056  -0.000029
    41  H    0.000000   0.000000   0.000002   0.000000  -0.000163   0.000012
    42  H    0.000000   0.000000   0.000001   0.000000  -0.000077  -0.000007
             31         32         33         34         35         36
     1  H    0.000000   0.000000   0.000000   0.000000   0.000000   0.000000
     2  C    0.000000   0.000000   0.000000   0.000000   0.000000   0.000000
     3  H    0.000000   0.000000   0.000000   0.000000   0.000000   0.000000
     4  H    0.000000   0.000000   0.000000   0.000000   0.000000   0.000000
     5  C    0.000000   0.000000   0.000000   0.000000   0.000000   0.000000
     6  O    0.000000   0.000000   0.000000   0.000000   0.000000   0.000000
     7  N    0.000000   0.000000   0.000000   0.000000   0.000000  -0.000001
     8  H    0.000000   0.000000   0.000000   0.000000   0.000004   0.000000
     9  C    0.000000   0.000000   0.000000   0.000000  -0.000024  -0.000079
    10  H    0.000000   0.000000   0.000000   0.000000   0.000000  -0.000001
    11  C    0.000000   0.000000   0.000000   0.000000   0.000053  -0.001925
    12  H    0.000001   0.000000   0.000000   0.000000   0.000357   0.008720
    13  H    0.000000   0.000000   0.000000   0.000000  -0.000008   0.000004
    14  H    0.000000   0.000000   0.000000   0.000000  -0.000001   0.000024
    15  C    0.000019  -0.000001   0.000000   0.000000   0.000392   0.000334
    16  O    0.000018   0.000000   0.000000   0.000000   0.000300  -0.000133
    17  N   -0.000010   0.000000   0.000000  -0.000001  -0.000090  -0.000038
    18  H    0.000000   0.000000   0.000000   0.000000   0.000001  -0.000002
    19  C   -0.000324   0.000000   0.000004   0.000066   0.000024  -0.000064
    20  H    0.000004   0.000000   0.000000  -0.000001  -0.000002   0.000000
    21  C    0.000006   0.000003   0.000000  -0.000017  -0.000016   0.000007
    22  H   -0.000005   0.000013   0.000000   0.000002  -0.000021  -0.000026
    23  H    0.000016   0.000000   0.000000  -0.000001   0.000000   0.000000
    24  H   -0.000001   0.000000   0.000000   0.000000   0.000000   0.000000
    25  C   -0.003669   0.000308   0.000055   0.002624   0.005217   0.000676
    26  O   -0.003924  -0.000018   0.000003   0.005764   0.000664  -0.000006
    27  N   -0.054216  -0.000026   0.004634  -0.007064  -0.034542  -0.017735
    28  H    0.003709   0.000728  -0.000136  -0.000183  -0.003473   0.042180
    29  C    0.344434  -0.033083  -0.030118  -0.023307   0.313252  -0.079378
    30  H   -0.048423   0.005171   0.000466  -0.004315  -0.030696   0.001477
    31  C    5.144162   0.370059   0.353744   0.369381  -0.037664  -0.000950
    32  H    0.370059   0.557214  -0.027966  -0.027563  -0.003515   0.001022
    33  H    0.353744  -0.027966   0.591098  -0.026121  -0.003919  -0.000005
    34  H    0.369381  -0.027563  -0.026121   0.522713   0.003696  -0.000082
    35  C   -0.037664  -0.003515  -0.003919   0.003696   4.374636   0.559886
    36  O   -0.000950   0.001022  -0.000005  -0.000082   0.559886   8.097363
    37  N    0.001885  -0.000023   0.003064   0.000061   0.289328  -0.091960
    38  H    0.000595  -0.000037   0.002949  -0.000108  -0.022940   0.003274
    39  C   -0.000187  -0.000017  -0.000018   0.000005  -0.022749  -0.007385
    40  H   -0.000046  -0.000006  -0.000002   0.000001  -0.001653   0.019656
    41  H   -0.000004   0.000000   0.000004   0.000000   0.000342   0.000454
    42  H    0.000022  -0.000002  -0.000011  -0.000001   0.001844   0.000432
             37         38         39         40         41         42
     1  H    0.000000   0.000000   0.000000   0.000000   0.000000   0.000000
     2  C    0.000000   0.000000   0.000000   0.000000   0.000000   0.000000
     3  H    0.000000   0.000000   0.000000   0.000000   0.000000   0.000000
     4  H    0.000000   0.000000   0.000000   0.000000   0.000000   0.000000
     5  C    0.000000   0.000000   0.000000   0.000000   0.000000   0.000000
     6  O    0.000000   0.000000   0.000000   0.000000   0.000000   0.000000
     7  N    0.000000   0.000000   0.000000   0.000000   0.000000   0.000000
     8  H    0.000000   0.000000   0.000000   0.000000   0.000000   0.000000
     9  C    0.000000   0.000000   0.000000   0.000000   0.000000   0.000000
    10  H    0.000000   0.000000   0.000000   0.000000   0.000000   0.000000
    11  C    0.000004   0.000000  -0.000002  -0.000003   0.000000   0.000000
    12  H   -0.000042  -0.000001   0.000012   0.000040   0.000004   0.000000
    13  H    0.000000   0.000000   0.000000   0.000000   0.000000   0.000000
    14  H    0.000000   0.000000   0.000000   0.000000   0.000000   0.000000
    15  C   -0.000005   0.000000   0.000000   0.000000   0.000000   0.000000
    16  O    0.000001   0.000000   0.000000   0.000000   0.000000   0.000000
    17  N    0.000000   0.000000   0.000000   0.000000   0.000000   0.000000
    18  H    0.000000   0.000000   0.000000   0.000000   0.000000   0.000000
    19  C    0.000001   0.000000   0.000000   0.000000   0.000000   0.000000
    20  H    0.000000   0.000000   0.000000   0.000000   0.000000   0.000000
    21  C    0.000000   0.000000   0.000000   0.000000   0.000000   0.000000
    22  H    0.000000   0.000000   0.000000   0.000000   0.000000   0.000000
    23  H    0.000000   0.000000   0.000000   0.000000   0.000000   0.000000
    24  H    0.000000   0.000000   0.000000   0.000000   0.000000   0.000000
    25  C   -0.000008  -0.000005   0.000001   0.000000   0.000000   0.000000
    26  O   -0.000001   0.000001   0.000000   0.000000   0.000000   0.000000
    27  N    0.002805   0.000084  -0.000095   0.000008   0.000002   0.000001
    28  H    0.001794  -0.000074  -0.000020  -0.000049   0.000000   0.000000
    29  C   -0.111803   0.001623   0.005499   0.001056  -0.000163  -0.000077
    30  H    0.000383   0.001543  -0.000125  -0.000029   0.000012  -0.000007
    31  C    0.001885   0.000595  -0.000187  -0.000046  -0.000004   0.000022
    32  H   -0.000023  -0.000037  -0.000017  -0.000006   0.000000  -0.000002
    33  H    0.003064   0.002949  -0.000018  -0.000002   0.000004  -0.000011
    34  H    0.000061  -0.000108   0.000005   0.000001   0.000000  -0.000001
    35  C    0.289328  -0.022940  -0.022749  -0.001653   0.000342   0.001844
    36  O   -0.091960   0.003274  -0.007385   0.019656   0.000454   0.000432
    37  N    7.041268   0.306909   0.265826  -0.038880  -0.041254  -0.040343
    38  H    0.306909   0.402138  -0.031608   0.003999  -0.000979  -0.000817
    39  C    0.265826  -0.031608   4.962357   0.378084   0.383178   0.380286
    40  H   -0.038880   0.003999   0.378084   0.480122  -0.025169  -0.023633
    41  H   -0.041254  -0.000979   0.383178  -0.025169   0.557971  -0.039430
    42  H   -0.040343  -0.000817   0.380286  -0.023633  -0.039430   0.559564
 Mulliken atomic charges:
              1
     1  H    0.182099
     2  C   -0.532980
     3  H    0.147132
     4  H    0.181120
     5  C    0.596794
     6  O   -0.524882
     7  N   -0.604047
     8  H    0.346102
     9  C   -0.034986
    10  H    0.169510
    11  C   -0.457506
    12  H    0.183446
    13  H    0.129119
    14  H    0.186801
    15  C    0.616279
    16  O   -0.525924
    17  N   -0.633491
    18  H    0.331866
    19  C   -0.005656
    20  H    0.179072
    21  C   -0.485302
    22  H    0.164244
    23  H    0.181406
    24  H    0.153967
    25  C    0.615771
    26  O   -0.521886
    27  N   -0.602331
    28  H    0.348484
    29  C   -0.044419
    30  H    0.183664
    31  C   -0.438629
    32  H    0.157737
    33  H    0.132277
    34  H    0.184452
    35  C    0.611317
    36  O   -0.535737
    37  N   -0.589006
    38  H    0.333454
    39  C   -0.313042
    40  H    0.206507
    41  H    0.165033
    42  H    0.162172
 Sum of Mulliken atomic charges =   0.00000
 Mulliken charges with hydrogens summed into heavy atoms:
              1
     2  C   -0.022628
     5  C    0.596794
     6  O   -0.524882
     7  N   -0.257946
     9  C    0.134524
    11  C    0.041860
    15  C    0.616279
    16  O   -0.525924
    17  N   -0.301625
    19  C    0.173416
    21  C    0.014315
    25  C    0.615771
    26  O   -0.521886
    27  N   -0.253846
    29  C    0.139245
    31  C    0.035836
    35  C    0.611317
    36  O   -0.535737
    37  N   -0.255552
    39  C    0.220670
 Sum of Mulliken charges with hydrogens summed into heavy atoms =   0.00000
 Electronic spatial extent (au):  <R**2>=           7106.9690
 Charge=              0.0000 electrons
 Dipole moment (field-independent basis, Debye):
    X=             -3.5057    Y=              1.9243    Z=              0.7049  Tot=              4.0607
 Quadrupole moment (field-independent basis, Debye-Ang):
   XX=           -130.1585   YY=            -98.2380   ZZ=           -124.7536
   XY=            -10.0833   XZ=             -9.3399   YZ=            -15.6857
 Traceless Quadrupole moment (field-independent basis, Debye-Ang):
   XX=            -12.4418   YY=             19.4787   ZZ=             -7.0369
   XY=            -10.0833   XZ=             -9.3399   YZ=            -15.6857
 Octapole moment (field-independent basis, Debye-Ang**2):
  XXX=           -140.5630  YYY=             28.8314  ZZZ=              5.9999  XYY=            -15.3915
  XXY=             50.5067  XXZ=            -57.3501  XZZ=             15.6893  YZZ=             10.9144
  YYZ=             10.0765  XYZ=             14.4498
 Hexadecapole moment (field-independent basis, Debye-Ang**3):
 XXXX=          -6206.5883 YYYY=          -2474.9510 ZZZZ=           -789.2593 XXXY=            -43.2150
 XXXZ=           -264.2002 YYYX=           -123.9684 YYYZ=            -38.1966 ZZZX=             -6.8877
 ZZZY=            -30.4556 XXYY=          -1274.6628 XXZZ=          -1076.2192 YYZZ=           -598.0492
 XXYZ=            -87.0748 YYXZ=              3.8091 ZZXY=            -37.4313
 N-N= 1.678163964007D+03 E-N=-5.665849054283D+03  KE= 9.813276832267D+02
 1\1\GINC-NODE006\FOpt\RB3LYP\6-31G(d)\C12H22N4O4\MANAGER\30-Dec-2016\0
 \\# b3lyp/6-31G* Opt=(ModRedundant, maxcycles=1000, calcfc) geom=nocro
 wd\\Phi Psi fixed scan\\0,1\H,8.7932518081,1.5689000672,-2.6464596393\
 C,9.2002091133,2.0833288495,-1.7704174533\H,9.9097847203,2.8474865872,
 -2.1022147415\H,9.7338962691,1.3369480386,-1.1736144202\C,8.0461533393
 ,2.6372958213,-0.9473345331\O,7.1520599909,1.9174868867,-0.5106049298\
 N,8.077887529,3.9805116967,-0.7227114454\H,8.7694565439,4.5844480094,-
 1.1512686652\C,7.0136710601,4.6662371002,-0.0174156188\H,6.0585548636,
 4.2218062133,-0.3253295195\C,7.1485459127,4.5314248284,1.5136109318\H,
 8.0568302583,5.0276347113,1.869843248\H,6.2896848719,4.9776000369,2.02
 88412756\H,7.1857947811,3.4694086817,1.7684448515\C,7.073996804,6.1411
 077448,-0.4459569821\O,8.0669246685,6.6126819848,-0.99372506\N,5.96868
 55503,6.8765357119,-0.1422725983\H,5.1947336785,6.4003069241,0.3025483
 547\C,5.8452995395,8.3301424639,-0.3102172654\H,5.5431295557,8.5498550
 531,-1.3406626932\C,4.7855317499,8.8731774345,0.6535627616\H,5.0658188
 273,8.6991876946,1.6975223277\H,4.6670172295,9.9503072184,0.5048397836
 \H,3.8133903381,8.4000675101,0.4678739741\C,7.1924524871,9.0699915914,
 -0.1547561875\O,7.5894160347,9.8460682256,-1.0117245486\N,7.7994340467
 ,8.9116974907,1.0589039544\H,7.5508628176,8.1115667476,1.6351344536\C,
 9.1795046995,9.3269683861,1.2427163192\H,9.6684965594,9.3232123751,0.2
 599739833\C,9.2718906354,10.745048811,1.8338535111\H,8.7944859499,10.7
 848503255,2.8184262528\H,10.3118851044,11.0751313813,1.9387239768\H,8.
 7576535919,11.4387507456,1.163397865\C,9.8481441434,8.2728029194,2.144
 9475621\O,9.1887944956,7.4085935241,2.7226614189\N,11.1959214534,8.385
 9701729,2.2640502715\H,11.6672852602,9.0918739775,1.7163548839\C,11.99
 96282547,7.4822078244,3.0704855578\H,11.3151715388,6.8216114214,3.6033
 544324\H,12.6653192699,6.8767411404,2.4441719026\H,12.6031446547,8.039
 2256714,3.7956424469\\Version=EM64L-G09RevA.02\State=1-A\HF=-990.50110
 71\RMSD=5.274e-09\RMSF=1.306e-03\Dipole=0.7883985,0.9823125,0.9827841\
 Quadrupole=20.1763849,-15.6063499,-4.570035,-2.6349645,1.9626346,7.429
 1792\PG=C01 [X(C12H22N4O4)]\\@


 Sacred cows make the best hamburger.
                               -- Mark Twain
 Job cpu time:  0 days  3 hours 46 minutes  5.8 seconds.
 File lengths (MBytes):  RWF=    608 Int=      0 D2E=      0 Chk=     11 Scr=      1
 Normal termination of Gaussian 09 at Fri Dec 30 03:56:43 2016.
