 Entering Gaussian System, Link 0=g09
 Initial command:
 /home/steboss/Software/g09/l1.exe /tmp/Gau-851.inp -scrdir=/tmp/
 Entering Link 1 = /home/steboss/Software/g09/l1.exe PID=       853.
  
 Copyright (c) 1988,1990,1992,1993,1995,1998,2003,2009, Gaussian, Inc.
                  All Rights Reserved.
  
 This is part of the Gaussian(R) 09 program.  It is based on
 the Gaussian(R) 03 system (copyright 2003, Gaussian, Inc.),
 the Gaussian(R) 98 system (copyright 1998, Gaussian, Inc.),
 the Gaussian(R) 94 system (copyright 1995, Gaussian, Inc.),
 the Gaussian 92(TM) system (copyright 1992, Gaussian, Inc.),
 the Gaussian 90(TM) system (copyright 1990, Gaussian, Inc.),
 the Gaussian 88(TM) system (copyright 1988, Gaussian, Inc.),
 the Gaussian 86(TM) system (copyright 1986, Carnegie Mellon
 University), and the Gaussian 82(TM) system (copyright 1983,
 Carnegie Mellon University). Gaussian is a federally registered
 trademark of Gaussian, Inc.
  
 This software contains proprietary and confidential information,
 including trade secrets, belonging to Gaussian, Inc.
  
 This software is provided under written license and may be
 used, copied, transmitted, or stored only in accord with that
 written license.
  
 The following legend is applicable only to US Government
 contracts under FAR:
  
                    RESTRICTED RIGHTS LEGEND
  
 Use, reproduction and disclosure by the US Government is
 subject to restrictions as set forth in subparagraphs (a)
 and (c) of the Commercial Computer Software - Restricted
 Rights clause in FAR 52.227-19.
  
 Gaussian, Inc.
 340 Quinnipiac St., Bldg. 40, Wallingford CT 06492
  
  
 ---------------------------------------------------------------
 Warning -- This program may not be used in any manner that
 competes with the business of Gaussian, Inc. or will provide
 assistance to any competitor of Gaussian, Inc.  The licensee
 of this program is prohibited from giving any competitor of
 Gaussian, Inc. access to this program.  By using this program,
 the user acknowledges that Gaussian, Inc. is engaged in the
 business of creating and licensing software in the field of
 computational chemistry and represents and warrants to the
 licensee that it is not a competitor of Gaussian, Inc. and that
 it will not use this program in any manner prohibited above.
 ---------------------------------------------------------------
  

 Cite this work as:
 Gaussian 09, Revision A.02,
 M. J. Frisch, G. W. Trucks, H. B. Schlegel, G. E. Scuseria, 
 M. A. Robb, J. R. Cheeseman, G. Scalmani, V. Barone, B. Mennucci, 
 G. A. Petersson, H. Nakatsuji, M. Caricato, X. Li, H. P. Hratchian, 
 A. F. Izmaylov, J. Bloino, G. Zheng, J. L. Sonnenberg, M. Hada, 
 M. Ehara, K. Toyota, R. Fukuda, J. Hasegawa, M. Ishida, T. Nakajima, 
 Y. Honda, O. Kitao, H. Nakai, T. Vreven, J. A. Montgomery, Jr., 
 J. E. Peralta, F. Ogliaro, M. Bearpark, J. J. Heyd, E. Brothers, 
 K. N. Kudin, V. N. Staroverov, R. Kobayashi, J. Normand, 
 K. Raghavachari, A. Rendell, J. C. Burant, S. S. Iyengar, J. Tomasi, 
 M. Cossi, N. Rega, J. M. Millam, M. Klene, J. E. Knox, J. B. Cross, 
 V. Bakken, C. Adamo, J. Jaramillo, R. Gomperts, R. E. Stratmann, 
 O. Yazyev, A. J. Austin, R. Cammi, C. Pomelli, J. W. Ochterski, 
 R. L. Martin, K. Morokuma, V. G. Zakrzewski, G. A. Voth, 
 P. Salvador, J. J. Dannenberg, S. Dapprich, A. D. Daniels, 
 O. Farkas, J. B. Foresman, J. V. Ortiz, J. Cioslowski, 
 and D. J. Fox, Gaussian, Inc., Wallingford CT, 2009.
 
 ******************************************
 Gaussian 09:  EM64L-G09RevA.02 11-Jun-2009
                10-Feb-2017 
 ******************************************
 %chk=structure_315.chk
 %NProcShared=8
 Will use up to    8 processors via shared memory.
 -------------------------------------------
 # HF/6-31G* Opt=(ModRedundant) geom=nocrowd
 -------------------------------------------
 1/18=120,19=15,38=1/1,3;
 2/9=110,12=1,17=6,18=5,40=1/2;
 3/5=1,6=6,7=1,11=9,16=1,25=1,30=1,71=1/1,2,3;
 4//1;
 5/5=2,38=5/2;
 6/7=2,8=2,9=2,10=2,28=1/1;
 7//1,2,3,16;
 1/18=20,19=15/3(2);
 2/9=110,12=1/2;
 99//99;
 2/9=110,12=1/2;
 3/5=1,6=6,7=1,11=9,16=1,25=1,30=1,71=1/1,2,3;
 4/5=5,16=3/1;
 5/5=2,38=5/2;
 7//1,2,3,16;
 1/18=20,19=15/3(-5);
 2/9=110,12=1/2;
 6/7=2,8=2,9=2,10=2,19=2,28=1/1;
 99/9=1/99;
 ------------------
 Phi Psi fixed scan
 ------------------
 Symbolic Z-matrix:
 Charge =  0 Multiplicity = 1
 H                     0.3668    4.29      0.9842 
 C                     1.1769    3.7481    0.496 
 H                     0.9253    3.584    -0.5518 
 H                     1.3209    2.787     0.9895 
 C                     2.4871    4.5351    0.5667 
 O                     2.5276    5.6304    1.1227 
 N                     3.5554    3.9697    0. 
 H                     3.4723    3.067    -0.4455 
 C                     4.8533    4.6139    0. 
 H                     5.4076    4.3155    0.8898 
 C                     5.6613    4.2208   -1.2322 
 H                     5.1233    4.5214   -2.1312 
 H                     6.6305    4.7189   -1.2058 
 H                     5.8085    3.1409   -1.2414 
 C                     4.7127    6.1294    0. 
 O                     5.4006    6.8197    0.7488 
 N                     3.817     6.6467   -0.8441 
 H                     3.2747    6.038    -1.4403 
 C                     3.5895    8.0746   -0.9387 
 H                     4.2439    8.5944   -0.239 
 H                     3.8031    8.4106   -1.9534 
 H                     2.5501    8.2943   -0.695 
 
 The following ModRedundant input section has been read:
 D    5    7    9   15 F                                                       
 D    7    9   15   17 F                                                       

 GradGradGradGradGradGradGradGradGradGradGradGradGradGradGradGradGradGrad
 Berny optimization.
 Initialization pass.
                           ----------------------------
                           !    Initial Parameters    !
                           ! (Angstroms and Degrees)  !
 --------------------------                            --------------------------
 ! Name  Definition              Value          Derivative Info.                !
 --------------------------------------------------------------------------------
 ! R1    R(1,2)                  1.0901         estimate D2E/DX2                !
 ! R2    R(2,3)                  1.09           estimate D2E/DX2                !
 ! R3    R(2,4)                  1.09           estimate D2E/DX2                !
 ! R4    R(2,5)                  1.53           estimate D2E/DX2                !
 ! R5    R(5,6)                  1.229          estimate D2E/DX2                !
 ! R6    R(5,7)                  1.3349         estimate D2E/DX2                !
 ! R7    R(7,8)                  1.0101         estimate D2E/DX2                !
 ! R8    R(7,9)                  1.449          estimate D2E/DX2                !
 ! R9    R(9,10)                 1.09           estimate D2E/DX2                !
 ! R10   R(9,11)                 1.525          estimate D2E/DX2                !
 ! R11   R(9,15)                 1.522          estimate D2E/DX2                !
 ! R12   R(11,12)                1.09           estimate D2E/DX2                !
 ! R13   R(11,13)                1.09           estimate D2E/DX2                !
 ! R14   R(11,14)                1.0899         estimate D2E/DX2                !
 ! R15   R(15,16)                1.229          estimate D2E/DX2                !
 ! R16   R(15,17)                1.3351         estimate D2E/DX2                !
 ! R17   R(17,18)                1.01           estimate D2E/DX2                !
 ! R18   R(17,19)                1.449          estimate D2E/DX2                !
 ! R19   R(19,20)                1.09           estimate D2E/DX2                !
 ! R20   R(19,21)                1.09           estimate D2E/DX2                !
 ! R21   R(19,22)                1.09           estimate D2E/DX2                !
 ! A1    A(1,2,3)              109.5008         estimate D2E/DX2                !
 ! A2    A(1,2,4)              109.4971         estimate D2E/DX2                !
 ! A3    A(1,2,5)              111.0994         estimate D2E/DX2                !
 ! A4    A(3,2,4)              109.45           estimate D2E/DX2                !
 ! A5    A(3,2,5)              108.6337         estimate D2E/DX2                !
 ! A6    A(4,2,5)              108.6331         estimate D2E/DX2                !
 ! A7    A(2,5,6)              120.4996         estimate D2E/DX2                !
 ! A8    A(2,5,7)              116.6031         estimate D2E/DX2                !
 ! A9    A(6,5,7)              122.8973         estimate D2E/DX2                !
 ! A10   A(5,7,8)              119.9941         estimate D2E/DX2                !
 ! A11   A(5,7,9)              121.9053         estimate D2E/DX2                !
 ! A12   A(8,7,9)              118.1007         estimate D2E/DX2                !
 ! A13   A(7,9,10)             109.5            estimate D2E/DX2                !
 ! A14   A(7,9,11)             111.0992         estimate D2E/DX2                !
 ! A15   A(7,9,15)             111.0966         estimate D2E/DX2                !
 ! A16   A(10,9,11)            108.6382         estimate D2E/DX2                !
 ! A17   A(10,9,15)            108.6373         estimate D2E/DX2                !
 ! A18   A(11,9,15)            107.7947         estimate D2E/DX2                !
 ! A19   A(9,11,12)            109.5007         estimate D2E/DX2                !
 ! A20   A(9,11,13)            109.4959         estimate D2E/DX2                !
 ! A21   A(9,11,14)            109.4978         estimate D2E/DX2                !
 ! A22   A(12,11,13)           109.441          estimate D2E/DX2                !
 ! A23   A(12,11,14)           109.4482         estimate D2E/DX2                !
 ! A24   A(13,11,14)           109.4436         estimate D2E/DX2                !
 ! A25   A(9,15,16)            120.5022         estimate D2E/DX2                !
 ! A26   A(9,15,17)            116.6022         estimate D2E/DX2                !
 ! A27   A(16,15,17)           122.8956         estimate D2E/DX2                !
 ! A28   A(15,17,18)           119.996          estimate D2E/DX2                !
 ! A29   A(15,17,19)           121.9004         estimate D2E/DX2                !
 ! A30   A(18,17,19)           118.1036         estimate D2E/DX2                !
 ! A31   A(17,19,20)           109.4983         estimate D2E/DX2                !
 ! A32   A(17,19,21)           109.4979         estimate D2E/DX2                !
 ! A33   A(17,19,22)           109.497          estimate D2E/DX2                !
 ! A34   A(20,19,21)           109.4471         estimate D2E/DX2                !
 ! A35   A(20,19,22)           109.4437         estimate D2E/DX2                !
 ! A36   A(21,19,22)           109.4433         estimate D2E/DX2                !
 ! D1    D(1,2,5,6)             -0.003          estimate D2E/DX2                !
 ! D2    D(1,2,5,7)           -179.9971         estimate D2E/DX2                !
 ! D3    D(3,2,5,6)            120.5085         estimate D2E/DX2                !
 ! D4    D(3,2,5,7)            -59.4857         estimate D2E/DX2                !
 ! D5    D(4,2,5,6)           -120.5094         estimate D2E/DX2                !
 ! D6    D(4,2,5,7)             59.4964         estimate D2E/DX2                !
 ! D7    D(2,5,7,8)             -0.0039         estimate D2E/DX2                !
 ! D8    D(2,5,7,9)           -179.9999         estimate D2E/DX2                !
 ! D9    D(6,5,7,8)           -179.998          estimate D2E/DX2                !
 ! D10   D(6,5,7,9)              0.0061         estimate D2E/DX2                !
 ! D11   D(5,7,9,10)            89.996          estimate D2E/DX2                !
 ! D12   D(5,7,9,11)          -150.0014         estimate D2E/DX2                !
 ! D13   D(5,7,9,15)           -30.0038         Frozen                          !
 ! D14   D(8,7,9,10)           -90.0            estimate D2E/DX2                !
 ! D15   D(8,7,9,11)            30.0026         estimate D2E/DX2                !
 ! D16   D(8,7,9,15)           150.0002         estimate D2E/DX2                !
 ! D17   D(7,9,11,12)           60.0024         estimate D2E/DX2                !
 ! D18   D(7,9,11,13)          179.9986         estimate D2E/DX2                !
 ! D19   D(7,9,11,14)          -60.0038         estimate D2E/DX2                !
 ! D20   D(10,9,11,12)        -179.4843         estimate D2E/DX2                !
 ! D21   D(10,9,11,13)         -59.4881         estimate D2E/DX2                !
 ! D22   D(10,9,11,14)          60.5095         estimate D2E/DX2                !
 ! D23   D(15,9,11,12)         -61.938          estimate D2E/DX2                !
 ! D24   D(15,9,11,13)          58.0582         estimate D2E/DX2                !
 ! D25   D(15,9,11,14)         178.0558         estimate D2E/DX2                !
 ! D26   D(7,9,15,16)          134.9972         estimate D2E/DX2                !
 ! D27   D(7,9,15,17)          -45.0006         Frozen                          !
 ! D28   D(10,9,15,16)          14.4861         estimate D2E/DX2                !
 ! D29   D(10,9,15,17)        -165.5117         estimate D2E/DX2                !
 ! D30   D(11,9,15,16)        -103.0608         estimate D2E/DX2                !
 ! D31   D(11,9,15,17)          76.9414         estimate D2E/DX2                !
 ! D32   D(9,15,17,18)           0.0011         estimate D2E/DX2                !
 ! D33   D(9,15,17,19)         179.9993         estimate D2E/DX2                !
 ! D34   D(16,15,17,18)       -179.9966         estimate D2E/DX2                !
 ! D35   D(16,15,17,19)          0.0015         estimate D2E/DX2                !
 ! D36   D(15,17,19,20)         -0.002          estimate D2E/DX2                !
 ! D37   D(15,17,19,21)        120.0014         estimate D2E/DX2                !
 ! D38   D(15,17,19,22)       -120.0007         estimate D2E/DX2                !
 ! D39   D(18,17,19,20)        179.9962         estimate D2E/DX2                !
 ! D40   D(18,17,19,21)        -60.0004         estimate D2E/DX2                !
 ! D41   D(18,17,19,22)         59.9975         estimate D2E/DX2                !
 --------------------------------------------------------------------------------
 Trust Radius=3.00D-01 FncErr=1.00D-07 GrdErr=1.00D-07
 Number of steps in this run= 108 maximum allowed number of steps= 132.
 GradGradGradGradGradGradGradGradGradGradGradGradGradGradGradGradGradGrad

                          Input orientation:                          
 ---------------------------------------------------------------------
 Center     Atomic      Atomic             Coordinates (Angstroms)
 Number     Number       Type             X           Y           Z
 ---------------------------------------------------------------------
      1          1           0        0.366800    4.290000    0.984200
      2          6           0        1.176900    3.748100    0.496000
      3          1           0        0.925300    3.584000   -0.551800
      4          1           0        1.320900    2.787000    0.989500
      5          6           0        2.487100    4.535100    0.566700
      6          8           0        2.527600    5.630400    1.122700
      7          7           0        3.555400    3.969700    0.000000
      8          1           0        3.472300    3.067000   -0.445500
      9          6           0        4.853300    4.613900    0.000000
     10          1           0        5.407600    4.315500    0.889800
     11          6           0        5.661300    4.220800   -1.232200
     12          1           0        5.123300    4.521400   -2.131200
     13          1           0        6.630500    4.718900   -1.205800
     14          1           0        5.808500    3.140900   -1.241400
     15          6           0        4.712700    6.129400    0.000000
     16          8           0        5.400600    6.819700    0.748800
     17          7           0        3.817000    6.646700   -0.844100
     18          1           0        3.274700    6.038000   -1.440300
     19          6           0        3.589500    8.074600   -0.938700
     20          1           0        4.243900    8.594400   -0.239000
     21          1           0        3.803100    8.410600   -1.953400
     22          1           0        2.550100    8.294300   -0.695000
 ---------------------------------------------------------------------
                    Distance matrix (angstroms):
                    1          2          3          4          5
     1  H    0.000000
     2  C    1.090072   0.000000
     3  H    1.780352   1.090007   0.000000
     4  H    1.780265   1.089950   1.779695   0.000000
     5  C    2.174868   1.530030   2.143561   2.143510   0.000000
     6  O    2.546549   2.400041   3.091774   3.091729   1.229007
     7  N    3.352374   2.439751   2.714898   2.714936   1.334950
     8  H    3.630964   2.572777   2.601115   2.601182   2.037274
     9  C    4.604589   3.809402   4.098092   4.098112   2.434391
    10  H    5.041748   4.286705   4.764905   4.364329   2.946513
    11  C    5.740117   4.829075   4.826816   5.082402   3.662017
    12  H    5.690655   4.803566   4.582186   5.215856   3.772055
    13  H    6.649360   5.794854   5.853633   6.061636   4.510355
    14  H    5.990478   4.983871   4.951518   5.024014   4.030474
    15  C    4.820673   4.291677   4.596514   4.863646   2.795753
    16  O    5.638611   5.228602   5.673590   5.741477   3.706891
    17  N    4.560767   4.143414   4.222262   4.948726   2.866678
    18  H    4.170082   3.659736   3.511585   4.504471   2.628131
    19  C    5.329778   5.157287   5.235756   6.068213   4.001197
    20  H    5.920809   5.782157   6.017895   6.616573   4.495933
    21  H    6.116943   5.885184   5.791570   6.815193   4.806481
    22  H    4.860137   4.896130   4.984717   5.888873   3.965784
                    6          7          8          9         10
     6  O    0.000000
     7  N    2.252721   0.000000
     8  H    3.150036   1.010071   0.000000
     9  C    2.775357   1.448978   2.120974   0.000000
    10  H    3.174524   2.083739   2.662173   1.089970   0.000000
    11  C    4.165645   2.452791   2.596512   1.525027   2.139209
    12  H    4.307598   2.702720   2.771762   2.150225   3.041326
    13  H    4.804845   3.386959   3.644318   2.150214   2.459625
    14  H    4.748777   2.702673   2.469159   2.150165   2.466256
    15  C    2.506814   2.450234   3.333970   1.522008   2.136554
    16  O    3.131831   3.476775   4.384912   2.392863   2.508176
    17  N    2.561976   2.819090   3.618280   2.432838   3.312237
    18  H    2.700605   2.535966   3.139349   2.567976   3.598004
    19  C    3.369142   4.211000   5.033194   3.801946   4.558479
    20  H    3.685812   4.681774   5.584815   4.033965   4.575737
    21  H    4.338064   4.857851   5.562127   4.397002   5.237180
    22  H    3.225043   4.493976   5.313884   4.396942   5.148567
                   11         12         13         14         15
    11  C    0.000000
    12  H    1.089957   0.000000
    13  H    1.090023   1.779613   0.000000
    14  H    1.089925   1.779613   1.779617   0.000000
    15  C    2.461892   2.701161   2.668599   3.416575   0.000000
    16  O    3.278202   3.695061   3.121935   4.202481   1.228992
    17  N    3.071979   2.807124   3.429726   4.051488   1.335059
    18  H    3.006889   2.488924   3.613365   3.853945   2.037317
    19  C    4.385233   4.049670   4.536490   5.418209   2.434448
    20  H    4.703599   4.576363   4.652963   5.761375   2.520540
    21  H    4.639769   4.111012   4.709750   5.683160   3.137996
    22  H    5.153790   4.787359   5.449226   6.121540   3.137938
                   16         17         18         19         20
    16  O    0.000000
    17  N    2.252787   0.000000
    18  H    3.150026   1.009980   0.000000
    19  C    2.775340   1.449001   2.120953   0.000000
    20  H    2.337363   2.083729   2.986244   1.089959   0.000000
    21  H    3.519212   2.083767   2.484292   1.090017   1.779678
    22  H    3.519141   2.083711   2.484232   1.089959   1.779594
                   21         22
    21  H    0.000000
    22  H    1.779636   0.000000
 Stoichiometry    C6H12N2O2
 Framework group  C1[X(C6H12N2O2)]
 Deg. of freedom    60
 Full point group                 C1      NOp   1
 Largest Abelian subgroup         C1      NOp   1
 Largest concise Abelian subgroup C1      NOp   1
                         Standard orientation:                         
 ---------------------------------------------------------------------
 Center     Atomic      Atomic             Coordinates (Angstroms)
 Number     Number       Type             X           Y           Z
 ---------------------------------------------------------------------
      1          1           0        3.321180   -1.684104   -0.000019
      2          6           0        3.044893   -0.664032   -0.267182
      3          1           0        3.087947   -0.547145   -1.350048
      4          1           0        3.737702    0.035019    0.201151
      5          6           0        1.626585   -0.336212    0.203908
      6          8           0        0.957268   -1.177199    0.799907
      7          7           0        1.175078    0.890408   -0.067453
      8          1           0        1.763075    1.547342   -0.560342
      9          6           0       -0.150835    1.322767    0.325686
     10          1           0       -0.108643    1.767461    1.319920
     11          6           0       -0.701872    2.358595   -0.648545
     12          1           0       -0.758695    1.925027   -1.646942
     13          1           0       -1.697892    2.665008   -0.328853
     14          1           0       -0.043562    3.227057   -0.666979
     15          6           0       -1.122035    0.151332    0.357618
     16          8           0       -1.897492    0.009455    1.300464
     17          7           0       -1.078027   -0.690126   -0.677947
     18          1           0       -0.422695   -0.531545   -1.429912
     19          6           0       -1.950989   -1.843355   -0.765146
     20          1           0       -2.595333   -1.879134    0.113234
     21          1           0       -2.564859   -1.767932   -1.662705
     22          1           0       -1.350272   -2.751641   -0.811704
 ---------------------------------------------------------------------
 Rotational constants (GHZ):      1.7278206      1.1301979      0.8496522
 Standard basis: 6-31G(d) (6D, 7F)
 There are   174 symmetry adapted basis functions of A   symmetry.
 Integral buffers will be    131072 words long.
 Raffenetti 1 integral format.
 Two-electron integral symmetry is turned on.
   174 basis functions,   328 primitive gaussians,   174 cartesian basis functions
    39 alpha electrons       39 beta electrons
       nuclear repulsion energy       579.8598143020 Hartrees.
 NAtoms=   22 NActive=   22 NUniq=   22 SFac= 7.50D-01 NAtFMM=   80 NAOKFM=F Big=F
 One-electron integrals computed using PRISM.
 NBasis=   174 RedAO= T  NBF=   174
 NBsUse=   174 1.00D-06 NBFU=   174
 Harris functional with IExCor=  205 diagonalized for initial guess.
 ExpMin= 1.61D-01 ExpMax= 5.48D+03 ExpMxC= 8.25D+02 IAcc=1 IRadAn=         1 AccDes= 0.00D+00
 HarFok:  IExCor=  205 AccDes= 0.00D+00 IRadAn=         1 IDoV= 1
 ScaDFX=  1.000000  1.000000  1.000000  1.000000
 FoFCou: FMM=F IPFlag=           0 FMFlag=      100000 FMFlg1=           0
         NFxFlg=           0 DoJE=T BraDBF=F KetDBF=T FulRan=T
         Omega=  0.000000  0.000000  1.000000  0.000000  0.000000 ICntrl=     500 IOpCl=  0
         NMat0=    1 NMatS0=    1 NMatT0=    0 NMatD0=    1 NMtDS0=    0 NMtDT0=    0
         I1Cent=           4 NGrid=           0.
 Petite list used in FoFCou.
 Initial guess orbital symmetries:
       Occupied  (A) (A) (A) (A) (A) (A) (A) (A) (A) (A) (A) (A)
                 (A) (A) (A) (A) (A) (A) (A) (A) (A) (A) (A) (A)
                 (A) (A) (A) (A) (A) (A) (A) (A) (A) (A) (A) (A)
                 (A) (A) (A)
       Virtual   (A) (A) (A) (A) (A) (A) (A) (A) (A) (A) (A) (A)
                 (A) (A) (A) (A) (A) (A) (A) (A) (A) (A) (A) (A)
                 (A) (A) (A) (A) (A) (A) (A) (A) (A) (A) (A) (A)
                 (A) (A) (A) (A) (A) (A) (A) (A) (A) (A) (A) (A)
                 (A) (A) (A) (A) (A) (A) (A) (A) (A) (A) (A) (A)
                 (A) (A) (A) (A) (A) (A) (A) (A) (A) (A) (A) (A)
                 (A) (A) (A) (A) (A) (A) (A) (A) (A) (A) (A) (A)
                 (A) (A) (A) (A) (A) (A) (A) (A) (A) (A) (A) (A)
                 (A) (A) (A) (A) (A) (A) (A) (A) (A) (A) (A) (A)
                 (A) (A) (A) (A) (A) (A) (A) (A) (A) (A) (A) (A)
                 (A) (A) (A) (A) (A) (A) (A) (A) (A) (A) (A) (A)
                 (A) (A) (A)
 The electronic state of the initial guess is 1-A.
 Requested convergence on RMS density matrix=1.00D-08 within 128 cycles.
 Requested convergence on MAX density matrix=1.00D-06.
 Requested convergence on             energy=1.00D-06.
 No special actions if energy rises.
 Integral accuracy reduced to 1.0D-05 until final iterations.
 Initial convergence to 1.0D-05 achieved.  Increase integral accuracy.
 SCF Done:  E(RHF) =  -492.830785458     A.U. after   15 cycles
             Convg  =    0.4909D-08             -V/T =  2.0019

 **********************************************************************

            Population analysis using the SCF density.

 **********************************************************************

 Orbital symmetries:
       Occupied  (A) (A) (A) (A) (A) (A) (A) (A) (A) (A) (A) (A)
                 (A) (A) (A) (A) (A) (A) (A) (A) (A) (A) (A) (A)
                 (A) (A) (A) (A) (A) (A) (A) (A) (A) (A) (A) (A)
                 (A) (A) (A)
       Virtual   (A) (A) (A) (A) (A) (A) (A) (A) (A) (A) (A) (A)
                 (A) (A) (A) (A) (A) (A) (A) (A) (A) (A) (A) (A)
                 (A) (A) (A) (A) (A) (A) (A) (A) (A) (A) (A) (A)
                 (A) (A) (A) (A) (A) (A) (A) (A) (A) (A) (A) (A)
                 (A) (A) (A) (A) (A) (A) (A) (A) (A) (A) (A) (A)
                 (A) (A) (A) (A) (A) (A) (A) (A) (A) (A) (A) (A)
                 (A) (A) (A) (A) (A) (A) (A) (A) (A) (A) (A) (A)
                 (A) (A) (A) (A) (A) (A) (A) (A) (A) (A) (A) (A)
                 (A) (A) (A) (A) (A) (A) (A) (A) (A) (A) (A) (A)
                 (A) (A) (A) (A) (A) (A) (A) (A) (A) (A) (A) (A)
                 (A) (A) (A) (A) (A) (A) (A) (A) (A) (A) (A) (A)
                 (A) (A) (A)
 The electronic state is 1-A.
 Alpha  occ. eigenvalues --  -20.52227 -20.49858 -15.60625 -15.56904 -11.35667
 Alpha  occ. eigenvalues --  -11.33421 -11.28352 -11.24485 -11.24321 -11.24219
 Alpha  occ. eigenvalues --   -1.38665  -1.35257  -1.25436  -1.21326  -1.06638
 Alpha  occ. eigenvalues --   -0.99792  -0.94796  -0.88127  -0.81818  -0.77388
 Alpha  occ. eigenvalues --   -0.70686  -0.69729  -0.67198  -0.62583  -0.61167
 Alpha  occ. eigenvalues --   -0.60934  -0.59487  -0.58542  -0.57363  -0.55802
 Alpha  occ. eigenvalues --   -0.54698  -0.53977  -0.53367  -0.51571  -0.49052
 Alpha  occ. eigenvalues --   -0.41589  -0.40791  -0.39419  -0.36022
 Alpha virt. eigenvalues --    0.19166   0.19499   0.21087   0.23623   0.25444
 Alpha virt. eigenvalues --    0.27877   0.28722   0.29394   0.30225   0.31124
 Alpha virt. eigenvalues --    0.31872   0.33412   0.33879   0.34702   0.36183
 Alpha virt. eigenvalues --    0.38937   0.39782   0.43375   0.46648   0.52073
 Alpha virt. eigenvalues --    0.53187   0.56937   0.66302   0.70860   0.72354
 Alpha virt. eigenvalues --    0.73425   0.74847   0.75773   0.77146   0.78420
 Alpha virt. eigenvalues --    0.81068   0.82465   0.84606   0.87167   0.90733
 Alpha virt. eigenvalues --    0.92263   0.95860   0.96668   0.97532   0.99929
 Alpha virt. eigenvalues --    1.01594   1.02500   1.04796   1.06739   1.11266
 Alpha virt. eigenvalues --    1.12495   1.13340   1.13978   1.14382   1.15234
 Alpha virt. eigenvalues --    1.16063   1.16773   1.18571   1.19221   1.20755
 Alpha virt. eigenvalues --    1.21864   1.22249   1.24159   1.24697   1.28153
 Alpha virt. eigenvalues --    1.31888   1.33622   1.38142   1.41463   1.43679
 Alpha virt. eigenvalues --    1.50540   1.53322   1.56974   1.58701   1.59986
 Alpha virt. eigenvalues --    1.64748   1.68113   1.71157   1.74867   1.76108
 Alpha virt. eigenvalues --    1.78980   1.84010   1.91749   1.94650   2.02080
 Alpha virt. eigenvalues --    2.02998   2.03215   2.08513   2.12546   2.14083
 Alpha virt. eigenvalues --    2.15927   2.17680   2.19599   2.21830   2.26156
 Alpha virt. eigenvalues --    2.26571   2.29105   2.29866   2.33133   2.35914
 Alpha virt. eigenvalues --    2.38497   2.41468   2.44593   2.46217   2.48627
 Alpha virt. eigenvalues --    2.51223   2.56602   2.60080   2.63035   2.64363
 Alpha virt. eigenvalues --    2.66306   2.67905   2.69361   2.74066   2.75449
 Alpha virt. eigenvalues --    2.77562   2.84244   2.92094   2.94295   2.96928
 Alpha virt. eigenvalues --    3.02720   3.05520   3.10822   3.13111   3.26150
 Alpha virt. eigenvalues --    3.29322   3.34869   3.40100   3.56332   3.59140
 Alpha virt. eigenvalues --    4.39830   4.43609   4.50465   4.59505   4.64277
 Alpha virt. eigenvalues --    4.70395   4.75842   4.88605   4.93287   5.12137
          Condensed to atoms (all electrons):
              1          2          3          4          5          6
     1  H    0.448831   0.385465  -0.018649  -0.017719  -0.029609   0.003601
     2  C    0.385465   5.260896   0.372006   0.374909   0.370930  -0.067138
     3  H   -0.018649   0.372006   0.526994  -0.024702  -0.036492   0.001093
     4  H   -0.017719   0.374909  -0.024702   0.509721  -0.034955   0.001140
     5  C   -0.029609   0.370930  -0.036492  -0.034955   4.222488   0.592093
     6  O    0.003601  -0.067138   0.001093   0.001140   0.592093   8.209973
     7  N    0.003824  -0.125799   0.004012   0.003890   0.237216  -0.105495
     8  H   -0.000017  -0.000361   0.000497   0.000539  -0.019302   0.002301
     9  C   -0.000059   0.003637  -0.000117  -0.000171  -0.031538   0.004273
    10  H    0.000002  -0.000110  -0.000001   0.000011  -0.002096   0.000572
    11  C    0.000001  -0.000089   0.000007  -0.000006   0.003561   0.000430
    12  H    0.000000  -0.000012  -0.000002   0.000000  -0.000204   0.000013
    13  H    0.000000   0.000002   0.000000   0.000000   0.000001   0.000003
    14  H    0.000000  -0.000003  -0.000001   0.000000  -0.000158   0.000000
    15  C   -0.000003   0.000127  -0.000008   0.000000  -0.001612   0.007789
    16  O    0.000000  -0.000012   0.000000   0.000000  -0.000127  -0.002844
    17  N    0.000012  -0.000279   0.000098  -0.000002   0.001855  -0.041018
    18  H    0.000002  -0.000362   0.000130   0.000004  -0.000157  -0.002405
    19  C    0.000000   0.000011  -0.000002   0.000000   0.000027   0.001540
    20  H    0.000000   0.000000   0.000000   0.000000  -0.000010  -0.000100
    21  H    0.000000   0.000000   0.000000   0.000000   0.000005  -0.000007
    22  H    0.000000   0.000007  -0.000004   0.000000   0.000025   0.001515
              7          8          9         10         11         12
     1  H    0.003824  -0.000017  -0.000059   0.000002   0.000001   0.000000
     2  C   -0.125799  -0.000361   0.003637  -0.000110  -0.000089  -0.000012
     3  H    0.004012   0.000497  -0.000117  -0.000001   0.000007  -0.000002
     4  H    0.003890   0.000539  -0.000171   0.000011  -0.000006   0.000000
     5  C    0.237216  -0.019302  -0.031538  -0.002096   0.003561  -0.000204
     6  O   -0.105495   0.002301   0.004273   0.000572   0.000430   0.000013
     7  N    7.473762   0.322163   0.137923  -0.042972  -0.059273   0.000727
     8  H    0.322163   0.323518  -0.021838   0.000605  -0.003520   0.000483
     9  C    0.137923  -0.021838   5.070195   0.413440   0.338152  -0.039969
    10  H   -0.042972   0.000605   0.413440   0.471752  -0.037127   0.004054
    11  C   -0.059273  -0.003520   0.338152  -0.037127   5.159425   0.384899
    12  H    0.000727   0.000483  -0.039969   0.004054   0.384899   0.531817
    13  H    0.004197  -0.000014  -0.036028   0.000033   0.391571  -0.019929
    14  H   -0.003405   0.002998  -0.037937  -0.004223   0.387579  -0.027210
    15  C   -0.046222   0.002784   0.393503  -0.041646  -0.057258  -0.007187
    16  O    0.001890  -0.000057  -0.062097   0.005149  -0.001144   0.000076
    17  N    0.004544  -0.000425  -0.130127   0.004332   0.004273   0.003059
    18  H    0.005897  -0.000058  -0.002642   0.000144   0.000039   0.001470
    19  C   -0.000143   0.000011   0.003817  -0.000066  -0.000251  -0.000064
    20  H   -0.000030   0.000001   0.000563  -0.000010  -0.000028  -0.000004
    21  H   -0.000008   0.000000  -0.000073   0.000000   0.000013  -0.000019
    22  H   -0.000015  -0.000001  -0.000064   0.000003   0.000000   0.000006
             13         14         15         16         17         18
     1  H    0.000000   0.000000  -0.000003   0.000000   0.000012   0.000002
     2  C    0.000002  -0.000003   0.000127  -0.000012  -0.000279  -0.000362
     3  H    0.000000  -0.000001  -0.000008   0.000000   0.000098   0.000130
     4  H    0.000000   0.000000   0.000000   0.000000  -0.000002   0.000004
     5  C    0.000001  -0.000158  -0.001612  -0.000127   0.001855  -0.000157
     6  O    0.000003   0.000000   0.007789  -0.002844  -0.041018  -0.002405
     7  N    0.004197  -0.003405  -0.046222   0.001890   0.004544   0.005897
     8  H   -0.000014   0.002998   0.002784  -0.000057  -0.000425  -0.000058
     9  C   -0.036028  -0.037937   0.393503  -0.062097  -0.130127  -0.002642
    10  H    0.000033  -0.004223  -0.041646   0.005149   0.004332   0.000144
    11  C    0.391571   0.387579  -0.057258  -0.001144   0.004273   0.000039
    12  H   -0.019929  -0.027210  -0.007187   0.000076   0.003059   0.001470
    13  H    0.472403  -0.020930  -0.002714   0.001749   0.000263  -0.000008
    14  H   -0.020930   0.530021   0.005487  -0.000089  -0.000091  -0.000031
    15  C   -0.002714   0.005487   4.155244   0.595268   0.254559  -0.019171
    16  O    0.001749  -0.000089   0.595268   8.208981  -0.099162   0.002708
    17  N    0.000263  -0.000091   0.254559  -0.099162   7.355813   0.323435
    18  H   -0.000008  -0.000031  -0.019171   0.002708   0.323435   0.341029
    19  C   -0.000003   0.000004  -0.025159  -0.006305   0.198841  -0.023568
    20  H   -0.000004   0.000000  -0.002254   0.011126  -0.031104   0.002416
    21  H    0.000002  -0.000001   0.000506   0.000437  -0.048952  -0.001279
    22  H    0.000000   0.000000   0.001541   0.000380  -0.049241  -0.000832
             19         20         21         22
     1  H    0.000000   0.000000   0.000000   0.000000
     2  C    0.000011   0.000000   0.000000   0.000007
     3  H   -0.000002   0.000000   0.000000  -0.000004
     4  H    0.000000   0.000000   0.000000   0.000000
     5  C    0.000027  -0.000010   0.000005   0.000025
     6  O    0.001540  -0.000100  -0.000007   0.001515
     7  N   -0.000143  -0.000030  -0.000008  -0.000015
     8  H    0.000011   0.000001   0.000000  -0.000001
     9  C    0.003817   0.000563  -0.000073  -0.000064
    10  H   -0.000066  -0.000010   0.000000   0.000003
    11  C   -0.000251  -0.000028   0.000013   0.000000
    12  H   -0.000064  -0.000004  -0.000019   0.000006
    13  H   -0.000003  -0.000004   0.000002   0.000000
    14  H    0.000004   0.000000  -0.000001   0.000000
    15  C   -0.025159  -0.002254   0.000506   0.001541
    16  O   -0.006305   0.011126   0.000437   0.000380
    17  N    0.198841  -0.031104  -0.048952  -0.049241
    18  H   -0.023568   0.002416  -0.001279  -0.000832
    19  C    4.931952   0.396879   0.401002   0.402135
    20  H    0.396879   0.433366  -0.023920  -0.021184
    21  H    0.401002  -0.023920   0.557460  -0.039155
    22  H    0.402135  -0.021184  -0.039155   0.531719
 Mulliken atomic charges:
              1
     1  H    0.224320
     2  C   -0.573827
     3  H    0.175140
     4  H    0.187342
     5  C    0.728058
     6  O   -0.607326
     7  N   -0.816685
     8  H    0.389694
     9  C   -0.002842
    10  H    0.228155
    11  C   -0.511255
    12  H    0.167995
    13  H    0.209404
    14  H    0.167988
    15  C    0.786425
    16  O   -0.655929
    17  N   -0.750684
    18  H    0.373238
    19  C   -0.280659
    20  H    0.234296
    21  H    0.153986
    22  H    0.173165
 Sum of Mulliken atomic charges =   0.00000
 Mulliken charges with hydrogens summed into heavy atoms:
              1
     2  C    0.012974
     5  C    0.728058
     6  O   -0.607326
     7  N   -0.426990
     9  C    0.225313
    11  C    0.034133
    15  C    0.786425
    16  O   -0.655929
    17  N   -0.377445
    19  C    0.280788
 Sum of Mulliken charges with hydrogens summed into heavy atoms =   0.00000
 Electronic spatial extent (au):  <R**2>=           1525.9348
 Charge=              0.0000 electrons
 Dipole moment (field-independent basis, Debye):
    X=              3.8733    Y=              2.8730    Z=             -5.1801  Tot=              7.0774
 Quadrupole moment (field-independent basis, Debye-Ang):
   XX=            -58.0209   YY=            -56.5263   ZZ=            -64.0613
   XY=              3.6202   XZ=              3.3740   YZ=              3.0326
 Traceless Quadrupole moment (field-independent basis, Debye-Ang):
   XX=              1.5153   YY=              3.0099   ZZ=             -4.5252
   XY=              3.6202   XZ=              3.3740   YZ=              3.0326
 Octapole moment (field-independent basis, Debye-Ang**2):
  XXX=             27.8369  YYY=              3.9288  ZZZ=             -6.2254  XYY=             -4.0063
  XXY=             -3.8955  XXZ=            -11.7341  XZZ=              7.5799  YZZ=              0.0602
  YYZ=             -2.5400  XYZ=             -0.2337
 Hexadecapole moment (field-independent basis, Debye-Ang**3):
 XXXX=          -1035.0357 YYYY=           -658.8679 ZZZZ=           -246.2879 XXXY=              7.4605
 XXXZ=             19.6796 YYYX=             13.2846 YYYZ=              4.3116 ZZZX=              5.7629
 ZZZY=              4.2931 XXYY=           -263.7251 XXZZ=           -235.2282 YYZZ=           -157.0597
 XXYZ=             -2.3326 YYXZ=             -8.0152 ZZXY=              5.8320
 N-N= 5.798598143020D+02 E-N=-2.315220535716D+03  KE= 4.919052925745D+02
 Calling FoFJK, ICntrl=      2127 FMM=F ISym2X=0 I1Cent= 0 IOpClX= 0 NMat=1 NMatS=1 NMatT=0.
 ***** Axes restored to original set *****
 -------------------------------------------------------------------
 Center     Atomic                   Forces (Hartrees/Bohr)
 Number     Number              X              Y              Z
 -------------------------------------------------------------------
      1        1           0.009104171   -0.001297852   -0.002963802
      2        6           0.009343502    0.000742999   -0.002831989
      3        1          -0.002191211   -0.003208599    0.003742526
      4        1          -0.003607160    0.001244142   -0.003517541
      5        6          -0.033329266    0.042736171    0.042542445
      6        8          -0.006817653   -0.052480425   -0.011484959
      7        7           0.007608209   -0.014586928   -0.020496231
      8        1          -0.000332075    0.012587881    0.007534109
      9        6           0.008567914    0.000198226    0.003720104
     10        1          -0.003389152    0.008338940   -0.002652010
     11        6          -0.002739996   -0.004052179   -0.001389160
     12        1           0.005427117   -0.003267840    0.000784582
     13        1          -0.004324909   -0.003960485   -0.001216872
     14        1           0.002485655    0.003087460   -0.003341297
     15        6           0.017366728    0.032186566    0.044287798
     16        8          -0.016364294   -0.029037839   -0.031507561
     17        7           0.009941874    0.003745752   -0.029927985
     18        1           0.008541856    0.010592303    0.012166083
     19        6          -0.002436352   -0.000031426   -0.000624767
     20        1          -0.005667965   -0.006777937   -0.005867253
     21        1          -0.001557432    0.002013707    0.003852382
     22        1           0.004370439    0.001227363   -0.000808600
 -------------------------------------------------------------------
 Cartesian Forces:  Max     0.052480425 RMS     0.015590176

 GradGradGradGradGradGradGradGradGradGradGradGradGradGradGradGradGradGrad
 Berny optimization.
 Internal  Forces:  Max     0.052191370 RMS     0.013362990
 Search for a local minimum.
 Step number   1 out of a maximum of  108
 All quantities printed in internal units (Hartrees-Bohrs-Radians)
 Mixed Optimization -- RFO/linear search
 Second derivative matrix not updated -- first step.
     Eigenvalues ---    0.00369   0.00435   0.00998   0.01044   0.01269
     Eigenvalues ---    0.01422   0.01660   0.02551   0.02552   0.03503
     Eigenvalues ---    0.05232   0.05841   0.05844   0.05844   0.07165
     Eigenvalues ---    0.07464   0.07686   0.07686   0.15421   0.16000
     Eigenvalues ---    0.16000   0.16000   0.16000   0.16000   0.16000
     Eigenvalues ---    0.16000   0.16000   0.16000   0.16000   0.16000
     Eigenvalues ---    0.16180   0.22000   0.22000   0.25000   0.25000
     Eigenvalues ---    0.25000   0.25000   0.29421   0.29887   0.30174
     Eigenvalues ---    0.34804   0.34810   0.34811   0.34812   0.34816
     Eigenvalues ---    0.34817   0.34817   0.34818   0.34818   0.34821
     Eigenvalues ---    0.38376   0.38379   0.45961   0.45976   0.58327
     Eigenvalues ---    0.58352   0.91501   0.915081000.000001000.00000
     Eigenvalues --- 1000.000001000.000001000.000001000.000001000.00000
     Eigenvalues --- 1000.000001000.000001000.000001000.000001000.00000
     Eigenvalues --- 1000.000001000.000001000.000001000.000001000.00000
     Eigenvalues --- 1000.000001000.000001000.000001000.000001000.00000
     Eigenvalues --- 1000.000001000.000001000.000001000.000001000.00000
     Eigenvalues --- 1000.000001000.000001000.000001000.000001000.00000
     Eigenvalues --- 1000.000001000.000001000.000001000.000001000.00000
     Eigenvalues --- 1000.000001000.000001000.00000
 RFO step:  Lambda=-5.07038378D-02 EMin= 3.68709279D-03
 Linear search not attempted -- first point.
 Maximum step size (   0.300) exceeded in Quadratic search.
    -- Step size scaled by   0.594
 Iteration  1 RMS(Cart)=  0.20592460 RMS(Int)=  0.00684712
 Iteration  2 RMS(Cart)=  0.01369963 RMS(Int)=  0.00027818
 Iteration  3 RMS(Cart)=  0.00009198 RMS(Int)=  0.00027419
 Iteration  4 RMS(Cart)=  0.00000001 RMS(Int)=  0.00027419
 Iteration  1 RMS(Cart)=  0.00019999 RMS(Int)=  0.00007331
 Iteration  2 RMS(Cart)=  0.00013772 RMS(Int)=  0.00008079
 Iteration  3 RMS(Cart)=  0.00009486 RMS(Int)=  0.00009306
 Iteration  4 RMS(Cart)=  0.00006535 RMS(Int)=  0.00010376
 Iteration  5 RMS(Cart)=  0.00004503 RMS(Int)=  0.00011189
 Iteration  6 RMS(Cart)=  0.00003102 RMS(Int)=  0.00011778
 Iteration  7 RMS(Cart)=  0.00002138 RMS(Int)=  0.00012195
 Iteration  8 RMS(Cart)=  0.00001473 RMS(Int)=  0.00012487
 Iteration  9 RMS(Cart)=  0.00001015 RMS(Int)=  0.00012691
 Iteration 10 RMS(Cart)=  0.00000700 RMS(Int)=  0.00012832
 Iteration 11 RMS(Cart)=  0.00000482 RMS(Int)=  0.00012930
 Iteration 12 RMS(Cart)=  0.00000332 RMS(Int)=  0.00012997
 Iteration 13 RMS(Cart)=  0.00000229 RMS(Int)=  0.00013044
 Iteration 14 RMS(Cart)=  0.00000158 RMS(Int)=  0.00013076
 Iteration 15 RMS(Cart)=  0.00000109 RMS(Int)=  0.00013099
 Iteration 16 RMS(Cart)=  0.00000075 RMS(Int)=  0.00013114
 Variable       Old X    -DE/DX   Delta X   Delta X   Delta X     New X
                                 (Linear)    (Quad)   (Total)
    R1        2.05994  -0.00874   0.00000  -0.01302  -0.01302   2.04692
    R2        2.05982  -0.00261   0.00000  -0.00389  -0.00389   2.05593
    R3        2.05971  -0.00317   0.00000  -0.00472  -0.00472   2.05499
    R4        2.89134  -0.00928   0.00000  -0.01598  -0.01598   2.87536
    R5        2.32249  -0.05219   0.00000  -0.03211  -0.03211   2.29038
    R6        2.52269   0.02763   0.00000   0.02588   0.02588   2.54857
    R7        1.90876  -0.01455   0.00000  -0.01693  -0.01693   1.89182
    R8        2.73817   0.02445   0.00000   0.03344   0.03344   2.77161
    R9        2.05975  -0.00617   0.00000  -0.00919  -0.00919   2.05055
   R10        2.88188   0.00673   0.00000   0.01144   0.01144   2.89333
   R11        2.87618   0.01255   0.00000   0.02115   0.02115   2.89733
   R12        2.05972  -0.00423   0.00000  -0.00630  -0.00630   2.05342
   R13        2.05984  -0.00568   0.00000  -0.00847  -0.00847   2.05138
   R14        2.05966  -0.00270   0.00000  -0.00401  -0.00401   2.05565
   R15        2.32246  -0.04467   0.00000  -0.02748  -0.02748   2.29498
   R16        2.52290   0.00873   0.00000   0.00818   0.00818   2.53108
   R17        1.90859  -0.01815   0.00000  -0.02113  -0.02113   1.88746
   R18        2.73822  -0.00246   0.00000  -0.00336  -0.00336   2.73485
   R19        2.05972  -0.01040   0.00000  -0.01549  -0.01549   2.04423
   R20        2.05983  -0.00327   0.00000  -0.00487  -0.00487   2.05496
   R21        2.05972  -0.00410   0.00000  -0.00611  -0.00611   2.05362
    A1        1.91115   0.00020   0.00000   0.00008   0.00018   1.91133
    A2        1.91109   0.00040   0.00000   0.00005   0.00013   1.91121
    A3        1.93905  -0.00819   0.00000  -0.02388  -0.02379   1.91526
    A4        1.91026  -0.00494   0.00000  -0.01229  -0.01249   1.89778
    A5        1.89602   0.00685   0.00000   0.01985   0.01980   1.91582
    A6        1.89600   0.00573   0.00000   0.01637   0.01631   1.91232
    A7        2.10312  -0.00115   0.00000  -0.00227  -0.00252   2.10059
    A8        2.03511  -0.01623   0.00000  -0.03207  -0.03234   2.00277
    A9        2.14496   0.01738   0.00000   0.03434   0.03406   2.17902
   A10        2.09429  -0.02766   0.00000  -0.06175  -0.06181   2.03248
   A11        2.12765   0.05196   0.00000   0.11402   0.11396   2.24161
   A12        2.06125  -0.02430   0.00000  -0.05228  -0.05233   2.00891
   A13        1.91114  -0.00821   0.00000  -0.01142  -0.01143   1.89970
   A14        1.93905  -0.01319   0.00000  -0.04511  -0.04603   1.89302
   A15        1.93900   0.03601   0.00000   0.11104   0.11146   2.05047
   A16        1.89609   0.00801   0.00000  -0.00093  -0.00203   1.89407
   A17        1.89608  -0.00491   0.00000  -0.04303  -0.04367   1.85241
   A18        1.88137  -0.01808   0.00000  -0.01279  -0.01213   1.86925
   A19        1.91115   0.00599   0.00000   0.01787   0.01778   1.92892
   A20        1.91106   0.00026   0.00000  -0.00011  -0.00012   1.91095
   A21        1.91110   0.00491   0.00000   0.01370   0.01362   1.92472
   A22        1.91011  -0.00299   0.00000  -0.00816  -0.00818   1.90192
   A23        1.91023  -0.00466   0.00000  -0.01146  -0.01163   1.89861
   A24        1.91015  -0.00352   0.00000  -0.01188  -0.01187   1.89828
   A25        2.10316  -0.01080   0.00000  -0.02134  -0.02164   2.08152
   A26        2.03509   0.00885   0.00000   0.01749   0.01719   2.05228
   A27        2.14493   0.00195   0.00000   0.00385   0.00355   2.14848
   A28        2.09433  -0.00314   0.00000  -0.00706  -0.00710   2.08723
   A29        2.12756   0.00574   0.00000   0.01261   0.01257   2.14013
   A30        2.06130  -0.00260   0.00000  -0.00555  -0.00558   2.05571
   A31        1.91111  -0.00468   0.00000  -0.01433  -0.01430   1.89680
   A32        1.91110   0.00521   0.00000   0.01566   0.01563   1.92673
   A33        1.91108   0.00283   0.00000   0.00815   0.00810   1.91918
   A34        1.91021  -0.00052   0.00000  -0.00184  -0.00178   1.90843
   A35        1.91015  -0.00038   0.00000  -0.00299  -0.00298   1.90717
   A36        1.91015  -0.00246   0.00000  -0.00466  -0.00477   1.90538
    D1       -0.00005   0.00210   0.00000   0.02045   0.02024   0.02019
    D2       -3.14154  -0.00234   0.00000  -0.02116  -0.02093   3.12071
    D3        2.10327   0.00171   0.00000   0.01860   0.01826   2.12153
    D4       -1.03822  -0.00274   0.00000  -0.02301  -0.02292  -1.06114
    D5       -2.10329   0.00297   0.00000   0.02458   0.02448  -2.07881
    D6        1.03841  -0.00147   0.00000  -0.01703  -0.01670   1.02171
    D7       -0.00007  -0.00864   0.00000  -0.01601  -0.01555  -0.01562
    D8       -3.14159   0.00087   0.00000  -0.03735  -0.03720   3.10439
    D9       -3.14156  -0.01320   0.00000  -0.05870  -0.05885   3.08278
   D10        0.00011  -0.00368   0.00000  -0.08004  -0.08050  -0.08039
   D11        1.57073  -0.01130   0.00000   0.00918   0.00989   1.58062
   D12       -2.61802  -0.01501   0.00000  -0.02790  -0.02693  -2.64494
   D13       -0.52367  -0.02260   0.00000   0.00000   0.00000  -0.52367
   D14       -1.57080  -0.00196   0.00000  -0.01177  -0.01152  -1.58231
   D15        0.52364  -0.00567   0.00000  -0.04885  -0.04833   0.47531
   D16        2.61800  -0.01326   0.00000  -0.02095  -0.02141   2.59659
   D17        1.04724   0.01278   0.00000   0.04874   0.04850   1.09574
   D18        3.14157   0.01295   0.00000   0.04963   0.04936  -3.09226
   D19       -1.04726   0.01180   0.00000   0.04341   0.04308  -1.00419
   D20       -3.13259  -0.00037   0.00000   0.00609   0.00635  -3.12624
   D21       -1.03826  -0.00020   0.00000   0.00698   0.00721  -1.03105
   D22        1.05609  -0.00135   0.00000   0.00076   0.00093   1.05702
   D23       -1.08102  -0.01178   0.00000  -0.05239  -0.05229  -1.13331
   D24        1.01331  -0.01162   0.00000  -0.05150  -0.05143   0.96188
   D25        3.10766  -0.01276   0.00000  -0.05773  -0.05771   3.04995
   D26        2.35615   0.00582   0.00000   0.04495   0.04428   2.40043
   D27       -0.78541  -0.00741   0.00000   0.00000   0.00000  -0.78541
   D28        0.25283  -0.00312   0.00000   0.01819   0.01877   0.27160
   D29       -2.88872  -0.01636   0.00000  -0.02676  -0.02552  -2.91424
   D30       -1.79875  -0.00006   0.00000   0.04945   0.04952  -1.74923
   D31        1.34288  -0.01330   0.00000   0.00450   0.00524   1.34812
   D32        0.00002   0.00716   0.00000   0.02690   0.02689   0.02691
   D33        3.14158   0.00530   0.00000   0.01052   0.01052  -3.13109
   D34       -3.14153  -0.00642   0.00000  -0.01922  -0.01923   3.12242
   D35        0.00003  -0.00828   0.00000  -0.03561  -0.03560  -0.03557
   D36       -0.00003   0.00058   0.00000   0.00698   0.00700   0.00697
   D37        2.09442   0.00027   0.00000   0.00554   0.00548   2.09990
   D38       -2.09441   0.00218   0.00000   0.01444   0.01449  -2.07991
   D39        3.14153  -0.00124   0.00000  -0.00910  -0.00909   3.13244
   D40       -1.04720  -0.00155   0.00000  -0.01054  -0.01061  -1.05781
   D41        1.04715   0.00036   0.00000  -0.00164  -0.00160   1.04556
         Item               Value     Threshold  Converged?
 Maximum Force            0.052191     0.000450     NO 
 RMS     Force            0.012856     0.000300     NO 
 Maximum Displacement     0.748743     0.001800     NO 
 RMS     Displacement     0.209723     0.001200     NO 
 Predicted change in Energy=-2.336958D-02
 GradGradGradGradGradGradGradGradGradGradGradGradGradGradGradGradGradGrad

                          Input orientation:                          
 ---------------------------------------------------------------------
 Center     Atomic      Atomic             Coordinates (Angstroms)
 Number     Number       Type             X           Y           Z
 ---------------------------------------------------------------------
      1          1           0        0.292084    3.893782    0.982077
      2          6           0        1.167311    3.480478    0.495824
      3          1           0        0.955422    3.320793   -0.559279
      4          1           0        1.417868    2.524841    0.950286
      5          6           0        2.339352    4.439096    0.646012
      6          8           0        2.207993    5.475672    1.260213
      7          7           0        3.493698    4.010097    0.096204
      8          1           0        3.472361    3.108952   -0.339347
      9          6           0        4.784228    4.703660    0.028171
     10          1           0        5.368684    4.443314    0.904577
     11          6           0        5.531125    4.217096   -1.216663
     12          1           0        4.980050    4.475577   -2.116806
     13          1           0        6.510722    4.683145   -1.256517
     14          1           0        5.658495    3.137337   -1.181900
     15          6           0        4.762001    6.235615   -0.029466
     16          8           0        5.557504    6.866351    0.637050
     17          7           0        3.887092    6.812300   -0.863691
     18          1           0        3.266825    6.241573   -1.399547
     19          6           0        3.782306    8.247877   -1.013986
     20          1           0        4.509342    8.718095   -0.365510
     21          1           0        3.978426    8.536366   -2.043954
     22          1           0        2.785512    8.578383   -0.734448
 ---------------------------------------------------------------------
                    Distance matrix (angstroms):
                    1          2          3          4          5
     1  H    0.000000
     2  C    1.083183   0.000000
     3  H    1.773164   1.087951   0.000000
     4  H    1.772682   1.087455   1.768102   0.000000
     5  C    2.145137   1.521573   2.149090   2.146180   0.000000
     6  O    2.500089   2.376575   3.085934   3.070465   1.212017
     7  N    3.323948   2.419146   2.710653   2.691563   1.348646
     8  H    3.532178   2.479677   2.535395   2.495051   2.005973
     9  C    4.663174   3.846681   4.113049   4.114599   2.535575
    10  H    5.106844   4.329626   4.783284   4.392217   3.040350
    11  C    5.690917   4.745323   4.708776   4.947553   3.702197
    12  H    5.649654   4.727900   4.467332   5.089359   3.822013
    13  H    6.656265   5.750578   5.762249   5.955285   4.591243
    14  H    5.835527   4.806582   4.747653   4.785842   4.006564
    15  C    5.146606   4.559441   4.823581   5.090480   3.090789
    16  O    6.056390   5.545978   5.931386   6.006947   4.030899
    17  N    4.984846   4.510713   4.569243   5.269714   3.210421
    18  H    4.475861   3.952724   3.818323   4.770163   2.879833
    19  C    5.926555   5.643209   5.698612   6.496312   4.398240
    20  H    6.547919   6.272455   6.465196   7.045916   4.903250
    21  H    6.655792   6.317819   6.208463   7.187515   5.168182
    22  H    5.577555   5.488240   5.569754   6.430719   4.386163
                    6          7          8          9         10
     6  O    0.000000
     7  N    2.270652   0.000000
     8  H    3.123872   1.001110   0.000000
     9  C    2.958194   1.466671   2.097417   0.000000
    10  H    3.343980   2.087275   2.631332   1.085106   0.000000
    11  C    4.331528   2.432607   2.497234   1.531082   2.139443
    12  H    4.482048   2.706165   2.701879   2.165940   3.046446
    13  H    5.047327   3.374209   3.542728   2.152122   2.456033
    14  H    4.830910   2.661129   2.343050   2.163789   2.478497
    15  C    2.960361   2.564627   3.396353   1.533200   2.110176
    16  O    3.679884   3.565108   4.406724   2.376115   2.445063
    17  N    3.019423   2.988059   3.763207   2.458991   3.306657
    18  H    2.963453   2.695964   3.313545   2.589608   3.600074
    19  C    3.916064   4.390283   5.192277   3.827716   4.546666
    20  H    4.295636   4.838384   5.704253   4.043048   4.541513
    21  H    4.839401   5.030144   5.711270   4.430876   5.232564
    22  H    3.733499   4.696886   5.526530   4.426052   5.143732
                   11         12         13         14         15
    11  C    0.000000
    12  H    1.086625   0.000000
    13  H    1.085541   1.768089   0.000000
    14  H    1.087801   1.767830   1.766743   0.000000
    15  C    2.464834   2.739027   2.640804   3.425074   0.000000
    16  O    3.233496   3.692286   3.043125   4.150219   1.214453
    17  N    3.092332   2.867949   3.401625   4.092002   1.339389
    18  H    3.042862   2.562878   3.601670   3.924759   2.027982
    19  C    4.398481   4.108655   4.495597   5.446641   2.445052
    20  H    4.693346   4.613845   4.591323   5.756032   2.517831
    21  H    4.663838   4.183129   4.677595   5.719728   3.156835
    22  H    5.176075   4.853857   5.415037   6.169216   3.145166
                   16         17         18         19         20
    16  O    0.000000
    17  N    2.246201   0.000000
    18  H    3.128144   0.998801   0.000000
    19  C    2.790315   1.447221   2.107044   0.000000
    20  H    2.352175   2.065777   2.957405   1.081761   0.000000
    21  H    3.531320   2.091355   2.487512   1.087439   1.769766
    22  H    3.534969   2.085481   2.476833   1.086727   1.768396
                   21         22
    21  H    0.000000
    22  H    1.771896   0.000000
 Stoichiometry    C6H12N2O2
 Framework group  C1[X(C6H12N2O2)]
 Deg. of freedom    60
 Full point group                 C1      NOp   1
 Largest Abelian subgroup         C1      NOp   1
 Largest concise Abelian subgroup C1      NOp   1
                         Standard orientation:                         
 ---------------------------------------------------------------------
 Center     Atomic      Atomic             Coordinates (Angstroms)
 Number     Number       Type             X           Y           Z
 ---------------------------------------------------------------------
      1          1           0        3.572960   -1.583083   -0.124803
      2          6           0        3.198781   -0.592977   -0.354941
      3          1           0        3.193632   -0.448020   -1.433180
      4          1           0        3.848327    0.154252    0.094834
      5          6           0        1.787502   -0.437057    0.192019
      6          8           0        1.263058   -1.344093    0.801306
      7          7           0        1.231401    0.773644   -0.017260
      8          1           0        1.797683    1.448254   -0.493127
      9          6           0       -0.114790    1.232774    0.340645
     10          1           0       -0.083594    1.670178    1.333197
     11          6           0       -0.538349    2.315948   -0.655118
     12          1           0       -0.595240    1.907781   -1.660562
     13          1           0       -1.513164    2.703427   -0.375844
     14          1           0        0.178246    3.134343   -0.649380
     15          6           0       -1.234537    0.185910    0.371365
     16          8           0       -2.040375    0.205091    1.279745
     17          7           0       -1.301567   -0.680711   -0.647673
     18          1           0       -0.619477   -0.639148   -1.376116
     19          6           0       -2.320800   -1.704381   -0.735482
     20          1           0       -2.970047   -1.621625    0.125818
     21          1           0       -2.907527   -1.578129   -1.642309
     22          1           0       -1.858945   -2.688050   -0.743328
 ---------------------------------------------------------------------
 Rotational constants (GHZ):      1.7958296      0.9690735      0.7653705
 Standard basis: 6-31G(d) (6D, 7F)
 There are   174 symmetry adapted basis functions of A   symmetry.
 Integral buffers will be    131072 words long.
 Raffenetti 1 integral format.
 Two-electron integral symmetry is turned on.
   174 basis functions,   328 primitive gaussians,   174 cartesian basis functions
    39 alpha electrons       39 beta electrons
       nuclear repulsion energy       566.1615827555 Hartrees.
 NAtoms=   22 NActive=   22 NUniq=   22 SFac= 7.50D-01 NAtFMM=   80 NAOKFM=F Big=F
 One-electron integrals computed using PRISM.
 NBasis=   174 RedAO= T  NBF=   174
 NBsUse=   174 1.00D-06 NBFU=   174
 Initial guess read from the read-write file.
 B after Tr=     0.000000    0.000000    0.000000
         Rot=    1.000000    0.000000    0.000000    0.000000 Ang=   0.00 deg.
 Initial guess orbital symmetries:
       Occupied  (A) (A) (A) (A) (A) (A) (A) (A) (A) (A) (A) (A)
                 (A) (A) (A) (A) (A) (A) (A) (A) (A) (A) (A) (A)
                 (A) (A) (A) (A) (A) (A) (A) (A) (A) (A) (A) (A)
                 (A) (A) (A)
       Virtual   (A) (A) (A) (A) (A) (A) (A) (A) (A) (A) (A) (A)
                 (A) (A) (A) (A) (A) (A) (A) (A) (A) (A) (A) (A)
                 (A) (A) (A) (A) (A) (A) (A) (A) (A) (A) (A) (A)
                 (A) (A) (A) (A) (A) (A) (A) (A) (A) (A) (A) (A)
                 (A) (A) (A) (A) (A) (A) (A) (A) (A) (A) (A) (A)
                 (A) (A) (A) (A) (A) (A) (A) (A) (A) (A) (A) (A)
                 (A) (A) (A) (A) (A) (A) (A) (A) (A) (A) (A) (A)
                 (A) (A) (A) (A) (A) (A) (A) (A) (A) (A) (A) (A)
                 (A) (A) (A) (A) (A) (A) (A) (A) (A) (A) (A) (A)
                 (A) (A) (A) (A) (A) (A) (A) (A) (A) (A) (A) (A)
                 (A) (A) (A) (A) (A) (A) (A) (A) (A) (A) (A) (A)
                 (A) (A) (A)
 Harris functional with IExCor=  205 diagonalized for initial guess.
 ExpMin= 1.61D-01 ExpMax= 5.48D+03 ExpMxC= 8.25D+02 IAcc=1 IRadAn=         1 AccDes= 0.00D+00
 HarFok:  IExCor=  205 AccDes= 0.00D+00 IRadAn=         1 IDoV= 1
 ScaDFX=  1.000000  1.000000  1.000000  1.000000
 FoFCou: FMM=F IPFlag=           0 FMFlag=      100000 FMFlg1=           0
         NFxFlg=           0 DoJE=T BraDBF=F KetDBF=T FulRan=T
         Omega=  0.000000  0.000000  1.000000  0.000000  0.000000 ICntrl=     500 IOpCl=  0
         NMat0=    1 NMatS0=    1 NMatT0=    0 NMatD0=    1 NMtDS0=    0 NMtDT0=    0
         I1Cent=           4 NGrid=           0.
 Petite list used in FoFCou.
 Requested convergence on RMS density matrix=1.00D-08 within 128 cycles.
 Requested convergence on MAX density matrix=1.00D-06.
 Requested convergence on             energy=1.00D-06.
 No special actions if energy rises.
 Integral accuracy reduced to 1.0D-05 until final iterations.
 Initial convergence to 1.0D-05 achieved.  Increase integral accuracy.
 SCF Done:  E(RHF) =  -492.843977366     A.U. after   14 cycles
             Convg  =    0.5916D-08             -V/T =  2.0018
 Calling FoFJK, ICntrl=      2127 FMM=F ISym2X=0 I1Cent= 0 IOpClX= 0 NMat=1 NMatS=1 NMatT=0.
 ***** Axes restored to original set *****
 -------------------------------------------------------------------
 Center     Atomic                   Forces (Hartrees/Bohr)
 Number     Number              X              Y              Z
 -------------------------------------------------------------------
      1        1           0.003754201    0.000116352   -0.000984062
      2        6           0.004564920   -0.000173029   -0.003803952
      3        1          -0.001271071   -0.002128324    0.001921592
      4        1          -0.002069536    0.000217582   -0.001623490
      5        6          -0.016419130    0.018137251    0.029772684
      6        8           0.009193635   -0.017666989   -0.015542403
      7        7           0.006064151    0.002720593   -0.017532312
      8        1           0.000252225    0.005777669    0.001836589
      9        6           0.001886685   -0.005419211    0.003389968
     10        1          -0.001702481    0.005463067   -0.001020565
     11        6          -0.000081518   -0.002000608    0.000690867
     12        1           0.002040750   -0.001417098    0.000314907
     13        1          -0.001321713   -0.002083214   -0.000798308
     14        1           0.001462508    0.001433886   -0.001348866
     15        6           0.003345710    0.012807973    0.025463036
     16        8          -0.011017141   -0.015859421   -0.014433581
     17        7           0.001635948   -0.001741077   -0.011729190
     18        1           0.002192129    0.002261080    0.006229844
     19        6          -0.001896561    0.000532662    0.000021122
     20        1          -0.002439387   -0.002027266   -0.002179165
     21        1          -0.000353829    0.000615665    0.001966756
     22        1           0.002179504    0.000432458   -0.000611471
 -------------------------------------------------------------------
 Cartesian Forces:  Max     0.029772684 RMS     0.008076981

 GradGradGradGradGradGradGradGradGradGradGradGradGradGradGradGradGradGrad
 Berny optimization.
 Using GEDIIS/GDIIS optimizer.
 Internal  Forces:  Max     0.023982315 RMS     0.004414031
 Search for a local minimum.
 Step number   2 out of a maximum of  108
 All quantities printed in internal units (Hartrees-Bohrs-Radians)
 Mixed Optimization -- RFO/linear search
 Update second derivatives using D2CorX and points    1    2
 DE= -1.32D-02 DEPred=-2.34D-02 R= 5.64D-01
 SS=  1.41D+00  RLast= 3.00D-01 DXNew= 5.0454D-01 8.9985D-01
 Trust test= 5.64D-01 RLast= 3.00D-01 DXMaxT set to 5.05D-01
 Use linear search instead of GDIIS.
     Eigenvalues ---    0.00369   0.00435   0.01017   0.01044   0.01332
     Eigenvalues ---    0.01441   0.01659   0.02550   0.02692   0.03113
     Eigenvalues ---    0.05609   0.05683   0.05785   0.06168   0.07245
     Eigenvalues ---    0.07297   0.07564   0.07738   0.15649   0.15994
     Eigenvalues ---    0.15998   0.16000   0.16000   0.16000   0.16000
     Eigenvalues ---    0.16000   0.16000   0.16000   0.16000   0.16762
     Eigenvalues ---    0.17789   0.21932   0.24045   0.24728   0.24984
     Eigenvalues ---    0.24998   0.29303   0.29780   0.29844   0.34262
     Eigenvalues ---    0.34770   0.34807   0.34811   0.34812   0.34813
     Eigenvalues ---    0.34817   0.34818   0.34818   0.34821   0.35114
     Eigenvalues ---    0.38374   0.45008   0.45942   0.48611   0.58277
     Eigenvalues ---    0.59139   0.84906   0.915451000.000001000.00000
     Eigenvalues --- 1000.000001000.000001000.000001000.000001000.00000
     Eigenvalues --- 1000.000001000.000001000.000001000.000001000.00000
     Eigenvalues --- 1000.000001000.000001000.000001000.000001000.00000
     Eigenvalues --- 1000.000001000.000001000.000001000.000001000.00000
     Eigenvalues --- 1000.000001000.000001000.000001000.000001000.00000
     Eigenvalues --- 1000.000001000.000001000.000001000.000001000.00000
     Eigenvalues --- 1000.000001000.000001000.000001000.000001000.00000
     Eigenvalues --- 1000.000001000.000001000.00000
 RFO step:  Lambda=-6.99920190D-03 EMin= 3.68708251D-03
 Quartic linear search produced a step of  0.02560.
 Iteration  1 RMS(Cart)=  0.05929034 RMS(Int)=  0.00264220
 Iteration  2 RMS(Cart)=  0.00375924 RMS(Int)=  0.00072537
 Iteration  3 RMS(Cart)=  0.00000821 RMS(Int)=  0.00072535
 Iteration  4 RMS(Cart)=  0.00000001 RMS(Int)=  0.00072535
 Iteration  1 RMS(Cart)=  0.00021880 RMS(Int)=  0.00009511
 Iteration  2 RMS(Cart)=  0.00014461 RMS(Int)=  0.00010541
 Iteration  3 RMS(Cart)=  0.00009757 RMS(Int)=  0.00012012
 Iteration  4 RMS(Cart)=  0.00006661 RMS(Int)=  0.00013167
 Iteration  5 RMS(Cart)=  0.00004574 RMS(Int)=  0.00013985
 Iteration  6 RMS(Cart)=  0.00003150 RMS(Int)=  0.00014549
 Iteration  7 RMS(Cart)=  0.00002172 RMS(Int)=  0.00014936
 Iteration  8 RMS(Cart)=  0.00001498 RMS(Int)=  0.00015200
 Iteration  9 RMS(Cart)=  0.00001033 RMS(Int)=  0.00015381
 Iteration 10 RMS(Cart)=  0.00000712 RMS(Int)=  0.00015504
 Iteration 11 RMS(Cart)=  0.00000491 RMS(Int)=  0.00015589
 Iteration 12 RMS(Cart)=  0.00000339 RMS(Int)=  0.00015647
 Iteration 13 RMS(Cart)=  0.00000233 RMS(Int)=  0.00015687
 Iteration 14 RMS(Cart)=  0.00000161 RMS(Int)=  0.00015715
 Iteration 15 RMS(Cart)=  0.00000111 RMS(Int)=  0.00015734
 Iteration 16 RMS(Cart)=  0.00000076 RMS(Int)=  0.00015747
 Variable       Old X    -DE/DX   Delta X   Delta X   Delta X     New X
                                 (Linear)    (Quad)   (Total)
    R1        2.04692  -0.00343  -0.00033  -0.01202  -0.01235   2.03456
    R2        2.05593  -0.00130  -0.00010  -0.00439  -0.00449   2.05144
    R3        2.05499  -0.00135  -0.00012  -0.00465  -0.00477   2.05022
    R4        2.87536  -0.00215  -0.00041  -0.00996  -0.01036   2.86499
    R5        2.29038  -0.02398  -0.00082  -0.03183  -0.03265   2.25773
    R6        2.54857   0.00542   0.00066   0.01365   0.01432   2.56289
    R7        1.89182  -0.00601  -0.00043  -0.01594  -0.01637   1.87546
    R8        2.77161  -0.00717   0.00086  -0.01311  -0.01226   2.75935
    R9        2.05055  -0.00305  -0.00024  -0.01029  -0.01053   2.04003
   R10        2.89333   0.00324   0.00029   0.01272   0.01302   2.90634
   R11        2.89733  -0.00306   0.00054  -0.00657  -0.00602   2.89130
   R12        2.05342  -0.00163  -0.00016  -0.00574  -0.00590   2.04753
   R13        2.05138  -0.00206  -0.00022  -0.00732  -0.00754   2.04384
   R14        2.05565  -0.00130  -0.00010  -0.00439  -0.00449   2.05116
   R15        2.29498  -0.02337  -0.00070  -0.03039  -0.03109   2.26389
   R16        2.53108   0.00310   0.00021   0.00671   0.00692   2.53799
   R17        1.88746  -0.00600  -0.00054  -0.01661  -0.01715   1.87031
   R18        2.73485  -0.00018  -0.00009  -0.00102  -0.00111   2.73374
   R19        2.04423  -0.00383  -0.00040  -0.01357  -0.01396   2.03027
   R20        2.05496  -0.00176  -0.00012  -0.00587  -0.00600   2.04896
   R21        2.05362  -0.00202  -0.00016  -0.00683  -0.00699   2.04663
    A1        1.91133  -0.00022   0.00000  -0.00200  -0.00178   1.90956
    A2        1.91121  -0.00012   0.00000  -0.00365  -0.00352   1.90770
    A3        1.91526  -0.00389  -0.00061  -0.02959  -0.03002   1.88525
    A4        1.89778  -0.00286  -0.00032  -0.01590  -0.01666   1.88112
    A5        1.91582   0.00408   0.00051   0.02973   0.03011   1.94593
    A6        1.91232   0.00302   0.00042   0.02153   0.02178   1.93410
    A7        2.10059   0.00925  -0.00006   0.03712   0.03615   2.13674
    A8        2.00277  -0.00125  -0.00083  -0.00943  -0.01113   1.99164
    A9        2.17902  -0.00794   0.00087  -0.02476  -0.02472   2.15430
   A10        2.03248   0.00282  -0.00158   0.00275   0.00115   2.03363
   A11        2.24161  -0.00490   0.00292  -0.00284   0.00006   2.24167
   A12        2.00891   0.00212  -0.00134   0.00027  -0.00108   2.00783
   A13        1.89970   0.00267  -0.00029   0.01458   0.01339   1.91309
   A14        1.89302   0.00027  -0.00118   0.00374   0.00301   1.89603
   A15        2.05047  -0.00547   0.00285  -0.01539  -0.01314   2.03732
   A16        1.89407  -0.00133  -0.00005   0.00321   0.00354   1.89761
   A17        1.85241  -0.00132  -0.00112  -0.04571  -0.04686   1.80555
   A18        1.86925   0.00530  -0.00031   0.04023   0.03999   1.90924
   A19        1.92892   0.00218   0.00045   0.01846   0.01877   1.94769
   A20        1.91095   0.00113   0.00000   0.00567   0.00563   1.91657
   A21        1.92472   0.00194   0.00035   0.01322   0.01347   1.93818
   A22        1.90192  -0.00144  -0.00021  -0.00832  -0.00862   1.89330
   A23        1.89861  -0.00184  -0.00030  -0.01086  -0.01135   1.88726
   A24        1.89828  -0.00210  -0.00030  -0.01911  -0.01941   1.87887
   A25        2.08152  -0.00332  -0.00055  -0.01840  -0.02184   2.05968
   A26        2.05228  -0.00315   0.00044  -0.01130  -0.01403   2.03825
   A27        2.14848   0.00633   0.00009   0.02392   0.02041   2.16890
   A28        2.08723  -0.00311  -0.00018  -0.01791  -0.01879   2.06844
   A29        2.14013   0.00325   0.00032   0.01651   0.01611   2.15624
   A30        2.05571  -0.00016  -0.00014   0.00042  -0.00047   2.05525
   A31        1.89680  -0.00125  -0.00037  -0.01154  -0.01187   1.88494
   A32        1.92673   0.00156   0.00040   0.01293   0.01328   1.94000
   A33        1.91918   0.00152   0.00021   0.01138   0.01153   1.93072
   A34        1.90843  -0.00043  -0.00005  -0.00440  -0.00440   1.90402
   A35        1.90717  -0.00041  -0.00008  -0.00451  -0.00455   1.90262
   A36        1.90538  -0.00101  -0.00012  -0.00410  -0.00435   1.90103
    D1        0.02019  -0.00085   0.00052  -0.03443  -0.03447  -0.01428
    D2        3.12071   0.00060  -0.00054   0.03951   0.03960  -3.12288
    D3        2.12153  -0.00100   0.00047  -0.03682  -0.03720   2.08433
    D4       -1.06114   0.00044  -0.00059   0.03713   0.03687  -1.02427
    D5       -2.07881  -0.00016   0.00063  -0.02498  -0.02471  -2.10352
    D6        1.02171   0.00128  -0.00043   0.04897   0.04936   1.07106
    D7       -0.01562  -0.00183  -0.00040  -0.04023  -0.03982  -0.05544
    D8        3.10439   0.00072  -0.00095  -0.02955  -0.02954   3.07485
    D9        3.08278   0.00016  -0.00151   0.03921   0.03674   3.11953
   D10       -0.08039   0.00271  -0.00206   0.04989   0.04702  -0.03337
   D11        1.58062  -0.00474   0.00025  -0.05982  -0.06008   1.52054
   D12       -2.64494  -0.00468  -0.00069  -0.04573  -0.04648  -2.69142
   D13       -0.52367  -0.00129   0.00000   0.00000   0.00000  -0.52366
   D14       -1.58231  -0.00220  -0.00029  -0.04924  -0.04991  -1.63222
   D15        0.47531  -0.00215  -0.00124  -0.03515  -0.03630   0.43901
   D16        2.59659   0.00125  -0.00055   0.01058   0.01018   2.60676
   D17        1.09574  -0.00196   0.00124  -0.01088  -0.00933   1.08641
   D18       -3.09226  -0.00165   0.00126  -0.00602  -0.00444  -3.09671
   D19       -1.00419  -0.00233   0.00110  -0.01784  -0.01651  -1.02069
   D20       -3.12624   0.00064   0.00016   0.01040   0.01043  -3.11582
   D21       -1.03105   0.00094   0.00018   0.01525   0.01531  -1.01575
   D22        1.05702   0.00026   0.00002   0.00343   0.00324   1.06027
   D23       -1.13331   0.00114  -0.00134  -0.02081  -0.02225  -1.15556
   D24        0.96188   0.00144  -0.00132  -0.01596  -0.01737   0.94450
   D25        3.04995   0.00076  -0.00148  -0.02778  -0.02943   3.02052
   D26        2.40043   0.00126   0.00113   0.14082   0.14074   2.54117
   D27       -0.78541  -0.00218   0.00000   0.00000   0.00000  -0.78541
   D28        0.27160   0.00246   0.00048   0.16826   0.16724   0.43884
   D29       -2.91424  -0.00099  -0.00065   0.02744   0.02650  -2.88774
   D30       -1.74923   0.00212   0.00127   0.16768   0.16823  -1.58100
   D31        1.34812  -0.00132   0.00013   0.02686   0.02749   1.37560
   D32        0.02691   0.00340   0.00069   0.13064   0.13243   0.15934
   D33       -3.13109   0.00182   0.00027   0.05834   0.06018  -3.07091
   D34        3.12242  -0.00046  -0.00049  -0.01721  -0.01927   3.10315
   D35       -0.03557  -0.00204  -0.00091  -0.08951  -0.09153  -0.12710
   D36        0.00697   0.00080   0.00018   0.03597   0.03629   0.04326
   D37        2.09990   0.00044   0.00014   0.03120   0.03140   2.13131
   D38       -2.07991   0.00116   0.00037   0.04173   0.04230  -2.03762
   D39        3.13244  -0.00078  -0.00023  -0.03525  -0.03562   3.09682
   D40       -1.05781  -0.00115  -0.00027  -0.04003  -0.04051  -1.09832
   D41        1.04556  -0.00042  -0.00004  -0.02950  -0.02961   1.01594
         Item               Value     Threshold  Converged?
 Maximum Force            0.023982     0.000450     NO 
 RMS     Force            0.004436     0.000300     NO 
 Maximum Displacement     0.279106     0.001800     NO 
 RMS     Displacement     0.059897     0.001200     NO 
 Predicted change in Energy=-3.943544D-03
 GradGradGradGradGradGradGradGradGradGradGradGradGradGradGradGradGradGrad

                          Input orientation:                          
 ---------------------------------------------------------------------
 Center     Atomic      Atomic             Coordinates (Angstroms)
 Number     Number       Type             X           Y           Z
 ---------------------------------------------------------------------
      1          1           0        0.311877    3.938948    0.936364
      2          6           0        1.173850    3.503001    0.460847
      3          1           0        0.965371    3.349835   -0.593454
      4          1           0        1.375173    2.532968    0.903089
      5          6           0        2.346722    4.441841    0.664497
      6          8           0        2.243806    5.477797    1.250671
      7          7           0        3.500581    4.019620    0.090323
      8          1           0        3.475583    3.132741   -0.354394
      9          6           0        4.787151    4.707188    0.026042
     10          1           0        5.362910    4.482093    0.911045
     11          6           0        5.555305    4.198343   -1.205368
     12          1           0        5.028829    4.424020   -2.125082
     13          1           0        6.531258    4.662671   -1.246264
     14          1           0        5.703657    3.124242   -1.155901
     15          6           0        4.749807    6.236603    0.005220
     16          8           0        5.632874    6.828528    0.557505
     17          7           0        3.852562    6.808976   -0.813999
     18          1           0        3.177499    6.232667   -1.251851
     19          6           0        3.748833    8.238190   -1.012328
     20          1           0        4.523604    8.710299   -0.436900
     21          1           0        3.874658    8.498357   -2.057369
     22          1           0        2.786490    8.601471   -0.673393
 ---------------------------------------------------------------------
                    Distance matrix (angstroms):
                    1          2          3          4          5
     1  H    0.000000
     2  C    1.076645   0.000000
     3  H    1.764781   1.085575   0.000000
     4  H    1.763090   1.084930   1.753525   0.000000
     5  C    2.113624   1.516088   2.164036   2.155140   0.000000
     6  O    2.489818   2.380850   3.092478   3.089879   1.194737
     7  N    3.300019   2.412024   2.709881   2.718102   1.356221
     8  H    3.510707   2.469754   2.530898   2.520459   2.006542
     9  C    4.631085   3.833414   4.102704   4.139811   2.536479
    10  H    5.080214   4.325450   4.783709   4.438602   3.026515
    11  C    5.669906   4.738873   4.707642   4.969161   3.721651
    12  H    5.644235   4.732459   4.473416   5.108336   3.869853
    13  H    6.630863   5.741157   5.755762   5.978341   4.605444
    14  H    5.840601   4.824571   4.776881   4.829578   4.039670
    15  C    5.083450   4.524118   4.797270   5.090308   3.070933
    16  O    6.066812   5.563395   5.933936   6.057993   4.062821
    17  N    4.882344   4.441870   4.511117   5.231644   3.171251
    18  H    4.273314   3.794603   3.692928   4.645418   2.751296
    19  C    5.838968   5.587736   5.640845   6.469362   4.380630
    20  H    6.510782   6.256417   6.435845   7.061699   4.916464
    21  H    6.514910   6.212033   6.092148   7.113199   5.118443
    22  H    5.518527   5.466397   5.559006   6.426806   4.391567
                    6          7          8          9         10
     6  O    0.000000
     7  N    2.247704   0.000000
     8  H    3.097225   0.992448   0.000000
     9  C    2.926117   1.460186   2.084185   0.000000
    10  H    3.291745   2.087040   2.642743   1.079535   0.000000
    11  C    4.316846   2.435702   2.486947   1.537970   2.143999
    12  H    4.501391   2.721599   2.686133   2.183100   3.055004
    13  H    5.028058   3.374164   3.531751   2.159318   2.460006
    14  H    4.827151   2.684832   2.367868   2.177772   2.496424
    15  C    2.899479   2.546138   3.374453   1.530013   2.067539
    16  O    3.713588   3.557372   4.375421   2.344735   2.388227
    17  N    2.936495   2.953337   3.723984   2.448804   3.266698
    18  H    2.775649   2.608330   3.240960   2.559506   3.538170
    19  C    3.873763   4.367356   5.154916   3.824172   4.518061
    20  H    4.300517   4.829804   5.675765   4.038399   4.516538
    21  H    4.767241   4.981124   5.643511   4.421109   5.211214
    22  H    3.708620   4.699632   5.521197   4.433654   5.110544
                   11         12         13         14         15
    11  C    0.000000
    12  H    1.083504   0.000000
    13  H    1.081553   1.756863   0.000000
[...]
    14  H    5.805555   4.851126   4.602871   5.156339   4.030322
    15  C    5.039682   4.542782   4.897863   5.112573   3.064386
    16  O    6.030909   5.547538   5.991610   5.999221   4.037025
    17  N    4.798871   4.522202   4.795928   5.317168   3.195568
    18  H    3.962781   3.753266   3.964927   4.650521   2.606586
    19  C    5.669658   5.605823   5.978399   6.415673   4.323370
    20  H    6.654324   6.500524   6.845903   7.261016   5.138752
    21  H    5.814277   5.873863   6.140184   6.789855   4.773775
    22  H    5.531256   5.582927   6.131906   6.311153   4.313904
                    6          7          8          9         10
     6  O    0.000000
     7  N    2.249948   0.000000
     8  H    3.106569   0.994458   0.000000
     9  C    2.902874   1.458350   2.089829   0.000000
    10  H    3.269370   2.080707   2.646666   1.082406   0.000000
    11  C    4.291538   2.434523   2.496997   1.530442   2.139657
    12  H    4.468768   2.717365   2.691333   2.170409   3.048120
    13  H    4.993227   3.372357   3.542427   2.152740   2.454999
    14  H    4.807213   2.675718   2.370999   2.165619   2.483658
    15  C    2.868711   2.556457   3.386935   1.533504   2.072012
    16  O    3.659245   3.558776   4.385105   2.350574   2.389233
    17  N    2.918435   2.996331   3.767804   2.476452   3.290477
    18  H    2.490143   2.615373   3.310778   2.611170   3.543344
    19  C    3.723836   4.367836   5.185245   3.818073   4.472001
    20  H    4.577197   4.981461   5.776413   4.145208   4.685289
    21  H    4.252358   4.899771   5.621807   4.543465   5.327845
    22  H    3.455234   4.618497   5.528378   4.187859   4.679465
                   11         12         13         14         15
    11  C    0.000000
    12  H    1.084193   0.000000
    13  H    1.082605   1.761000   0.000000
    14  H    1.086344   1.764184   1.753852   0.000000
    15  C    2.491730   2.791954   2.666729   3.444165   0.000000
    16  O    3.171508   3.654515   2.959480   4.081716   1.198480
    17  N    3.159209   2.973399   3.464235   4.158647   1.354158
    18  H    3.323352   2.988237   3.893822   4.189642   1.999467
    19  C    4.492202   4.279605   4.593886   5.534404   2.418420
    20  H    4.625514   4.481931   4.471485   5.705187   2.665867
    21  H    5.060109   4.629026   5.240021   6.083520   3.298963
    22  H    5.140458   5.070012   5.281093   6.133442   2.791574
                   16         17         18         19         20
    16  O    0.000000
    17  N    2.247267   0.000000
    18  H    3.075747   0.993072   0.000000
    19  C    2.745047   1.449808   2.079638   0.000000
    20  H    2.597042   2.076110   2.927014   1.079324   0.000000
    21  H    3.777413   2.067608   2.330681   1.082409   1.759219
    22  H    2.946955   2.109363   2.578857   1.084823   1.758640
                   21         22
    21  H    0.000000
    22  H    1.766835   0.000000
 Stoichiometry    C6H12N2O2
 Framework group  C1[X(C6H12N2O2)]
 Deg. of freedom    60
 Full point group                 C1      NOp   1
 Largest Abelian subgroup         C1      NOp   1
 Largest concise Abelian subgroup C1      NOp   1
                         Standard orientation:                         
 ---------------------------------------------------------------------
 Center     Atomic      Atomic             Coordinates (Angstroms)
 Number     Number       Type             X           Y           Z
 ---------------------------------------------------------------------
      1          1           0        3.398532   -1.653278   -0.450732
      2          6           0        3.204925   -0.606020   -0.269187
      3          1           0        3.430765   -0.032836   -1.161308
      4          1           0        3.861655   -0.270131    0.527097
      5          6           0        1.767286   -0.447162    0.181983
      6          8           0        1.172431   -1.338959    0.722056
      7          7           0        1.231386    0.778135   -0.037350
      8          1           0        1.802129    1.444369   -0.505679
      9          6           0       -0.108280    1.234125    0.315005
     10          1           0       -0.097738    1.611743    1.329350
     11          6           0       -0.514054    2.369212   -0.627958
     12          1           0       -0.561308    2.024705   -1.654874
     13          1           0       -1.486722    2.750576   -0.344209
     14          1           0        0.196952    3.188296   -0.567013
     15          6           0       -1.227037    0.185549    0.337440
     16          8           0       -2.076654    0.281634    1.177246
     17          7           0       -1.296620   -0.690858   -0.692517
     18          1           0       -0.434732   -0.914723   -1.132091
     19          6           0       -2.266825   -1.766913   -0.640051
     20          1           0       -3.249196   -1.357248   -0.460995
     21          1           0       -2.267862   -2.277838   -1.594286
     22          1           0       -2.038135   -2.478724    0.145994
 ---------------------------------------------------------------------
 Rotational constants (GHZ):      1.8013867      0.9989953      0.7620803

 **********************************************************************

            Population analysis using the SCF density.

 **********************************************************************

 Orbital symmetries:
       Occupied  (A) (A) (A) (A) (A) (A) (A) (A) (A) (A) (A) (A)
                 (A) (A) (A) (A) (A) (A) (A) (A) (A) (A) (A) (A)
                 (A) (A) (A) (A) (A) (A) (A) (A) (A) (A) (A) (A)
                 (A) (A) (A)
       Virtual   (A) (A) (A) (A) (A) (A) (A) (A) (A) (A) (A) (A)
                 (A) (A) (A) (A) (A) (A) (A) (A) (A) (A) (A) (A)
                 (A) (A) (A) (A) (A) (A) (A) (A) (A) (A) (A) (A)
                 (A) (A) (A) (A) (A) (A) (A) (A) (A) (A) (A) (A)
                 (A) (A) (A) (A) (A) (A) (A) (A) (A) (A) (A) (A)
                 (A) (A) (A) (A) (A) (A) (A) (A) (A) (A) (A) (A)
                 (A) (A) (A) (A) (A) (A) (A) (A) (A) (A) (A) (A)
                 (A) (A) (A) (A) (A) (A) (A) (A) (A) (A) (A) (A)
                 (A) (A) (A) (A) (A) (A) (A) (A) (A) (A) (A) (A)
                 (A) (A) (A) (A) (A) (A) (A) (A) (A) (A) (A) (A)
                 (A) (A) (A) (A) (A) (A) (A) (A) (A) (A) (A) (A)
                 (A) (A) (A)
 The electronic state is 1-A.
 Alpha  occ. eigenvalues --  -20.53339 -20.51780 -15.60011 -15.57047 -11.36084
 Alpha  occ. eigenvalues --  -11.33923 -11.28354 -11.24346 -11.24326 -11.23674
 Alpha  occ. eigenvalues --   -1.40406  -1.38579  -1.25144  -1.21936  -1.06394
 Alpha  occ. eigenvalues --   -1.00181  -0.94799  -0.88315  -0.81499  -0.77367
 Alpha  occ. eigenvalues --   -0.70859  -0.69645  -0.67480  -0.62791  -0.62409
 Alpha  occ. eigenvalues --   -0.62400  -0.59729  -0.58553  -0.58229  -0.56086
 Alpha  occ. eigenvalues --   -0.55249  -0.54138  -0.53850  -0.51870  -0.50224
 Alpha  occ. eigenvalues --   -0.42898  -0.41724  -0.40014  -0.37936
 Alpha virt. eigenvalues --    0.18866   0.20331   0.20463   0.25330   0.25554
 Alpha virt. eigenvalues --    0.27841   0.28871   0.29583   0.29641   0.31474
 Alpha virt. eigenvalues --    0.32415   0.33398   0.34091   0.35068   0.37112
 Alpha virt. eigenvalues --    0.39133   0.40753   0.44325   0.45384   0.51100
 Alpha virt. eigenvalues --    0.53136   0.57339   0.65634   0.70392   0.72131
 Alpha virt. eigenvalues --    0.73178   0.74298   0.75808   0.76047   0.78345
 Alpha virt. eigenvalues --    0.80893   0.82796   0.84460   0.86639   0.90222
 Alpha virt. eigenvalues --    0.92741   0.94371   0.96503   0.98562   0.99317
 Alpha virt. eigenvalues --    1.01585   1.02352   1.04915   1.08104   1.09744
 Alpha virt. eigenvalues --    1.11636   1.12744   1.13862   1.14816   1.15925
 Alpha virt. eigenvalues --    1.17716   1.18679   1.18887   1.19174   1.21328
 Alpha virt. eigenvalues --    1.22884   1.24038   1.24211   1.25202   1.27401
 Alpha virt. eigenvalues --    1.31302   1.33698   1.36852   1.38223   1.42294
 Alpha virt. eigenvalues --    1.45786   1.48569   1.52494   1.58485   1.58850
 Alpha virt. eigenvalues --    1.60859   1.62980   1.66725   1.71688   1.75149
 Alpha virt. eigenvalues --    1.78417   1.86930   1.91353   1.93205   1.99028
 Alpha virt. eigenvalues --    2.01794   2.02418   2.08693   2.10334   2.12717
 Alpha virt. eigenvalues --    2.14642   2.16955   2.18293   2.21542   2.23201
 Alpha virt. eigenvalues --    2.26011   2.27439   2.27891   2.32990   2.33379
 Alpha virt. eigenvalues --    2.36628   2.38815   2.40603   2.42849   2.48600
 Alpha virt. eigenvalues --    2.53643   2.56649   2.56913   2.61803   2.64768
 Alpha virt. eigenvalues --    2.65670   2.69426   2.70124   2.74015   2.76518
 Alpha virt. eigenvalues --    2.77526   2.85840   2.90044   2.91449   2.98326
 Alpha virt. eigenvalues --    3.03045   3.05773   3.07816   3.13252   3.26443
 Alpha virt. eigenvalues --    3.30735   3.36766   3.40225   3.53804   3.60678
 Alpha virt. eigenvalues --    4.36744   4.38987   4.50468   4.56994   4.64081
 Alpha virt. eigenvalues --    4.66091   4.72335   4.84535   4.89786   5.11488
          Condensed to atoms (all electrons):
              1          2          3          4          5          6
     1  H    0.462576   0.384619  -0.021719  -0.017092  -0.031558   0.002816
     2  C    0.384619   5.270931   0.373479   0.376446   0.372155  -0.072894
     3  H   -0.021719   0.373479   0.528949  -0.024058  -0.036629   0.002263
     4  H   -0.017092   0.376446  -0.024058   0.482735  -0.026013   0.000175
     5  C   -0.031558   0.372155  -0.036629  -0.026013   4.159990   0.606591
     6  O    0.002816  -0.072894   0.002263   0.000175   0.606591   8.162382
     7  N    0.004045  -0.123320   0.005234   0.000536   0.255662  -0.104975
     8  H    0.000006   0.000346   0.000844   0.000098  -0.019216   0.002529
     9  C   -0.000054   0.003390   0.000091  -0.000190  -0.024943   0.005307
    10  H   -0.000002  -0.000183   0.000004   0.000028  -0.000982   0.000525
    11  C    0.000002  -0.000103  -0.000014  -0.000001   0.002624   0.000181
    12  H    0.000000  -0.000019   0.000003   0.000001  -0.000096   0.000001
    13  H    0.000000   0.000002   0.000000   0.000000   0.000004   0.000002
    14  H    0.000000  -0.000006  -0.000003   0.000000  -0.000129  -0.000001
    15  C    0.000004   0.000114  -0.000016  -0.000004  -0.001245   0.005667
    16  O    0.000000  -0.000003   0.000000   0.000000  -0.000101  -0.000554
    17  N    0.000005  -0.000016   0.000012  -0.000001   0.003445  -0.010645
    18  H    0.000006  -0.000110  -0.000016   0.000005   0.004156   0.002945
    19  C    0.000000   0.000000   0.000000   0.000000  -0.000051   0.000003
    20  H    0.000000   0.000000   0.000000   0.000000   0.000005   0.000001
    21  H    0.000000   0.000000   0.000000   0.000000   0.000011  -0.000030
    22  H    0.000000   0.000002   0.000000   0.000000  -0.000079   0.000800
              7          8          9         10         11         12
     1  H    0.004045   0.000006  -0.000054  -0.000002   0.000002   0.000000
     2  C   -0.123320   0.000346   0.003390  -0.000183  -0.000103  -0.000019
     3  H    0.005234   0.000844   0.000091   0.000004  -0.000014   0.000003
     4  H    0.000536   0.000098  -0.000190   0.000028  -0.000001   0.000001
     5  C    0.255662  -0.019216  -0.024943  -0.000982   0.002624  -0.000096
     6  O   -0.104975   0.002529   0.005307   0.000525   0.000181   0.000001
     7  N    7.475778   0.323964   0.127593  -0.044963  -0.057456   0.000705
     8  H    0.323964   0.326275  -0.023481   0.000544  -0.003847   0.000549
     9  C    0.127593  -0.023481   5.048989   0.416151   0.341492  -0.036414
    10  H   -0.044963   0.000544   0.416151   0.483998  -0.036367   0.003939
    11  C   -0.057456  -0.003847   0.341492  -0.036367   5.152258   0.385387
    12  H    0.000705   0.000549  -0.036414   0.003939   0.385387   0.515535
    13  H    0.004268   0.000020  -0.035699   0.000087   0.391713  -0.019715
    14  H   -0.003908   0.003157  -0.036515  -0.004188   0.388247  -0.028143
    15  C   -0.036936   0.002249   0.394779  -0.052557  -0.046423  -0.007116
    16  O    0.002414  -0.000056  -0.067381   0.006850  -0.002859   0.000094
    17  N    0.006421  -0.000364  -0.121883   0.004690   0.003383   0.003327
    18  H    0.001480  -0.000079  -0.002953   0.000044   0.000102   0.000334
    19  C   -0.000126   0.000007   0.004453  -0.000103  -0.000188  -0.000050
    20  H   -0.000008   0.000000   0.000079  -0.000010  -0.000015  -0.000007
    21  H   -0.000003   0.000000   0.000005   0.000001  -0.000002  -0.000003
    22  H   -0.000014   0.000000  -0.000135   0.000011   0.000003   0.000003
             13         14         15         16         17         18
     1  H    0.000000   0.000000   0.000004   0.000000   0.000005   0.000006
     2  C    0.000002  -0.000006   0.000114  -0.000003  -0.000016  -0.000110
     3  H    0.000000  -0.000003  -0.000016   0.000000   0.000012  -0.000016
     4  H    0.000000   0.000000  -0.000004   0.000000  -0.000001   0.000005
     5  C    0.000004  -0.000129  -0.001245  -0.000101   0.003445   0.004156
     6  O    0.000002  -0.000001   0.005667  -0.000554  -0.010645   0.002945
     7  N    0.004268  -0.003908  -0.036936   0.002414   0.006421   0.001480
     8  H    0.000020   0.003157   0.002249  -0.000056  -0.000364  -0.000079
     9  C   -0.035699  -0.036515   0.394779  -0.067381  -0.121883  -0.002953
    10  H    0.000087  -0.004188  -0.052557   0.006850   0.004690   0.000044
    11  C    0.391713   0.388247  -0.046423  -0.002859   0.003383   0.000102
    12  H   -0.019715  -0.028143  -0.007116   0.000094   0.003327   0.000334
    13  H    0.473162  -0.022827  -0.003026   0.002917   0.000178  -0.000006
    14  H   -0.022827   0.532142   0.005095  -0.000091  -0.000089  -0.000018
    15  C   -0.003026   0.005095   4.166957   0.599147   0.264129  -0.020779
    16  O    0.002917  -0.000091   0.599147   8.160359  -0.102282   0.002786
    17  N    0.000178  -0.000089   0.264129  -0.102282   7.295686   0.323246
    18  H   -0.000006  -0.000018  -0.020779   0.002786   0.323246   0.330629
    19  C   -0.000018   0.000004  -0.032945   0.005781   0.219073  -0.025995
    20  H    0.000006   0.000000  -0.004089   0.004058  -0.037215   0.003024
    21  H    0.000000   0.000000   0.004794   0.000384  -0.039537  -0.004272
    22  H   -0.000001   0.000000  -0.003181   0.001320  -0.048792   0.000835
             19         20         21         22
     1  H    0.000000   0.000000   0.000000   0.000000
     2  C    0.000000   0.000000   0.000000   0.000002
     3  H    0.000000   0.000000   0.000000   0.000000
     4  H    0.000000   0.000000   0.000000   0.000000
     5  C   -0.000051   0.000005   0.000011  -0.000079
     6  O    0.000003   0.000001  -0.000030   0.000800
     7  N   -0.000126  -0.000008  -0.000003  -0.000014
     8  H    0.000007   0.000000   0.000000   0.000000
     9  C    0.004453   0.000079   0.000005  -0.000135
    10  H   -0.000103  -0.000010   0.000001   0.000011
    11  C   -0.000188  -0.000015  -0.000002   0.000003
    12  H   -0.000050  -0.000007  -0.000003   0.000003
    13  H   -0.000018   0.000006   0.000000  -0.000001
    14  H    0.000004   0.000000   0.000000   0.000000
    15  C   -0.032945  -0.004089   0.004794  -0.003181
    16  O    0.005781   0.004058   0.000384   0.001320
    17  N    0.219073  -0.037215  -0.039537  -0.048792
    18  H   -0.025995   0.003024  -0.004272   0.000835
    19  C    4.910677   0.402108   0.397530   0.405510
    20  H    0.402108   0.489038  -0.025359  -0.031269
    21  H    0.397530  -0.025359   0.536269  -0.032806
    22  H    0.405510  -0.031269  -0.032806   0.522635
 Mulliken atomic charges:
              1
     1  H    0.216345
     2  C   -0.584828
     3  H    0.171576
     4  H    0.207336
     5  C    0.736399
     6  O   -0.603089
     7  N   -0.836391
     8  H    0.386454
     9  C    0.007317
    10  H    0.222483
    11  C   -0.518119
    12  H    0.181689
    13  H    0.208932
    14  H    0.167274
    15  C    0.765381
    16  O   -0.612783
    17  N   -0.762771
    18  H    0.384635
    19  C   -0.285671
    20  H    0.199653
    21  H    0.163018
    22  H    0.185159
 Sum of Mulliken atomic charges =   0.00000
 Mulliken charges with hydrogens summed into heavy atoms:
              1
     2  C    0.010429
     5  C    0.736399
     6  O   -0.603089
     7  N   -0.449937
     9  C    0.229801
    11  C    0.039776
    15  C    0.765381
    16  O   -0.612783
    17  N   -0.378136
    19  C    0.262159
 Sum of Mulliken charges with hydrogens summed into heavy atoms =   0.00000
 Electronic spatial extent (au):  <R**2>=           1638.0474
 Charge=              0.0000 electrons
 Dipole moment (field-independent basis, Debye):
    X=              3.9532    Y=              2.0646    Z=             -4.0809  Tot=              6.0452
 Quadrupole moment (field-independent basis, Debye-Ang):
   XX=            -57.8853   YY=            -57.4798   ZZ=            -63.9649
   XY=              5.3919   XZ=              2.6458   YZ=              2.6260
 Traceless Quadrupole moment (field-independent basis, Debye-Ang):
   XX=              1.8913   YY=              2.2969   ZZ=             -4.1882
   XY=              5.3919   XZ=              2.6458   YZ=              2.6260
 Octapole moment (field-independent basis, Debye-Ang**2):
  XXX=             33.0456  YYY=              5.1748  ZZZ=             -1.0116  XYY=             -6.6409
  XXY=             -6.6218  XXZ=            -13.0088  XZZ=              8.0934  YZZ=             -1.8574
  YYZ=             -5.8971  XYZ=              1.5855
 Hexadecapole moment (field-independent basis, Debye-Ang**3):
 XXXX=          -1185.5612 YYYY=           -658.0627 ZZZZ=           -219.3246 XXXY=             11.1730
 XXXZ=             25.6172 YYYX=             12.9266 YYYZ=              7.9323 ZZZX=              3.5114
 ZZZY=              3.9299 XXYY=           -297.5890 XXZZ=           -259.5493 YYZZ=           -147.1721
 XXYZ=             -0.6944 YYXZ=             -7.1173 ZZXY=              7.4777
 N-N= 5.688104614701D+02 E-N=-2.292969235079D+03  KE= 4.921221191999D+02
 1\1\GINC-RODAN\FOpt\RHF\6-31G(d)\C6H12N2O2\STEBOSS\10-Feb-2017\0\\# HF
 /6-31G* Opt=(ModRedundant) geom=nocrowd\\Phi Psi fixed scan\\0,1\H,0.2
 362710691,4.0428349027,0.44294227\C,1.160847816,3.4845053706,0.4180937
 916\H,1.1991051554,2.8811844043,-0.4818854689\H,1.1814598845,2.8192627
 977,1.2755383623\C,2.3194161979,4.4551836857,0.5234451144\O,2.20055622
 37,5.5256309845,1.0533964159\N,3.4907816995,4.0048994077,0.0117831672\
 H,3.4813562092,3.1090395541,-0.4198331557\C,4.7744506963,4.6968353073,
 -0.0024634506\H,5.2983779776,4.4888565772,0.921575145\C,5.6119429118,4
 .1725362888,-1.1712106763\H,5.1323368581,4.3842722561,-2.120221262\H,6
 .5872525545,4.6423490002,-1.1622345168\H,5.7570358045,3.0993594363,-1.
 0852844345\C,4.7491405754,6.2290545334,-0.0598940617\O,5.5818818886,6.
 8327609222,0.5552774209\N,3.900703592,6.8177005419,-0.9359045352\H,3.0
 704206506,6.3136858454,-1.1427633093\C,3.7673082431,8.2613401728,-0.92
 85572738\H,4.742487272,8.713310474,-1.0269916041\H,3.1567389623,8.5560
 659226,-1.7723293103\H,3.3085277578,8.6197316144,-0.0131786279\\Versio
 n=EM64L-G09RevA.02\State=1-A\HF=-492.849001\RMSD=3.491e-09\RMSF=2.262e
 -03\Dipole=-0.8312844,-1.7790405,-1.3418781\Quadrupole=-2.3909375,5.21
 12775,-2.8203399,-1.2657485,0.018304,-3.0048723\PG=C01 [X(C6H12N2O2)]\
 \@


 I do not feel obliged to believe that the same God who
 has endowed us with sense, reason, and intellect has
 intended us to forgo their use.
                   --Galileo Galilei
 Job cpu time:  0 days  0 hours 24 minutes 21.9 seconds.
 File lengths (MBytes):  RWF=     25 Int=      0 D2E=      0 Chk=      3 Scr=      1
 Normal termination of Gaussian 09 at Fri Feb 10 22:07:43 2017.
