 Entering Gaussian System, Link 0=g09
 Initial command:
 /home/steboss/Software/g09/l1.exe /tmp/Gau-5906.inp -scrdir=/tmp/
 Entering Link 1 = /home/steboss/Software/g09/l1.exe PID=      5908.
  
 Copyright (c) 1988,1990,1992,1993,1995,1998,2003,2009, Gaussian, Inc.
                  All Rights Reserved.
  
 This is part of the Gaussian(R) 09 program.  It is based on
 the Gaussian(R) 03 system (copyright 2003, Gaussian, Inc.),
 the Gaussian(R) 98 system (copyright 1998, Gaussian, Inc.),
 the Gaussian(R) 94 system (copyright 1995, Gaussian, Inc.),
 the Gaussian 92(TM) system (copyright 1992, Gaussian, Inc.),
 the Gaussian 90(TM) system (copyright 1990, Gaussian, Inc.),
 the Gaussian 88(TM) system (copyright 1988, Gaussian, Inc.),
 the Gaussian 86(TM) system (copyright 1986, Carnegie Mellon
 University), and the Gaussian 82(TM) system (copyright 1983,
 Carnegie Mellon University). Gaussian is a federally registered
 trademark of Gaussian, Inc.
  
 This software contains proprietary and confidential information,
 including trade secrets, belonging to Gaussian, Inc.
  
 This software is provided under written license and may be
 used, copied, transmitted, or stored only in accord with that
 written license.
  
 The following legend is applicable only to US Government
 contracts under FAR:
  
                    RESTRICTED RIGHTS LEGEND
  
 Use, reproduction and disclosure by the US Government is
 subject to restrictions as set forth in subparagraphs (a)
 and (c) of the Commercial Computer Software - Restricted
 Rights clause in FAR 52.227-19.
  
 Gaussian, Inc.
 340 Quinnipiac St., Bldg. 40, Wallingford CT 06492
  
  
 ---------------------------------------------------------------
 Warning -- This program may not be used in any manner that
 competes with the business of Gaussian, Inc. or will provide
 assistance to any competitor of Gaussian, Inc.  The licensee
 of this program is prohibited from giving any competitor of
 Gaussian, Inc. access to this program.  By using this program,
 the user acknowledges that Gaussian, Inc. is engaged in the
 business of creating and licensing software in the field of
 computational chemistry and represents and warrants to the
 licensee that it is not a competitor of Gaussian, Inc. and that
 it will not use this program in any manner prohibited above.
 ---------------------------------------------------------------
  

 Cite this work as:
 Gaussian 09, Revision A.02,
 M. J. Frisch, G. W. Trucks, H. B. Schlegel, G. E. Scuseria, 
 M. A. Robb, J. R. Cheeseman, G. Scalmani, V. Barone, B. Mennucci, 
 G. A. Petersson, H. Nakatsuji, M. Caricato, X. Li, H. P. Hratchian, 
 A. F. Izmaylov, J. Bloino, G. Zheng, J. L. Sonnenberg, M. Hada, 
 M. Ehara, K. Toyota, R. Fukuda, J. Hasegawa, M. Ishida, T. Nakajima, 
 Y. Honda, O. Kitao, H. Nakai, T. Vreven, J. A. Montgomery, Jr., 
 J. E. Peralta, F. Ogliaro, M. Bearpark, J. J. Heyd, E. Brothers, 
 K. N. Kudin, V. N. Staroverov, R. Kobayashi, J. Normand, 
 K. Raghavachari, A. Rendell, J. C. Burant, S. S. Iyengar, J. Tomasi, 
 M. Cossi, N. Rega, J. M. Millam, M. Klene, J. E. Knox, J. B. Cross, 
 V. Bakken, C. Adamo, J. Jaramillo, R. Gomperts, R. E. Stratmann, 
 O. Yazyev, A. J. Austin, R. Cammi, C. Pomelli, J. W. Ochterski, 
 R. L. Martin, K. Morokuma, V. G. Zakrzewski, G. A. Voth, 
 P. Salvador, J. J. Dannenberg, S. Dapprich, A. D. Daniels, 
 O. Farkas, J. B. Foresman, J. V. Ortiz, J. Cioslowski, 
 and D. J. Fox, Gaussian, Inc., Wallingford CT, 2009.
 
 ******************************************
 Gaussian 09:  EM64L-G09RevA.02 11-Jun-2009
                10-Feb-2017 
 ******************************************
 %chk=structure_345.chk
 %NProcShared=8
 Will use up to    8 processors via shared memory.
 -------------------------------------------
 # HF/6-31G* Opt=(ModRedundant) geom=nocrowd
 -------------------------------------------
 1/18=120,19=15,38=1/1,3;
 2/9=110,12=1,17=6,18=5,40=1/2;
 3/5=1,6=6,7=1,11=9,16=1,25=1,30=1,71=1/1,2,3;
 4//1;
 5/5=2,38=5/2;
 6/7=2,8=2,9=2,10=2,28=1/1;
 7//1,2,3,16;
 1/18=20,19=15/3(2);
 2/9=110,12=1/2;
 99//99;
 2/9=110,12=1/2;
 3/5=1,6=6,7=1,11=9,16=1,25=1,30=1,71=1/1,2,3;
 4/5=5,16=3/1;
 5/5=2,38=5/2;
 7//1,2,3,16;
 1/18=20,19=15/3(-5);
 2/9=110,12=1/2;
 6/7=2,8=2,9=2,10=2,19=2,28=1/1;
 99/9=1/99;
 ------------------
 Phi Psi fixed scan
 ------------------
 Symbolic Z-matrix:
 Charge =  0 Multiplicity = 1
 H                     0.3668    4.29      0.9842 
 C                     1.1769    3.7481    0.496 
 H                     0.9253    3.584    -0.5518 
 H                     1.3209    2.787     0.9895 
 C                     2.4871    4.5351    0.5667 
 O                     2.5276    5.6304    1.1227 
 N                     3.5554    3.9697    0. 
 H                     3.4723    3.067    -0.4455 
 C                     4.8533    4.6139    0. 
 H                     5.4076    4.3155    0.8898 
 C                     5.6613    4.2208   -1.2322 
 H                     5.1233    4.5214   -2.1312 
 H                     6.6305    4.7189   -1.2058 
 H                     5.8085    3.1409   -1.2414 
 C                     4.7127    6.1294    0. 
 O                     5.6735    6.845     0.2741 
 N                     3.5094    6.6181   -0.3089 
 H                     2.7497    5.9893   -0.5272 
 C                     3.2474    8.0428   -0.3436 
 H                     4.1568    8.5863   -0.0875 
 H                     2.9233    8.329    -1.3442 
 H                     2.4646    8.2864    0.3748 
 
 The following ModRedundant input section has been read:
 D    5    7    9   15 F                                                       
 D    7    9   15   17 F                                                       

 GradGradGradGradGradGradGradGradGradGradGradGradGradGradGradGradGradGrad
 Berny optimization.
 Initialization pass.
                           ----------------------------
                           !    Initial Parameters    !
                           ! (Angstroms and Degrees)  !
 --------------------------                            --------------------------
 ! Name  Definition              Value          Derivative Info.                !
 --------------------------------------------------------------------------------
 ! R1    R(1,2)                  1.0901         estimate D2E/DX2                !
 ! R2    R(2,3)                  1.09           estimate D2E/DX2                !
 ! R3    R(2,4)                  1.09           estimate D2E/DX2                !
 ! R4    R(2,5)                  1.53           estimate D2E/DX2                !
 ! R5    R(5,6)                  1.229          estimate D2E/DX2                !
 ! R6    R(5,7)                  1.3349         estimate D2E/DX2                !
 ! R7    R(6,18)                 1.703          estimate D2E/DX2                !
 ! R8    R(7,8)                  1.0101         estimate D2E/DX2                !
 ! R9    R(7,9)                  1.449          estimate D2E/DX2                !
 ! R10   R(9,10)                 1.09           estimate D2E/DX2                !
 ! R11   R(9,11)                 1.525          estimate D2E/DX2                !
 ! R12   R(9,15)                 1.522          estimate D2E/DX2                !
 ! R13   R(11,12)                1.09           estimate D2E/DX2                !
 ! R14   R(11,13)                1.09           estimate D2E/DX2                !
 ! R15   R(11,14)                1.0899         estimate D2E/DX2                !
 ! R16   R(15,16)                1.229          estimate D2E/DX2                !
 ! R17   R(15,17)                1.335          estimate D2E/DX2                !
 ! R18   R(17,18)                1.01           estimate D2E/DX2                !
 ! R19   R(17,19)                1.449          estimate D2E/DX2                !
 ! R20   R(19,20)                1.0899         estimate D2E/DX2                !
 ! R21   R(19,21)                1.09           estimate D2E/DX2                !
 ! R22   R(19,22)                1.0901         estimate D2E/DX2                !
 ! A1    A(1,2,3)              109.5008         estimate D2E/DX2                !
 ! A2    A(1,2,4)              109.4971         estimate D2E/DX2                !
 ! A3    A(1,2,5)              111.0994         estimate D2E/DX2                !
 ! A4    A(3,2,4)              109.45           estimate D2E/DX2                !
 ! A5    A(3,2,5)              108.6337         estimate D2E/DX2                !
 ! A6    A(4,2,5)              108.6331         estimate D2E/DX2                !
 ! A7    A(2,5,6)              120.4996         estimate D2E/DX2                !
 ! A8    A(2,5,7)              116.6031         estimate D2E/DX2                !
 ! A9    A(6,5,7)              122.8973         estimate D2E/DX2                !
 ! A10   A(5,7,8)              119.9941         estimate D2E/DX2                !
 ! A11   A(5,7,9)              121.9053         estimate D2E/DX2                !
 ! A12   A(8,7,9)              118.1007         estimate D2E/DX2                !
 ! A13   A(7,9,10)             109.5            estimate D2E/DX2                !
 ! A14   A(7,9,11)             111.0992         estimate D2E/DX2                !
 ! A15   A(7,9,15)             111.0966         estimate D2E/DX2                !
 ! A16   A(10,9,11)            108.6382         estimate D2E/DX2                !
 ! A17   A(10,9,15)            108.6373         estimate D2E/DX2                !
 ! A18   A(11,9,15)            107.7947         estimate D2E/DX2                !
 ! A19   A(9,11,12)            109.5007         estimate D2E/DX2                !
 ! A20   A(9,11,13)            109.4959         estimate D2E/DX2                !
 ! A21   A(9,11,14)            109.4978         estimate D2E/DX2                !
 ! A22   A(12,11,13)           109.441          estimate D2E/DX2                !
 ! A23   A(12,11,14)           109.4482         estimate D2E/DX2                !
 ! A24   A(13,11,14)           109.4436         estimate D2E/DX2                !
 ! A25   A(9,15,16)            120.502          estimate D2E/DX2                !
 ! A26   A(9,15,17)            116.6009         estimate D2E/DX2                !
 ! A27   A(16,15,17)           122.8971         estimate D2E/DX2                !
 ! A28   A(15,17,18)           120.0044         estimate D2E/DX2                !
 ! A29   A(15,17,19)           121.9009         estimate D2E/DX2                !
 ! A30   A(18,17,19)           118.0947         estimate D2E/DX2                !
 ! A31   A(17,19,20)           109.4992         estimate D2E/DX2                !
 ! A32   A(17,19,21)           109.5059         estimate D2E/DX2                !
 ! A33   A(17,19,22)           109.4991         estimate D2E/DX2                !
 ! A34   A(20,19,21)           109.4414         estimate D2E/DX2                !
 ! A35   A(20,19,22)           109.4439         estimate D2E/DX2                !
 ! A36   A(21,19,22)           109.4378         estimate D2E/DX2                !
 ! D1    D(1,2,5,6)             -0.003          estimate D2E/DX2                !
 ! D2    D(1,2,5,7)           -179.9971         estimate D2E/DX2                !
 ! D3    D(3,2,5,6)            120.5085         estimate D2E/DX2                !
 ! D4    D(3,2,5,7)            -59.4857         estimate D2E/DX2                !
 ! D5    D(4,2,5,6)           -120.5094         estimate D2E/DX2                !
 ! D6    D(4,2,5,7)             59.4964         estimate D2E/DX2                !
 ! D7    D(2,5,7,8)             -0.0039         estimate D2E/DX2                !
 ! D8    D(2,5,7,9)           -179.9999         estimate D2E/DX2                !
 ! D9    D(6,5,7,8)           -179.998          estimate D2E/DX2                !
 ! D10   D(6,5,7,9)              0.0061         estimate D2E/DX2                !
 ! D11   D(5,7,9,10)            89.996          estimate D2E/DX2                !
 ! D12   D(5,7,9,11)          -150.0014         estimate D2E/DX2                !
 ! D13   D(5,7,9,15)           -30.0038         Frozen                          !
 ! D14   D(8,7,9,10)           -90.0            estimate D2E/DX2                !
 ! D15   D(8,7,9,11)            30.0026         estimate D2E/DX2                !
 ! D16   D(8,7,9,15)           150.0002         estimate D2E/DX2                !
 ! D17   D(7,9,11,12)           60.0024         estimate D2E/DX2                !
 ! D18   D(7,9,11,13)          179.9986         estimate D2E/DX2                !
 ! D19   D(7,9,11,14)          -60.0038         estimate D2E/DX2                !
 ! D20   D(10,9,11,12)        -179.4843         estimate D2E/DX2                !
 ! D21   D(10,9,11,13)         -59.4881         estimate D2E/DX2                !
 ! D22   D(10,9,11,14)          60.5095         estimate D2E/DX2                !
 ! D23   D(15,9,11,12)         -61.938          estimate D2E/DX2                !
 ! D24   D(15,9,11,13)          58.0582         estimate D2E/DX2                !
 ! D25   D(15,9,11,14)         178.0558         estimate D2E/DX2                !
 ! D26   D(7,9,15,16)          164.9978         estimate D2E/DX2                !
 ! D27   D(7,9,15,17)          -14.9978         Frozen                          !
 ! D28   D(10,9,15,16)          44.4867         estimate D2E/DX2                !
 ! D29   D(10,9,15,17)        -135.5089         estimate D2E/DX2                !
 ! D30   D(11,9,15,16)         -73.0602         estimate D2E/DX2                !
 ! D31   D(11,9,15,17)         106.9442         estimate D2E/DX2                !
 ! D32   D(9,15,17,18)          -0.005          estimate D2E/DX2                !
 ! D33   D(9,15,17,19)        -179.9969         estimate D2E/DX2                !
 ! D34   D(16,15,17,18)        179.9996         estimate D2E/DX2                !
 ! D35   D(16,15,17,19)          0.0076         estimate D2E/DX2                !
 ! D36   D(15,17,19,20)         -0.0055         estimate D2E/DX2                !
 ! D37   D(15,17,19,21)        119.9964         estimate D2E/DX2                !
 ! D38   D(15,17,19,22)       -120.0063         estimate D2E/DX2                !
 ! D39   D(18,17,19,20)       -179.9976         estimate D2E/DX2                !
 ! D40   D(18,17,19,21)        -59.9957         estimate D2E/DX2                !
 ! D41   D(18,17,19,22)         60.0016         estimate D2E/DX2                !
 --------------------------------------------------------------------------------
 Trust Radius=3.00D-01 FncErr=1.00D-07 GrdErr=1.00D-07
 Number of steps in this run= 109 maximum allowed number of steps= 132.
 GradGradGradGradGradGradGradGradGradGradGradGradGradGradGradGradGradGrad

                          Input orientation:                          
 ---------------------------------------------------------------------
 Center     Atomic      Atomic             Coordinates (Angstroms)
 Number     Number       Type             X           Y           Z
 ---------------------------------------------------------------------
      1          1           0        0.366800    4.290000    0.984200
      2          6           0        1.176900    3.748100    0.496000
      3          1           0        0.925300    3.584000   -0.551800
      4          1           0        1.320900    2.787000    0.989500
      5          6           0        2.487100    4.535100    0.566700
      6          8           0        2.527600    5.630400    1.122700
      7          7           0        3.555400    3.969700    0.000000
      8          1           0        3.472300    3.067000   -0.445500
      9          6           0        4.853300    4.613900    0.000000
     10          1           0        5.407600    4.315500    0.889800
     11          6           0        5.661300    4.220800   -1.232200
     12          1           0        5.123300    4.521400   -2.131200
     13          1           0        6.630500    4.718900   -1.205800
     14          1           0        5.808500    3.140900   -1.241400
     15          6           0        4.712700    6.129400    0.000000
     16          8           0        5.673500    6.845000    0.274100
     17          7           0        3.509400    6.618100   -0.308900
     18          1           0        2.749700    5.989300   -0.527200
     19          6           0        3.247400    8.042800   -0.343600
     20          1           0        4.156800    8.586300   -0.087500
     21          1           0        2.923300    8.329000   -1.344200
     22          1           0        2.464600    8.286400    0.374800
 ---------------------------------------------------------------------
                    Distance matrix (angstroms):
                    1          2          3          4          5
     1  H    0.000000
     2  C    1.090072   0.000000
     3  H    1.780352   1.090007   0.000000
     4  H    1.780265   1.089950   1.779695   0.000000
     5  C    2.174868   1.530030   2.143561   2.143510   0.000000
     6  O    2.546549   2.400041   3.091774   3.091729   1.229007
     7  N    3.352374   2.439751   2.714898   2.714936   1.334950
     8  H    3.630964   2.572777   2.601115   2.601182   2.037274
     9  C    4.604589   3.809402   4.098092   4.098112   2.434391
    10  H    5.041748   4.286705   4.764905   4.364329   2.946513
    11  C    5.740117   4.829075   4.826816   5.082402   3.662017
    12  H    5.690655   4.803566   4.582186   5.215856   3.772055
    13  H    6.649360   5.794854   5.853633   6.061636   4.510355
    14  H    5.990478   4.983871   4.951518   5.024014   4.030474
    15  C    4.820673   4.291677   4.596514   4.863646   2.795753
    16  O    5.932397   5.464379   5.819075   5.993687   3.946441
    17  N    4.119234   3.784880   3.992785   4.599207   2.480053
    18  H    3.293959   2.922946   3.019024   3.820546   1.838552
    19  C    4.913697   4.841110   5.031540   5.754302   3.702791
    20  H    5.828450   5.712132   5.973372   6.544779   4.430361
    21  H    5.317016   5.236496   5.209120   6.223151   4.270303
    22  H    4.554486   4.719007   5.033945   5.650602   3.756273
                    6          7          8          9         10
     6  O    0.000000
     7  N    2.252721   0.000000
     8  H    3.150036   1.010071   0.000000
     9  C    2.775357   1.448978   2.120974   0.000000
    10  H    3.174524   2.083739   2.662173   1.089970   0.000000
    11  C    4.165645   2.452791   2.596512   1.525027   2.139209
    12  H    4.307598   2.702720   2.771762   2.150225   3.041326
    13  H    4.804845   3.386959   3.644318   2.150214   2.459625
    14  H    4.748777   2.702673   2.469159   2.150165   2.466256
    15  C    2.506814   2.450234   3.333970   1.522008   2.136554
    16  O    3.477364   3.581735   4.431297   2.392836   2.616899
    17  N    1.997238   2.666750   3.553920   2.432756   3.215900
    18  H    1.703029   2.237382   3.011422   2.568034   3.445857
    19  C    2.913387   4.099155   4.981922   3.801885   4.481128
    20  H    3.585557   4.656429   5.573094   4.033947   4.556243
    21  H    3.677583   4.605423   5.366349   4.397015   5.222134
    22  H    2.760011   4.468134   5.378707   4.397001   4.969358
                   11         12         13         14         15
    11  C    0.000000
    12  H    1.089957   0.000000
    13  H    1.090023   1.779613   0.000000
    14  H    1.089925   1.779613   1.779617   0.000000
    15  C    2.461892   2.701161   2.668599   3.416575   0.000000
    16  O    3.025808   3.389293   2.761567   4.004413   1.228963
    17  N    3.351150   3.212725   3.762002   4.271573   1.334982
    18  H    3.478797   3.218932   4.139447   4.240250   2.037385
    19  C    4.606974   4.372044   4.820484   5.603026   2.434392
    20  H    4.757252   4.651263   4.725100   5.806202   2.520523
    21  H    4.938268   4.467347   5.176418   5.937283   3.138004
    22  H    5.415759   5.246327   5.707896   6.345860   3.138005
                   16         17         18         19         20
    16  O    0.000000
    17  N    2.252710   0.000000
    18  H    3.150065   1.010044   0.000000
    19  C    2.775291   1.449006   2.120914   0.000000
    20  H    2.337362   2.083736   2.986248   1.089949   0.000000
    21  H    3.519197   2.083876   2.484315   1.090024   1.779612
    22  H    3.519206   2.083813   2.484261   1.090053   1.779663
                   21         22
    21  H    0.000000
    22  H    1.779658   0.000000
 Stoichiometry    C6H12N2O2
 Framework group  C1[X(C6H12N2O2)]
 Deg. of freedom    60
 Full point group                 C1      NOp   1
 Largest Abelian subgroup         C1      NOp   1
 Largest concise Abelian subgroup C1      NOp   1
                         Standard orientation:                         
 ---------------------------------------------------------------------
 Center     Atomic      Atomic             Coordinates (Angstroms)
 Number     Number       Type             X           Y           Z
 ---------------------------------------------------------------------
      1          1           0       -3.427409   -1.279093   -0.041810
      2          6           0       -3.056336   -0.278250    0.179263
      3          1           0       -3.146950   -0.084431    1.248066
      4          1           0       -3.640951    0.456868   -0.373745
      5          6           0       -1.586464   -0.134985   -0.220669
      6          8           0       -0.981061   -1.080475   -0.720662
      7          7           0       -1.019088    1.052515    0.002982
      8          1           0       -1.558196    1.799827    0.416662
      9          6           0        0.366185    1.314543   -0.331528
     10          1           0        0.428821    1.692879   -1.351809
     11          6           0        0.972006    2.349810    0.610233
     12          1           0        0.924876    1.981246    1.634901
     13          1           0        2.011968    2.526767    0.335802
     14          1           0        0.412917    3.282296    0.533906
     15          6           0        1.203312    0.047463   -0.230367
     16          8           0        2.324513   -0.001063   -0.731271
     17          7           0        0.654904   -0.980914    0.420683
     18          1           0       -0.270539   -0.893014    0.815673
     19          6           0        1.350140   -2.241551    0.585182
     20          1           0        2.328673   -2.182239    0.108797
     21          1           0        1.475850   -2.451976    1.647289
     22          1           0        0.769553   -3.040221    0.123381
 ---------------------------------------------------------------------
 Rotational constants (GHZ):      1.7594146      1.2357546      0.8225756
 Standard basis: 6-31G(d) (6D, 7F)
 There are   174 symmetry adapted basis functions of A   symmetry.
 Integral buffers will be    131072 words long.
 Raffenetti 1 integral format.
 Two-electron integral symmetry is turned on.
   174 basis functions,   328 primitive gaussians,   174 cartesian basis functions
    39 alpha electrons       39 beta electrons
       nuclear repulsion energy       587.6741521445 Hartrees.
 NAtoms=   22 NActive=   22 NUniq=   22 SFac= 7.50D-01 NAtFMM=   80 NAOKFM=F Big=F
 One-electron integrals computed using PRISM.
 NBasis=   174 RedAO= T  NBF=   174
 NBsUse=   174 1.00D-06 NBFU=   174
 Harris functional with IExCor=  205 diagonalized for initial guess.
 ExpMin= 1.61D-01 ExpMax= 5.48D+03 ExpMxC= 8.25D+02 IAcc=1 IRadAn=         1 AccDes= 0.00D+00
 HarFok:  IExCor=  205 AccDes= 0.00D+00 IRadAn=         1 IDoV= 1
 ScaDFX=  1.000000  1.000000  1.000000  1.000000
 FoFCou: FMM=F IPFlag=           0 FMFlag=      100000 FMFlg1=           0
         NFxFlg=           0 DoJE=T BraDBF=F KetDBF=T FulRan=T
         Omega=  0.000000  0.000000  1.000000  0.000000  0.000000 ICntrl=     500 IOpCl=  0
         NMat0=    1 NMatS0=    1 NMatT0=    0 NMatD0=    1 NMtDS0=    0 NMtDT0=    0
         I1Cent=           4 NGrid=           0.
 Petite list used in FoFCou.
 Initial guess orbital symmetries:
       Occupied  (A) (A) (A) (A) (A) (A) (A) (A) (A) (A) (A) (A)
                 (A) (A) (A) (A) (A) (A) (A) (A) (A) (A) (A) (A)
                 (A) (A) (A) (A) (A) (A) (A) (A) (A) (A) (A) (A)
                 (A) (A) (A)
       Virtual   (A) (A) (A) (A) (A) (A) (A) (A) (A) (A) (A) (A)
                 (A) (A) (A) (A) (A) (A) (A) (A) (A) (A) (A) (A)
                 (A) (A) (A) (A) (A) (A) (A) (A) (A) (A) (A) (A)
                 (A) (A) (A) (A) (A) (A) (A) (A) (A) (A) (A) (A)
                 (A) (A) (A) (A) (A) (A) (A) (A) (A) (A) (A) (A)
                 (A) (A) (A) (A) (A) (A) (A) (A) (A) (A) (A) (A)
                 (A) (A) (A) (A) (A) (A) (A) (A) (A) (A) (A) (A)
                 (A) (A) (A) (A) (A) (A) (A) (A) (A) (A) (A) (A)
                 (A) (A) (A) (A) (A) (A) (A) (A) (A) (A) (A) (A)
                 (A) (A) (A) (A) (A) (A) (A) (A) (A) (A) (A) (A)
                 (A) (A) (A) (A) (A) (A) (A) (A) (A) (A) (A) (A)
                 (A) (A) (A)
 The electronic state of the initial guess is 1-A.
 Requested convergence on RMS density matrix=1.00D-08 within 128 cycles.
 Requested convergence on MAX density matrix=1.00D-06.
 Requested convergence on             energy=1.00D-06.
 No special actions if energy rises.
 Integral accuracy reduced to 1.0D-05 until final iterations.
 Initial convergence to 1.0D-05 achieved.  Increase integral accuracy.
 SCF Done:  E(RHF) =  -492.754759360     A.U. after   15 cycles
             Convg  =    0.6961D-08             -V/T =  2.0010

 **********************************************************************

            Population analysis using the SCF density.

 **********************************************************************

 Orbital symmetries:
       Occupied  (A) (A) (A) (A) (A) (A) (A) (A) (A) (A) (A) (A)
                 (A) (A) (A) (A) (A) (A) (A) (A) (A) (A) (A) (A)
                 (A) (A) (A) (A) (A) (A) (A) (A) (A) (A) (A) (A)
                 (A) (A) (A)
       Virtual   (A) (A) (A) (A) (A) (A) (A) (A) (A) (A) (A) (A)
                 (A) (A) (A) (A) (A) (A) (A) (A) (A) (A) (A) (A)
                 (A) (A) (A) (A) (A) (A) (A) (A) (A) (A) (A) (A)
                 (A) (A) (A) (A) (A) (A) (A) (A) (A) (A) (A) (A)
                 (A) (A) (A) (A) (A) (A) (A) (A) (A) (A) (A) (A)
                 (A) (A) (A) (A) (A) (A) (A) (A) (A) (A) (A) (A)
                 (A) (A) (A) (A) (A) (A) (A) (A) (A) (A) (A) (A)
                 (A) (A) (A) (A) (A) (A) (A) (A) (A) (A) (A) (A)
                 (A) (A) (A) (A) (A) (A) (A) (A) (A) (A) (A) (A)
                 (A) (A) (A) (A) (A) (A) (A) (A) (A) (A) (A) (A)
                 (A) (A) (A) (A) (A) (A) (A) (A) (A) (A) (A) (A)
                 (A) (A) (A)
 The electronic state is 1-A.
 Alpha  occ. eigenvalues --  -20.52647 -20.49288 -15.61354 -15.55108 -11.36286
 Alpha  occ. eigenvalues --  -11.32715 -11.28525 -11.25065 -11.23747 -11.23592
 Alpha  occ. eigenvalues --   -1.41392  -1.34830  -1.26318  -1.20497  -1.06593
 Alpha  occ. eigenvalues --   -1.00189  -0.94521  -0.87972  -0.82519  -0.78129
 Alpha  occ. eigenvalues --   -0.71043  -0.70313  -0.68909  -0.62972  -0.60761
 Alpha  occ. eigenvalues --   -0.60439  -0.59877  -0.58380  -0.57557  -0.56199
 Alpha  occ. eigenvalues --   -0.54688  -0.53755  -0.52951  -0.50806  -0.48117
 Alpha  occ. eigenvalues --   -0.43883  -0.41546  -0.39461  -0.31554
 Alpha virt. eigenvalues --    0.16796   0.19541   0.21367   0.24447   0.26133
 Alpha virt. eigenvalues --    0.28453   0.28813   0.29083   0.30639   0.31606
 Alpha virt. eigenvalues --    0.32237   0.34083   0.34611   0.35048   0.36666
 Alpha virt. eigenvalues --    0.39354   0.40064   0.42074   0.46696   0.52340
 Alpha virt. eigenvalues --    0.53229   0.56411   0.67798   0.71317   0.72175
 Alpha virt. eigenvalues --    0.74250   0.75239   0.75683   0.77051   0.78056
 Alpha virt. eigenvalues --    0.80429   0.82272   0.85864   0.86780   0.90764
 Alpha virt. eigenvalues --    0.93777   0.95057   0.97981   0.99579   1.00371
 Alpha virt. eigenvalues --    1.02005   1.03251   1.04070   1.09045   1.11016
 Alpha virt. eigenvalues --    1.11492   1.13039   1.13546   1.15288   1.15983
 Alpha virt. eigenvalues --    1.16377   1.16509   1.19534   1.19822   1.20909
 Alpha virt. eigenvalues --    1.22895   1.24961   1.25696   1.27069   1.29752
 Alpha virt. eigenvalues --    1.31917   1.37227   1.38205   1.43379   1.44555
 Alpha virt. eigenvalues --    1.46343   1.53650   1.56565   1.57913   1.62953
 Alpha virt. eigenvalues --    1.64062   1.68213   1.72339   1.76836   1.78555
 Alpha virt. eigenvalues --    1.83128   1.84412   1.88091   1.95053   1.99351
 Alpha virt. eigenvalues --    2.02096   2.04414   2.11349   2.12120   2.12925
 Alpha virt. eigenvalues --    2.15092   2.17081   2.20681   2.23026   2.25547
 Alpha virt. eigenvalues --    2.29690   2.31120   2.33059   2.37648   2.38052
 Alpha virt. eigenvalues --    2.41596   2.45273   2.45993   2.47779   2.50955
 Alpha virt. eigenvalues --    2.51842   2.57815   2.61678   2.63359   2.64651
 Alpha virt. eigenvalues --    2.65740   2.67316   2.69985   2.74408   2.77461
 Alpha virt. eigenvalues --    2.83607   2.88397   2.93350   2.98090   3.00142
 Alpha virt. eigenvalues --    3.01986   3.07725   3.08976   3.10750   3.24534
 Alpha virt. eigenvalues --    3.32525   3.35181   3.40123   3.58015   3.61161
 Alpha virt. eigenvalues --    4.41475   4.49892   4.58577   4.63190   4.64281
 Alpha virt. eigenvalues --    4.69073   4.76741   4.86975   4.88182   5.19562
          Condensed to atoms (all electrons):
              1          2          3          4          5          6
     1  H    0.449839   0.385825  -0.018923  -0.017392  -0.030606   0.003696
     2  C    0.385825   5.244921   0.370902   0.377726   0.379648  -0.065866
     3  H   -0.018923   0.370902   0.527791  -0.024367  -0.038707   0.000737
     4  H   -0.017392   0.377726  -0.024367   0.501792  -0.035175   0.001252
     5  C   -0.030606   0.379648  -0.038707  -0.035175   4.330230   0.557798
     6  O    0.003696  -0.065866   0.000737   0.001252   0.557798   8.482660
     7  N    0.003940  -0.124121   0.004525   0.003642   0.234009  -0.113174
     8  H   -0.000001  -0.000706   0.000504   0.000562  -0.020513   0.002266
     9  C   -0.000060   0.003419  -0.000147  -0.000120  -0.026776   0.011005
    10  H    0.000002  -0.000129  -0.000003   0.000016  -0.001653   0.000824
    11  C    0.000001  -0.000092   0.000017  -0.000008   0.002741   0.000192
    12  H    0.000000  -0.000017  -0.000002   0.000001  -0.000054   0.000017
    13  H    0.000000   0.000002   0.000000   0.000000  -0.000016  -0.000003
    14  H    0.000000   0.000002  -0.000002   0.000000  -0.000109   0.000003
    15  C   -0.000002   0.000339  -0.000020  -0.000009  -0.008763  -0.002312
    16  O    0.000000  -0.000002   0.000000   0.000000  -0.000060  -0.000322
    17  N    0.000041  -0.000616   0.000424  -0.000044  -0.007581  -0.261659
    18  H    0.000181  -0.004283   0.000519   0.000107  -0.006255  -0.026040
    19  C   -0.000003   0.000011  -0.000011   0.000001   0.000731   0.007058
    20  H    0.000000   0.000000   0.000000   0.000000   0.000001  -0.000354
    21  H    0.000001  -0.000002   0.000002   0.000000   0.000004  -0.000350
    22  H    0.000001   0.000021  -0.000005   0.000000  -0.000296   0.005990
              7          8          9         10         11         12
     1  H    0.003940  -0.000001  -0.000060   0.000002   0.000001   0.000000
     2  C   -0.124121  -0.000706   0.003419  -0.000129  -0.000092  -0.000017
     3  H    0.004525   0.000504  -0.000147  -0.000003   0.000017  -0.000002
     4  H    0.003642   0.000562  -0.000120   0.000016  -0.000008   0.000001
     5  C    0.234009  -0.020513  -0.026776  -0.001653   0.002741  -0.000054
     6  O   -0.113174   0.002266   0.011005   0.000824   0.000192   0.000017
     7  N    7.498588   0.322300   0.100618  -0.045232  -0.055266   0.001162
     8  H    0.322300   0.315087  -0.017845   0.000716  -0.003240   0.000396
     9  C    0.100618  -0.017845   5.089848   0.411022   0.348233  -0.041837
    10  H   -0.045232   0.000716   0.411022   0.476908  -0.036153   0.004214
    11  C   -0.055266  -0.003240   0.348233  -0.036153   5.139213   0.387310
    12  H    0.001162   0.000396  -0.041837   0.004214   0.387310   0.522995
    13  H    0.004146  -0.000048  -0.034640   0.000143   0.389900  -0.017988
    14  H   -0.003716   0.003191  -0.040513  -0.004094   0.387097  -0.027688
    15  C   -0.035265   0.002053   0.380666  -0.037873  -0.048640  -0.006803
    16  O    0.002689  -0.000048  -0.069542   0.003018  -0.002045   0.000113
    17  N    0.005667  -0.000289  -0.119289   0.002625   0.000568   0.002184
    18  H    0.003019  -0.000265  -0.000564   0.000309  -0.000335   0.000343
    19  C   -0.000184   0.000016   0.004207  -0.000055  -0.000201  -0.000062
    20  H   -0.000039   0.000000   0.000583  -0.000014  -0.000013  -0.000006
    21  H    0.000021  -0.000001  -0.000105  -0.000002   0.000024  -0.000012
    22  H   -0.000029   0.000000  -0.000049   0.000010  -0.000004   0.000003
             13         14         15         16         17         18
     1  H    0.000000   0.000000  -0.000002   0.000000   0.000041   0.000181
     2  C    0.000002   0.000002   0.000339  -0.000002  -0.000616  -0.004283
     3  H    0.000000  -0.000002  -0.000020   0.000000   0.000424   0.000519
     4  H    0.000000   0.000000  -0.000009   0.000000  -0.000044   0.000107
     5  C   -0.000016  -0.000109  -0.008763  -0.000060  -0.007581  -0.006255
     6  O   -0.000003   0.000003  -0.002312  -0.000322  -0.261659  -0.026040
     7  N    0.004146  -0.003716  -0.035265   0.002689   0.005667   0.003019
     8  H   -0.000048   0.003191   0.002053  -0.000048  -0.000289  -0.000265
     9  C   -0.034640  -0.040513   0.380666  -0.069542  -0.119289  -0.000564
    10  H    0.000143  -0.004094  -0.037873   0.003018   0.002625   0.000309
    11  C    0.389900   0.387097  -0.048640  -0.002045   0.000568  -0.000335
    12  H   -0.017988  -0.027688  -0.006803   0.000113   0.002184   0.000343
    13  H    0.455278  -0.021117  -0.004531   0.005923   0.000413  -0.000046
    14  H   -0.021117   0.539067   0.005919  -0.000033  -0.000111  -0.000004
    15  C   -0.004531   0.005919   4.121238   0.576417   0.315916  -0.021280
    16  O    0.005923  -0.000033   0.576417   8.249675  -0.096510   0.002486
    17  N    0.000413  -0.000111   0.315916  -0.096510   7.493514   0.336981
    18  H   -0.000046  -0.000004  -0.021280   0.002486   0.336981   0.338814
    19  C   -0.000004   0.000004  -0.024924  -0.006499   0.201257  -0.023702
    20  H   -0.000005   0.000000  -0.002702   0.010730  -0.031690   0.002423
    21  H    0.000001   0.000000   0.000273   0.000492  -0.046426  -0.002859
    22  H    0.000000   0.000000   0.001500   0.000378  -0.055943   0.000874
             19         20         21         22
     1  H   -0.000003   0.000000   0.000001   0.000001
     2  C    0.000011   0.000000  -0.000002   0.000021
     3  H   -0.000011   0.000000   0.000002  -0.000005
     4  H    0.000001   0.000000   0.000000   0.000000
     5  C    0.000731   0.000001   0.000004  -0.000296
     6  O    0.007058  -0.000354  -0.000350   0.005990
     7  N   -0.000184  -0.000039   0.000021  -0.000029
     8  H    0.000016   0.000000  -0.000001   0.000000
     9  C    0.004207   0.000583  -0.000105  -0.000049
    10  H   -0.000055  -0.000014  -0.000002   0.000010
    11  C   -0.000201  -0.000013   0.000024  -0.000004
    12  H   -0.000062  -0.000006  -0.000012   0.000003
    13  H   -0.000004  -0.000005   0.000001   0.000000
    14  H    0.000004   0.000000   0.000000   0.000000
    15  C   -0.024924  -0.002702   0.000273   0.001500
    16  O   -0.006499   0.010730   0.000492   0.000378
    17  N    0.201257  -0.031690  -0.046426  -0.055943
    18  H   -0.023702   0.002423  -0.002859   0.000874
    19  C    4.923127   0.397913   0.401243   0.401259
    20  H    0.397913   0.443763  -0.023216  -0.023615
    21  H    0.401243  -0.023216   0.559453  -0.040203
    22  H    0.401259  -0.023615  -0.040203   0.539141
 Mulliken atomic charges:
              1
     1  H    0.223461
     2  C   -0.566983
     3  H    0.176765
     4  H    0.192018
     5  C    0.671401
     6  O   -0.603419
     7  N   -0.807301
     8  H    0.395865
     9  C    0.001886
    10  H    0.225401
    11  C   -0.509299
    12  H    0.175733
    13  H    0.222592
    14  H    0.162105
    15  C    0.788801
    16  O   -0.676860
    17  N   -0.739434
    18  H    0.399579
    19  C   -0.281183
    20  H    0.226241
    21  H    0.151663
    22  H    0.170969
 Sum of Mulliken atomic charges =   0.00000
 Mulliken charges with hydrogens summed into heavy atoms:
              1
     2  C    0.025261
     5  C    0.671401
     6  O   -0.603419
     7  N   -0.411436
     9  C    0.227287
    11  C    0.051132
    15  C    0.788801
    16  O   -0.676860
    17  N   -0.339855
    19  C    0.267689
 Sum of Mulliken charges with hydrogens summed into heavy atoms =   0.00000
 Electronic spatial extent (au):  <R**2>=           1501.6037
 Charge=              0.0000 electrons
 Dipole moment (field-independent basis, Debye):
    X=             -5.1615    Y=              2.8107    Z=              3.2937  Tot=              6.7372
 Quadrupole moment (field-independent basis, Debye-Ang):
   XX=            -63.7211   YY=            -54.8459   ZZ=            -62.3698
   XY=             -3.3160   XZ=              1.5904   YZ=             -2.4686
 Traceless Quadrupole moment (field-independent basis, Debye-Ang):
   XX=             -3.4088   YY=              5.4664   ZZ=             -2.0576
   XY=             -3.3160   XZ=              1.5904   YZ=             -2.4686
 Octapole moment (field-independent basis, Debye-Ang**2):
  XXX=            -44.1074  YYY=              3.0481  ZZZ=             -1.3010  XYY=              4.1032
  XXY=              0.3673  XXZ=             10.7346  XZZ=             -2.8503  YZZ=              0.8558
  YYZ=              2.6099  XYZ=              0.8104
 Hexadecapole moment (field-independent basis, Debye-Ang**3):
 XXXX=          -1049.9886 YYYY=           -725.5229 ZZZZ=           -168.5115 XXXY=             -4.3767
 XXXZ=             25.9864 YYYX=            -17.1015 YYYZ=             -1.4001 ZZZX=             -3.2472
 ZZZY=             -3.4072 XXYY=           -273.0373 XXZZ=           -210.0056 YYZZ=           -156.5088
 XXYZ=              0.8922 YYXZ=             -6.4916 ZZXY=             -2.8127
 N-N= 5.876741521445D+02 E-N=-2.331039991253D+03  KE= 4.922721712671D+02
 Calling FoFJK, ICntrl=      2127 FMM=F ISym2X=0 I1Cent= 0 IOpClX= 0 NMat=1 NMatS=1 NMatT=0.
 ***** Axes restored to original set *****
 -------------------------------------------------------------------
 Center     Atomic                   Forces (Hartrees/Bohr)
 Number     Number              X              Y              Z
 -------------------------------------------------------------------
      1        1           0.009041442   -0.001386407   -0.002801944
      2        6           0.008464653    0.001726731   -0.005812054
      3        1          -0.002862039   -0.003886999    0.003459834
      4        1          -0.003196087    0.001722915   -0.003456285
      5        6          -0.037709042    0.012847260    0.066238500
      6        8          -0.054867610   -0.108718789    0.064545423
      7        7           0.004521832   -0.012643183   -0.014871969
      8        1          -0.001115906    0.013162961    0.006760741
      9        6           0.007932383    0.004061090    0.003106750
     10        1          -0.002822096    0.006449612   -0.002090394
     11        6          -0.000624256   -0.002689243   -0.001441408
     12        1           0.004103144   -0.002403074    0.001134828
     13        1          -0.005965999   -0.003662859   -0.000433997
     14        1           0.001802801    0.002680508   -0.003118820
     15        6           0.012128870    0.039999908    0.008334755
     16        8          -0.019226506   -0.028424026   -0.006398744
     17        7           0.050498324    0.042039443   -0.096492551
     18        1           0.033331770    0.045840116   -0.014679439
     19        6           0.001856598   -0.003440548   -0.001325309
     20        1          -0.007663151   -0.005972700   -0.002313689
     21        1           0.000174884    0.002678127    0.004055891
     22        1           0.002195989    0.000019158   -0.002400119
 -------------------------------------------------------------------
 Cartesian Forces:  Max     0.108718789 RMS     0.026497863

 GradGradGradGradGradGradGradGradGradGradGradGradGradGradGradGradGradGrad
 Berny optimization.
 Internal  Forces:  Max     0.206940688 RMS     0.047217103
 Search for a local minimum.
 Step number   1 out of a maximum of  109
 All quantities printed in internal units (Hartrees-Bohrs-Radians)
 Mixed Optimization -- RFO/linear search
 Second derivative matrix not updated -- first step.
     Eigenvalues ---    0.00369   0.00435   0.01042   0.01044   0.01342
     Eigenvalues ---    0.01523   0.01874   0.02552   0.03498   0.05117
     Eigenvalues ---    0.05462   0.05844   0.05844   0.06055   0.07165
     Eigenvalues ---    0.07464   0.07685   0.07685   0.13590   0.15446
     Eigenvalues ---    0.16000   0.16000   0.16000   0.16000   0.16000
     Eigenvalues ---    0.16000   0.16000   0.16000   0.16000   0.16000
     Eigenvalues ---    0.16028   0.19966   0.22000   0.23472   0.25000
     Eigenvalues ---    0.25000   0.25000   0.29421   0.29887   0.30070
     Eigenvalues ---    0.34804   0.34807   0.34810   0.34810   0.34812
     Eigenvalues ---    0.34816   0.34818   0.34818   0.34819   0.34821
     Eigenvalues ---    0.38168   0.38375   0.45961   0.45963   0.56573
     Eigenvalues ---    0.58345   0.90692   0.915201000.000001000.00000
     Eigenvalues --- 1000.000001000.000001000.000001000.000001000.00000
     Eigenvalues --- 1000.000001000.000001000.000001000.000001000.00000
     Eigenvalues --- 1000.000001000.000001000.000001000.000001000.00000
     Eigenvalues --- 1000.000001000.000001000.000001000.000001000.00000
     Eigenvalues --- 1000.000001000.000001000.000001000.000001000.00000
     Eigenvalues --- 1000.000001000.000001000.000001000.000001000.00000
     Eigenvalues --- 1000.000001000.000001000.000001000.000001000.00000
     Eigenvalues --- 1000.000001000.000001000.000001000.00000
 RFO step:  Lambda=-3.71591708D-01 EMin= 3.68709279D-03
 Linear search not attempted -- first point.
 Maximum step size (   0.300) exceeded in Quadratic search.
    -- Step size scaled by   0.357
 Iteration  1 RMS(Cart)=  0.16665551 RMS(Int)=  0.01180917
 Iteration  2 RMS(Cart)=  0.06384215 RMS(Int)=  0.00594842
 Iteration  3 RMS(Cart)=  0.00854849 RMS(Int)=  0.00562834
 Iteration  4 RMS(Cart)=  0.00048686 RMS(Int)=  0.00562798
 Iteration  5 RMS(Cart)=  0.00003929 RMS(Int)=  0.00562798
 Iteration  6 RMS(Cart)=  0.00000309 RMS(Int)=  0.00562798
 Iteration  7 RMS(Cart)=  0.00000024 RMS(Int)=  0.00562798
 Iteration  1 RMS(Cart)=  0.00404554 RMS(Int)=  0.00153615
 Iteration  2 RMS(Cart)=  0.00319345 RMS(Int)=  0.00166163
 Iteration  3 RMS(Cart)=  0.00251882 RMS(Int)=  0.00190534
 Iteration  4 RMS(Cart)=  0.00198601 RMS(Int)=  0.00215708
 Iteration  5 RMS(Cart)=  0.00156583 RMS(Int)=  0.00238055
 Iteration  6 RMS(Cart)=  0.00123472 RMS(Int)=  0.00256810
 Iteration  7 RMS(Cart)=  0.00097384 RMS(Int)=  0.00272159
 Iteration  8 RMS(Cart)=  0.00076829 RMS(Int)=  0.00284557
 Iteration  9 RMS(Cart)=  0.00060628 RMS(Int)=  0.00294498
 Iteration 10 RMS(Cart)=  0.00047855 RMS(Int)=  0.00302433
 Iteration 11 RMS(Cart)=  0.00037781 RMS(Int)=  0.00308749
 Iteration 12 RMS(Cart)=  0.00029834 RMS(Int)=  0.00313766
 Iteration 13 RMS(Cart)=  0.00023561 RMS(Int)=  0.00317746
 Iteration 14 RMS(Cart)=  0.00018610 RMS(Int)=  0.00320901
 Iteration 15 RMS(Cart)=  0.00014701 RMS(Int)=  0.00323399
 Iteration 16 RMS(Cart)=  0.00011615 RMS(Int)=  0.00325377
 Iteration 17 RMS(Cart)=  0.00009176 RMS(Int)=  0.00326943
 Iteration 18 RMS(Cart)=  0.00007251 RMS(Int)=  0.00328181
 Iteration 19 RMS(Cart)=  0.00005729 RMS(Int)=  0.00329160
 Iteration 20 RMS(Cart)=  0.00004527 RMS(Int)=  0.00329935
 Iteration 21 RMS(Cart)=  0.00003577 RMS(Int)=  0.00330547
 Iteration 22 RMS(Cart)=  0.00002827 RMS(Int)=  0.00331031
 Iteration 23 RMS(Cart)=  0.00002234 RMS(Int)=  0.00331414
 Iteration 24 RMS(Cart)=  0.00001765 RMS(Int)=  0.00331716
 Iteration 25 RMS(Cart)=  0.00001395 RMS(Int)=  0.00331955
 Iteration 26 RMS(Cart)=  0.00001103 RMS(Int)=  0.00332144
 Iteration 27 RMS(Cart)=  0.00000871 RMS(Int)=  0.00332294
 Iteration 28 RMS(Cart)=  0.00000689 RMS(Int)=  0.00332412
 Iteration 29 RMS(Cart)=  0.00000544 RMS(Int)=  0.00332505
 Iteration 30 RMS(Cart)=  0.00000430 RMS(Int)=  0.00332579
 Iteration 31 RMS(Cart)=  0.00000340 RMS(Int)=  0.00332637
 Iteration 32 RMS(Cart)=  0.00000269 RMS(Int)=  0.00332683
 Iteration 33 RMS(Cart)=  0.00000212 RMS(Int)=  0.00332720
 Iteration 34 RMS(Cart)=  0.00000168 RMS(Int)=  0.00332749
 Iteration 35 RMS(Cart)=  0.00000133 RMS(Int)=  0.00332771
 Iteration 36 RMS(Cart)=  0.00000105 RMS(Int)=  0.00332789
 Iteration 37 RMS(Cart)=  0.00000083 RMS(Int)=  0.00332803
 Variable       Old X    -DE/DX   Delta X   Delta X   Delta X     New X
                                 (Linear)    (Quad)   (Total)
    R1        2.05994  -0.00866   0.00000  -0.00430  -0.00427   2.05566
    R2        2.05982  -0.00208   0.00000  -0.00103  -0.00100   2.05881
    R3        2.05971  -0.00351   0.00000  -0.00174  -0.00172   2.05799
    R4        2.89134  -0.00847   0.00000  -0.00454  -0.00452   2.88682
    R5        2.32249  -0.10311   0.00000  -0.02921  -0.02949   2.29299
    R6        2.52269   0.01719   0.00000   0.00510  -0.00391   2.51878
    R7        3.21826   0.13654   0.00000   0.11632   0.13581   3.35406
    R8        1.90876  -0.01465   0.00000  -0.00630  -0.00629   1.90247
    R9        2.73817   0.08408   0.00000   0.03894   0.02937   2.76755
   R10        2.05975  -0.00491   0.00000  -0.00244  -0.00242   2.05732
   R11        2.88188   0.00432   0.00000   0.00230   0.00232   2.88421
   R12        2.87618   0.05857   0.00000   0.03020   0.02191   2.89809
   R13        2.05972  -0.00362   0.00000  -0.00180  -0.00179   2.05793
   R14        2.05984  -0.00699   0.00000  -0.00347  -0.00346   2.05639
   R15        2.05966  -0.00239   0.00000  -0.00118  -0.00117   2.05849
   R16        2.32240  -0.03301   0.00000  -0.00917  -0.00916   2.31325
   R17        2.52275  -0.04166   0.00000  -0.01616  -0.01818   2.50458
   R18        1.90871  -0.04772   0.00000  -0.02044  -0.01285   1.89586
   R19        2.73822  -0.00593   0.00000  -0.00281  -0.00280   2.73543
   R20        2.05970  -0.00992   0.00000  -0.00492  -0.00490   2.05480
   R21        2.05985  -0.00307   0.00000  -0.00153  -0.00152   2.05833
   R22        2.05990  -0.00315   0.00000  -0.00157  -0.00155   2.05835
    A1        1.91115  -0.00010   0.00000  -0.00005  -0.00005   1.91110
    A2        1.91109   0.00050   0.00000   0.00022   0.00024   1.91132
    A3        1.93905  -0.00814   0.00000  -0.00553  -0.00553   1.93352
    A4        1.91026  -0.00513   0.00000  -0.00334  -0.00335   1.90691
    A5        1.89602   0.00828   0.00000   0.00563   0.00564   1.90166
    A6        1.89600   0.00463   0.00000   0.00310   0.00308   1.89909
    A7        2.10312  -0.01583   0.00000  -0.00780   0.00014   2.10326
    A8        2.03511  -0.03210   0.00000  -0.01715  -0.00912   2.02599
    A9        2.14496   0.04793   0.00000   0.02495   0.00875   2.15371
   A10        2.09429  -0.10569   0.00000  -0.06270  -0.05052   2.04377
   A11        2.12765   0.20694   0.00000   0.12242   0.09800   2.22565
   A12        2.06125  -0.10125   0.00000  -0.05972  -0.04751   2.01374
   A13        1.91114  -0.00694   0.00000  -0.01830  -0.01207   1.89907
   A14        1.93905  -0.09871   0.00000  -0.04369  -0.03754   1.90151
   A15        1.93900   0.16715   0.00000   0.10658   0.08526   2.02427
   A16        1.89609   0.03517   0.00000   0.01695   0.01155   1.90765
   A17        1.89608  -0.04222   0.00000  -0.03051  -0.02651   1.86957
   A18        1.88137  -0.05634   0.00000  -0.03252  -0.02214   1.85924
   A19        1.91115   0.00401   0.00000   0.00273   0.00273   1.91388
   A20        1.91106  -0.00103   0.00000  -0.00074  -0.00074   1.91032
   A21        1.91110   0.00480   0.00000   0.00325   0.00324   1.91434
   A22        1.91011  -0.00176   0.00000  -0.00122  -0.00122   1.90888
   A23        1.91023  -0.00369   0.00000  -0.00239  -0.00240   1.90783
   A24        1.91015  -0.00234   0.00000  -0.00163  -0.00162   1.90853
   A25        2.10316  -0.06826   0.00000  -0.03804  -0.02770   2.07546
   A26        2.03507   0.11020   0.00000   0.06093   0.03942   2.07449
   A27        2.14496  -0.04193   0.00000  -0.02290  -0.01223   2.13273
   A28        2.09447  -0.01861   0.00000  -0.01364  -0.02189   2.07258
   A29        2.12757   0.01276   0.00000   0.00843   0.01227   2.13984
   A30        2.06114   0.00586   0.00000   0.00521   0.00887   2.07001
   A31        1.91112  -0.00296   0.00000  -0.00203  -0.00203   1.90909
   A32        1.91124   0.00591   0.00000   0.00403   0.00402   1.91526
   A33        1.91112   0.00048   0.00000   0.00030   0.00031   1.91143
   A34        1.91011  -0.00118   0.00000  -0.00077  -0.00076   1.90935
   A35        1.91016   0.00016   0.00000   0.00000   0.00000   1.91016
   A36        1.91005  -0.00241   0.00000  -0.00154  -0.00155   1.90850
    D1       -0.00005  -0.00729   0.00000  -0.00809  -0.01122  -0.01127
    D2       -3.14154   0.00641   0.00000   0.00742   0.01055  -3.13099
    D3        2.10327  -0.00710   0.00000  -0.00793  -0.01107   2.09220
    D4       -1.03822   0.00661   0.00000   0.00758   0.01070  -1.02753
    D5       -2.10329  -0.00587   0.00000  -0.00695  -0.01007  -2.11336
    D6        1.03841   0.00784   0.00000   0.00856   0.01169   1.05010
    D7       -0.00007   0.00576   0.00000   0.00549   0.00734   0.00727
    D8       -3.14159   0.00700   0.00000   0.00940   0.01642  -3.12517
    D9       -3.14156   0.01983   0.00000   0.02141   0.02980  -3.11176
   D10        0.00011   0.02107   0.00000   0.02531   0.03888   0.03899
   D11        1.57073   0.03119   0.00000   0.01746   0.01380   1.58453
   D12       -2.61802   0.00808   0.00000  -0.00095  -0.00222  -2.62023
   D13       -0.52367  -0.01735   0.00000   0.00000   0.00000  -0.52366
   D14       -1.57080   0.03241   0.00000   0.02130   0.02275  -1.54804
   D15        0.52364   0.00930   0.00000   0.00288   0.00673   0.53038
   D16        2.61800  -0.01613   0.00000   0.00384   0.00895   2.62695
   D17        1.04724   0.05233   0.00000   0.04109   0.03289   1.08014
   D18        3.14157   0.05200   0.00000   0.04081   0.03261  -3.10900
   D19       -1.04726   0.05145   0.00000   0.04035   0.03216  -1.01510
   D20       -3.13259   0.00540   0.00000   0.00235   0.00260  -3.12999
   D21       -1.03826   0.00506   0.00000   0.00208   0.00232  -1.03595
   D22        1.05609   0.00451   0.00000   0.00162   0.00186   1.05795
   D23       -1.08102  -0.05657   0.00000  -0.04249  -0.03454  -1.11556
   D24        1.01331  -0.05690   0.00000  -0.04276  -0.03482   0.97849
   D25        3.10766  -0.05745   0.00000  -0.04322  -0.03527   3.07239
   D26        2.87975   0.07147   0.00000   0.03102   0.03369   2.91345
   D27       -0.26176   0.07017   0.00000   0.00000   0.00000  -0.26176
   D28        0.77644   0.00393   0.00000   0.00745   0.01305   0.78949
   D29       -2.36508   0.00262   0.00000  -0.02357  -0.02064  -2.38572
   D30       -1.27514   0.01584   0.00000   0.02160   0.02468  -1.25046
   D31        1.86653   0.01453   0.00000  -0.00942  -0.00901   1.85752
   D32       -0.00009   0.06400   0.00000   0.07760   0.08858   0.08849
   D33       -3.14154   0.02653   0.00000   0.04056   0.04634  -3.09519
   D34        3.14158   0.06266   0.00000   0.04577   0.05373  -3.08787
   D35        0.00013   0.02519   0.00000   0.00873   0.01150   0.01163
   D36       -0.00010   0.01796   0.00000   0.01785   0.02076   0.02066
   D37        2.09433   0.01832   0.00000   0.01813   0.02104   2.11537
   D38       -2.09450   0.01928   0.00000   0.01890   0.02181  -2.07269
   D39       -3.14155  -0.01883   0.00000  -0.01851  -0.02142   3.12022
   D40       -1.04712  -0.01847   0.00000  -0.01822  -0.02113  -1.06826
   D41        1.04723  -0.01751   0.00000  -0.01746  -0.02036   1.02686
         Item               Value     Threshold  Converged?
 Maximum Force            0.192689     0.000450     NO 
 RMS     Force            0.045856     0.000300     NO 
 Maximum Displacement     0.724397     0.001800     NO 
 RMS     Displacement     0.204689     0.001200     NO 
 Predicted change in Energy=-1.114934D-01
 GradGradGradGradGradGradGradGradGradGradGradGradGradGradGradGradGradGrad

                          Input orientation:                          
 ---------------------------------------------------------------------
 Center     Atomic      Atomic             Coordinates (Angstroms)
 Number     Number       Type             X           Y           Z
 ---------------------------------------------------------------------
      1          1           0        0.277009    3.906666    0.945797
      2          6           0        1.162155    3.464663    0.493602
      3          1           0        0.966128    3.251684   -0.556718
      4          1           0        1.408886    2.537132    1.008211
      5          6           0        2.353860    4.415242    0.593198
      6          8           0        2.231157    5.504474    1.113637
      7          7           0        3.495282    3.982034    0.058355
      8          1           0        3.483639    3.072195   -0.372449
      9          6           0        4.785864    4.673696    0.029564
     10          1           0        5.355397    4.390992    0.913279
     11          6           0        5.549513    4.246129   -1.220831
     12          1           0        4.990262    4.536774   -2.108924
     13          1           0        6.524054    4.730147   -1.233526
     14          1           0        5.683434    3.165093   -1.217236
     15          6           0        4.726493    6.205898    0.001862
     16          8           0        5.749466    6.841891    0.219819
     17          7           0        3.577720    6.796301   -0.295349
     18          1           0        2.760509    6.227515   -0.418436
     19          6           0        3.443640    8.233824   -0.399648
     20          1           0        4.409393    8.700277   -0.220541
     21          1           0        3.092967    8.499194   -1.396147
     22          1           0        2.727371    8.587180    0.340980
 ---------------------------------------------------------------------
                    Distance matrix (angstroms):
                    1          2          3          4          5
     1  H    0.000000
     2  C    1.087810   0.000000
     3  H    1.778043   1.089477   0.000000
     4  H    1.777825   1.089041   1.776407   0.000000
     5  C    2.167091   1.527639   2.145221   2.143013   0.000000
     6  O    2.529793   2.384961   3.076597   3.080967   1.213400
     7  N    3.339238   2.429114   2.703395   2.709800   1.332880
     8  H    3.566032   2.508657   2.530618   2.548944   2.003159
     9  C    4.664503   3.848163   4.117793   4.114199   2.509805
    10  H    5.101534   4.314799   4.767032   4.361280   3.018653
    11  C    5.710412   4.774817   4.736811   5.003408   3.678518
    12  H    5.651824   4.751523   4.500495   5.151830   3.777148
    13  H    6.667318   5.773593   5.790894   5.999970   4.563617
    14  H    5.870100   4.843415   4.764111   4.859909   3.990815
    15  C    5.096606   4.523349   4.814534   5.047683   3.030762
    16  O    6.252229   5.702986   6.030996   6.163858   4.190248
    17  N    4.559070   4.190132   4.410559   4.954152   2.820778
    18  H    3.662682   3.319623   3.477714   4.181044   2.114970
    19  C    5.528297   5.361713   5.566368   6.210844   4.093279
    20  H    6.435499   6.202113   6.454165   6.963995   4.821713
    21  H    5.874150   5.713641   5.724024   6.645544   4.602439
    22  H    5.317639   5.358486   5.689934   6.227895   4.196212
                    6          7          8          9         10
     6  O    0.000000
     7  N    2.242645   0.000000
     8  H    3.113381   1.006745   0.000000
     9  C    2.896884   1.464522   2.102905   0.000000
    10  H    3.322779   2.087623   2.625986   1.088689   0.000000
    11  C    4.247901   2.434323   2.523036   1.526257   2.147812
    12  H    4.351322   2.690688   2.725849   2.152593   3.047670
    13  H    4.953557   3.376698   3.568527   2.149392   2.467703
    14  H    4.777436   2.661304   2.358261   2.153143   2.479825
    15  C    2.820416   2.542566   3.391886   1.533602   2.126049
    16  O    3.868603   3.645023   4.437946   2.380293   2.577418
    17  N    2.338223   2.837604   3.726091   2.463865   3.225900
    18  H    1.774894   2.410270   3.237448   2.591740   3.446698
    19  C    3.348059   4.276698   5.161855   3.828877   4.488424
    20  H    4.091198   4.814062   5.705734   4.051868   4.555262
    21  H    4.001260   4.762580   5.536506   4.419614   5.227750
    22  H    3.216567   4.677278   5.612127   4.432801   4.984179
                   11         12         13         14         15
    11  C    0.000000
    12  H    1.089011   0.000000
    13  H    1.088194   1.776579   0.000000
    14  H    1.089305   1.776824   1.776599   0.000000
    15  C    2.452149   2.703880   2.633486   3.412980   0.000000
    16  O    2.975473   3.363480   2.677996   3.948207   1.224118
    17  N    3.353784   3.223320   3.718878   4.297625   1.325364
    18  H    3.514011   3.269274   4.131677   4.308132   2.010525
    19  C    4.583749   4.356815   4.739204   5.601532   2.432983
    20  H    4.705304   4.608487   4.610841   5.766701   2.524270
    21  H    4.914664   4.450680   5.099462   5.932551   3.143572
    22  H    5.408185   5.246760   5.636539   6.369095   3.127618
                   16         17         18         19         20
    16  O    0.000000
    17  N    2.232478   0.000000
    18  H    3.117481   1.003245   0.000000
    19  C    2.763702   1.447525   2.119504   0.000000
    20  H    2.333090   2.079039   2.978680   1.087353   0.000000
    21  H    3.523490   2.084847   2.495391   1.089221   1.776361
    22  H    3.491957   2.082127   2.479078   1.089234   1.776878
                   21         22
    21  H    0.000000
    22  H    1.777361   0.000000
 Stoichiometry    C6H12N2O2
 Framework group  C1[X(C6H12N2O2)]
 Deg. of freedom    60
 Full point group                 C1      NOp   1
 Largest Abelian subgroup         C1      NOp   1
 Largest concise Abelian subgroup C1      NOp   1
                         Standard orientation:                         
 ---------------------------------------------------------------------
 Center     Atomic      Atomic             Coordinates (Angstroms)
 Number     Number       Type             X           Y           Z
 ---------------------------------------------------------------------
      1          1           0       -3.543815   -1.481338    0.046032
      2          6           0       -3.186575   -0.467718    0.214211
      3          1           0       -3.282594   -0.218883    1.270536
      4          1           0       -3.780697    0.229703   -0.374543
      5          6           0       -1.721028   -0.334493   -0.195792
      6          8           0       -1.113341   -1.291000   -0.629557
      7          7           0       -1.170647    0.866860   -0.021434
      8          1           0       -1.755542    1.586865    0.369750
      9          6           0        0.198065    1.276193   -0.343769
     10          1           0        0.218079    1.664257   -1.360750
     11          6           0        0.627584    2.375349    0.624130
     12          1           0        0.620969    1.989787    1.642582
     13          1           0        1.631970    2.708980    0.371020
     14          1           0       -0.060838    3.216533    0.552932
     15          6           0        1.265388    0.178249   -0.258476
     16          8           0        2.370151    0.387895   -0.742226
     17          7           0        0.972656   -0.950987    0.370592
     18          1           0        0.037261   -1.087743    0.706501
     19          6           0        1.935505   -2.017180    0.548025
     20          1           0        2.886895   -1.720304    0.113217
     21          1           0        2.070145   -2.218227    1.610030
     22          1           0        1.575990   -2.918294    0.052877
 ---------------------------------------------------------------------
 Rotational constants (GHZ):      1.8170916      1.0825143      0.7565391
 Standard basis: 6-31G(d) (6D, 7F)
 There are   174 symmetry adapted basis functions of A   symmetry.
 Integral buffers will be    131072 words long.
 Raffenetti 1 integral format.
 Two-electron integral symmetry is turned on.
   174 basis functions,   328 primitive gaussians,   174 cartesian basis functions
    39 alpha electrons       39 beta electrons
       nuclear repulsion energy       575.1717962007 Hartrees.
 NAtoms=   22 NActive=   22 NUniq=   22 SFac= 7.50D-01 NAtFMM=   80 NAOKFM=F Big=F
 One-electron integrals computed using PRISM.
 NBasis=   174 RedAO= T  NBF=   174
 NBsUse=   174 1.00D-06 NBFU=   174
 Initial guess read from the read-write file.
 B after Tr=     0.000000    0.000000    0.000000
         Rot=    1.000000    0.000000    0.000000    0.000000 Ang=   0.00 deg.
 Initial guess orbital symmetries:
       Occupied  (A) (A) (A) (A) (A) (A) (A) (A) (A) (A) (A) (A)
                 (A) (A) (A) (A) (A) (A) (A) (A) (A) (A) (A) (A)
                 (A) (A) (A) (A) (A) (A) (A) (A) (A) (A) (A) (A)
                 (A) (A) (A)
       Virtual   (A) (A) (A) (A) (A) (A) (A) (A) (A) (A) (A) (A)
                 (A) (A) (A) (A) (A) (A) (A) (A) (A) (A) (A) (A)
                 (A) (A) (A) (A) (A) (A) (A) (A) (A) (A) (A) (A)
                 (A) (A) (A) (A) (A) (A) (A) (A) (A) (A) (A) (A)
                 (A) (A) (A) (A) (A) (A) (A) (A) (A) (A) (A) (A)
                 (A) (A) (A) (A) (A) (A) (A) (A) (A) (A) (A) (A)
                 (A) (A) (A) (A) (A) (A) (A) (A) (A) (A) (A) (A)
                 (A) (A) (A) (A) (A) (A) (A) (A) (A) (A) (A) (A)
                 (A) (A) (A) (A) (A) (A) (A) (A) (A) (A) (A) (A)
                 (A) (A) (A) (A) (A) (A) (A) (A) (A) (A) (A) (A)
                 (A) (A) (A) (A) (A) (A) (A) (A) (A) (A) (A) (A)
                 (A) (A) (A)
 Harris functional with IExCor=  205 diagonalized for initial guess.
 ExpMin= 1.61D-01 ExpMax= 5.48D+03 ExpMxC= 8.25D+02 IAcc=1 IRadAn=         1 AccDes= 0.00D+00
 HarFok:  IExCor=  205 AccDes= 0.00D+00 IRadAn=         1 IDoV= 1
 ScaDFX=  1.000000  1.000000  1.000000  1.000000
 FoFCou: FMM=F IPFlag=           0 FMFlag=      100000 FMFlg1=           0
         NFxFlg=           0 DoJE=T BraDBF=F KetDBF=T FulRan=T
         Omega=  0.000000  0.000000  1.000000  0.000000  0.000000 ICntrl=     500 IOpCl=  0
         NMat0=    1 NMatS0=    1 NMatT0=    0 NMatD0=    1 NMtDS0=    0 NMtDT0=    0
         I1Cent=           4 NGrid=           0.
 Petite list used in FoFCou.
 Requested convergence on RMS density matrix=1.00D-08 within 128 cycles.
 Requested convergence on MAX density matrix=1.00D-06.
 Requested convergence on             energy=1.00D-06.
 No special actions if energy rises.
 Integral accuracy reduced to 1.0D-05 until final iterations.
 Initial convergence to 1.0D-05 achieved.  Increase integral accuracy.
 SCF Done:  E(RHF) =  -492.820923980     A.U. after   15 cycles
             Convg  =    0.4463D-08             -V/T =  2.0014
 Calling FoFJK, ICntrl=      2127 FMM=F ISym2X=0 I1Cent= 0 IOpClX= 0 NMat=1 NMatS=1 NMatT=0.
 ***** Axes restored to original set *****
 -------------------------------------------------------------------
 Center     Atomic                   Forces (Hartrees/Bohr)
 Number     Number              X              Y              Z
 -------------------------------------------------------------------
      1        1           0.007626322    0.000068910   -0.001974750
      2        6           0.007969702   -0.000371956   -0.002846747
      3        1          -0.001601799   -0.002871319    0.003456936
      4        1          -0.003403410    0.000456779   -0.003056902
      5        6          -0.030237323    0.010722170    0.027383826
      6        8          -0.017876727   -0.039062825    0.018835479
      7        7           0.011685848   -0.012357939   -0.017456199
      8        1           0.000111473    0.009844905    0.004815395
      9        6           0.000097021    0.004662922    0.004463791
     10        1          -0.001792149    0.004933931   -0.002838164
     11        6           0.002094737   -0.002537744   -0.000197258
     12        1           0.003116638   -0.002034242    0.001112209
     13        1          -0.004812465   -0.003445238   -0.000461162
     14        1           0.001621327    0.002190449   -0.002848179
     15        6           0.018656944    0.025556926    0.012924971
     16        8          -0.014141286   -0.024233603   -0.003756414
     17        7           0.007387266    0.006919707   -0.038008648
     18        1           0.017103493    0.024197247    0.000434314
     19        6           0.000606752   -0.000333240    0.000804569
     20        1          -0.006817328   -0.004166621   -0.001206763
     21        1           0.000544316    0.001584010    0.003412469
     22        1           0.002060645    0.000276771   -0.002992774
 -------------------------------------------------------------------
 Cartesian Forces:  Max     0.039062825 RMS     0.012006557

 GradGradGradGradGradGradGradGradGradGradGradGradGradGradGradGradGradGrad
 Berny optimization.
 Using GEDIIS/GDIIS optimizer.
 Internal  Forces:  Max     0.051611530 RMS     0.012969124
 Search for a local minimum.
 Step number   2 out of a maximum of  109
 All quantities printed in internal units (Hartrees-Bohrs-Radians)
 Mixed Optimization -- RFO/linear search
 Update second derivatives using D2CorX and points    1    2
 DE= -6.62D-02 DEPred=-1.11D-01 R= 5.93D-01
 SS=  1.41D+00  RLast= 2.80D-01 DXNew= 5.0454D-01 8.4138D-01
 Trust test= 5.93D-01 RLast= 2.80D-01 DXMaxT set to 5.05D-01
 Use linear search instead of GDIIS.
 Linear search step of   0.555 exceeds DXMaxT=   0.505 but not scaled.
 Quartic linear search produced a step of  2.00000.
 Iteration  1 RMS(Cart)=  0.20582736 RMS(Int)=  0.02349036
 Iteration  2 RMS(Cart)=  0.06743844 RMS(Int)=  0.01545592
 Iteration  3 RMS(Cart)=  0.01033215 RMS(Int)=  0.01518358
 Iteration  4 RMS(Cart)=  0.00079886 RMS(Int)=  0.01518289
 Iteration  5 RMS(Cart)=  0.00009254 RMS(Int)=  0.01518288
 Iteration  6 RMS(Cart)=  0.00001060 RMS(Int)=  0.01518288
 Iteration  7 RMS(Cart)=  0.00000122 RMS(Int)=  0.01518288
 Iteration  8 RMS(Cart)=  0.00000014 RMS(Int)=  0.01518288
 Iteration  1 RMS(Cart)=  0.00536448 RMS(Int)=  0.00232040
 Iteration  2 RMS(Cart)=  0.00396260 RMS(Int)=  0.00254080
 Iteration  3 RMS(Cart)=  0.00292791 RMS(Int)=  0.00292223
 Iteration  4 RMS(Cart)=  0.00216160 RMS(Int)=  0.00327640
 Iteration  5 RMS(Cart)=  0.00159424 RMS(Int)=  0.00356345
 Iteration  6 RMS(Cart)=  0.00117477 RMS(Int)=  0.00378527
 Iteration  7 RMS(Cart)=  0.00086509 RMS(Int)=  0.00395311
 Iteration  8 RMS(Cart)=  0.00063673 RMS(Int)=  0.00407875
 Iteration  9 RMS(Cart)=  0.00046849 RMS(Int)=  0.00417222
 Iteration 10 RMS(Cart)=  0.00034462 RMS(Int)=  0.00424150
 Iteration 11 RMS(Cart)=  0.00025347 RMS(Int)=  0.00429272
 Iteration 12 RMS(Cart)=  0.00018640 RMS(Int)=  0.00433053
 Iteration 13 RMS(Cart)=  0.00013707 RMS(Int)=  0.00435841
 Iteration 14 RMS(Cart)=  0.00010079 RMS(Int)=  0.00437895
 Iteration 15 RMS(Cart)=  0.00007411 RMS(Int)=  0.00439408
 Iteration 16 RMS(Cart)=  0.00005449 RMS(Int)=  0.00440521
 Iteration 17 RMS(Cart)=  0.00004007 RMS(Int)=  0.00441340
 Iteration 18 RMS(Cart)=  0.00002946 RMS(Int)=  0.00441943
 Iteration 19 RMS(Cart)=  0.00002166 RMS(Int)=  0.00442387
 Iteration 20 RMS(Cart)=  0.00001593 RMS(Int)=  0.00442713
 Iteration 21 RMS(Cart)=  0.00001171 RMS(Int)=  0.00442952
 Iteration 22 RMS(Cart)=  0.00000861 RMS(Int)=  0.00443129
 Iteration 23 RMS(Cart)=  0.00000633 RMS(Int)=  0.00443259
 Iteration 24 RMS(Cart)=  0.00000466 RMS(Int)=  0.00443354
 Iteration 25 RMS(Cart)=  0.00000342 RMS(Int)=  0.00443424
 Iteration 26 RMS(Cart)=  0.00000252 RMS(Int)=  0.00443476
 Iteration 27 RMS(Cart)=  0.00000185 RMS(Int)=  0.00443513
 Iteration 28 RMS(Cart)=  0.00000136 RMS(Int)=  0.00443541
 Iteration 29 RMS(Cart)=  0.00000100 RMS(Int)=  0.00443562
 Iteration 30 RMS(Cart)=  0.00000074 RMS(Int)=  0.00443577
 Variable       Old X    -DE/DX   Delta X   Delta X   Delta X     New X
                                 (Linear)    (Quad)   (Total)
    R1        2.05566  -0.00700  -0.00855   0.00000  -0.00850   2.04716
    R2        2.05881  -0.00248  -0.00201   0.00000  -0.00193   2.05688
    R3        2.05799  -0.00260  -0.00344   0.00000  -0.00337   2.05462
    R4        2.88682  -0.00628  -0.00904   0.00000  -0.00900   2.87782
    R5        2.29299  -0.02697  -0.05899   0.00000  -0.05204   2.24096
    R6        2.51878   0.01459  -0.00782   0.00000  -0.02646   2.49232
    R7        3.35406   0.05161   0.27161   0.00000   0.30564   3.65971
    R8        1.90247  -0.01096  -0.01257   0.00000  -0.01254   1.88993
    R9        2.76755   0.01473   0.05875   0.00000   0.03327   2.80082
   R10        2.05732  -0.00452  -0.00484   0.00000  -0.00482   2.05251
   R11        2.88421   0.00460   0.00465   0.00000   0.00469   2.88890
   R12        2.89809   0.00809   0.04382   0.00000   0.02162   2.91971
   R13        2.05793  -0.00305  -0.00357   0.00000  -0.00355   2.05438
   R14        2.05639  -0.00584  -0.00691   0.00000  -0.00689   2.04950
   R15        2.05849  -0.00198  -0.00234   0.00000  -0.00231   2.05618
   R16        2.31325  -0.02508  -0.01831   0.00000  -0.01830   2.29495
   R17        2.50458  -0.00301  -0.03635   0.00000  -0.03845   2.46612
   R18        1.89586  -0.00871  -0.02569   0.00000   0.00035   1.89621
   R19        2.73543  -0.00229  -0.00560   0.00000  -0.00559   2.72984
   R20        2.05480  -0.00804  -0.00981   0.00000  -0.00978   2.04502
   R21        2.05833  -0.00291  -0.00303   0.00000  -0.00301   2.05532
   R22        2.05835  -0.00330  -0.00309   0.00000  -0.00306   2.05529
    A1        1.91110   0.00022  -0.00009   0.00000  -0.00005   1.91105
    A2        1.91132   0.00016   0.00048   0.00000   0.00052   1.91185
    A3        1.93352  -0.00724  -0.01106   0.00000  -0.01106   1.92246
    A4        1.90691  -0.00437  -0.00671   0.00000  -0.00678   1.90013
    A5        1.90166   0.00589   0.01128   0.00000   0.01130   1.91295
    A6        1.89909   0.00538   0.00617   0.00000   0.00613   1.90521
    A7        2.10326   0.00414   0.00028   0.00000   0.01890   2.12215
    A8        2.02599  -0.01084  -0.01823   0.00000   0.00088   2.02687
    A9        2.15371   0.00657   0.01750   0.00000  -0.02204   2.13168
   A10        2.04377  -0.02217  -0.10104   0.00000  -0.06800   1.97577
   A11        2.22565   0.04442   0.19599   0.00000   0.12973   2.35537
   A12        2.01374  -0.02224  -0.09502   0.00000  -0.06210   1.95163
   A13        1.89907   0.00492  -0.02414   0.00000  -0.00968   1.88939
   A14        1.90151  -0.02877  -0.07508   0.00000  -0.05729   1.84422
   A15        2.02427   0.03401   0.17053   0.00000   0.11563   2.13990
   A16        1.90765   0.00584   0.02311   0.00000   0.00942   1.91707
   A17        1.86957  -0.01516  -0.05301   0.00000  -0.04131   1.82826
   A18        1.85924  -0.00131  -0.04427   0.00000  -0.02006   1.83917
   A19        1.91388   0.00266   0.00547   0.00000   0.00547   1.91935
   A20        1.91032  -0.00003  -0.00149   0.00000  -0.00149   1.90883
   A21        1.91434   0.00424   0.00648   0.00000   0.00646   1.92080
   A22        1.90888  -0.00143  -0.00245   0.00000  -0.00246   1.90642
   A23        1.90783  -0.00304  -0.00480   0.00000  -0.00484   1.90299
   A24        1.90853  -0.00244  -0.00324   0.00000  -0.00322   1.90531
   A25        2.07546  -0.02428  -0.05540   0.00000  -0.02914   2.04632
   A26        2.07449   0.01680   0.07884   0.00000   0.02185   2.09634
   A27        2.13273   0.00753  -0.02446   0.00000   0.00308   2.13581
   A28        2.07258  -0.00998  -0.04378   0.00000  -0.06306   2.00952
   A29        2.13984   0.00757   0.02454   0.00000   0.03218   2.17202
   A30        2.07001   0.00187   0.01774   0.00000   0.02451   2.09452
   A31        1.90909  -0.00212  -0.00406   0.00000  -0.00407   1.90502
   A32        1.91526   0.00349   0.00804   0.00000   0.00803   1.92329
   A33        1.91143   0.00180   0.00062   0.00000   0.00062   1.91205
   A34        1.90935  -0.00068  -0.00152   0.00000  -0.00150   1.90785
   A35        1.91016  -0.00029   0.00000   0.00000   0.00000   1.91016
   A36        1.90850  -0.00221  -0.00309   0.00000  -0.00310   1.90540
    D1       -0.01127  -0.00322  -0.02243   0.00000  -0.02679  -0.03806
    D2       -3.13099   0.00303   0.02110   0.00000   0.02548  -3.10552
    D3        2.09220  -0.00367  -0.02213   0.00000  -0.02655   2.06565
    D4       -1.02753   0.00259   0.02139   0.00000   0.02572  -1.00181
    D5       -2.11336  -0.00239  -0.02015   0.00000  -0.02449  -2.13785
    D6        1.05010   0.00386   0.02338   0.00000   0.02778   1.07787
    D7        0.00727   0.00568   0.01467   0.00000   0.01710   0.02437
    D8       -3.12517   0.00355   0.03284   0.00000   0.04205  -3.08312
    D9       -3.11176   0.01217   0.05959   0.00000   0.06911  -3.04265
   D10        0.03899   0.01005   0.07776   0.00000   0.09406   0.13305
   D11        1.58453   0.01286   0.02761   0.00000   0.02035   1.60489
   D12       -2.62023   0.00606  -0.00443   0.00000  -0.00515  -2.62538
   D13       -0.52366   0.00553   0.00000   0.00000   0.00000  -0.52366
   D14       -1.54804   0.01077   0.04551   0.00000   0.04510  -1.50294
   D15        0.53038   0.00397   0.01347   0.00000   0.01960   0.54998
   D16        2.62695   0.00344   0.01790   0.00000   0.02474   2.65169
   D17        1.08014   0.01044   0.06579   0.00000   0.04449   1.12462
   D18       -3.10900   0.01030   0.06523   0.00000   0.04390  -3.06510
   D19       -1.01510   0.00990   0.06432   0.00000   0.04300  -0.97211
   D20       -3.12999   0.00288   0.00520   0.00000   0.00566  -3.12433
   D21       -1.03595   0.00274   0.00464   0.00000   0.00508  -1.03086
   D22        1.05795   0.00234   0.00373   0.00000   0.00417   1.06213
   D23       -1.11556  -0.01265  -0.06907   0.00000  -0.04821  -1.16377
   D24        0.97849  -0.01279  -0.06964   0.00000  -0.04879   0.92970
   D25        3.07239  -0.01319  -0.07055   0.00000  -0.04970   3.02269
   D26        2.91345   0.02432   0.06738   0.00000   0.06816   2.98160
   D27       -0.26176   0.02633   0.00000   0.00000   0.00000  -0.26176
   D28        0.78949   0.00698   0.02610   0.00000   0.03542   0.82491
   D29       -2.38572   0.00898  -0.04129   0.00000  -0.03274  -2.41846
   D30       -1.25046   0.00829   0.04936   0.00000   0.05297  -1.19749
   D31        1.85752   0.01029  -0.01802   0.00000  -0.01518   1.84234
   D32        0.08849   0.02425   0.17716   0.00000   0.18623   0.27473
   D33       -3.09519   0.00922   0.09269   0.00000   0.09984  -2.99536
   D34       -3.08787   0.02570   0.10747   0.00000   0.11385  -2.97401
   D35        0.01163   0.01067   0.02299   0.00000   0.02746   0.03909
   D36        0.02066   0.00747   0.04152   0.00000   0.04551   0.06617
   D37        2.11537   0.00746   0.04209   0.00000   0.04607   2.16144
   D38       -2.07269   0.00802   0.04362   0.00000   0.04761  -2.02508
   D39        3.12022  -0.00781  -0.04283   0.00000  -0.04682   3.07340
   D40       -1.06826  -0.00782  -0.04226   0.00000  -0.04626  -1.11451
   D41        1.02686  -0.00726  -0.04073   0.00000  -0.04471   0.98215
         Item               Value     Threshold  Converged?
 Maximum Force            0.059376     0.000450     NO 
 RMS     Force            0.011971     0.000300     NO 
 Maximum Displacement     0.851315     0.001800     NO 
 RMS     Displacement     0.246541     0.001200     NO 
 Predicted change in Energy=-4.159637D-02
 GradGradGradGradGradGradGradGradGradGradGradGradGradGradGradGradGradGrad

                          Input orientation:                          
 ---------------------------------------------------------------------
 Center     Atomic      Atomic             Coordinates (Angstroms)
 Number     Number       Type             X           Y           Z
 ---------------------------------------------------------------------
      1          1           0        0.220510    3.456169    0.871734
      2          6           0        1.178596    3.140268    0.476965
      3          1           0        1.067344    2.866192   -0.570528
      4          1           0        1.532733    2.274544    1.031255
      5          6           0        2.195857    4.266267    0.605245
      6          8           0        1.897275    5.325982    1.045843
      7          7           0        3.397446    4.021641    0.119675
      8          1           0        3.477031    3.116181   -0.297486
      9          6           0        4.680088    4.763009    0.075954
     10          1           0        5.265629    4.481436    0.946333
     11          6           0        5.384666    4.294199   -1.197167
     12          1           0        4.809061    4.590271   -2.070593
     13          1           0        6.370064    4.744204   -1.249413
     14          1           0        5.486580    3.210925   -1.189877
     15          6           0        4.748993    6.306045    0.037840
     16          8           0        5.841913    6.817334    0.175539
     17          7           0        3.683111    7.002104   -0.249328
     18          1           0        2.816892    6.499022   -0.190617
     19          6           0        3.676179    8.427990   -0.480797
     20          1           0        4.692218    8.798637   -0.443474
     21          1           0        3.248671    8.647949   -1.456393
     22          1           0        3.083343    8.918629    0.287787
 ---------------------------------------------------------------------
                    Distance matrix (angstroms):
                    1          2          3          4          5
     1  H    0.000000
     2  C    1.083312   0.000000
     3  H    1.773505   1.088456   0.000000
     4  H    1.773024   1.087257   1.769842   0.000000
     5  C    2.151574   1.522875   2.148533   2.142003   0.000000
     6  O    2.517549   2.370119   3.058105   3.073170   1.185864
     7  N    3.313347   2.414077   2.690876   2.713020   1.318876
     8  H    3.476722   2.425522   2.437957   2.500839   1.943972
     9  C    4.714757   3.880019   4.131316   4.124427   2.588109
    10  H    5.148783   4.326995   4.747155   4.337292   3.096149
    11  C    5.625936   4.671756   4.590332   4.886947   3.663055
    12  H    5.567609   4.666137   4.384414   5.071328   3.754187
    13  H    6.631388   5.701257   5.666273   5.890707   4.592623
    14  H    5.660555   4.619750   4.475721   4.630674   3.894235
    15  C    5.415194   4.791942   5.075159   5.252066   3.316798
    16  O    6.586523   5.946276   6.242167   6.319669   4.470606
    17  N    5.081343   4.659815   4.904200   5.349191   3.229091
    18  H    4.138688   3.796170   4.050025   4.581293   2.450362
    19  C    6.204030   5.925810   6.143913   6.689211   4.548712
    20  H    7.089986   6.723830   6.953399   7.397361   5.279584
[...]
    14  H    5.643656   4.708272   5.084127   4.380759   3.969133
    15  C    5.353627   4.695230   4.985014   5.133126   3.249296
    16  O    6.482789   5.846040   6.176994   6.218784   4.386637
    17  N    5.108975   4.524881   4.594026   5.193122   3.169867
    18  H    4.223388   3.726127   3.780674   4.513169   2.445841
    19  C    6.291261   5.815193   5.803817   6.567479   4.496523
    20  H    7.148377   6.567749   6.517284   7.229877   5.249816
    21  H    6.300002   5.886535   5.712747   6.737668   4.738979
    22  H    6.591485   6.247234   6.375729   7.019292   4.859060
                    6          7          8          9         10
     6  O    0.000000
     7  N    2.260571   0.000000
     8  H    3.097047   0.994230   0.000000
     9  C    3.009310   1.466511   2.069141   0.000000
    10  H    3.381476   2.076202   2.632170   1.083494   0.000000
    11  C    4.373881   2.418677   2.412364   1.532857   2.134952
    12  H    4.536888   2.708047   2.605485   2.167747   3.042481
    13  H    5.120540   3.359237   3.458050   2.152292   2.446898
    14  H    4.823630   2.628397   2.257791   2.166738   2.479638
    15  C    3.158407   2.629341   3.407796   1.539492   2.074410
    16  O    4.244413   3.663714   4.363492   2.325773   2.470176
    17  N    2.802128   3.031345   3.856216   2.515103   3.218972
    18  H    1.944527   2.699780   3.560055   2.686752   3.393597
    19  C    3.893089   4.474068   5.305180   3.842253   4.403499
    20  H    4.803751   4.997586   5.734610   4.151821   4.729955
    21  H    4.066621   4.944469   5.742158   4.578552   5.238382
    22  H    4.080121   4.910934   5.824197   4.215943   4.535681
                   11         12         13         14         15
    11  C    0.000000
    12  H    1.085387   0.000000
    13  H    1.079483   1.762265   0.000000
    14  H    1.086343   1.763517   1.756591   0.000000
    15  C    2.475181   2.775426   2.630764   3.432375   0.000000
    16  O    2.878375   3.318063   2.550424   3.835304   1.203041
    17  N    3.441137   3.375427   3.757135   4.399538   1.345044
    18  H    3.799275   3.717751   4.332261   4.615973   1.994953
    19  C    4.646552   4.531489   4.728130   5.674464   2.405494
    20  H    4.637304   4.453270   4.521931   5.715944   2.678550
    21  H    5.375997   5.104926   5.580563   6.376025   3.286305
    22  H    5.197874   5.274862   5.195752   6.190073   2.762946
                   16         17         18         19         20
    16  O    0.000000
    17  N    2.241011   0.000000
    18  H    3.062585   0.995207   0.000000
    19  C    2.714654   1.449981   2.091430   0.000000
    20  H    2.637382   2.081901   2.932299   1.080124   0.000000
    21  H    3.760987   2.063985   2.321493   1.082020   1.760350
    22  H    2.836335   2.112834   2.619391   1.084836   1.755125
                   21         22
    21  H    0.000000
    22  H    1.765422   0.000000
 Stoichiometry    C6H12N2O2
 Framework group  C1[X(C6H12N2O2)]
 Deg. of freedom    60
 Full point group                 C1      NOp   1
 Largest Abelian subgroup         C1      NOp   1
 Largest concise Abelian subgroup C1      NOp   1
                         Standard orientation:                         
 ---------------------------------------------------------------------
 Center     Atomic      Atomic             Coordinates (Angstroms)
 Number     Number       Type             X           Y           Z
 ---------------------------------------------------------------------
      1          1           0       -3.848000   -1.168089   -0.287680
      2          6           0       -3.287825   -0.470063    0.317833
      3          1           0       -3.289058   -0.833851    1.340468
      4          1           0       -3.771725    0.499074    0.296461
      5          6           0       -1.858679   -0.437432   -0.185041
      6          8           0       -1.345541   -1.427415   -0.642859
      7          7           0       -1.240191    0.754651   -0.061762
      8          1           0       -1.782788    1.465566    0.372613
      9          6           0        0.135210    1.175680   -0.347522
     10          1           0        0.180092    1.498730   -1.380761
     11          6           0        0.441155    2.384328    0.544229
     12          1           0        0.431300    2.098843    1.591351
     13          1           0        1.413967    2.782107    0.297871
     14          1           0       -0.297606    3.166006    0.391413
     15          6           0        1.325806    0.206643   -0.231402
     16          8           0        2.372337    0.620078   -0.657020
     17          7           0        1.208589   -0.967613    0.413988
     18          1           0        0.317850   -1.408671    0.364100
     19          6           0        2.359787   -1.847051    0.475440
     20          1           0        3.195890   -1.327154    0.919633
     21          1           0        2.105317   -2.698028    1.093381
     22          1           0        2.658886   -2.197734   -0.506614
 ---------------------------------------------------------------------
 Rotational constants (GHZ):      1.8658974      0.9613805      0.6958000

 **********************************************************************

            Population analysis using the SCF density.

 **********************************************************************

 Orbital symmetries:
       Occupied  (A) (A) (A) (A) (A) (A) (A) (A) (A) (A) (A) (A)
                 (A) (A) (A) (A) (A) (A) (A) (A) (A) (A) (A) (A)
                 (A) (A) (A) (A) (A) (A) (A) (A) (A) (A) (A) (A)
                 (A) (A) (A)
       Virtual   (A) (A) (A) (A) (A) (A) (A) (A) (A) (A) (A) (A)
                 (A) (A) (A) (A) (A) (A) (A) (A) (A) (A) (A) (A)
                 (A) (A) (A) (A) (A) (A) (A) (A) (A) (A) (A) (A)
                 (A) (A) (A) (A) (A) (A) (A) (A) (A) (A) (A) (A)
                 (A) (A) (A) (A) (A) (A) (A) (A) (A) (A) (A) (A)
                 (A) (A) (A) (A) (A) (A) (A) (A) (A) (A) (A) (A)
                 (A) (A) (A) (A) (A) (A) (A) (A) (A) (A) (A) (A)
                 (A) (A) (A) (A) (A) (A) (A) (A) (A) (A) (A) (A)
                 (A) (A) (A) (A) (A) (A) (A) (A) (A) (A) (A) (A)
                 (A) (A) (A) (A) (A) (A) (A) (A) (A) (A) (A) (A)
                 (A) (A) (A) (A) (A) (A) (A) (A) (A) (A) (A) (A)
                 (A) (A) (A)
 The electronic state is 1-A.
 Alpha  occ. eigenvalues --  -20.53692 -20.51619 -15.60408 -15.56645 -11.36701
 Alpha  occ. eigenvalues --  -11.34161 -11.28895 -11.24496 -11.24336 -11.23382
 Alpha  occ. eigenvalues --   -1.40676  -1.38636  -1.25421  -1.21908  -1.06496
 Alpha  occ. eigenvalues --   -1.00219  -0.94952  -0.88229  -0.81865  -0.77313
 Alpha  occ. eigenvalues --   -0.71238  -0.70025  -0.67451  -0.63302  -0.62470
 Alpha  occ. eigenvalues --   -0.62327  -0.59792  -0.58872  -0.58193  -0.55898
 Alpha  occ. eigenvalues --   -0.55037  -0.54126  -0.53630  -0.52166  -0.49795
 Alpha  occ. eigenvalues --   -0.43445  -0.42086  -0.40137  -0.37844
 Alpha virt. eigenvalues --    0.18373   0.19850   0.20561   0.25502   0.26747
 Alpha virt. eigenvalues --    0.28161   0.28973   0.29684   0.31298   0.31553
 Alpha virt. eigenvalues --    0.32540   0.33318   0.35178   0.35398   0.37784
 Alpha virt. eigenvalues --    0.39882   0.41795   0.43282   0.45580   0.49893
 Alpha virt. eigenvalues --    0.55024   0.60009   0.67140   0.69376   0.71890
 Alpha virt. eigenvalues --    0.73613   0.74725   0.75386   0.76710   0.78188
 Alpha virt. eigenvalues --    0.81543   0.82942   0.84304   0.85347   0.88519
 Alpha virt. eigenvalues --    0.91859   0.93755   0.96232   0.97597   1.00572
 Alpha virt. eigenvalues --    1.01522   1.03705   1.04905   1.09147   1.10245
 Alpha virt. eigenvalues --    1.10869   1.12102   1.13650   1.14282   1.15249
 Alpha virt. eigenvalues --    1.17366   1.18274   1.18395   1.19467   1.20818
 Alpha virt. eigenvalues --    1.22117   1.23931   1.24655   1.25726   1.29182
 Alpha virt. eigenvalues --    1.31508   1.34621   1.37817   1.40515   1.42217
 Alpha virt. eigenvalues --    1.45676   1.47222   1.51901   1.56699   1.58786
 Alpha virt. eigenvalues --    1.62603   1.63541   1.66534   1.68962   1.74305
 Alpha virt. eigenvalues --    1.80072   1.85934   1.90458   1.93846   1.95468
 Alpha virt. eigenvalues --    1.99419   2.03211   2.09537   2.11188   2.12462
 Alpha virt. eigenvalues --    2.12963   2.16871   2.18966   2.21917   2.22021
 Alpha virt. eigenvalues --    2.25067   2.26579   2.31435   2.31875   2.34425
 Alpha virt. eigenvalues --    2.37054   2.37882   2.38736   2.42023   2.47763
 Alpha virt. eigenvalues --    2.52739   2.55379   2.56265   2.61129   2.65352
 Alpha virt. eigenvalues --    2.65672   2.67674   2.70033   2.72561   2.73689
 Alpha virt. eigenvalues --    2.75547   2.88185   2.90104   2.91566   2.97633
 Alpha virt. eigenvalues --    3.02553   3.05240   3.06105   3.12511   3.24169
 Alpha virt. eigenvalues --    3.31762   3.36798   3.39411   3.55146   3.62438
 Alpha virt. eigenvalues --    4.35535   4.42740   4.50780   4.56155   4.61128
 Alpha virt. eigenvalues --    4.64003   4.73993   4.81264   4.86781   5.11797
          Condensed to atoms (all electrons):
              1          2          3          4          5          6
     1  H    0.460616   0.384316  -0.018036  -0.021708  -0.030339   0.002338
     2  C    0.384316   5.261817   0.376518   0.376203   0.372619  -0.073053
     3  H   -0.018036   0.376518   0.486384  -0.023282  -0.026170   0.000120
     4  H   -0.021708   0.376203  -0.023282   0.523378  -0.038924   0.002470
     5  C   -0.030339   0.372619  -0.026170  -0.038924   4.151251   0.576331
     6  O    0.002338  -0.073053   0.000120   0.002470   0.576331   8.209870
     7  N    0.003478  -0.116517   0.000125   0.005717   0.272342  -0.099515
     8  H    0.000091   0.000498  -0.000001   0.001115  -0.022003   0.002448
     9  C   -0.000075   0.002784  -0.000112   0.000290  -0.019598   0.004682
    10  H    0.000010  -0.000110  -0.000004  -0.000004  -0.001522   0.000162
    11  C    0.000001  -0.000123   0.000011  -0.000033   0.002367   0.000135
    12  H    0.000000  -0.000010  -0.000002   0.000000  -0.000115  -0.000005
    13  H    0.000000   0.000003   0.000000   0.000000  -0.000019   0.000001
    14  H    0.000000  -0.000016   0.000001  -0.000005  -0.000054  -0.000001
    15  C   -0.000003   0.000115   0.000010  -0.000009  -0.001544   0.003952
    16  O    0.000000   0.000000   0.000000   0.000000   0.000010   0.000013
    17  N    0.000002  -0.000202   0.000026   0.000002   0.002128  -0.025171
    18  H   -0.000005   0.000483  -0.000084  -0.000004   0.001699   0.029130
    19  C    0.000000   0.000001   0.000000   0.000000   0.000059   0.000411
    20  H    0.000000   0.000000   0.000000   0.000000  -0.000004  -0.000009
    21  H    0.000000   0.000000   0.000000   0.000000   0.000005  -0.000003
    22  H    0.000000   0.000000   0.000000   0.000000   0.000006   0.000034
              7          8          9         10         11         12
     1  H    0.003478   0.000091  -0.000075   0.000010   0.000001   0.000000
     2  C   -0.116517   0.000498   0.002784  -0.000110  -0.000123  -0.000010
     3  H    0.000125  -0.000001  -0.000112  -0.000004   0.000011  -0.000002
     4  H    0.005717   0.001115   0.000290  -0.000004  -0.000033   0.000000
     5  C    0.272342  -0.022003  -0.019598  -0.001522   0.002367  -0.000115
     6  O   -0.099515   0.002448   0.004682   0.000162   0.000135  -0.000005
     7  N    7.466549   0.325950   0.107859  -0.047530  -0.055310   0.000546
     8  H    0.325950   0.325061  -0.025685   0.001055  -0.004512   0.000578
     9  C    0.107859  -0.025685   5.033645   0.416692   0.344175  -0.037822
    10  H   -0.047530   0.001055   0.416692   0.492789  -0.039511   0.004278
    11  C   -0.055310  -0.004512   0.344175  -0.039511   5.161279   0.384856
    12  H    0.000546   0.000578  -0.037822   0.004278   0.384856   0.520612
    13  H    0.004130   0.000073  -0.033549   0.000188   0.391280  -0.017938
    14  H   -0.004353   0.003568  -0.039162  -0.004435   0.388239  -0.029437
    15  C   -0.030725   0.001733   0.387060  -0.048002  -0.040638  -0.007308
    16  O    0.002908  -0.000050  -0.076416   0.003887  -0.004983   0.000268
    17  N    0.007714  -0.000213  -0.098655   0.002976  -0.000654   0.001905
    18  H   -0.003657  -0.000123   0.000098  -0.000208   0.000133  -0.000015
    19  C   -0.000158   0.000006   0.004476  -0.000107  -0.000172  -0.000051
    20  H    0.000000   0.000000  -0.000054  -0.000012   0.000038  -0.000009
    21  H   -0.000004   0.000000   0.000015   0.000000   0.000003  -0.000001
    22  H   -0.000007   0.000000  -0.000106   0.000034  -0.000010   0.000002
             13         14         15         16         17         18
     1  H    0.000000   0.000000  -0.000003   0.000000   0.000002  -0.000005
     2  C    0.000003  -0.000016   0.000115   0.000000  -0.000202   0.000483
     3  H    0.000000   0.000001   0.000010   0.000000   0.000026  -0.000084
     4  H    0.000000  -0.000005  -0.000009   0.000000   0.000002  -0.000004
     5  C   -0.000019  -0.000054  -0.001544   0.000010   0.002128   0.001699
     6  O    0.000001  -0.000001   0.003952   0.000013  -0.025171   0.029130
     7  N    0.004130  -0.004353  -0.030725   0.002908   0.007714  -0.003657
     8  H    0.000073   0.003568   0.001733  -0.000050  -0.000213  -0.000123
     9  C   -0.033549  -0.039162   0.387060  -0.076416  -0.098655   0.000098
    10  H    0.000188  -0.004435  -0.048002   0.003887   0.002976  -0.000208
    11  C    0.391280   0.388239  -0.040638  -0.004983  -0.000654   0.000133
    12  H   -0.017938  -0.029437  -0.007308   0.000268   0.001905  -0.000015
    13  H    0.447655  -0.021619  -0.005776   0.007734   0.000397  -0.000021
    14  H   -0.021619   0.538317   0.005675   0.000054  -0.000106   0.000000
    15  C   -0.005776   0.005675   4.166890   0.564365   0.311399  -0.015054
    16  O    0.007734   0.000054   0.564365   8.212129  -0.099979   0.002193
    17  N    0.000397  -0.000106   0.311399  -0.099979   7.317311   0.293535
    18  H   -0.000021   0.000000  -0.015054   0.002193   0.293535   0.272295
    19  C   -0.000014   0.000003  -0.036981   0.006291   0.217626  -0.020937
    20  H    0.000004   0.000000  -0.003696   0.003103  -0.038474   0.002194
    21  H    0.000000   0.000000   0.004904   0.000453  -0.038575  -0.004223
    22  H   -0.000001   0.000000  -0.003395   0.001961  -0.048011   0.001363
             19         20         21         22
     1  H    0.000000   0.000000   0.000000   0.000000
     2  C    0.000001   0.000000   0.000000   0.000000
     3  H    0.000000   0.000000   0.000000   0.000000
     4  H    0.000000   0.000000   0.000000   0.000000
     5  C    0.000059  -0.000004   0.000005   0.000006
     6  O    0.000411  -0.000009  -0.000003   0.000034
     7  N   -0.000158   0.000000  -0.000004  -0.000007
     8  H    0.000006   0.000000   0.000000   0.000000
     9  C    0.004476  -0.000054   0.000015  -0.000106
    10  H   -0.000107  -0.000012   0.000000   0.000034
    11  C   -0.000172   0.000038   0.000003  -0.000010
    12  H   -0.000051  -0.000009  -0.000001   0.000002
    13  H   -0.000014   0.000004   0.000000  -0.000001
    14  H    0.000003   0.000000   0.000000   0.000000
    15  C   -0.036981  -0.003696   0.004904  -0.003395
    16  O    0.006291   0.003103   0.000453   0.001961
    17  N    0.217626  -0.038474  -0.038575  -0.048011
    18  H   -0.020937   0.002194  -0.004223   0.001363
    19  C    4.904584   0.403283   0.397776   0.404779
    20  H    0.403283   0.499982  -0.025757  -0.033256
    21  H    0.397776  -0.025757   0.530746  -0.032233
    22  H    0.404779  -0.033256  -0.032233   0.530858
 Mulliken atomic charges:
              1
     1  H    0.219316
     2  C   -0.585327
     3  H    0.204496
     4  H    0.174795
     5  C    0.761475
     6  O   -0.634338
     7  N   -0.839543
     8  H    0.390409
     9  C    0.029458
    10  H    0.219376
    11  C   -0.526570
    12  H    0.179667
    13  H    0.227472
    14  H    0.163329
    15  C    0.747029
    16  O   -0.623941
    17  N   -0.804985
    18  H    0.441209
    19  C   -0.280873
    20  H    0.192667
    21  H    0.166896
    22  H    0.177983
 Sum of Mulliken atomic charges =   0.00000
 Mulliken charges with hydrogens summed into heavy atoms:
              1
     2  C    0.013279
     5  C    0.761475
     6  O   -0.634338
     7  N   -0.449134
     9  C    0.248834
    11  C    0.043897
    15  C    0.747029
    16  O   -0.623941
    17  N   -0.363776
    19  C    0.256674
 Sum of Mulliken charges with hydrogens summed into heavy atoms =   0.00000
 Electronic spatial extent (au):  <R**2>=           1709.1016
 Charge=              0.0000 electrons
 Dipole moment (field-independent basis, Debye):
    X=             -4.1165    Y=              1.5518    Z=              2.5974  Tot=              5.1088
 Quadrupole moment (field-independent basis, Debye-Ang):
   XX=            -60.7068   YY=            -58.1870   ZZ=            -62.1033
   XY=             -8.0746   XZ=              0.7163   YZ=             -1.4753
 Traceless Quadrupole moment (field-independent basis, Debye-Ang):
   XX=             -0.3744   YY=              2.1454   ZZ=             -1.7709
   XY=             -8.0746   XZ=              0.7163   YZ=             -1.4753
 Octapole moment (field-independent basis, Debye-Ang**2):
  XXX=            -43.9818  YYY=              5.0165  ZZZ=             -3.2913  XYY=              6.6744
  XXY=            -11.4587  XXZ=             13.9071  XZZ=             -1.8182  YZZ=             -0.6867
  YYZ=              5.9983  XYZ=              3.7744
 Hexadecapole moment (field-independent basis, Debye-Ang**3):
 XXXX=          -1327.2886 YYYY=           -697.1800 ZZZZ=           -153.6980 XXXY=            -23.6791
 XXXZ=             24.8707 YYYX=            -19.0366 YYYZ=             -9.9528 ZZZX=             -4.8134
 ZZZY=             -1.3737 XXYY=           -328.7062 XXZZ=           -255.0801 YYZZ=           -145.3947
 XXYZ=              5.2457 YYXZ=             -3.9470 ZZXY=             -0.1904
 N-N= 5.642058064962D+02 E-N=-2.283667386902D+03  KE= 4.921188740718D+02
 1\1\GINC-RODAN\FOpt\RHF\6-31G(d)\C6H12N2O2\STEBOSS\10-Feb-2017\0\\# HF
 /6-31G* Opt=(ModRedundant) geom=nocrowd\\Phi Psi fixed scan\\0,1\H,0.4
 500419374,3.246944266,1.180819953\C,1.1595975216,3.2134424215,0.366516
 3029\H,0.6278945077,3.4342974205,-0.5536144263\H,1.5792685156,2.217426
 7211,0.2912060821\C,2.2035886962,4.2878537047,0.5948354909\O,1.9096191
 783,5.3261169232,1.1320186826\N,3.4380866197,3.9853146273,0.1439813807
 \H,3.5135671879,3.1056638065,-0.3131947417\C,4.679793041,4.7643040428,
 0.0993274262\H,5.2113354804,4.6032294289,1.0296371184\C,5.5346361513,4
 .2025553804,-1.042308577\H,5.0491177492,4.3657978514,-1.9992246134\H,6
 .4980881373,4.6893697234,-1.0498233222\H,5.6906621302,3.1355643123,-0.
 9106750595\C,4.6764612348,6.2973500592,-0.041362497\O,5.7433995115,6.8
 326071812,0.1084682513\N,3.5705281145,6.9598386444,-0.4249839935\H,2.7
 022355526,6.5675807286,-0.1375137556\C,3.6228363827,8.4055809112,-0.52
 26505736\H,4.4141960801,8.6998303112,-1.1963233416\H,2.6771681366,8.75
 45071822,-0.9160083674\H,3.8020781333,8.8738243518,0.4393725808\\Versi
 on=EM64L-G09RevA.02\State=1-A\HF=-492.8473146\RMSD=4.949e-09\RMSF=2.27
 0e-03\Dipole=-0.8207075,-1.6430295,-0.816626\Quadrupole=-4.6080644,6.4
 009872,-1.7929228,-2.1338799,1.397879,-0.6964905\PG=C01 [X(C6H12N2O2)]
 \\@


 Ideas are like rabbits. You get a couple and learn
 how to handle them, and pretty soon you have a dozen.
                                    -- John Steinbeck
 Job cpu time:  0 days  0 hours 40 minutes 25.1 seconds.
 File lengths (MBytes):  RWF=     25 Int=      0 D2E=      0 Chk=      3 Scr=      1
 Normal termination of Gaussian 09 at Fri Feb 10 22:17:55 2017.
