 Entering Gaussian System, Link 0=g09
 Initial command:
 /home/steboss/Software/g09/l1.exe /home/steboss/projects/phi_psi_scan/alanine/60/4639/Gau-19839.inp -scrdir=/home/steboss/projects/phi_psi_scan/alanine/60/4639/
 Entering Link 1 = /home/steboss/Software/g09/l1.exe PID=     19841.
  
 Copyright (c) 1988,1990,1992,1993,1995,1998,2003,2009, Gaussian, Inc.
                  All Rights Reserved.
  
 This is part of the Gaussian(R) 09 program.  It is based on
 the Gaussian(R) 03 system (copyright 2003, Gaussian, Inc.),
 the Gaussian(R) 98 system (copyright 1998, Gaussian, Inc.),
 the Gaussian(R) 94 system (copyright 1995, Gaussian, Inc.),
 the Gaussian 92(TM) system (copyright 1992, Gaussian, Inc.),
 the Gaussian 90(TM) system (copyright 1990, Gaussian, Inc.),
 the Gaussian 88(TM) system (copyright 1988, Gaussian, Inc.),
 the Gaussian 86(TM) system (copyright 1986, Carnegie Mellon
 University), and the Gaussian 82(TM) system (copyright 1983,
 Carnegie Mellon University). Gaussian is a federally registered
 trademark of Gaussian, Inc.
  
 This software contains proprietary and confidential information,
 including trade secrets, belonging to Gaussian, Inc.
  
 This software is provided under written license and may be
 used, copied, transmitted, or stored only in accord with that
 written license.
  
 The following legend is applicable only to US Government
 contracts under FAR:
  
                    RESTRICTED RIGHTS LEGEND
  
 Use, reproduction and disclosure by the US Government is
 subject to restrictions as set forth in subparagraphs (a)
 and (c) of the Commercial Computer Software - Restricted
 Rights clause in FAR 52.227-19.
  
 Gaussian, Inc.
 340 Quinnipiac St., Bldg. 40, Wallingford CT 06492
  
  
 ---------------------------------------------------------------
 Warning -- This program may not be used in any manner that
 competes with the business of Gaussian, Inc. or will provide
 assistance to any competitor of Gaussian, Inc.  The licensee
 of this program is prohibited from giving any competitor of
 Gaussian, Inc. access to this program.  By using this program,
 the user acknowledges that Gaussian, Inc. is engaged in the
 business of creating and licensing software in the field of
 computational chemistry and represents and warrants to the
 licensee that it is not a competitor of Gaussian, Inc. and that
 it will not use this program in any manner prohibited above.
 ---------------------------------------------------------------
  

 Cite this work as:
 Gaussian 09, Revision A.02,
 M. J. Frisch, G. W. Trucks, H. B. Schlegel, G. E. Scuseria, 
 M. A. Robb, J. R. Cheeseman, G. Scalmani, V. Barone, B. Mennucci, 
 G. A. Petersson, H. Nakatsuji, M. Caricato, X. Li, H. P. Hratchian, 
 A. F. Izmaylov, J. Bloino, G. Zheng, J. L. Sonnenberg, M. Hada, 
 M. Ehara, K. Toyota, R. Fukuda, J. Hasegawa, M. Ishida, T. Nakajima, 
 Y. Honda, O. Kitao, H. Nakai, T. Vreven, J. A. Montgomery, Jr., 
 J. E. Peralta, F. Ogliaro, M. Bearpark, J. J. Heyd, E. Brothers, 
 K. N. Kudin, V. N. Staroverov, R. Kobayashi, J. Normand, 
 K. Raghavachari, A. Rendell, J. C. Burant, S. S. Iyengar, J. Tomasi, 
 M. Cossi, N. Rega, J. M. Millam, M. Klene, J. E. Knox, J. B. Cross, 
 V. Bakken, C. Adamo, J. Jaramillo, R. Gomperts, R. E. Stratmann, 
 O. Yazyev, A. J. Austin, R. Cammi, C. Pomelli, J. W. Ochterski, 
 R. L. Martin, K. Morokuma, V. G. Zakrzewski, G. A. Voth, 
 P. Salvador, J. J. Dannenberg, S. Dapprich, A. D. Daniels, 
 O. Farkas, J. B. Foresman, J. V. Ortiz, J. Cioslowski, 
 and D. J. Fox, Gaussian, Inc., Wallingford CT, 2009.
 
 ******************************************
 Gaussian 09:  EM64L-G09RevA.02 11-Jun-2009
                11-Feb-2017 
 ******************************************
 %chk=structure_195.chk
 %NProcShared=8
 Will use up to    8 processors via shared memory.
 ----------------------------------------------------------------------
 # b3lyp/6-31G* Opt=(ModRedundant, maxcycles=1000, calcfc) geom=nocrowd
 ----------------------------------------------------------------------
 1/6=1000,10=4,14=-1,18=120,19=15,26=3,38=1/1,3;
 2/9=110,12=1,17=6,18=5,40=1/2;
 3/5=1,6=6,7=1,11=2,16=1,25=1,30=1,71=2,74=-5/1,2,3;
 4//1;
 5/5=2,38=5/2;
 8/6=4,10=90,11=11/1;
 11/6=1,8=1,9=11,15=111,16=1/1,2,10;
 10/6=1,7=6,13=1/2;
 6/7=2,8=2,9=2,10=2,28=1/1;
 7/10=1,18=20,25=1/1,2,3,16;
 1/6=1000,10=4,14=-1,18=20,19=15/3(2);
 2/9=110,12=1/2;
 99//99;
 2/9=110,12=1/2;
 3/5=1,6=6,7=1,11=2,16=1,25=1,30=1,71=1,74=-5/1,2,3;
 4/5=5,16=3/1;
 5/5=2,38=5/2;
 7//1,2,3,16;
 1/6=1000,14=-1,18=20,19=15/3(-5);
 2/9=110,12=1/2;
 6/7=2,8=2,9=2,10=2,19=2,28=1/1;
 99/9=1/99;
 ------------------
 Phi Psi fixed scan
 ------------------
 Symbolic Z-matrix:
 Charge =  0 Multiplicity = 1
 H                     0.6872    3.6446   -1.7047 
 C                     1.3383    3.4229   -0.8591 
 H                     1.537     2.3517   -0.824 
 H                     0.8517    3.7322    0.0658 
 C                     2.6715    4.1636   -0.9815 
 O                     2.893     4.8943   -1.9446 
 N                     3.5554    3.9697    0. 
 H                     3.3273    3.3591    0.7716 
 C                     4.8533    4.6139    0. 
 H                     5.4076    4.3155    0.8898 
 C                     5.6613    4.2208   -1.2322 
 H                     5.1233    4.5214   -2.1312 
 H                     6.6305    4.7189   -1.2058 
 H                     5.8085    3.1409   -1.2414 
 C                     4.7127    6.1294    0. 
 O                     3.6366    6.656     0.2741 
 N                     5.8056    6.8311   -0.3089 
 H                     6.6679    6.3528   -0.5272 
 C                     5.801     8.2797   -0.3436 
 H                     4.8071    8.6467   -0.0875 
 H                     6.5256    8.6631    0.3748 
 H                     6.0669    8.6206   -1.3442 
 
 The following ModRedundant input section has been read:
 D    5    7    9   15 F                                                       
 D    7    9   15   17 F                                                       

 GradGradGradGradGradGradGradGradGradGradGradGradGradGradGradGradGradGrad
 Berny optimization.
 Initialization pass.
                           ----------------------------
                           !    Initial Parameters    !
                           ! (Angstroms and Degrees)  !
 --------------------------                            --------------------------
 ! Name  Definition              Value          Derivative Info.                !
 --------------------------------------------------------------------------------
 ! R1    R(1,2)                  1.09           calculate D2E/DX2 analytically  !
 ! R2    R(2,3)                  1.09           calculate D2E/DX2 analytically  !
 ! R3    R(2,4)                  1.0899         calculate D2E/DX2 analytically  !
 ! R4    R(2,5)                  1.53           calculate D2E/DX2 analytically  !
 ! R5    R(5,6)                  1.229          calculate D2E/DX2 analytically  !
 ! R6    R(5,7)                  1.335          calculate D2E/DX2 analytically  !
 ! R7    R(7,8)                  1.0101         calculate D2E/DX2 analytically  !
 ! R8    R(7,9)                  1.449          calculate D2E/DX2 analytically  !
 ! R9    R(9,10)                 1.09           calculate D2E/DX2 analytically  !
 ! R10   R(9,11)                 1.525          calculate D2E/DX2 analytically  !
 ! R11   R(9,15)                 1.522          calculate D2E/DX2 analytically  !
 ! R12   R(11,12)                1.09           calculate D2E/DX2 analytically  !
 ! R13   R(11,13)                1.09           calculate D2E/DX2 analytically  !
 ! R14   R(11,14)                1.0899         calculate D2E/DX2 analytically  !
 ! R15   R(15,16)                1.229          calculate D2E/DX2 analytically  !
 ! R16   R(15,17)                1.335          calculate D2E/DX2 analytically  !
 ! R17   R(17,18)                1.0099         calculate D2E/DX2 analytically  !
 ! R18   R(17,19)                1.449          calculate D2E/DX2 analytically  !
 ! R19   R(19,20)                1.09           calculate D2E/DX2 analytically  !
 ! R20   R(19,21)                1.09           calculate D2E/DX2 analytically  !
 ! R21   R(19,22)                1.09           calculate D2E/DX2 analytically  !
 ! A1    A(1,2,3)              109.4962         calculate D2E/DX2 analytically  !
 ! A2    A(1,2,4)              109.5069         calculate D2E/DX2 analytically  !
 ! A3    A(1,2,5)              111.0979         calculate D2E/DX2 analytically  !
 ! A4    A(3,2,4)              109.4474         calculate D2E/DX2 analytically  !
 ! A5    A(3,2,5)              108.6313         calculate D2E/DX2 analytically  !
 ! A6    A(4,2,5)              108.6344         calculate D2E/DX2 analytically  !
 ! A7    A(2,5,6)              120.4998         calculate D2E/DX2 analytically  !
 ! A8    A(2,5,7)              116.6019         calculate D2E/DX2 analytically  !
 ! A9    A(6,5,7)              122.8982         calculate D2E/DX2 analytically  !
 ! A10   A(5,7,8)              119.9944         calculate D2E/DX2 analytically  !
 ! A11   A(5,7,9)              121.9035         calculate D2E/DX2 analytically  !
 ! A12   A(8,7,9)              118.102          calculate D2E/DX2 analytically  !
 ! A13   A(7,9,10)             109.5            calculate D2E/DX2 analytically  !
 ! A14   A(7,9,11)             111.0992         calculate D2E/DX2 analytically  !
 ! A15   A(7,9,15)             111.0966         calculate D2E/DX2 analytically  !
 ! A16   A(10,9,11)            108.6382         calculate D2E/DX2 analytically  !
 ! A17   A(10,9,15)            108.6373         calculate D2E/DX2 analytically  !
 ! A18   A(11,9,15)            107.7947         calculate D2E/DX2 analytically  !
 ! A19   A(9,11,12)            109.5007         calculate D2E/DX2 analytically  !
 ! A20   A(9,11,13)            109.4959         calculate D2E/DX2 analytically  !
 ! A21   A(9,11,14)            109.4978         calculate D2E/DX2 analytically  !
 ! A22   A(12,11,13)           109.441          calculate D2E/DX2 analytically  !
 ! A23   A(12,11,14)           109.4482         calculate D2E/DX2 analytically  !
 ! A24   A(13,11,14)           109.4436         calculate D2E/DX2 analytically  !
 ! A25   A(9,15,16)            120.4997         calculate D2E/DX2 analytically  !
 ! A26   A(9,15,17)            116.599          calculate D2E/DX2 analytically  !
 ! A27   A(16,15,17)           122.9013         calculate D2E/DX2 analytically  !
 ! A28   A(15,17,18)           120.0038         calculate D2E/DX2 analytically  !
 ! A29   A(15,17,19)           121.8978         calculate D2E/DX2 analytically  !
 ! A30   A(18,17,19)           118.0984         calculate D2E/DX2 analytically  !
 ! A31   A(17,19,20)           109.5036         calculate D2E/DX2 analytically  !
 ! A32   A(17,19,21)           109.496          calculate D2E/DX2 analytically  !
 ! A33   A(17,19,22)           109.5037         calculate D2E/DX2 analytically  !
 ! A34   A(20,19,21)           109.443          calculate D2E/DX2 analytically  !
 ! A35   A(20,19,22)           109.4397         calculate D2E/DX2 analytically  !
 ! A36   A(21,19,22)           109.4414         calculate D2E/DX2 analytically  !
 ! D1    D(1,2,5,6)              0.0045         calculate D2E/DX2 analytically  !
 ! D2    D(1,2,5,7)           -179.9929         calculate D2E/DX2 analytically  !
 ! D3    D(3,2,5,6)            120.5077         calculate D2E/DX2 analytically  !
 ! D4    D(3,2,5,7)            -59.4897         calculate D2E/DX2 analytically  !
 ! D5    D(4,2,5,6)           -120.5139         calculate D2E/DX2 analytically  !
 ! D6    D(4,2,5,7)             59.4887         calculate D2E/DX2 analytically  !
 ! D7    D(2,5,7,8)              0.0001         calculate D2E/DX2 analytically  !
 ! D8    D(2,5,7,9)            179.9972         calculate D2E/DX2 analytically  !
 ! D9    D(6,5,7,8)           -179.9972         calculate D2E/DX2 analytically  !
 ! D10   D(6,5,7,9)             -0.0002         calculate D2E/DX2 analytically  !
 ! D11   D(5,7,9,10)          -179.9995         calculate D2E/DX2 analytically  !
 ! D12   D(5,7,9,11)           -59.997          calculate D2E/DX2 analytically  !
 ! D13   D(5,7,9,15)            60.0006         frozen, calculate D2E/DX2 analyt!
 ! D14   D(8,7,9,10)            -0.0025         calculate D2E/DX2 analytically  !
 ! D15   D(8,7,9,11)           120.0001         calculate D2E/DX2 analytically  !
 ! D16   D(8,7,9,15)          -120.0023         calculate D2E/DX2 analytically  !
 ! D17   D(7,9,11,12)           60.0024         calculate D2E/DX2 analytically  !
 ! D18   D(7,9,11,13)          179.9986         calculate D2E/DX2 analytically  !
 ! D19   D(7,9,11,14)          -60.0038         calculate D2E/DX2 analytically  !
 ! D20   D(10,9,11,12)        -179.4843         calculate D2E/DX2 analytically  !
 ! D21   D(10,9,11,13)         -59.4881         calculate D2E/DX2 analytically  !
 ! D22   D(10,9,11,14)          60.5095         calculate D2E/DX2 analytically  !
 ! D23   D(15,9,11,12)         -61.938          calculate D2E/DX2 analytically  !
 ! D24   D(15,9,11,13)          58.0582         calculate D2E/DX2 analytically  !
 ! D25   D(15,9,11,14)         178.0558         calculate D2E/DX2 analytically  !
 ! D26   D(7,9,15,16)           15.0014         calculate D2E/DX2 analytically  !
 ! D27   D(7,9,15,17)         -165.0027         frozen, calculate D2E/DX2 analyt!
 ! D28   D(10,9,15,16)        -105.5096         calculate D2E/DX2 analytically  !
 ! D29   D(10,9,15,17)          74.4862         calculate D2E/DX2 analytically  !
 ! D30   D(11,9,15,16)         136.9435         calculate D2E/DX2 analytically  !
 ! D31   D(11,9,15,17)         -43.0607         calculate D2E/DX2 analytically  !
 ! D32   D(9,15,17,18)           0.0073         calculate D2E/DX2 analytically  !
 ! D33   D(9,15,17,19)         179.9965         calculate D2E/DX2 analytically  !
 ! D34   D(16,15,17,18)       -179.9969         calculate D2E/DX2 analytically  !
 ! D35   D(16,15,17,19)         -0.0077         calculate D2E/DX2 analytically  !
 ! D36   D(15,17,19,20)          0.0059         calculate D2E/DX2 analytically  !
 ! D37   D(15,17,19,21)        120.0063         calculate D2E/DX2 analytically  !
 ! D38   D(15,17,19,22)       -119.9951         calculate D2E/DX2 analytically  !
 ! D39   D(18,17,19,20)        179.9953         calculate D2E/DX2 analytically  !
 ! D40   D(18,17,19,21)        -60.0043         calculate D2E/DX2 analytically  !
 ! D41   D(18,17,19,22)         59.9943         calculate D2E/DX2 analytically  !
 --------------------------------------------------------------------------------
 Trust Radius=3.00D-01 FncErr=1.00D-07 GrdErr=1.00D-06
 Number of steps in this run= 132 maximum allowed number of steps= 132.
 GradGradGradGradGradGradGradGradGradGradGradGradGradGradGradGradGradGrad

                          Input orientation:                          
 ---------------------------------------------------------------------
 Center     Atomic      Atomic             Coordinates (Angstroms)
 Number     Number       Type             X           Y           Z
 ---------------------------------------------------------------------
      1          1           0        0.687200    3.644600   -1.704700
      2          6           0        1.338300    3.422900   -0.859100
      3          1           0        1.537000    2.351700   -0.824000
      4          1           0        0.851700    3.732200    0.065800
      5          6           0        2.671500    4.163600   -0.981500
      6          8           0        2.893000    4.894300   -1.944600
      7          7           0        3.555400    3.969700    0.000000
      8          1           0        3.327300    3.359100    0.771600
      9          6           0        4.853300    4.613900    0.000000
     10          1           0        5.407600    4.315500    0.889800
     11          6           0        5.661300    4.220800   -1.232200
     12          1           0        5.123300    4.521400   -2.131200
     13          1           0        6.630500    4.718900   -1.205800
     14          1           0        5.808500    3.140900   -1.241400
     15          6           0        4.712700    6.129400    0.000000
     16          8           0        3.636600    6.656000    0.274100
     17          7           0        5.805600    6.831100   -0.308900
     18          1           0        6.667900    6.352800   -0.527200
     19          6           0        5.801000    8.279700   -0.343600
     20          1           0        4.807100    8.646700   -0.087500
     21          1           0        6.525600    8.663100    0.374800
     22          1           0        6.066900    8.620600   -1.344200
 ---------------------------------------------------------------------
                    Distance matrix (angstroms):
                    1          2          3          4          5
     1  H    0.000000
     2  C    1.090010   0.000000
     3  H    1.780276   1.090038   0.000000
     4  H    1.780282   1.089902   1.779652   0.000000
     5  C    2.174816   1.530046   2.143567   2.143505   0.000000
     6  O    2.546538   2.400088   3.091811   3.091778   1.229043
     7  N    3.352352   2.439790   2.714929   2.714909   1.334998
     8  H    3.630937   2.572814   2.601147   2.601144   2.037315
     9  C    4.604556   3.809430   4.098094   4.098113   2.434412
    10  H    5.428049   4.518251   4.666387   4.666416   3.318295
    11  C    5.029606   4.411822   4.546429   5.005576   3.000838
    12  H    4.541989   4.141397   4.390663   4.867876   2.731511
    13  H    6.060185   5.459597   5.629667   5.998756   4.004042
    14  H    5.166824   4.495372   4.363802   5.160259   3.309718
    15  C    5.028408   4.410189   5.003505   4.545131   2.999035
    16  O    4.656516   4.125441   4.913364   4.043224   2.952966
    17  N    6.188704   5.645823   6.208969   5.855314   4.170195
    18  H    6.670054   6.090904   6.513296   6.406823   4.579323
    19  C    7.034749   6.615885   7.318037   6.733716   5.209891
    20  H    6.679066   6.317913   7.131831   6.310388   5.045613
    21  H    7.974746   7.475981   8.133697   7.523456   6.077758
    22  H    7.337009   7.043512   7.751755   7.285799   5.614725
                    6          7          8          9         10
     6  O    0.000000
     7  N    2.252804   0.000000
     8  H    3.150111   1.010064   0.000000
     9  C    2.775404   1.448978   2.120982   0.000000
    10  H    3.833020   2.083739   2.292667   1.089970   0.000000
    11  C    2.936767   2.452791   3.194573   1.525027   2.139209
    12  H    2.268945   2.702720   3.605940   2.150225   3.041326
    13  H    3.813856   3.386959   4.082928   2.150214   2.459625
    14  H    3.474053   2.702673   3.202520   2.150165   2.466256
    15  C    2.935685   2.450234   3.192062   1.522008   2.136554
    16  O    2.929020   2.701468   3.348540   2.392836   2.998911
    17  N    3.861340   3.653277   4.400481   2.432750   2.814876
    18  H    4.287903   3.955346   4.669982   2.567973   2.783314
    19  C    4.741371   4.872051   5.619179   3.801879   4.170242
    20  H    4.603597   4.842390   5.557569   4.034014   4.480514
    21  H    5.725317   5.566917   6.206367   4.396940   4.518493
    22  H    4.931474   5.453932   6.298047   4.396970   4.894826
                   11         12         13         14         15
    11  C    0.000000
    12  H    1.089957   0.000000
    13  H    1.090023   1.779613   0.000000
    14  H    1.089925   1.779613   1.779617   0.000000
    15  C    2.461892   2.701161   2.668599   3.416575   0.000000
    16  O    3.506929   3.542917   3.860816   4.401116   1.228995
    17  N    2.772539   3.020103   2.438499   3.806198   1.335003
    18  H    2.460832   2.883163   1.769612   3.400728   2.037315
    19  C    4.157378   4.216587   3.756429   5.216643   2.434389
    20  H    4.650654   4.614628   4.472471   5.713853   2.520589
    21  H    4.802447   5.039857   4.250413   5.798364   3.137948
    22  H    4.419875   4.279391   3.944624   5.486752   3.137963
                   16         17         18         19         20
    16  O    0.000000
    17  N    2.252800   0.000000
    18  H    3.150046   1.009944   0.000000
    19  C    2.775353   1.449023   2.120889   0.000000
    20  H    2.337458   2.083848   2.986284   1.090006   0.000000
    21  H    3.519220   2.083763   2.484218   1.090018   1.779672
    22  H    3.519220   2.083851   2.484272   1.090007   1.779627
                   21         22
    21  H    0.000000
    22  H    1.779655   0.000000
 Stoichiometry    C6H12N2O2
 Framework group  C1[X(C6H12N2O2)]
 Deg. of freedom    60
 Full point group                 C1      NOp   1
 Largest Abelian subgroup         C1      NOp   1
 Largest concise Abelian subgroup C1      NOp   1
                         Standard orientation:                         
 ---------------------------------------------------------------------
 Center     Atomic      Atomic             Coordinates (Angstroms)
 Number     Number       Type             X           Y           Z
 ---------------------------------------------------------------------
      1          1           0       -3.699612   -1.235102    0.848402
      2          6           0       -3.306006   -0.715072   -0.024962
      3          1           0       -3.935182    0.146209   -0.249718
      4          1           0       -3.298936   -1.392051   -0.879091
      5          6           0       -1.877676   -0.225653    0.222794
      6          8           0       -1.323790   -0.437027    1.299399
      7          7           0       -1.287594    0.428781   -0.780071
      8          1           0       -1.784079    0.578126   -1.646920
      9          6           0        0.062841    0.942294   -0.669763
     10          1           0        0.340767    1.437859   -1.599928
     11          6           0        0.176286    1.947970    0.471049
     12          1           0       -0.090083    1.463950    1.410611
     13          1           0        1.200321    2.316714    0.530456
     14          1           0       -0.499997    2.782988    0.288501
     15          6           0        1.055396   -0.179821   -0.401063
     16          8           0        0.732609   -1.352918   -0.574507
     17          7           0        2.267638    0.183489    0.024034
     18          1           0        2.486000    1.161241    0.151726
     19          6           0        3.300731   -0.790127    0.314651
     20          1           0        2.917218   -1.793668    0.130431
     21          1           0        4.163118   -0.607886   -0.326611
     22          1           0        3.600185   -0.702257    1.359027
 ---------------------------------------------------------------------
 Rotational constants (GHZ):      2.5710457      0.8361578      0.7503393
 Standard basis: 6-31G(d) (6D, 7F)
 There are   174 symmetry adapted basis functions of A   symmetry.
 Integral buffers will be    131072 words long.
 Raffenetti 2 integral format.
 Two-electron integral symmetry is turned on.
   174 basis functions,   328 primitive gaussians,   174 cartesian basis functions
    39 alpha electrons       39 beta electrons
       nuclear repulsion energy       571.8419811350 Hartrees.
 NAtoms=   22 NActive=   22 NUniq=   22 SFac= 7.50D-01 NAtFMM=   80 NAOKFM=F Big=F
 One-electron integrals computed using PRISM.
 NBasis=   174 RedAO= T  NBF=   174
 NBsUse=   174 1.00D-06 NBFU=   174
 Harris functional with IExCor=  402 diagonalized for initial guess.
 ExpMin= 1.61D-01 ExpMax= 5.48D+03 ExpMxC= 8.25D+02 IAcc=1 IRadAn=         1 AccDes= 0.00D+00
 HarFok:  IExCor=  402 AccDes= 0.00D+00 IRadAn=         1 IDoV= 1
 ScaDFX=  1.000000  1.000000  1.000000  1.000000
 FoFCou: FMM=F IPFlag=           0 FMFlag=      100000 FMFlg1=           0
         NFxFlg=           0 DoJE=T BraDBF=F KetDBF=T FulRan=T
         Omega=  0.000000  0.000000  1.000000  0.000000  0.000000 ICntrl=     500 IOpCl=  0
         NMat0=    1 NMatS0=    1 NMatT0=    0 NMatD0=    1 NMtDS0=    0 NMtDT0=    0
         I1Cent=           4 NGrid=           0.
 Petite list used in FoFCou.
 Initial guess orbital symmetries:
       Occupied  (A) (A) (A) (A) (A) (A) (A) (A) (A) (A) (A) (A)
                 (A) (A) (A) (A) (A) (A) (A) (A) (A) (A) (A) (A)
                 (A) (A) (A) (A) (A) (A) (A) (A) (A) (A) (A) (A)
                 (A) (A) (A)
       Virtual   (A) (A) (A) (A) (A) (A) (A) (A) (A) (A) (A) (A)
                 (A) (A) (A) (A) (A) (A) (A) (A) (A) (A) (A) (A)
                 (A) (A) (A) (A) (A) (A) (A) (A) (A) (A) (A) (A)
                 (A) (A) (A) (A) (A) (A) (A) (A) (A) (A) (A) (A)
                 (A) (A) (A) (A) (A) (A) (A) (A) (A) (A) (A) (A)
                 (A) (A) (A) (A) (A) (A) (A) (A) (A) (A) (A) (A)
                 (A) (A) (A) (A) (A) (A) (A) (A) (A) (A) (A) (A)
                 (A) (A) (A) (A) (A) (A) (A) (A) (A) (A) (A) (A)
                 (A) (A) (A) (A) (A) (A) (A) (A) (A) (A) (A) (A)
                 (A) (A) (A) (A) (A) (A) (A) (A) (A) (A) (A) (A)
                 (A) (A) (A) (A) (A) (A) (A) (A) (A) (A) (A) (A)
                 (A) (A) (A)
 The electronic state of the initial guess is 1-A.
 Requested convergence on RMS density matrix=1.00D-08 within 128 cycles.
 Requested convergence on MAX density matrix=1.00D-06.
 Requested convergence on             energy=1.00D-06.
 No special actions if energy rises.
 Integral accuracy reduced to 1.0D-05 until final iterations.
 Initial convergence to 1.0D-05 achieved.  Increase integral accuracy.
 SCF Done:  E(RB3LYP) =  -495.830282185     A.U. after   15 cycles
             Convg  =    0.6895D-08             -V/T =  2.0087
 Range of M.O.s used for correlation:     1   174
 NBasis=   174 NAE=    39 NBE=    39 NFC=     0 NFV=     0
 NROrb=    174 NOA=    39 NOB=    39 NVA=   135 NVB=   135
 Symmetrizing basis deriv contribution to polar:
 IMax=3 JMax=2 DiffMx= 0.00D+00
 G2DrvN: will do    23 centers at a time, making    1 passes doing MaxLOS=2.
 Calling FoFCou, ICntrl=  3107 FMM=F I1Cent=   0 AccDes= 0.00D+00.
 FoFDir/FoFCou used for L=0 through L=2.
 End of G2Drv Frequency-dependent properties file   721 does not exist.
 End of G2Drv Frequency-dependent properties file   722 does not exist.
          IDoAtm=1111111111111111111111
          Differentiating once with respect to nuclear coordinates.
          There are    69 degrees of freedom in the 1st order CPHF.  IDoFFX=5.
     63 vectors produced by pass  0 Test12= 7.63D-11 1.45D-07 XBig12= 1.96D-01 9.57D-02.
 AX will form    63 AO Fock derivatives at one time.
     63 vectors produced by pass  1 Test12= 7.63D-11 1.45D-07 XBig12= 5.36D-02 8.86D-02.
     63 vectors produced by pass  2 Test12= 7.63D-11 1.45D-07 XBig12= 4.21D-05 1.17D-03.
     63 vectors produced by pass  3 Test12= 7.63D-11 1.45D-07 XBig12= 1.84D-07 6.52D-05.
     29 vectors produced by pass  4 Test12= 7.63D-11 1.45D-07 XBig12= 2.41D-10 1.46D-06.
 Inverted reduced A of dimension   281 with in-core refinement.
 End of Minotr Frequency-dependent properties file   721 does not exist.
 End of Minotr Frequency-dependent properties file   722 does not exist.

 **********************************************************************

            Population analysis using the SCF density.

 **********************************************************************

 Orbital symmetries:
       Occupied  (A) (A) (A) (A) (A) (A) (A) (A) (A) (A) (A) (A)
                 (A) (A) (A) (A) (A) (A) (A) (A) (A) (A) (A) (A)
                 (A) (A) (A) (A) (A) (A) (A) (A) (A) (A) (A) (A)
                 (A) (A) (A)
       Virtual   (A) (A) (A) (A) (A) (A) (A) (A) (A) (A) (A) (A)
                 (A) (A) (A) (A) (A) (A) (A) (A) (A) (A) (A) (A)
                 (A) (A) (A) (A) (A) (A) (A) (A) (A) (A) (A) (A)
                 (A) (A) (A) (A) (A) (A) (A) (A) (A) (A) (A) (A)
                 (A) (A) (A) (A) (A) (A) (A) (A) (A) (A) (A) (A)
                 (A) (A) (A) (A) (A) (A) (A) (A) (A) (A) (A) (A)
                 (A) (A) (A) (A) (A) (A) (A) (A) (A) (A) (A) (A)
                 (A) (A) (A) (A) (A) (A) (A) (A) (A) (A) (A) (A)
                 (A) (A) (A) (A) (A) (A) (A) (A) (A) (A) (A) (A)
                 (A) (A) (A) (A) (A) (A) (A) (A) (A) (A) (A) (A)
                 (A) (A) (A) (A) (A) (A) (A) (A) (A) (A) (A) (A)
                 (A) (A) (A)
 The electronic state is 1-A.
 Alpha  occ. eigenvalues --  -19.09260 -19.09129 -14.35701 -14.35684 -10.27331
 Alpha  occ. eigenvalues --  -10.27032 -10.23575 -10.21150 -10.18077 -10.17910
 Alpha  occ. eigenvalues --   -1.02700  -1.01081  -0.92126  -0.91850  -0.78581
 Alpha  occ. eigenvalues --   -0.72427  -0.70092  -0.64985  -0.59518  -0.57722
 Alpha  occ. eigenvalues --   -0.53118  -0.50220  -0.45482  -0.45026  -0.44483
 Alpha  occ. eigenvalues --   -0.43990  -0.41997  -0.41377  -0.39685  -0.38871
 Alpha  occ. eigenvalues --   -0.38196  -0.37618  -0.37462  -0.35155  -0.33335
 Alpha  occ. eigenvalues --   -0.25146  -0.24308  -0.23376  -0.22672
 Alpha virt. eigenvalues --    0.03931   0.04318   0.06338   0.08287   0.12372
 Alpha virt. eigenvalues --    0.12837   0.13886   0.16075   0.16880   0.17048
 Alpha virt. eigenvalues --    0.17191   0.18146   0.18417   0.19110   0.20321
 Alpha virt. eigenvalues --    0.22338   0.25289   0.26129   0.29691   0.33404
 Alpha virt. eigenvalues --    0.38050   0.41431   0.42906   0.49764   0.51355
 Alpha virt. eigenvalues --    0.52881   0.54231   0.55344   0.55707   0.56374
 Alpha virt. eigenvalues --    0.58251   0.58721   0.61511   0.64277   0.66445
 Alpha virt. eigenvalues --    0.67850   0.70640   0.72188   0.72752   0.74008
 Alpha virt. eigenvalues --    0.75405   0.77695   0.80308   0.82024   0.82143
 Alpha virt. eigenvalues --    0.86099   0.86598   0.87110   0.88185   0.89412
 Alpha virt. eigenvalues --    0.90250   0.90579   0.90757   0.91915   0.95144
 Alpha virt. eigenvalues --    0.95660   0.95940   0.97465   0.97937   1.04120
 Alpha virt. eigenvalues --    1.05468   1.09206   1.13204   1.14888   1.19777
 Alpha virt. eigenvalues --    1.22384   1.29186   1.30615   1.32322   1.34920
 Alpha virt. eigenvalues --    1.37937   1.39040   1.41538   1.46651   1.47405
 Alpha virt. eigenvalues --    1.52581   1.55441   1.63635   1.67391   1.71419
 Alpha virt. eigenvalues --    1.74661   1.77934   1.79937   1.82454   1.83435
 Alpha virt. eigenvalues --    1.84449   1.86234   1.87489   1.89653   1.93159
 Alpha virt. eigenvalues --    1.96556   1.98441   1.98963   2.01343   2.04251
 Alpha virt. eigenvalues --    2.05561   2.08811   2.12618   2.16360   2.18711
 Alpha virt. eigenvalues --    2.22467   2.23854   2.27247   2.27829   2.30794
 Alpha virt. eigenvalues --    2.31422   2.32529   2.36724   2.41631   2.45044
 Alpha virt. eigenvalues --    2.46005   2.47299   2.54726   2.60413   2.63510
 Alpha virt. eigenvalues --    2.66835   2.68546   2.72272   2.76898   2.89473
 Alpha virt. eigenvalues --    2.94926   3.00206   3.03317   3.18083   3.20973
 Alpha virt. eigenvalues --    3.93608   4.04110   4.06968   4.16443   4.25227
 Alpha virt. eigenvalues --    4.28017   4.28873   4.43959   4.47524   4.65815
          Condensed to atoms (all electrons):
              1          2          3          4          5          6
     1  H    0.501058   0.360787  -0.021916  -0.020365  -0.017374   0.005174
     2  C    0.360787   5.337236   0.346607   0.351702   0.351601  -0.077466
     3  H   -0.021916   0.346607   0.566866  -0.027945  -0.025633   0.001411
     4  H   -0.020365   0.351702  -0.027945   0.546599  -0.026097   0.001048
     5  C   -0.017374   0.351601  -0.025633  -0.026097   4.321925   0.580075
     6  O    0.005174  -0.077466   0.001411   0.001048   0.580075   8.089158
     7  N    0.004453  -0.134946   0.004748   0.004422   0.237845  -0.102709
     8  H   -0.000165   0.000906   0.000806   0.000633  -0.016835   0.003910
     9  C   -0.000154   0.007379  -0.000150  -0.000198  -0.033329   0.010350
    10  H    0.000002  -0.000179  -0.000002  -0.000005   0.005574   0.000377
    11  C    0.000011  -0.000514   0.000024   0.000011  -0.005619  -0.016293
    12  H    0.000001   0.000561  -0.000056  -0.000006   0.004666   0.022444
    13  H    0.000000   0.000009  -0.000001   0.000000   0.000480   0.000483
    14  H    0.000000  -0.000003   0.000003  -0.000002   0.000214   0.000046
    15  C    0.000002  -0.000164   0.000016  -0.000022   0.000674   0.007990
    16  O    0.000004  -0.000487   0.000001   0.000169   0.010723  -0.006221
    17  N    0.000000  -0.000012   0.000000   0.000001   0.000139  -0.000915
    18  H    0.000000   0.000000   0.000000   0.000000  -0.000048  -0.000010
    19  C    0.000000   0.000000   0.000000   0.000000  -0.000009   0.000006
    20  H    0.000000   0.000000   0.000000   0.000000  -0.000012   0.000002
    21  H    0.000000   0.000000   0.000000   0.000000   0.000000   0.000000
    22  H    0.000000   0.000000   0.000000   0.000000   0.000002   0.000003
              7          8          9         10         11         12
     1  H    0.004453  -0.000165  -0.000154   0.000002   0.000011   0.000001
     2  C   -0.134946   0.000906   0.007379  -0.000179  -0.000514   0.000561
     3  H    0.004748   0.000806  -0.000150  -0.000002   0.000024  -0.000056
     4  H    0.004422   0.000633  -0.000198  -0.000005   0.000011  -0.000006
     5  C    0.237845  -0.016835  -0.033329   0.005574  -0.005619   0.004666
     6  O   -0.102709   0.003910   0.010350   0.000377  -0.016293   0.022444
     7  N    7.118083   0.303988   0.270276  -0.032807  -0.057718  -0.010963
     8  H    0.303988   0.412122  -0.030776  -0.004685   0.003834  -0.000098
     9  C    0.270276  -0.030776   5.143822   0.363198   0.343520  -0.029282
    10  H   -0.032807  -0.004685   0.363198   0.585627  -0.042828   0.004823
    11  C   -0.057718   0.003834   0.343520  -0.042828   5.204810   0.371278
    12  H   -0.010963  -0.000098  -0.029282   0.004823   0.371278   0.473625
    13  H    0.004913  -0.000146  -0.035159  -0.001739   0.349164  -0.024482
    14  H    0.000699   0.000330  -0.029177  -0.004509   0.357459  -0.025045
    15  C   -0.055424   0.002332   0.303600  -0.029620  -0.059927  -0.003339
    16  O    0.000417   0.000177  -0.091554   0.000731   0.001216   0.000286
    17  N    0.003109  -0.000084  -0.132404   0.000786   0.008422  -0.000478
    18  H    0.000156  -0.000004   0.001865   0.000335   0.000139  -0.000249
    19  C   -0.000098   0.000002   0.006473  -0.000284   0.000082  -0.000178
    20  H   -0.000005   0.000000   0.001316  -0.000030  -0.000093  -0.000009
    21  H    0.000000   0.000000  -0.000269   0.000029   0.000026   0.000001
    22  H    0.000003   0.000000   0.000041  -0.000004  -0.000085   0.000017
             13         14         15         16         17         18
     1  H    0.000000   0.000000   0.000002   0.000004   0.000000   0.000000
     2  C    0.000009  -0.000003  -0.000164  -0.000487  -0.000012   0.000000
     3  H   -0.000001   0.000003   0.000016   0.000001   0.000000   0.000000
     4  H    0.000000  -0.000002  -0.000022   0.000169   0.000001   0.000000
     5  C    0.000480   0.000214   0.000674   0.010723   0.000139  -0.000048
     6  O    0.000483   0.000046   0.007990  -0.006221  -0.000915  -0.000010
     7  N    0.004913   0.000699  -0.055424   0.000417   0.003109   0.000156
     8  H   -0.000146   0.000330   0.002332   0.000177  -0.000084  -0.000004
     9  C   -0.035159  -0.029177   0.303600  -0.091554  -0.132404   0.001865
    10  H   -0.001739  -0.004509  -0.029620   0.000731   0.000786   0.000335
    11  C    0.349164   0.357459  -0.059927   0.001216   0.008422   0.000139
    12  H   -0.024482  -0.025045  -0.003339   0.000286  -0.000478  -0.000249
    13  H    0.613580  -0.024713  -0.008015  -0.000066  -0.002421   0.010422
    14  H   -0.024713   0.576081   0.004484  -0.000100   0.000405  -0.000350
    15  C   -0.008015   0.004484   4.372636   0.600254   0.259204  -0.021342
    16  O   -0.000066  -0.000100   0.600254   8.094278  -0.098399   0.003900
    17  N   -0.002421   0.000405   0.259204  -0.098399   7.119464   0.295574
    18  H    0.010422  -0.000350  -0.021342   0.003900   0.295574   0.413342
    19  C    0.000424   0.000004  -0.026623  -0.010375   0.269183  -0.030882
    20  H   -0.000010   0.000001  -0.000143   0.022728  -0.037537   0.003770
    21  H   -0.000028   0.000001   0.001455   0.000604  -0.044214  -0.001552
    22  H    0.000022  -0.000003   0.001767   0.000615  -0.045068   0.000100
             19         20         21         22
     1  H    0.000000   0.000000   0.000000   0.000000
     2  C    0.000000   0.000000   0.000000   0.000000
     3  H    0.000000   0.000000   0.000000   0.000000
     4  H    0.000000   0.000000   0.000000   0.000000
     5  C   -0.000009  -0.000012   0.000000   0.000002
     6  O    0.000006   0.000002   0.000000   0.000003
     7  N   -0.000098  -0.000005   0.000000   0.000003
     8  H    0.000002   0.000000   0.000000   0.000000
     9  C    0.006473   0.001316  -0.000269   0.000041
    10  H   -0.000284  -0.000030   0.000029  -0.000004
    11  C    0.000082  -0.000093   0.000026  -0.000085
    12  H   -0.000178  -0.000009   0.000001   0.000017
    13  H    0.000424  -0.000010  -0.000028   0.000022
    14  H    0.000004   0.000001   0.000001  -0.000003
    15  C   -0.026623  -0.000143   0.001455   0.001767
    16  O   -0.010375   0.022728   0.000604   0.000615
    17  N    0.269183  -0.037537  -0.044214  -0.045068
    18  H   -0.030882   0.003770  -0.001552   0.000100
    19  C    4.961614   0.375409   0.381101   0.383718
    20  H    0.375409   0.470943  -0.024051  -0.023792
    21  H    0.381101  -0.024051   0.575047  -0.039859
    22  H    0.383718  -0.023792  -0.039859   0.562637
 Mulliken atomic charges:
              1
     1  H    0.188483
     2  C   -0.543015
     3  H    0.155223
     4  H    0.170052
     5  C    0.611039
     6  O   -0.518864
     7  N   -0.558444
     8  H    0.323754
     9  C   -0.069387
    10  H    0.155214
    11  C   -0.456920
    12  H    0.216483
    13  H    0.117284
    14  H    0.144178
    15  C    0.650205
    16  O   -0.528900
    17  N   -0.594755
    18  H    0.324834
    19  C   -0.309568
    20  H    0.211509
    21  H    0.151710
    22  H    0.159886
 Sum of Mulliken atomic charges =   0.00000
 Mulliken charges with hydrogens summed into heavy atoms:
              1
     2  C   -0.029257
     5  C    0.611039
     6  O   -0.518864
     7  N   -0.234690
     9  C    0.085827
    11  C    0.021025
    15  C    0.650205
    16  O   -0.528900
    17  N   -0.269921
    19  C    0.213537
 Sum of Mulliken charges with hydrogens summed into heavy atoms =   0.00000
 APT atomic charges:
              1
     1  H    0.577530
     2  C   -1.257406
     3  H    0.481788
     4  H    0.373468
     5  C    0.238498
     6  O   -0.439074
     7  N   -0.787270
     8  H    0.705379
     9  C   -0.453019
    10  H    0.478918
    11  C   -1.139040
    12  H    0.298460
    13  H    0.384940
    14  H    0.481300
    15  C    0.070827
    16  O   -0.302982
    17  N   -0.447731
    18  H    0.585556
    19  C   -1.319975
    20  H    0.347535
    21  H    0.631330
    22  H    0.490968
 Sum of APT charges=   0.00000
 APT Atomic charges with hydrogens summed into heavy atoms:
              1
     1  H    0.000000
     2  C    0.175381
     3  H    0.000000
     4  H    0.000000
     5  C    0.238498
     6  O   -0.439074
     7  N   -0.081892
     8  H    0.000000
     9  C    0.025899
    10  H    0.000000
    11  C    0.025660
    12  H    0.000000
    13  H    0.000000
    14  H    0.000000
    15  C    0.070827
    16  O   -0.302982
    17  N    0.137825
    18  H    0.000000
    19  C    0.149858
    20  H    0.000000
    21  H    0.000000
    22  H    0.000000
 Sum of APT charges=   0.00000
 Electronic spatial extent (au):  <R**2>=           1667.6818
 Charge=              0.0000 electrons
 Dipole moment (field-independent basis, Debye):
    X=              0.9094    Y=              3.8289    Z=             -2.4789  Tot=              4.6510
 Quadrupole moment (field-independent basis, Debye-Ang):
   XX=            -45.9292   YY=            -60.9718   ZZ=            -60.7845
   XY=              1.8007   XZ=              6.1117   YZ=             -1.8775
 Traceless Quadrupole moment (field-independent basis, Debye-Ang):
   XX=              9.9660   YY=             -5.0767   ZZ=             -4.8893
   XY=              1.8007   XZ=              6.1117   YZ=             -1.8775
 Octapole moment (field-independent basis, Debye-Ang**2):
  XXX=             10.0940  YYY=             -0.2972  ZZZ=             -9.8949  XYY=              1.7653
  XXY=             -2.3124  XXZ=             -2.3660  XZZ=             -0.4401  YZZ=              3.5422
  YYZ=              1.0196  XYZ=             -0.9352
 Hexadecapole moment (field-independent basis, Debye-Ang**3):
 XXXX=          -1405.2182 YYYY=           -431.0962 ZZZZ=           -208.8051 XXXY=              2.0435
 XXXZ=              8.7951 YYYX=              3.1472 YYYZ=             -6.6027 ZZZX=             14.8997
 ZZZY=             -4.7941 XXYY=           -304.3724 XXZZ=           -284.2418 YYZZ=           -107.1603
 XXYZ=             -5.1909 YYXZ=              2.2621 ZZXY=             -3.8020
 N-N= 5.718419811350D+02 E-N=-2.300528610853D+03  KE= 4.915507111675D+02
  Exact polarizability:   0.000   0.000   0.000   0.000   0.000   0.000
 Approx polarizability: 116.732  11.155 110.023  10.708  -5.041 107.654
 Calling FoFJK, ICntrl=    100147 FMM=F ISym2X=0 I1Cent= 0 IOpClX= 0 NMat=1 NMatS=1 NMatT=0.
 ***** Axes restored to original set *****
 -------------------------------------------------------------------
 Center     Atomic                   Forces (Hartrees/Bohr)
 Number     Number              X              Y              Z
 -------------------------------------------------------------------
      1        1           0.003244139    0.002133182   -0.000794330
      2        6           0.009660898    0.001527273    0.005264425
      3        1          -0.003486475   -0.005512148    0.001805118
      4        1          -0.004631537   -0.002008481    0.003493107
      5        6          -0.028761360    0.010586444   -0.031765546
      6        8           0.001853046   -0.002333557   -0.000513892
      7        7           0.018396321   -0.009750638    0.024561710
      8        1          -0.001366357    0.001953965   -0.000119598
      9        6           0.005753052   -0.000141135   -0.013322993
     10        1          -0.002281526   -0.002686293    0.005429991
     11        6           0.003882083   -0.009520977   -0.002853373
     12        1           0.001463685   -0.000138539   -0.000213629
     13        1           0.004809536   -0.006905242   -0.004020107
     14        1           0.003382477   -0.003101746   -0.002070689
     15        6          -0.039708121    0.002777336    0.013955957
     16        8           0.004878844    0.002167820    0.003639807
     17        7           0.018620313    0.011878720   -0.001894813
     18        1          -0.002011054    0.003954303    0.000857688
     19        6           0.003394410   -0.000142082   -0.000423742
     20        1          -0.000405874   -0.003409798   -0.000010343
     21        1           0.002443694    0.004595043    0.001945523
     22        1           0.000869803    0.004076550   -0.002950273
 -------------------------------------------------------------------
 Cartesian Forces:  Max     0.039708121 RMS     0.009626908

 GradGradGradGradGradGradGradGradGradGradGradGradGradGradGradGradGradGrad
 Berny optimization.
 Internal  Forces:  Max     0.031833881 RMS     0.007648011
 Search for a local minimum.
 Step number   1 out of a maximum of  132
 All quantities printed in internal units (Hartrees-Bohrs-Radians)
 Mixed Optimization -- RFO/linear search
 Second derivative matrix not updated -- analytic derivatives used.
     Eigenvalues ---   -0.00062  -0.00037   0.00120   0.00210   0.00306
     Eigenvalues ---    0.01386   0.01954   0.02145   0.03956   0.04442
     Eigenvalues ---    0.04870   0.05133   0.05666   0.05814   0.05917
     Eigenvalues ---    0.05995   0.06409   0.06601   0.11565   0.12408
     Eigenvalues ---    0.12477   0.13240   0.13285   0.13318   0.14262
     Eigenvalues ---    0.14463   0.15608   0.17775   0.18224   0.18586
     Eigenvalues ---    0.19369   0.21208   0.22304   0.23425   0.24511
     Eigenvalues ---    0.26897   0.29747   0.32435   0.34047   0.34543
     Eigenvalues ---    0.34638   0.34733   0.35055   0.35103   0.35265
     Eigenvalues ---    0.35602   0.35891   0.35910   0.36228   0.39418
     Eigenvalues ---    0.41158   0.45408   0.46805   0.52491   0.54857
     Eigenvalues ---    0.56191   0.82002   0.826391000.000001000.00000
     Eigenvalues --- 1000.000001000.000001000.000001000.000001000.00000
     Eigenvalues --- 1000.000001000.000001000.000001000.000001000.00000
     Eigenvalues --- 1000.000001000.000001000.000001000.000001000.00000
     Eigenvalues --- 1000.000001000.000001000.000001000.000001000.00000
     Eigenvalues --- 1000.000001000.000001000.000001000.000001000.00000
     Eigenvalues --- 1000.000001000.000001000.000001000.000001000.00000
     Eigenvalues --- 1000.000001000.000001000.000001000.000001000.00000
     Eigenvalues --- 1000.000001000.000001000.00000
 RFO step:  Lambda=-1.63764067D-02 EMin=-6.21134793D-04
 Linear search not attempted -- first point.
 Maximum step size (   0.300) exceeded in Quadratic search.
    -- Step size scaled by   0.307
 Iteration  1 RMS(Cart)=  0.05573459 RMS(Int)=  0.00210141
 Iteration  2 RMS(Cart)=  0.00232845 RMS(Int)=  0.00006812
 Iteration  3 RMS(Cart)=  0.00000332 RMS(Int)=  0.00006807
 Iteration  4 RMS(Cart)=  0.00000000 RMS(Int)=  0.00006807
 Iteration  1 RMS(Cart)=  0.00002206 RMS(Int)=  0.00000840
 Iteration  2 RMS(Cart)=  0.00001171 RMS(Int)=  0.00000937
 Iteration  3 RMS(Cart)=  0.00000631 RMS(Int)=  0.00001058
 Iteration  4 RMS(Cart)=  0.00000347 RMS(Int)=  0.00001138
 Iteration  5 RMS(Cart)=  0.00000197 RMS(Int)=  0.00001187
 Iteration  6 RMS(Cart)=  0.00000116 RMS(Int)=  0.00001216
 Iteration  7 RMS(Cart)=  0.00000071 RMS(Int)=  0.00001234
 Variable       Old X    -DE/DX   Delta X   Delta X   Delta X     New X
                                 (Linear)    (Quad)   (Total)
    R1        2.05982  -0.00089   0.00000   0.00013   0.00013   2.05995
    R2        2.05987   0.00484   0.00000   0.00351   0.00351   2.06338
    R3        2.05962   0.00446   0.00000   0.00355   0.00355   2.06316
    R4        2.89137  -0.00152   0.00000  -0.00439  -0.00439   2.88698
    R5        2.32255  -0.00065   0.00000  -0.00254  -0.00254   2.32002
    R6        2.52278   0.03183   0.00000   0.01763   0.01763   2.54041
    R7        1.90874  -0.00096   0.00000  -0.00081  -0.00081   1.90793
    R8        2.73817   0.00607   0.00000   0.00152   0.00152   2.73969
    R9        2.05975   0.00401   0.00000   0.00378   0.00378   2.06352
   R10        2.88188   0.01964   0.00000   0.00802   0.00802   2.88991
   R11        2.87618   0.02689   0.00000   0.01824   0.01824   2.89442
   R12        2.05972  -0.00058   0.00000   0.00035   0.00035   2.06006
   R13        2.05984   0.00102   0.00000   0.00429   0.00429   2.06414
   R14        2.05966   0.00355   0.00000   0.00246   0.00246   2.06212
   R15        2.32246  -0.00253   0.00000  -0.00375  -0.00375   2.31871
   R16        2.52279   0.03034   0.00000   0.01543   0.01543   2.53822
   R17        1.90852  -0.00378   0.00000  -0.00166  -0.00166   1.90686
   R18        2.73826   0.00514   0.00000   0.00206   0.00206   2.74032
   R19        2.05981  -0.00078   0.00000   0.00015   0.00015   2.05996
   R20        2.05984   0.00452   0.00000   0.00313   0.00313   2.06297
   R21        2.05982   0.00419   0.00000   0.00399   0.00399   2.06381
    A1        1.91107  -0.00013   0.00000   0.00097   0.00101   1.91208
    A2        1.91126   0.00000   0.00000  -0.00327  -0.00330   1.90796
    A3        1.93902  -0.00802   0.00000  -0.01191  -0.01191   1.92712
    A4        1.91022  -0.00485   0.00000  -0.00683  -0.00689   1.90333
    A5        1.89597   0.00697   0.00000   0.01928   0.01928   1.91525
    A6        1.89603   0.00608   0.00000   0.00188   0.00183   1.89786
    A7        2.10312   0.00660   0.00000   0.01207   0.01206   2.11518
    A8        2.03509  -0.01088   0.00000  -0.00962  -0.00963   2.02546
    A9        2.14498   0.00429   0.00000  -0.00245  -0.00245   2.14253
   A10        2.09430  -0.00667   0.00000  -0.00399  -0.00423   2.09007
   A11        2.12762   0.01158   0.00000   0.00230   0.00206   2.12968
   A12        2.06127  -0.00492   0.00000   0.00170   0.00145   2.06272
   A13        1.91114   0.00052   0.00000  -0.01118  -0.01130   1.89984
   A14        1.93905  -0.00495   0.00000   0.00300   0.00300   1.94205
   A15        1.93900  -0.01061   0.00000  -0.00947  -0.00974   1.92926
   A16        1.89609  -0.00438   0.00000  -0.00241  -0.00236   1.89373
   A17        1.89608  -0.00555   0.00000  -0.01006  -0.01025   1.88583
   A18        1.88137   0.02526   0.00000   0.03045   0.03050   1.91187
   A19        1.91115   0.00006   0.00000   0.00268   0.00266   1.91380
   A20        1.91106   0.01037   0.00000   0.01131   0.01129   1.92235
   A21        1.91110   0.00212   0.00000   0.00078   0.00079   1.91188
   A22        1.91011  -0.00333   0.00000   0.00015   0.00010   1.91021
   A23        1.91023  -0.00170   0.00000  -0.00218  -0.00218   1.90806
   A24        1.91015  -0.00753   0.00000  -0.01277  -0.01276   1.89739
   A25        2.10312   0.00051   0.00000   0.00528   0.00524   2.10836
   A26        2.03504   0.00704   0.00000  -0.00580  -0.00584   2.02920
   A27        2.14503  -0.00755   0.00000   0.00051   0.00047   2.14550
   A28        2.09446   0.00156   0.00000  -0.00218  -0.00234   2.09212
   A29        2.12752   0.00155   0.00000   0.00194   0.00178   2.12929
   A30        2.06121  -0.00312   0.00000   0.00023   0.00007   2.06128
   A31        1.91120  -0.00679   0.00000  -0.01042  -0.01041   1.90079
   A32        1.91107   0.00515   0.00000   0.00501   0.00499   1.91606
   A33        1.91120   0.00450   0.00000   0.01051   0.01050   1.92170
   A34        1.91014   0.00012   0.00000   0.00117   0.00118   1.91132
   A35        1.91008   0.00006   0.00000  -0.00332  -0.00330   1.90678
   A36        1.91011  -0.00305   0.00000  -0.00295  -0.00299   1.90712
    D1        0.00008  -0.00054   0.00000   0.09007   0.09011   0.09019
    D2       -3.14147   0.00042   0.00000   0.08406   0.08407  -3.05740
    D3        2.10326  -0.00116   0.00000   0.09637   0.09634   2.19960
    D4       -1.03829  -0.00020   0.00000   0.09035   0.09030  -0.94799
    D5       -2.10336   0.00049   0.00000   0.10027   0.10029  -2.00307
    D6        1.03827   0.00144   0.00000   0.09426   0.09426   1.13253
    D7        0.00000   0.00064   0.00000   0.00161   0.00165   0.00166
    D8        3.14154   0.00165   0.00000   0.04315   0.04307  -3.09857
    D9       -3.14154   0.00162   0.00000  -0.00456  -0.00448   3.13716
   D10        0.00000   0.00263   0.00000   0.03698   0.03693   0.03693
   D11       -3.14158  -0.00079   0.00000  -0.02577  -0.02572   3.11588
   D12       -1.04714  -0.00903   0.00000  -0.03414  -0.03407  -1.08121
   D13        1.04721   0.01248   0.00000   0.00000   0.00000   1.04721
   D14       -0.00004   0.00020   0.00000   0.01502   0.01508   0.01503
   D15        2.09440  -0.00804   0.00000   0.00666   0.00673   2.10112
   D16       -2.09444   0.01347   0.00000   0.04079   0.04079  -2.05364
   D17        1.04724   0.00178   0.00000   0.01711   0.01718   1.06442
   D18        3.14157   0.00409   0.00000   0.02588   0.02598  -3.11564
   D19       -1.04726   0.00252   0.00000   0.01765   0.01773  -1.02953
   D20       -3.13259  -0.00348   0.00000   0.00357   0.00354  -3.12905
   D21       -1.03826  -0.00116   0.00000   0.01234   0.01234  -1.02592
   D22        1.05609  -0.00273   0.00000   0.00411   0.00409   1.06018
   D23       -1.08102   0.00143   0.00000   0.00703   0.00696  -1.07406
   D24        1.01331   0.00374   0.00000   0.01581   0.01576   1.02907
   D25        3.10766   0.00217   0.00000   0.00757   0.00751   3.11517
   D26        0.26182  -0.00262   0.00000   0.01657   0.01660   0.27843
   D27       -2.87984  -0.00633   0.00000   0.00000   0.00000  -2.87984
   D28       -1.84149   0.00689   0.00000   0.04277   0.04273  -1.79876
   D29        1.30003   0.00318   0.00000   0.02620   0.02612   1.32615
   D30        2.39011   0.00123   0.00000   0.03436   0.03439   2.42450
   D31       -0.75155  -0.00248   0.00000   0.01779   0.01778  -0.73377
   D32        0.00013   0.00169   0.00000   0.03864   0.03862   0.03875
   D33        3.14153   0.00188   0.00000   0.00451   0.00452  -3.13714
   D34       -3.14154  -0.00211   0.00000   0.02164   0.02163  -3.11991
   D35       -0.00013  -0.00193   0.00000  -0.01250  -0.01248  -0.01261
   D36        0.00010  -0.00026   0.00000   0.07025   0.07025   0.07036
   D37        2.09451  -0.00111   0.00000   0.06837   0.06835   2.16286
   D38       -2.09431   0.00107   0.00000   0.07427   0.07431  -2.02000
   D39        3.14151  -0.00007   0.00000   0.03674   0.03673  -3.10495
   D40       -1.04727  -0.00093   0.00000   0.03486   0.03482  -1.01245
   D41        1.04710   0.00125   0.00000   0.04076   0.04078   1.08788
         Item               Value     Threshold  Converged?
 Maximum Force            0.031834     0.000450     NO 
 RMS     Force            0.007434     0.000300     NO 
 Maximum Displacement     0.233087     0.001800     NO 
 RMS     Displacement     0.055911     0.001200     NO 
 Predicted change in Energy=-4.559806D-03
 GradGradGradGradGradGradGradGradGradGradGradGradGradGradGradGradGradGrad

                          Input orientation:                          
 ---------------------------------------------------------------------
 Center     Atomic      Atomic             Coordinates (Angstroms)
 Number     Number       Type             X           Y           Z
 ---------------------------------------------------------------------
      1          1           0        0.709253    3.603551   -1.730907
      2          6           0        1.329610    3.446916   -0.848354
      3          1           0        1.491570    2.377247   -0.700656
      4          1           0        0.821136    3.854675    0.027529
      5          6           0        2.673818    4.154821   -1.009347
      6          8           0        2.904329    4.868159   -1.981594
      7          7           0        3.568947    3.952598   -0.026973
      8          1           0        3.329923    3.359527    0.754370
      9          6           0        4.864832    4.602621   -0.021993
     10          1           0        5.403772    4.308266    0.880945
     11          6           0        5.695830    4.192652   -1.238562
     12          1           0        5.180030    4.489696   -2.151863
     13          1           0        6.676828    4.671679   -1.202724
     14          1           0        5.834534    3.110279   -1.237925
     15          6           0        4.702065    6.125480   -0.002333
     16          8           0        3.628399    6.638778    0.296538
     17          7           0        5.795005    6.844048   -0.307696
     18          1           0        6.649823    6.373784   -0.565286
     19          6           0        5.782187    8.294040   -0.321542
     20          1           0        4.805331    8.641872    0.014686
     21          1           0        6.555509    8.676761    0.347229
     22          1           0        5.966567    8.661448   -1.333342
 ---------------------------------------------------------------------
                    Distance matrix (angstroms):
                    1          2          3          4          5
     1  H    0.000000
     2  C    1.090080   0.000000
     3  H    1.782486   1.091896   0.000000
     4  H    1.779796   1.091780   1.778349   0.000000
     5  C    2.164269   1.527725   2.157028   2.144208   0.000000
     6  O    2.545670   2.404975   3.137090   3.066499   1.227701
     7  N    3.347099   2.438240   2.692782   2.750095   1.344325
     8  H    3.619953   2.564686   2.541951   2.658473   2.042956
     9  C    4.602973   3.810029   4.097776   4.112584   2.444573
    10  H    5.418201   4.509013   4.640649   4.683441   3.324064
    11  C    5.045334   4.446602   4.610948   5.047757   3.030929
    12  H    4.577150   4.196697   4.491457   4.914565   2.774632
    13  H    6.085378   5.497124   5.692398   6.039052   4.040870
    14  H    5.172509   4.534251   4.437041   5.223950   3.336682
    15  C    5.028979   4.389067   4.984393   4.496560   3.001893
    16  O    4.673815   4.096729   4.870429   3.962867   2.964220
    17  N    6.196064   5.636716   6.215004   5.812753   4.179242
    18  H    6.657569   6.078762   6.526730   6.377376   4.574888
    19  C    7.051358   6.602846   7.318576   6.666471   5.221893
    20  H    6.723810   6.309758   7.123079   6.228260   5.072043
    21  H    8.014662   7.489374   8.150179   7.499184   6.111936
    22  H    7.306143   6.994850   7.740612   7.171645   5.590783
                    6          7          8          9         10
     6  O    0.000000
     7  N    2.258431   0.000000
     8  H    3.153189   1.009635   0.000000
     9  C    2.784622   1.449784   2.122255   0.000000
    10  H    3.841201   2.077835   2.284071   1.091970   0.000000
    11  C    2.966628   2.459513   3.203653   1.529272   2.142656
    12  H    2.313232   2.720151   3.625793   2.156026   3.046458
    13  H    3.857070   3.399764   4.093133   2.163845   2.468688
    14  H    3.497040   2.703478   3.210054   2.155434   2.471910
    15  C    2.954688   2.450710   3.178973   1.531659   2.138888
    16  O    2.974769   2.706244   3.324482   2.403365   2.987435
    17  N    3.880989   3.659866   4.398466   2.443531   2.827741
    18  H    4.278032   3.955214   4.674289   2.572621   2.812577
    19  C    4.772263   4.881938   5.614321   3.815474   4.180379
    20  H    4.673313   4.849708   5.534178   4.039856   4.459672
    21  H    5.767146   5.601544   6.232427   4.426436   4.549187
    22  H    4.917985   5.443202   6.278599   4.405399   4.916300
                   11         12         13         14         15
    11  C    0.000000
    12  H    1.090139   0.000000
    13  H    1.092295   1.781681   0.000000
    14  H    1.091224   1.779452   1.774449   0.000000
    15  C    2.500331   2.743122   2.730232   3.449726   0.000000
    16  O    3.551666   3.608431   3.925580   4.435303   1.227011
    17  N    2.811805   3.053214   2.509556   3.848106   1.343170
    18  H    2.474013   2.868328   1.817750   3.430394   2.042629
    19  C    4.203542   4.264469   3.833844   5.264397   2.443606
    20  H    4.707354   4.698393   4.554890   5.764271   2.518568
    21  H    4.833323   5.066450   4.296248   5.832516   3.172773
    22  H    4.477993   4.323440   4.054601   5.553559   3.130765
                   16         17         18         19         20
    16  O    0.000000
    17  N    2.258631   0.000000
    18  H    3.153088   1.009066   0.000000
    19  C    2.785806   1.450115   2.121223   0.000000
    20  H    2.340298   2.077392   2.980393   1.090084   0.000000
    21  H    3.567060   2.089529   2.478968   1.091676   1.781832
    22  H    3.494958   2.093879   2.508019   1.092119   1.779335
                   21         22
    21  H    0.000000
    22  H    1.780844   0.000000
 Stoichiometry    C6H12N2O2
 Framework group  C1[X(C6H12N2O2)]
 Deg. of freedom    60
 Full point group                 C1      NOp   1
 Largest Abelian subgroup         C1      NOp   1
 Largest concise Abelian subgroup C1      NOp   1
                         Standard orientation:                         
 ---------------------------------------------------------------------
 Center     Atomic      Atomic             Coordinates (Angstroms)
 Number     Number       Type             X           Y           Z
 ---------------------------------------------------------------------
      1          1           0       -3.713758   -1.188829    0.869166
      2          6           0       -3.287155   -0.755530   -0.035565
      3          1           0       -3.927224    0.055245   -0.389393
      4          1           0       -3.224468   -1.523549   -0.808998
      5          6           0       -1.882801   -0.221163    0.240453
      6          8           0       -1.340675   -0.390359    1.328902
      7          7           0       -1.288572    0.429438   -0.774840
      8          1           0       -1.775148    0.539266   -1.652647
      9          6           0        0.063111    0.943524   -0.672164
     10          1           0        0.337790    1.406187   -1.622370
     11          6           0        0.173628    1.997277    0.430589
     12          1           0       -0.084715    1.551221    1.391159
     13          1           0        1.191711    2.390600    0.474335
     14          1           0       -0.510860    2.820343    0.218906
     15          6           0        1.050945   -0.193717   -0.394951
     16          8           0        0.728205   -1.363896   -0.574046
     17          7           0        2.272667    0.170145    0.028259
     18          1           0        2.482693    1.145654    0.178215
     19          6           0        3.305815   -0.804047    0.322177
     20          1           0        2.934881   -1.798361    0.073115
     21          1           0        4.196654   -0.588146   -0.270738
     22          1           0        3.562276   -0.770746    1.383235
 ---------------------------------------------------------------------
 Rotational constants (GHZ):      2.5074067      0.8355946      0.7461318
 Standard basis: 6-31G(d) (6D, 7F)
 There are   174 symmetry adapted basis functions of A   symmetry.
 Integral buffers will be    131072 words long.
 Raffenetti 2 integral format.
 Two-electron integral symmetry is turned on.
   174 basis functions,   328 primitive gaussians,   174 cartesian basis functions
    39 alpha electrons       39 beta electrons
       nuclear repulsion energy       569.8602314626 Hartrees.
 NAtoms=   22 NActive=   22 NUniq=   22 SFac= 7.50D-01 NAtFMM=   80 NAOKFM=F Big=F
 One-electron integrals computed using PRISM.
 NBasis=   174 RedAO= T  NBF=   174
 NBsUse=   174 1.00D-06 NBFU=   174
 Initial guess read from the read-write file.
 B after Tr=     0.000000    0.000000    0.000000
         Rot=    1.000000    0.000000    0.000000    0.000000 Ang=   0.00 deg.
 Initial guess orbital symmetries:
       Occupied  (A) (A) (A) (A) (A) (A) (A) (A) (A) (A) (A) (A)
                 (A) (A) (A) (A) (A) (A) (A) (A) (A) (A) (A) (A)
                 (A) (A) (A) (A) (A) (A) (A) (A) (A) (A) (A) (A)
                 (A) (A) (A)
       Virtual   (A) (A) (A) (A) (A) (A) (A) (A) (A) (A) (A) (A)
                 (A) (A) (A) (A) (A) (A) (A) (A) (A) (A) (A) (A)
                 (A) (A) (A) (A) (A) (A) (A) (A) (A) (A) (A) (A)
                 (A) (A) (A) (A) (A) (A) (A) (A) (A) (A) (A) (A)
                 (A) (A) (A) (A) (A) (A) (A) (A) (A) (A) (A) (A)
                 (A) (A) (A) (A) (A) (A) (A) (A) (A) (A) (A) (A)
                 (A) (A) (A) (A) (A) (A) (A) (A) (A) (A) (A) (A)
                 (A) (A) (A) (A) (A) (A) (A) (A) (A) (A) (A) (A)
                 (A) (A) (A) (A) (A) (A) (A) (A) (A) (A) (A) (A)
                 (A) (A) (A) (A) (A) (A) (A) (A) (A) (A) (A) (A)
                 (A) (A) (A) (A) (A) (A) (A) (A) (A) (A) (A) (A)
                 (A) (A) (A)
 Harris functional with IExCor=  402 diagonalized for initial guess.
 ExpMin= 1.61D-01 ExpMax= 5.48D+03 ExpMxC= 8.25D+02 IAcc=1 IRadAn=         1 AccDes= 0.00D+00
 HarFok:  IExCor=  402 AccDes= 0.00D+00 IRadAn=         1 IDoV= 1
 ScaDFX=  1.000000  1.000000  1.000000  1.000000
 FoFCou: FMM=F IPFlag=           0 FMFlag=      100000 FMFlg1=           0
         NFxFlg=           0 DoJE=T BraDBF=F KetDBF=T FulRan=T
         Omega=  0.000000  0.000000  1.000000  0.000000  0.000000 ICntrl=     500 IOpCl=  0
         NMat0=    1 NMatS0=    1 NMatT0=    0 NMatD0=    1 NMtDS0=    0 NMtDT0=    0
         I1Cent=           4 NGrid=           0.
 Petite list used in FoFCou.
 Requested convergence on RMS density matrix=1.00D-08 within 128 cycles.
 Requested convergence on MAX density matrix=1.00D-06.
 Requested convergence on             energy=1.00D-06.
 No special actions if energy rises.
 Integral accuracy reduced to 1.0D-05 until final iterations.
 Initial convergence to 1.0D-05 achieved.  Increase integral accuracy.
 SCF Done:  E(RB3LYP) =  -495.834852352     A.U. after   12 cycles
             Convg  =    0.8610D-08             -V/T =  2.0089
 Calling FoFJK, ICntrl=      2127 FMM=F ISym2X=0 I1Cent= 0 IOpClX= 0 NMat=1 NMatS=1 NMatT=0.
 ***** Axes restored to original set *****
 -------------------------------------------------------------------
 Center     Atomic                   Forces (Hartrees/Bohr)
 Number     Number              X              Y              Z
 -------------------------------------------------------------------
      1        1           0.002342271    0.001344837   -0.000678046
      2        6           0.007212039    0.001074244    0.003778749
      3        1          -0.002693718   -0.003656888    0.001632435
      4        1          -0.003498052   -0.001100495    0.002415560
      5        6          -0.020560709    0.007432042   -0.022670639
      6        8           0.001281430   -0.001830711   -0.000398449
      7        7           0.013887731   -0.008349036    0.017174018
      8        1          -0.001348613    0.001978709    0.000212908
      9        6           0.004531939    0.001069733   -0.011074935
     10        1          -0.002206782   -0.001920113    0.004138520
     11        6           0.003130977   -0.006690602   -0.001582940
     12        1           0.001099381   -0.000077477   -0.000169423
     13        1           0.003417780   -0.005269562   -0.002727090
     14        1           0.002343486   -0.002249595   -0.001471599
     15        6          -0.028749028    0.001702069    0.009967753
     16        8           0.003705021    0.001547711    0.003209351
     17        7           0.013190182    0.008647651   -0.000875795
     18        1          -0.001459749    0.002691603    0.000439889
     19        6           0.002521683   -0.000215266   -0.000531815
     20        1          -0.000269389   -0.002405601   -0.000025469
     21        1           0.001753851    0.003287573    0.001297433
     22        1           0.000368270    0.002989175   -0.002060417
 -------------------------------------------------------------------
 Cartesian Forces:  Max     0.028749028 RMS     0.006986808

 GradGradGradGradGradGradGradGradGradGradGradGradGradGradGradGradGradGrad
 Berny optimization.
 Using GEDIIS/GDIIS optimizer.
 Internal  Forces:  Max     0.022720728 RMS     0.005515371
 Search for a local minimum.
 Step number   2 out of a maximum of  132
 All quantities printed in internal units (Hartrees-Bohrs-Radians)
 Mixed Optimization -- RFO/linear search
 Update second derivatives using D2CorX and points    1    2
 DE= -4.57D-03 DEPred=-4.56D-03 R= 1.00D+00
 SS=  1.41D+00  RLast= 3.00D-01 DXNew= 5.0454D-01 8.9999D-01
 Trust test= 1.00D+00 RLast= 3.00D-01 DXMaxT set to 5.05D-01
 Use linear search instead of GDIIS.
 Linear search step of   0.594 exceeds DXMaxT=   0.505 but not scaled.
 Quartic linear search produced a step of  2.00000.
 Iteration  1 RMS(Cart)=  0.11098888 RMS(Int)=  0.00826686
 Iteration  2 RMS(Cart)=  0.00924335 RMS(Int)=  0.00041264
 Iteration  3 RMS(Cart)=  0.00005904 RMS(Int)=  0.00041030
 Iteration  4 RMS(Cart)=  0.00000001 RMS(Int)=  0.00041030
 Iteration  1 RMS(Cart)=  0.00013993 RMS(Int)=  0.00005333
 Iteration  2 RMS(Cart)=  0.00007501 RMS(Int)=  0.00005951
 Iteration  3 RMS(Cart)=  0.00004062 RMS(Int)=  0.00006719
 Iteration  4 RMS(Cart)=  0.00002234 RMS(Int)=  0.00007234
 Iteration  5 RMS(Cart)=  0.00001257 RMS(Int)=  0.00007544
 Iteration  6 RMS(Cart)=  0.00000729 RMS(Int)=  0.00007727
 Iteration  7 RMS(Cart)=  0.00000437 RMS(Int)=  0.00007834
 Iteration  8 RMS(Cart)=  0.00000270 RMS(Int)=  0.00007897
 Iteration  9 RMS(Cart)=  0.00000172 RMS(Int)=  0.00007935
 Iteration 10 RMS(Cart)=  0.00000112 RMS(Int)=  0.00007958
 Iteration 11 RMS(Cart)=  0.00000074 RMS(Int)=  0.00007972
 Variable       Old X    -DE/DX   Delta X   Delta X   Delta X     New X
                                 (Linear)    (Quad)   (Total)
    R1        2.05995  -0.00059   0.00027   0.00000   0.00027   2.06022
    R2        2.06338   0.00341   0.00702   0.00000   0.00702   2.07041
    R3        2.06316   0.00315   0.00710   0.00000   0.00710   2.07026
    R4        2.88698  -0.00112  -0.00877   0.00000  -0.00877   2.87821
    R5        2.32002  -0.00051  -0.00507   0.00000  -0.00507   2.31495
    R6        2.54041   0.02272   0.03525   0.00000   0.03525   2.57566
    R7        1.90793  -0.00068  -0.00162   0.00000  -0.00162   1.90632
    R8        2.73969   0.00440   0.00304   0.00000   0.00304   2.74274
    R9        2.06352   0.00285   0.00756   0.00000   0.00756   2.07108
   R10        2.88991   0.01400   0.01604   0.00000   0.01604   2.90595
   R11        2.89442   0.01924   0.03648   0.00000   0.03648   2.93089
   R12        2.06006  -0.00040   0.00069   0.00000   0.00069   2.06075
   R13        2.06414   0.00067   0.00859   0.00000   0.00859   2.07273
   R14        2.06212   0.00253   0.00491   0.00000   0.00491   2.06703
   R15        2.31871  -0.00181  -0.00750   0.00000  -0.00750   2.31121
   R16        2.53822   0.02151   0.03087   0.00000   0.03087   2.56909
   R17        1.90686  -0.00261  -0.00332   0.00000  -0.00332   1.90354
   R18        2.74032   0.00363   0.00413   0.00000   0.00413   2.74445
   R19        2.05996  -0.00053   0.00030   0.00000   0.00030   2.06026
   R20        2.06297   0.00319   0.00627   0.00000   0.00627   2.06924
   R21        2.06381   0.00297   0.00798   0.00000   0.00798   2.07179
    A1        1.91208  -0.00010   0.00202   0.00000   0.00224   1.91432
    A2        1.90796  -0.00005  -0.00659   0.00000  -0.00676   1.90120
    A3        1.92712  -0.00568  -0.02381   0.00000  -0.02377   1.90335
    A4        1.90333  -0.00354  -0.01377   0.00000  -0.01409   1.88924
    A5        1.91525   0.00500   0.03855   0.00000   0.03851   1.95376
    A6        1.89786   0.00439   0.00367   0.00000   0.00342   1.90128
    A7        2.11518   0.00463   0.02413   0.00000   0.02409   2.13928
    A8        2.02546  -0.00770  -0.01926   0.00000  -0.01929   2.00617
    A9        2.14253   0.00307  -0.00491   0.00000  -0.00494   2.13759
   A10        2.09007  -0.00483  -0.00846   0.00000  -0.00982   2.08024
   A11        2.12968   0.00832   0.00412   0.00000   0.00271   2.13239
   A12        2.06272  -0.00352   0.00291   0.00000   0.00144   2.06416
   A13        1.89984   0.00011  -0.02260   0.00000  -0.02335   1.87649
   A14        1.94205  -0.00361   0.00600   0.00000   0.00596   1.94801
   A15        1.92926  -0.00773  -0.01948   0.00000  -0.02109   1.90817
   A16        1.89373  -0.00309  -0.00472   0.00000  -0.00439   1.88934
   A17        1.88583  -0.00446  -0.02050   0.00000  -0.02163   1.86420
   A18        1.91187   0.01865   0.06099   0.00000   0.06128   1.97315
   A19        1.91380   0.00007   0.00531   0.00000   0.00514   1.91894
   A20        1.92235   0.00749   0.02257   0.00000   0.02243   1.94478
   A21        1.91188   0.00145   0.00157   0.00000   0.00160   1.91348
   A22        1.91021  -0.00243   0.00020   0.00000  -0.00012   1.91009
   A23        1.90806  -0.00123  -0.00435   0.00000  -0.00435   1.90371
   A24        1.89739  -0.00545  -0.02553   0.00000  -0.02548   1.87191
   A25        2.10836   0.00037   0.01048   0.00000   0.01023   2.11858
   A26        2.02920   0.00497  -0.01168   0.00000  -0.01193   2.01727
   A27        2.14550  -0.00539   0.00094   0.00000   0.00068   2.14618
   A28        2.09212   0.00105  -0.00467   0.00000  -0.00563   2.08649
   A29        2.12929   0.00109   0.00355   0.00000   0.00259   2.13188
   A30        2.06128  -0.00214   0.00014   0.00000  -0.00083   2.06044
   A31        1.90079  -0.00482  -0.02082   0.00000  -0.02071   1.88008
   A32        1.91606   0.00368   0.00998   0.00000   0.00986   1.92591
   A33        1.92170   0.00325   0.02099   0.00000   0.02092   1.94262
   A34        1.91132   0.00007   0.00236   0.00000   0.00241   1.91373
   A35        1.90678   0.00001  -0.00660   0.00000  -0.00644   1.90034
   A36        1.90712  -0.00221  -0.00599   0.00000  -0.00626   1.90086
    D1        0.09019  -0.00032   0.18021   0.00000   0.18044   0.27062
    D2       -3.05740   0.00043   0.16814   0.00000   0.16824  -2.88916
    D3        2.19960  -0.00084   0.19268   0.00000   0.19253   2.39213
    D4       -0.94799  -0.00010   0.18061   0.00000   0.18033  -0.76766
    D5       -2.00307   0.00044   0.20058   0.00000   0.20071  -1.80237
    D6        1.13253   0.00119   0.18851   0.00000   0.18850   1.32104
    D7        0.00166   0.00045   0.00331   0.00000   0.00362   0.00528
    D8       -3.09857   0.00140   0.08614   0.00000   0.08563  -3.01294
    D9        3.13716   0.00121  -0.00897   0.00000  -0.00846   3.12870
   D10        0.03693   0.00217   0.07387   0.00000   0.07355   0.11048
   D11        3.11588  -0.00058  -0.05143   0.00000  -0.05107   3.06481
   D12       -1.08121  -0.00654  -0.06814   0.00000  -0.06768  -1.14889
   D13        1.04721   0.00937  -0.00001   0.00000   0.00000   1.04721
   D14        0.01503   0.00040   0.03016   0.00000   0.03047   0.04550
   D15        2.10112  -0.00556   0.01345   0.00000   0.01386   2.11499
   D16       -2.05364   0.01035   0.08158   0.00000   0.08154  -1.97210
   D17        1.06442   0.00153   0.03435   0.00000   0.03478   1.09920
   D18       -3.11564   0.00329   0.05195   0.00000   0.05257  -3.06307
   D19       -1.02953   0.00210   0.03546   0.00000   0.03596  -0.99357
   D20       -3.12905  -0.00251   0.00708   0.00000   0.00687  -3.12218
   D21       -1.02592  -0.00075   0.02468   0.00000   0.02465  -1.00127
   D22        1.06018  -0.00194   0.00818   0.00000   0.00805   1.06823
   D23       -1.07406   0.00089   0.01392   0.00000   0.01344  -1.06062
   D24        1.02907   0.00265   0.03152   0.00000   0.03122   1.06029
   D25        3.11517   0.00146   0.01502   0.00000   0.01462   3.12979
   D26        0.27843  -0.00158   0.03321   0.00000   0.03343   0.31185
   D27       -2.87984  -0.00442   0.00000   0.00000   0.00000  -2.87984
   D28       -1.79876   0.00549   0.08546   0.00000   0.08516  -1.71360
   D29        1.32615   0.00265   0.05225   0.00000   0.05174   1.37789
   D30        2.42450   0.00135   0.06878   0.00000   0.06892   2.49342
   D31       -0.73377  -0.00150   0.03557   0.00000   0.03549  -0.69827
   D32        0.03875   0.00145   0.07724   0.00000   0.07711   0.11586
   D33       -3.13714   0.00142   0.00903   0.00000   0.00909  -3.12804
   D34       -3.11991  -0.00140   0.04326   0.00000   0.04319  -3.07672
   D35       -0.01261  -0.00143  -0.02496   0.00000  -0.02482  -0.03743
   D36        0.07036  -0.00013   0.14051   0.00000   0.14051   0.21087
   D37        2.16286  -0.00078   0.13671   0.00000   0.13662   2.29948
   D38       -2.02000   0.00087   0.14862   0.00000   0.14883  -1.87117
   D39       -3.10495  -0.00010   0.07345   0.00000   0.07337  -3.03158
   D40       -1.01245  -0.00075   0.06965   0.00000   0.06948  -0.94297
   D41        1.08788   0.00090   0.08157   0.00000   0.08170   1.16958
         Item               Value     Threshold  Converged?
 Maximum Force            0.022721     0.000450     NO 
 RMS     Force            0.005346     0.000300     NO 
 Maximum Displacement     0.456160     0.001800     NO 
 RMS     Displacement     0.112139     0.001200     NO 
 Predicted change in Energy=-5.367938D-03
 GradGradGradGradGradGradGradGradGradGradGradGradGradGradGradGradGradGrad

                          Input orientation:                          
 ---------------------------------------------------------------------
 Center     Atomic      Atomic             Coordinates (Angstroms)
 Number     Number       Type             X           Y           Z
 ---------------------------------------------------------------------
      1          1           0        0.751601    3.510916   -1.758296
      2          6           0        1.316798    3.500720   -0.826077
      3          1           0        1.405022    2.472112   -0.459266
      4          1           0        0.775327    4.087207   -0.075716
      5          6           0        2.679104    4.139079   -1.063560
      6          8           0        2.926464    4.816237   -2.053983
      7          7           0        3.596482    3.918796   -0.079889
      8          1           0        3.336003    3.362146    0.720065
      9          6           0        4.888918    4.579078   -0.066394
     10          1           0        5.396216    4.292153    0.861761
     11          6           0        5.764002    4.135432   -1.250505
     12          1           0        5.293197    4.425699   -2.190339
     13          1           0        6.767434    4.574728   -1.193920
     14          1           0        5.884228    3.048399   -1.231696
     15          6           0        4.680257    6.114801   -0.007254
     16          8           0        3.612674    6.599628    0.340650
     17          7           0        5.772207    6.867512   -0.306127
     18          1           0        6.608883    6.417816   -0.641419
     19          6           0        5.741169    8.319217   -0.278575
     20          1           0        4.816194    8.622094    0.212661
     21          1           0        6.599049    8.707840    0.280013
     22          1           0        5.758069    8.737288   -1.291936
 ---------------------------------------------------------------------
                    Distance matrix (angstroms):
                    1          2          3          4          5
     1  H    0.000000
     2  C    1.090221   0.000000
     3  H    1.787050   1.095613   0.000000
     4  H    1.778693   1.095536   1.775431   0.000000
     5  C    2.143015   1.523083   2.183400   2.145435   0.000000
     6  O    2.553688   2.414408   3.217582   3.012045   1.225018
     7  N    3.328177   2.434861   2.653172   2.826180   1.362980
     8  H    3.583788   2.546948   2.431393   2.777776   2.053401
     9  C    4.595747   3.807889   4.090378   4.142904   2.463984
    10  H    5.389571   4.485178   4.581190   4.719479   3.333615
    11  C    5.076616   4.512275   4.732167   5.125361   3.090559
    12  H    4.652911   4.304480   4.683057   4.999735   2.860990
    13  H    6.135182   5.567607   5.806563   6.115014   4.113542
    14  H    5.180259   4.607661   4.581708   5.340064   3.389790
    15  C    5.027992   4.337828   4.919417   4.400489   3.003976
    16  O    4.704408   4.029334   4.748682   3.812631   2.982894
    17  N    6.211442   5.608592   6.198007   5.722935   4.193487
    18  H    6.633644   6.045637   6.533142   6.307308   4.562237
    19  C    7.085557   6.564506   7.281721   6.527683   5.240800
    20  H    6.821270   6.289135   7.064691   6.080869   5.127700
    21  H    8.084267   7.499315   8.149157   7.442616   6.168041
    22  H    7.252391   6.882119   7.674294   6.923161   5.538565
                    6          7          8          9         10
     6  O    0.000000
     7  N    2.269664   0.000000
     8  H    3.158709   1.008778   0.000000
     9  C    2.803209   1.451394   2.123908   0.000000
    10  H    3.856929   2.065222   2.264833   1.095969   0.000000
    11  C    3.026664   2.472936   3.221225   1.537762   2.149766
[...]
    14  H    5.156870   4.654690   4.762169   5.391287   3.343237
    15  C    4.991384   4.210559   4.740161   4.185394   2.990286
    16  O    4.685145   3.858949   4.441987   3.528092   3.006831
    17  N    6.180937   5.489111   6.063621   5.474419   4.177389
    18  H    6.532594   5.907793   6.447035   6.058639   4.475474
    19  C    7.023802   6.379818   7.059192   6.163436   5.208675
    20  H    6.900347   6.193399   6.851677   5.804661   5.219723
    21  H    8.056834   7.382499   8.003964   7.190814   6.168774
    22  H    7.009874   6.515086   7.318492   6.304859   5.355391
                    6          7          8          9         10
     6  O    0.000000
     7  N    2.286042   0.000000
     8  H    3.121112   1.012277   0.000000
     9  C    2.803933   1.461044   2.088487   0.000000
    10  H    3.853104   2.047846   2.236641   1.098249   0.000000
    11  C    3.006115   2.490076   3.340968   1.536430   2.141886
    12  H    2.451238   2.854133   3.830265   2.180609   3.059142
    13  H    3.995162   3.426877   4.163176   2.186510   2.430326
    14  H    3.389399   2.651770   3.433565   2.158538   2.508972
    15  C    3.094409   2.464084   2.877939   1.554344   2.124674
    16  O    3.293572   2.727596   2.842030   2.421344   2.892464
    17  N    3.995914   3.692101   4.178083   2.475438   2.865594
    18  H    4.167334   3.953423   4.575327   2.595161   2.973725
    19  C    4.934490   4.911963   5.303842   3.849918   4.206793
    20  H    5.121810   4.934349   5.143284   4.079807   4.362426
    21  H    5.909413   5.733554   6.097290   4.529351   4.701294
    22  H    4.854118   5.324469   5.832409   4.377220   4.937698
                   11         12         13         14         15
    11  C    0.000000
    12  H    1.090710   0.000000
    13  H    1.097013   1.791322   0.000000
    14  H    1.094045   1.771340   1.762242   0.000000
    15  C    2.620756   2.863219   2.950830   3.540290   0.000000
    16  O    3.698415   3.846565   4.152084   4.513821   1.224517
    17  N    2.942250   3.101873   2.801364   3.998989   1.364522
    18  H    2.509669   2.665413   2.087209   3.562181   2.045918
    19  C    4.355922   4.353119   4.163885   5.430372   2.461071
    20  H    4.910489   4.974177   4.863431   5.938865   2.560073
    21  H    4.899975   4.999779   4.473040   5.950656   3.296057
    22  H    4.690854   4.427047   4.577314   5.782254   3.022818
                   16         17         18         19         20
    16  O    0.000000
    17  N    2.276422   0.000000
    18  H    3.152010   1.009081   0.000000
    19  C    2.804936   1.454550   2.121209   0.000000
    20  H    2.421438   2.069016   2.968037   1.090535   0.000000
    21  H    3.747045   2.096610   2.445477   1.094426   1.784982
    22  H    3.295183   2.125513   2.581694   1.097731   1.775168
                   21         22
    21  H    0.000000
    22  H    1.784762   0.000000
 Stoichiometry    C6H12N2O2
 Framework group  C1[X(C6H12N2O2)]
 Deg. of freedom    60
 Full point group                 C1      NOp   1
 Largest Abelian subgroup         C1      NOp   1
 Largest concise Abelian subgroup C1      NOp   1
                         Standard orientation:                         
 ---------------------------------------------------------------------
 Center     Atomic      Atomic             Coordinates (Angstroms)
 Number     Number       Type             X           Y           Z
 ---------------------------------------------------------------------
      1          1           0       -3.742124   -1.080490    0.858572
      2          6           0       -3.096858   -1.032627   -0.020356
      3          1           0       -3.668624   -0.662227   -0.877806
      4          1           0       -2.749192   -2.047239   -0.249637
      5          6           0       -1.891450   -0.163425    0.297231
      6          8           0       -1.481854    0.004595    1.436988
      7          7           0       -1.303825    0.436491   -0.800814
      8          1           0       -1.521141   -0.008170   -1.683851
      9          6           0        0.066754    0.933994   -0.707790
     10          1           0        0.338258    1.234079   -1.728762
     11          6           0        0.176495    2.178123    0.187038
     12          1           0        0.035372    1.919450    1.237190
     13          1           0        1.143060    2.679053    0.051919
     14          1           0       -0.599481    2.894607   -0.098354
     15          6           0        1.024391   -0.240279   -0.361382
     16          8           0        0.702247   -1.399463   -0.589324
     17          7           0        2.270326    0.114550    0.067176
     18          1           0        2.412921    1.058380    0.394429
     19          6           0        3.265581   -0.883655    0.426020
     20          1           0        3.048755   -1.791426   -0.138076
     21          1           0        4.265544   -0.521700    0.167504
     22          1           0        3.238522   -1.125441    1.496450
 ---------------------------------------------------------------------
 Rotational constants (GHZ):      2.2216098      0.8537798      0.7441858

 **********************************************************************

            Population analysis using the SCF density.

 **********************************************************************

 Orbital symmetries:
       Occupied  (A) (A) (A) (A) (A) (A) (A) (A) (A) (A) (A) (A)
                 (A) (A) (A) (A) (A) (A) (A) (A) (A) (A) (A) (A)
                 (A) (A) (A) (A) (A) (A) (A) (A) (A) (A) (A) (A)
                 (A) (A) (A)
       Virtual   (A) (A) (A) (A) (A) (A) (A) (A) (A) (A) (A) (A)
                 (A) (A) (A) (A) (A) (A) (A) (A) (A) (A) (A) (A)
                 (A) (A) (A) (A) (A) (A) (A) (A) (A) (A) (A) (A)
                 (A) (A) (A) (A) (A) (A) (A) (A) (A) (A) (A) (A)
                 (A) (A) (A) (A) (A) (A) (A) (A) (A) (A) (A) (A)
                 (A) (A) (A) (A) (A) (A) (A) (A) (A) (A) (A) (A)
                 (A) (A) (A) (A) (A) (A) (A) (A) (A) (A) (A) (A)
                 (A) (A) (A) (A) (A) (A) (A) (A) (A) (A) (A) (A)
                 (A) (A) (A) (A) (A) (A) (A) (A) (A) (A) (A) (A)
                 (A) (A) (A) (A) (A) (A) (A) (A) (A) (A) (A) (A)
                 (A) (A) (A) (A) (A) (A) (A) (A) (A) (A) (A) (A)
                 (A) (A) (A)
 The electronic state is 1-A.
 Alpha  occ. eigenvalues --  -19.10864 -19.10644 -14.36097 -14.35104 -10.28222
 Alpha  occ. eigenvalues --  -10.28071 -10.23816 -10.21651 -10.18478 -10.18355
 Alpha  occ. eigenvalues --   -1.03314  -1.02073  -0.91846  -0.91535  -0.77686
 Alpha  occ. eigenvalues --   -0.72415  -0.70253  -0.64648  -0.58652  -0.56243
 Alpha  occ. eigenvalues --   -0.52594  -0.50083  -0.46030  -0.45408  -0.44241
 Alpha  occ. eigenvalues --   -0.43571  -0.42288  -0.41355  -0.39732  -0.39033
 Alpha  occ. eigenvalues --   -0.38943  -0.37995  -0.37470  -0.35037  -0.34277
 Alpha  occ. eigenvalues --   -0.26153  -0.25312  -0.24613  -0.23803
 Alpha virt. eigenvalues --    0.02595   0.03267   0.06745   0.08793   0.11844
 Alpha virt. eigenvalues --    0.13012   0.14468   0.15534   0.16041   0.16564
 Alpha virt. eigenvalues --    0.17064   0.17380   0.18478   0.19226   0.19388
 Alpha virt. eigenvalues --    0.21200   0.23584   0.25529   0.28912   0.32113
 Alpha virt. eigenvalues --    0.34917   0.39421   0.40786   0.49928   0.51619
 Alpha virt. eigenvalues --    0.53084   0.53491   0.54463   0.56146   0.56210
 Alpha virt. eigenvalues --    0.58017   0.60131   0.61336   0.64893   0.66183
 Alpha virt. eigenvalues --    0.67897   0.70522   0.71123   0.72421   0.72960
 Alpha virt. eigenvalues --    0.77029   0.78125   0.79136   0.80429   0.84367
 Alpha virt. eigenvalues --    0.85413   0.85501   0.86627   0.86654   0.88189
 Alpha virt. eigenvalues --    0.89564   0.90527   0.91448   0.92740   0.93728
 Alpha virt. eigenvalues --    0.94476   0.95925   0.96966   0.97912   1.02275
 Alpha virt. eigenvalues --    1.02794   1.07575   1.08252   1.13126   1.15253
 Alpha virt. eigenvalues --    1.18790   1.22875   1.27409   1.31591   1.32108
 Alpha virt. eigenvalues --    1.35021   1.39281   1.42816   1.44946   1.50506
 Alpha virt. eigenvalues --    1.52757   1.55125   1.61873   1.64613   1.67976
 Alpha virt. eigenvalues --    1.70517   1.78409   1.79202   1.81312   1.82693
 Alpha virt. eigenvalues --    1.83347   1.84535   1.86647   1.88420   1.92911
 Alpha virt. eigenvalues --    1.95244   1.96873   1.98469   2.00411   2.02693
 Alpha virt. eigenvalues --    2.04679   2.06506   2.08991   2.12974   2.14989
 Alpha virt. eigenvalues --    2.19892   2.21921   2.24338   2.27400   2.27920
 Alpha virt. eigenvalues --    2.31732   2.34176   2.35598   2.39699   2.41990
 Alpha virt. eigenvalues --    2.46087   2.50815   2.52179   2.56546   2.61814
 Alpha virt. eigenvalues --    2.62909   2.67148   2.69202   2.74509   2.86464
 Alpha virt. eigenvalues --    2.93452   3.00072   3.00405   3.12487   3.14080
 Alpha virt. eigenvalues --    3.90507   4.02533   4.05234   4.13934   4.21232
 Alpha virt. eigenvalues --    4.22100   4.27839   4.38584   4.48172   4.62788
          Condensed to atoms (all electrons):
              1          2          3          4          5          6
     1  H    0.516328   0.355726  -0.024282  -0.020414  -0.018800   0.004106
     2  C    0.355726   5.342393   0.344633   0.357409   0.345006  -0.077657
     3  H   -0.024282   0.344633   0.568038  -0.026456  -0.024870   0.002367
     4  H   -0.020414   0.357409  -0.026456   0.516932  -0.019615  -0.000266
     5  C   -0.018800   0.345006  -0.024870  -0.019615   4.305611   0.583912
     6  O    0.004106  -0.077657   0.002367  -0.000266   0.583912   8.067365
     7  N    0.004321  -0.124429   0.006416   0.000127   0.260245  -0.095753
     8  H   -0.000005   0.001790   0.000000   0.000289  -0.018566   0.003619
     9  C   -0.000200   0.008112   0.000144  -0.000458  -0.034018   0.007002
    10  H    0.000003  -0.000229  -0.000015   0.000002   0.005639   0.000294
    11  C    0.000014  -0.000116  -0.000035   0.000000  -0.005549  -0.005818
    12  H   -0.000001   0.000218  -0.000011  -0.000002   0.002688   0.014247
    13  H    0.000000   0.000009   0.000000   0.000000   0.000365   0.000420
    14  H   -0.000002  -0.000011   0.000003   0.000000   0.000340  -0.000281
    15  C    0.000003  -0.000636   0.000043   0.000097   0.004874   0.004464
    16  O    0.000007  -0.001216   0.000001   0.001054   0.010125  -0.002295
    17  N    0.000000  -0.000020   0.000000   0.000002  -0.000254  -0.000466
    18  H    0.000000   0.000000   0.000000   0.000000  -0.000037  -0.000015
    19  C    0.000000   0.000000   0.000000   0.000000  -0.000005   0.000003
    20  H    0.000000   0.000000   0.000000   0.000000  -0.000008   0.000001
    21  H    0.000000   0.000000   0.000000   0.000000   0.000000   0.000000
    22  H    0.000000   0.000000   0.000000   0.000000   0.000006   0.000002
              7          8          9         10         11         12
     1  H    0.004321  -0.000005  -0.000200   0.000003   0.000014  -0.000001
     2  C   -0.124429   0.001790   0.008112  -0.000229  -0.000116   0.000218
     3  H    0.006416   0.000000   0.000144  -0.000015  -0.000035  -0.000011
     4  H    0.000127   0.000289  -0.000458   0.000002   0.000000  -0.000002
     5  C    0.260245  -0.018566  -0.034018   0.005639  -0.005549   0.002688
     6  O   -0.095753   0.003619   0.007002   0.000294  -0.005818   0.014247
     7  N    7.094090   0.297237   0.272736  -0.037762  -0.050406  -0.005056
     8  H    0.297237   0.418501  -0.034974  -0.005206   0.005795  -0.000060
     9  C    0.272736  -0.034974   5.109925   0.368526   0.331522  -0.033257
    10  H   -0.037762  -0.005206   0.368526   0.585607  -0.038534   0.004599
    11  C   -0.050406   0.005795   0.331522  -0.038534   5.169203   0.374739
    12  H   -0.005056  -0.000060  -0.033257   0.004599   0.374739   0.493403
    13  H    0.003837  -0.000134  -0.028876  -0.004244   0.347039  -0.027434
    14  H    0.000012  -0.000042  -0.023915  -0.002945   0.365161  -0.023990
    15  C   -0.059576   0.000093   0.315918  -0.036962  -0.037344  -0.002329
    16  O   -0.005169   0.004318  -0.082873  -0.000314   0.002138   0.000092
    17  N    0.003970   0.000077  -0.113860   0.000343   0.004287   0.000271
    18  H    0.000112  -0.000019  -0.002671   0.000207   0.006818   0.000302
    19  C   -0.000123   0.000000   0.006031  -0.000217  -0.000221  -0.000115
    20  H   -0.000008  -0.000001   0.000700  -0.000025  -0.000016  -0.000003
    21  H    0.000000   0.000000  -0.000145   0.000018   0.000010   0.000003
    22  H    0.000006   0.000000   0.000040  -0.000007  -0.000045  -0.000005
             13         14         15         16         17         18
     1  H    0.000000  -0.000002   0.000003   0.000007   0.000000   0.000000
     2  C    0.000009  -0.000011  -0.000636  -0.001216  -0.000020   0.000000
     3  H    0.000000   0.000003   0.000043   0.000001   0.000000   0.000000
     4  H    0.000000   0.000000   0.000097   0.001054   0.000002   0.000000
     5  C    0.000365   0.000340   0.004874   0.010125  -0.000254  -0.000037
     6  O    0.000420  -0.000281   0.004464  -0.002295  -0.000466  -0.000015
     7  N    0.003837   0.000012  -0.059576  -0.005169   0.003970   0.000112
     8  H   -0.000134  -0.000042   0.000093   0.004318   0.000077  -0.000019
     9  C   -0.028876  -0.023915   0.315918  -0.082873  -0.113860  -0.002671
    10  H   -0.004244  -0.002945  -0.036962  -0.000314   0.000343   0.000207
    11  C    0.347039   0.365161  -0.037344   0.002138   0.004287   0.006818
    12  H   -0.027434  -0.023990  -0.002329   0.000092   0.000271   0.000302
    13  H    0.605156  -0.027480  -0.003192  -0.000032  -0.000608   0.005847
    14  H   -0.027480   0.545785   0.003222  -0.000061   0.000047  -0.000206
    15  C   -0.003192   0.003222   4.375637   0.583513   0.266124  -0.019074
    16  O   -0.000032  -0.000061   0.583513   8.099730  -0.096482   0.003492
    17  N   -0.000608   0.000047   0.266124  -0.096482   7.088205   0.298645
    18  H    0.005847  -0.000206  -0.019074   0.003492   0.298645   0.406176
    19  C    0.000106   0.000004  -0.023778  -0.003826   0.269233  -0.032289
    20  H   -0.000006   0.000001  -0.001980   0.017047  -0.039761   0.004120
    21  H   -0.000021   0.000000   0.003700   0.000516  -0.038278  -0.001580
    22  H    0.000021  -0.000001  -0.001651   0.000652  -0.043301  -0.000248
             19         20         21         22
     1  H    0.000000   0.000000   0.000000   0.000000
     2  C    0.000000   0.000000   0.000000   0.000000
     3  H    0.000000   0.000000   0.000000   0.000000
     4  H    0.000000   0.000000   0.000000   0.000000
     5  C   -0.000005  -0.000008   0.000000   0.000006
     6  O    0.000003   0.000001   0.000000   0.000002
     7  N   -0.000123  -0.000008   0.000000   0.000006
     8  H    0.000000  -0.000001   0.000000   0.000000
     9  C    0.006031   0.000700  -0.000145   0.000040
    10  H   -0.000217  -0.000025   0.000018  -0.000007
    11  C   -0.000221  -0.000016   0.000010  -0.000045
    12  H   -0.000115  -0.000003   0.000003  -0.000005
    13  H    0.000106  -0.000006  -0.000021   0.000021
    14  H    0.000004   0.000001   0.000000  -0.000001
    15  C   -0.023778  -0.001980   0.003700  -0.001651
    16  O   -0.003826   0.017047   0.000516   0.000652
    17  N    0.269233  -0.039761  -0.038278  -0.043301
    18  H   -0.032289   0.004120  -0.001580  -0.000248
    19  C    4.951260   0.379449   0.374952   0.386122
    20  H    0.379449   0.494165  -0.022362  -0.030234
    21  H    0.374952  -0.022362   0.570732  -0.039336
    22  H    0.386122  -0.030234  -0.039336   0.562885
 Mulliken atomic charges:
              1
     1  H    0.183195
     2  C   -0.550982
     3  H    0.154025
     4  H    0.191301
     5  C    0.602909
     6  O   -0.505250
     7  N   -0.564827
     8  H    0.327290
     9  C   -0.065409
    10  H    0.161221
    11  C   -0.468641
    12  H    0.201700
    13  H    0.129227
    14  H    0.164360
    15  C    0.628832
    16  O   -0.530415
    17  N   -0.598174
    18  H    0.330419
    19  C   -0.306586
    20  H    0.198920
    21  H    0.151790
    22  H    0.165095
 Sum of Mulliken atomic charges =   0.00000
 Mulliken charges with hydrogens summed into heavy atoms:
              1
     2  C   -0.022461
     5  C    0.602909
     6  O   -0.505250
     7  N   -0.237537
     9  C    0.095811
    11  C    0.026646
    15  C    0.628832
    16  O   -0.530415
    17  N   -0.267755
    19  C    0.209219
 Sum of Mulliken charges with hydrogens summed into heavy atoms =   0.00000
 Electronic spatial extent (au):  <R**2>=           1689.4778
 Charge=              0.0000 electrons
 Dipole moment (field-independent basis, Debye):
    X=              1.5010    Y=              2.0300    Z=             -2.0911  Tot=              3.2783
 Quadrupole moment (field-independent basis, Debye-Ang):
   XX=            -48.9263   YY=            -60.4932   ZZ=            -61.3863
   XY=              4.3183   XZ=              6.6320   YZ=             -1.0531
 Traceless Quadrupole moment (field-independent basis, Debye-Ang):
   XX=              8.0090   YY=             -3.5579   ZZ=             -4.4511
   XY=              4.3183   XZ=              6.6320   YZ=             -1.0531
 Octapole moment (field-independent basis, Debye-Ang**2):
  XXX=             12.6810  YYY=              1.6754  ZZZ=            -10.8837  XYY=              1.5204
  XXY=             -9.0354  XXZ=              1.5678  XZZ=              2.4513  YZZ=             -0.4209
  YYZ=              3.9191  XYZ=             -1.3409
 Hexadecapole moment (field-independent basis, Debye-Ang**3):
 XXXX=          -1343.1289 YYYY=           -497.8194 ZZZZ=           -223.7769 XXXY=              5.5978
 XXXZ=             12.6700 YYYX=              3.5753 YYYZ=             -0.3929 ZZZX=             15.3208
 ZZZY=              0.9461 XXYY=           -311.5208 XXZZ=           -283.2183 YYZZ=           -122.8568
 XXYZ=              1.7128 YYXZ=             -0.5545 ZZXY=              0.7406
 N-N= 5.645387787901D+02 E-N=-2.285465310805D+03  KE= 4.912308710487D+02
 1\1\GINC-NODE004\FOpt\RB3LYP\6-31G(d)\C6H12N2O2\STEBOSS\11-Feb-2017\0\
 \# b3lyp/6-31G* Opt=(ModRedundant, maxcycles=1000, calcfc) geom=nocrow
 d\\Phi Psi fixed scan\\0,1\H,0.787348205,3.4444129264,-1.7441993786\C,
 1.3220120331,3.6297968485,-0.8109574037\H,1.2865494377,2.7342990006,-0
 .1815444136\H,0.8170665493,4.4455015748,-0.2794188004\C,2.7430817602,4
 .0620516301,-1.1320443223\O,3.0484232349,4.5876238381,-2.1929807256\N,
 3.6674469801,3.7995866538,-0.1382805065\H,3.2635222064,3.6602334704,0.
 7793956695\C,4.9399274508,4.5173943563,-0.124328642\H,5.4252990518,4.2
 327103062,0.8188147194\C,5.8657681236,4.086230221,-1.2721675187\H,5.49
 54162495,4.4487712909,-2.2318815925\H,6.8908381934,4.4411118194,-1.108
 6830523\H,5.9060180049,2.9935518887,-1.3091740707\C,4.6751029665,6.043
 9729811,-0.0001913928\O,3.6177962214,6.4613888148,0.4551192891\N,5.731
 8038142,6.856826539,-0.2910033189\H,6.5018187662,6.4708512711,-0.81668
 76029\C,5.6218434792,8.3053118189,-0.216748841\H,4.8483651428,8.546016
 0846,0.5133599501\H,6.5756935994,8.7348284838,0.1048917065\H,5.3381585
 296,8.7464281817,-1.1810897521\\Version=EM64L-G09RevA.02\State=1-A\HF=
 -495.8436887\RMSD=4.020e-09\RMSF=4.643e-04\Dipole=1.0519447,-0.3035417
 ,0.6817437\Quadrupole=3.8797541,1.3379936,-5.2177478,5.0513155,-1.8900
 563,-3.2882673\PG=C01 [X(C6H12N2O2)]\\@


 WE DON'T KNOW ONE MILLIONTH OF ONE PERCENT ABOUT
 ANYTHING.
                                     T. A. EDISON.
 Job cpu time:  0 days  2 hours 20 minutes 27.0 seconds.
 File lengths (MBytes):  RWF=    186 Int=      0 D2E=      0 Chk=      4 Scr=      2
 Normal termination of Gaussian 09 at Sat Feb 11 02:41:18 2017.
