 Entering Gaussian System, Link 0=g09
 Initial command:
 /home/steboss/Software/g09/l1.exe /tmp/Gau-13864.inp -scrdir=/tmp/
 Entering Link 1 = /home/steboss/Software/g09/l1.exe PID=     13866.
  
 Copyright (c) 1988,1990,1992,1993,1995,1998,2003,2009, Gaussian, Inc.
                  All Rights Reserved.
  
 This is part of the Gaussian(R) 09 program.  It is based on
 the Gaussian(R) 03 system (copyright 2003, Gaussian, Inc.),
 the Gaussian(R) 98 system (copyright 1998, Gaussian, Inc.),
 the Gaussian(R) 94 system (copyright 1995, Gaussian, Inc.),
 the Gaussian 92(TM) system (copyright 1992, Gaussian, Inc.),
 the Gaussian 90(TM) system (copyright 1990, Gaussian, Inc.),
 the Gaussian 88(TM) system (copyright 1988, Gaussian, Inc.),
 the Gaussian 86(TM) system (copyright 1986, Carnegie Mellon
 University), and the Gaussian 82(TM) system (copyright 1983,
 Carnegie Mellon University). Gaussian is a federally registered
 trademark of Gaussian, Inc.
  
 This software contains proprietary and confidential information,
 including trade secrets, belonging to Gaussian, Inc.
  
 This software is provided under written license and may be
 used, copied, transmitted, or stored only in accord with that
 written license.
  
 The following legend is applicable only to US Government
 contracts under FAR:
  
                    RESTRICTED RIGHTS LEGEND
  
 Use, reproduction and disclosure by the US Government is
 subject to restrictions as set forth in subparagraphs (a)
 and (c) of the Commercial Computer Software - Restricted
 Rights clause in FAR 52.227-19.
  
 Gaussian, Inc.
 340 Quinnipiac St., Bldg. 40, Wallingford CT 06492
  
  
 ---------------------------------------------------------------
 Warning -- This program may not be used in any manner that
 competes with the business of Gaussian, Inc. or will provide
 assistance to any competitor of Gaussian, Inc.  The licensee
 of this program is prohibited from giving any competitor of
 Gaussian, Inc. access to this program.  By using this program,
 the user acknowledges that Gaussian, Inc. is engaged in the
 business of creating and licensing software in the field of
 computational chemistry and represents and warrants to the
 licensee that it is not a competitor of Gaussian, Inc. and that
 it will not use this program in any manner prohibited above.
 ---------------------------------------------------------------
  

 Cite this work as:
 Gaussian 09, Revision A.02,
 M. J. Frisch, G. W. Trucks, H. B. Schlegel, G. E. Scuseria, 
 M. A. Robb, J. R. Cheeseman, G. Scalmani, V. Barone, B. Mennucci, 
 G. A. Petersson, H. Nakatsuji, M. Caricato, X. Li, H. P. Hratchian, 
 A. F. Izmaylov, J. Bloino, G. Zheng, J. L. Sonnenberg, M. Hada, 
 M. Ehara, K. Toyota, R. Fukuda, J. Hasegawa, M. Ishida, T. Nakajima, 
 Y. Honda, O. Kitao, H. Nakai, T. Vreven, J. A. Montgomery, Jr., 
 J. E. Peralta, F. Ogliaro, M. Bearpark, J. J. Heyd, E. Brothers, 
 K. N. Kudin, V. N. Staroverov, R. Kobayashi, J. Normand, 
 K. Raghavachari, A. Rendell, J. C. Burant, S. S. Iyengar, J. Tomasi, 
 M. Cossi, N. Rega, J. M. Millam, M. Klene, J. E. Knox, J. B. Cross, 
 V. Bakken, C. Adamo, J. Jaramillo, R. Gomperts, R. E. Stratmann, 
 O. Yazyev, A. J. Austin, R. Cammi, C. Pomelli, J. W. Ochterski, 
 R. L. Martin, K. Morokuma, V. G. Zakrzewski, G. A. Voth, 
 P. Salvador, J. J. Dannenberg, S. Dapprich, A. D. Daniels, 
 O. Farkas, J. B. Foresman, J. V. Ortiz, J. Cioslowski, 
 and D. J. Fox, Gaussian, Inc., Wallingford CT, 2009.
 
 ******************************************
 Gaussian 09:  EM64L-G09RevA.02 11-Jun-2009
                 9-Feb-2017 
 ******************************************
 %chk=structure_255.chk
 %NProcShared=8
 Will use up to    8 processors via shared memory.
 -------------------------------------------
 # HF/6-31G* Opt=(ModRedundant) geom=nocrowd
 -------------------------------------------
 1/18=120,19=15,38=1/1,3;
 2/9=110,12=1,17=6,18=5,40=1/2;
 3/5=1,6=6,7=1,11=9,16=1,25=1,30=1,71=1/1,2,3;
 4//1;
 5/5=2,38=5/2;
 6/7=2,8=2,9=2,10=2,28=1/1;
 7//1,2,3,16;
 1/18=20,19=15/3(2);
 2/9=110,12=1/2;
 99//99;
 2/9=110,12=1/2;
 3/5=1,6=6,7=1,11=9,16=1,25=1,30=1,71=1/1,2,3;
 4/5=5,16=3/1;
 5/5=2,38=5/2;
 7//1,2,3,16;
 1/18=20,19=15/3(-5);
 2/9=110,12=1/2;
 6/7=2,8=2,9=2,10=2,19=2,28=1/1;
 99/9=1/99;
 ------------------
 Phi Psi fixed scan
 ------------------
 Symbolic Z-matrix:
 Charge =  0 Multiplicity = 1
 H                     0.6872    3.6446   -1.7047 
 C                     1.3383    3.4229   -0.8591 
 H                     1.537     2.3517   -0.824 
 H                     0.8517    3.7322    0.0658 
 C                     2.6715    4.1636   -0.9815 
 O                     2.893     4.8943   -1.9446 
 N                     3.5554    3.9697    0. 
 H                     3.3273    3.3591    0.7716 
 C                     4.8533    4.6139    0. 
 H                     5.4076    4.3155    0.8898 
 C                     5.6613    4.2208   -1.2322 
 H                     5.1233    4.5214   -2.1312 
 H                     6.6305    4.7189   -1.2058 
 H                     5.8085    3.1409   -1.2414 
 C                     4.7127    6.1294    0. 
 O                     4.3822    6.7252    1.0229 
 N                     4.9651    6.7532   -1.153 
 H                     5.2337    6.2197   -1.9675 
 C                     4.8663    8.193    -1.2823 
 H                     4.5691    8.6246   -0.3265 
 H                     5.8335    8.5989   -1.5786 
 H                     4.1219    8.4401   -2.0392 
 
 The following ModRedundant input section has been read:
 D    5    7    9   15 F                                                       
 D    7    9   15   17 F                                                       

 GradGradGradGradGradGradGradGradGradGradGradGradGradGradGradGradGradGrad
 Berny optimization.
 Initialization pass.
                           ----------------------------
                           !    Initial Parameters    !
                           ! (Angstroms and Degrees)  !
 --------------------------                            --------------------------
 ! Name  Definition              Value          Derivative Info.                !
 --------------------------------------------------------------------------------
 ! R1    R(1,2)                  1.09           estimate D2E/DX2                !
 ! R2    R(2,3)                  1.09           estimate D2E/DX2                !
 ! R3    R(2,4)                  1.0899         estimate D2E/DX2                !
 ! R4    R(2,5)                  1.53           estimate D2E/DX2                !
 ! R5    R(5,6)                  1.229          estimate D2E/DX2                !
 ! R6    R(5,7)                  1.335          estimate D2E/DX2                !
 ! R7    R(7,8)                  1.0101         estimate D2E/DX2                !
 ! R8    R(7,9)                  1.449          estimate D2E/DX2                !
 ! R9    R(9,10)                 1.09           estimate D2E/DX2                !
 ! R10   R(9,11)                 1.525          estimate D2E/DX2                !
 ! R11   R(9,15)                 1.522          estimate D2E/DX2                !
 ! R12   R(11,12)                1.09           estimate D2E/DX2                !
 ! R13   R(11,13)                1.09           estimate D2E/DX2                !
 ! R14   R(11,14)                1.0899         estimate D2E/DX2                !
 ! R15   R(15,16)                1.229          estimate D2E/DX2                !
 ! R16   R(15,17)                1.335          estimate D2E/DX2                !
 ! R17   R(17,18)                1.01           estimate D2E/DX2                !
 ! R18   R(17,19)                1.449          estimate D2E/DX2                !
 ! R19   R(19,20)                1.09           estimate D2E/DX2                !
 ! R20   R(19,21)                1.09           estimate D2E/DX2                !
 ! R21   R(19,22)                1.09           estimate D2E/DX2                !
 ! A1    A(1,2,3)              109.4962         estimate D2E/DX2                !
 ! A2    A(1,2,4)              109.5069         estimate D2E/DX2                !
 ! A3    A(1,2,5)              111.0979         estimate D2E/DX2                !
 ! A4    A(3,2,4)              109.4474         estimate D2E/DX2                !
 ! A5    A(3,2,5)              108.6313         estimate D2E/DX2                !
 ! A6    A(4,2,5)              108.6344         estimate D2E/DX2                !
 ! A7    A(2,5,6)              120.4998         estimate D2E/DX2                !
 ! A8    A(2,5,7)              116.6019         estimate D2E/DX2                !
 ! A9    A(6,5,7)              122.8982         estimate D2E/DX2                !
 ! A10   A(5,7,8)              119.9944         estimate D2E/DX2                !
 ! A11   A(5,7,9)              121.9035         estimate D2E/DX2                !
 ! A12   A(8,7,9)              118.102          estimate D2E/DX2                !
 ! A13   A(7,9,10)             109.5            estimate D2E/DX2                !
 ! A14   A(7,9,11)             111.0992         estimate D2E/DX2                !
 ! A15   A(7,9,15)             111.0966         estimate D2E/DX2                !
 ! A16   A(10,9,11)            108.6382         estimate D2E/DX2                !
 ! A17   A(10,9,15)            108.6373         estimate D2E/DX2                !
 ! A18   A(11,9,15)            107.7947         estimate D2E/DX2                !
 ! A19   A(9,11,12)            109.5007         estimate D2E/DX2                !
 ! A20   A(9,11,13)            109.4959         estimate D2E/DX2                !
 ! A21   A(9,11,14)            109.4978         estimate D2E/DX2                !
 ! A22   A(12,11,13)           109.441          estimate D2E/DX2                !
 ! A23   A(12,11,14)           109.4482         estimate D2E/DX2                !
 ! A24   A(13,11,14)           109.4436         estimate D2E/DX2                !
 ! A25   A(9,15,16)            120.5            estimate D2E/DX2                !
 ! A26   A(9,15,17)            116.6027         estimate D2E/DX2                !
 ! A27   A(16,15,17)           122.8974         estimate D2E/DX2                !
 ! A28   A(15,17,18)           119.9957         estimate D2E/DX2                !
 ! A29   A(15,17,19)           121.9032         estimate D2E/DX2                !
 ! A30   A(18,17,19)           118.1011         estimate D2E/DX2                !
 ! A31   A(17,19,20)           109.4991         estimate D2E/DX2                !
 ! A32   A(17,19,21)           109.4992         estimate D2E/DX2                !
 ! A33   A(17,19,22)           109.4994         estimate D2E/DX2                !
 ! A34   A(20,19,21)           109.4425         estimate D2E/DX2                !
 ! A35   A(20,19,22)           109.4467         estimate D2E/DX2                !
 ! A36   A(21,19,22)           109.4404         estimate D2E/DX2                !
 ! D1    D(1,2,5,6)              0.0045         estimate D2E/DX2                !
 ! D2    D(1,2,5,7)           -179.9929         estimate D2E/DX2                !
 ! D3    D(3,2,5,6)            120.5077         estimate D2E/DX2                !
 ! D4    D(3,2,5,7)            -59.4897         estimate D2E/DX2                !
 ! D5    D(4,2,5,6)           -120.5139         estimate D2E/DX2                !
 ! D6    D(4,2,5,7)             59.4887         estimate D2E/DX2                !
 ! D7    D(2,5,7,8)              0.0001         estimate D2E/DX2                !
 ! D8    D(2,5,7,9)            179.9972         estimate D2E/DX2                !
 ! D9    D(6,5,7,8)           -179.9972         estimate D2E/DX2                !
 ! D10   D(6,5,7,9)             -0.0002         estimate D2E/DX2                !
 ! D11   D(5,7,9,10)          -179.9995         estimate D2E/DX2                !
 ! D12   D(5,7,9,11)           -59.997          estimate D2E/DX2                !
 ! D13   D(5,7,9,15)            60.0006         Frozen                          !
 ! D14   D(8,7,9,10)            -0.0025         estimate D2E/DX2                !
 ! D15   D(8,7,9,11)           120.0001         estimate D2E/DX2                !
 ! D16   D(8,7,9,15)          -120.0023         estimate D2E/DX2                !
 ! D17   D(7,9,11,12)           60.0024         estimate D2E/DX2                !
 ! D18   D(7,9,11,13)          179.9986         estimate D2E/DX2                !
 ! D19   D(7,9,11,14)          -60.0038         estimate D2E/DX2                !
 ! D20   D(10,9,11,12)        -179.4843         estimate D2E/DX2                !
 ! D21   D(10,9,11,13)         -59.4881         estimate D2E/DX2                !
 ! D22   D(10,9,11,14)          60.5095         estimate D2E/DX2                !
 ! D23   D(15,9,11,12)         -61.938          estimate D2E/DX2                !
 ! D24   D(15,9,11,13)          58.0582         estimate D2E/DX2                !
 ! D25   D(15,9,11,14)         178.0558         estimate D2E/DX2                !
 ! D26   D(7,9,15,16)           75.0019         estimate D2E/DX2                !
 ! D27   D(7,9,15,17)         -105.0            Frozen                          !
 ! D28   D(10,9,15,16)         -45.5091         estimate D2E/DX2                !
 ! D29   D(10,9,15,17)         134.4889         estimate D2E/DX2                !
 ! D30   D(11,9,15,16)        -163.056          estimate D2E/DX2                !
 ! D31   D(11,9,15,17)          16.942          estimate D2E/DX2                !
 ! D32   D(9,15,17,18)           0.0049         estimate D2E/DX2                !
 ! D33   D(9,15,17,19)         179.9992         estimate D2E/DX2                !
 ! D34   D(16,15,17,18)       -179.9971         estimate D2E/DX2                !
 ! D35   D(16,15,17,19)         -0.0028         estimate D2E/DX2                !
 ! D36   D(15,17,19,20)          0.0032         estimate D2E/DX2                !
 ! D37   D(15,17,19,21)        120.0022         estimate D2E/DX2                !
 ! D38   D(15,17,19,22)       -120.0011         estimate D2E/DX2                !
 ! D39   D(18,17,19,20)        179.9976         estimate D2E/DX2                !
 ! D40   D(18,17,19,21)        -60.0033         estimate D2E/DX2                !
 ! D41   D(18,17,19,22)         59.9933         estimate D2E/DX2                !
 --------------------------------------------------------------------------------
 Trust Radius=3.00D-01 FncErr=1.00D-07 GrdErr=1.00D-07
 Number of steps in this run= 108 maximum allowed number of steps= 132.
 GradGradGradGradGradGradGradGradGradGradGradGradGradGradGradGradGradGrad

                          Input orientation:                          
 ---------------------------------------------------------------------
 Center     Atomic      Atomic             Coordinates (Angstroms)
 Number     Number       Type             X           Y           Z
 ---------------------------------------------------------------------
      1          1           0        0.687200    3.644600   -1.704700
      2          6           0        1.338300    3.422900   -0.859100
      3          1           0        1.537000    2.351700   -0.824000
      4          1           0        0.851700    3.732200    0.065800
      5          6           0        2.671500    4.163600   -0.981500
      6          8           0        2.893000    4.894300   -1.944600
      7          7           0        3.555400    3.969700    0.000000
      8          1           0        3.327300    3.359100    0.771600
      9          6           0        4.853300    4.613900    0.000000
     10          1           0        5.407600    4.315500    0.889800
     11          6           0        5.661300    4.220800   -1.232200
     12          1           0        5.123300    4.521400   -2.131200
     13          1           0        6.630500    4.718900   -1.205800
     14          1           0        5.808500    3.140900   -1.241400
     15          6           0        4.712700    6.129400    0.000000
     16          8           0        4.382200    6.725200    1.022900
     17          7           0        4.965100    6.753200   -1.153000
     18          1           0        5.233700    6.219700   -1.967500
     19          6           0        4.866300    8.193000   -1.282300
     20          1           0        4.569100    8.624600   -0.326500
     21          1           0        5.833500    8.598900   -1.578600
     22          1           0        4.121900    8.440100   -2.039200
 ---------------------------------------------------------------------
                    Distance matrix (angstroms):
                    1          2          3          4          5
     1  H    0.000000
     2  C    1.090010   0.000000
     3  H    1.780276   1.090038   0.000000
     4  H    1.780282   1.089902   1.779652   0.000000
     5  C    2.174816   1.530046   2.143567   2.143505   0.000000
     6  O    2.546538   2.400088   3.091811   3.091778   1.229043
     7  N    3.352352   2.439790   2.714929   2.714909   1.334998
     8  H    3.630937   2.572814   2.601147   2.601144   2.037315
     9  C    4.604556   3.809430   4.098094   4.098113   2.434412
    10  H    5.428049   4.518251   4.666387   4.666416   3.318295
    11  C    5.029606   4.411822   4.546429   5.005576   3.000838
    12  H    4.541989   4.141397   4.390663   4.867876   2.731511
    13  H    6.060185   5.459597   5.629667   5.998756   4.004042
    14  H    5.166824   4.495372   4.363802   5.160259   3.309718
    15  C    5.028408   4.410189   5.003505   4.545131   2.999035
    16  O    5.530183   4.869542   5.534772   4.726364   3.675039
    17  N    5.316784   4.932642   5.588677   5.247092   3.463530
    18  H    5.231717   4.921868   5.471253   5.433589   3.429958
    19  C    6.191223   5.948087   6.739070   6.150864   4.598227
    20  H    6.462893   6.146496   6.985013   6.156991   4.891874
    21  H    7.144606   6.893147   7.619504   7.155917   5.479659
    22  H    5.908119   5.857761   6.725105   6.106517   4.637978
                    6          7          8          9         10
     6  O    0.000000
     7  N    2.252804   0.000000
     8  H    3.150111   1.010064   0.000000
     9  C    2.775404   1.448978   2.120982   0.000000
    10  H    3.833020   2.083739   2.292667   1.089970   0.000000
    11  C    2.936767   2.452791   3.194573   1.525027   2.139209
    12  H    2.268945   2.702720   3.605940   2.150225   3.041326
    13  H    3.813856   3.386959   4.082928   2.150214   2.459625
    14  H    3.474053   2.702673   3.202520   2.150165   2.466256
    15  C    2.935685   2.450234   3.192062   1.522008   2.136554
    16  O    3.791565   3.053310   3.536466   2.392874   2.622178
    17  N    2.894087   3.326340   4.231594   2.432799   3.211109
    18  H    2.689997   3.427863   4.395459   2.567947   3.438078
    19  C    3.900510   4.604239   5.472990   3.801897   4.477279
    20  H    4.398033   4.775174   5.520270   4.033991   4.555306
    21  H    4.743897   5.395481   6.265779   4.396930   4.962046
    22  H    3.753910   4.946083   5.860763   4.396941   5.219616
                   11         12         13         14         15
    11  C    0.000000
    12  H    1.089957   0.000000
    13  H    1.090023   1.779613   0.000000
    14  H    1.089925   1.779613   1.779617   0.000000
    15  C    2.461892   2.701161   2.668599   3.416575   0.000000
    16  O    3.604663   3.918458   3.747959   4.473097   1.229037
    17  N    2.627550   2.441891   2.629586   3.710505   1.335006
    18  H    2.172351   1.709739   2.187153   3.215062   2.037315
    19  C    4.051285   3.777212   3.897130   5.139370   2.434406
    20  H    4.626732   4.516672   4.503002   5.695974   2.520565
    21  H    4.395157   4.175615   3.978516   5.468463   3.137929
    22  H    4.563277   4.045674   4.564533   5.618062   3.137948
                   16         17         18         19         20
    16  O    0.000000
    17  N    2.252798   0.000000
    18  H    3.150091   1.010039   0.000000
    19  C    2.775380   1.448967   2.120942   0.000000
    20  H    2.337420   2.083760   2.986322   1.090028   0.000000
    21  H    3.519208   2.083714   2.484270   1.089965   1.779641
    22  H    3.519246   2.083739   2.484234   1.089994   1.779710
                   21         22
    21  H    0.000000
    22  H    1.779591   0.000000
 Stoichiometry    C6H12N2O2
 Framework group  C1[X(C6H12N2O2)]
 Deg. of freedom    60
 Full point group                 C1      NOp   1
 Largest Abelian subgroup         C1      NOp   1
 Largest concise Abelian subgroup C1      NOp   1
                         Standard orientation:                         
 ---------------------------------------------------------------------
 Center     Atomic      Atomic             Coordinates (Angstroms)
 Number     Number       Type             X           Y           Z
 ---------------------------------------------------------------------
      1          1           0        3.364434   -1.823655   -0.349194
      2          6           0        3.114589   -0.943295    0.242976
      3          1           0        3.844981   -0.157043    0.051878
      4          1           0        3.127708   -1.201203    1.301842
      5          6           0        1.723590   -0.415686   -0.114502
      6          8           0        1.045183   -0.976494   -0.972292
      7          7           0        1.305610    0.665083    0.548408
      8          1           0        1.899797    1.091173    1.245271
      9          6           0        0.008046    1.260735    0.301294
     10          1           0       -0.123920    2.127170    0.949299
     11          6           0       -0.121148    1.712911   -1.149414
     12          1           0       -0.000442    0.854541   -1.810200
     13          1           0       -1.104662    2.155949   -1.306155
     14          1           0        0.649010    2.451894   -1.370088
     15          6           0       -1.112193    0.269084    0.580934
     16          8           0       -1.425110   -0.008959    1.736489
     17          7           0       -1.717032   -0.265095   -0.482582
     18          1           0       -1.424163   -0.005072   -1.413600
     19          6           0       -2.797423   -1.221356   -0.349078
     20          1           0       -2.997336   -1.399282    0.707585
     21          1           0       -3.694089   -0.826221   -0.826448
     22          1           0       -2.514717   -2.158896   -0.827809
 ---------------------------------------------------------------------
 Rotational constants (GHZ):      2.0506548      0.9064619      0.8605877
 Standard basis: 6-31G(d) (6D, 7F)
 There are   174 symmetry adapted basis functions of A   symmetry.
 Integral buffers will be    131072 words long.
 Raffenetti 1 integral format.
 Two-electron integral symmetry is turned on.
   174 basis functions,   328 primitive gaussians,   174 cartesian basis functions
    39 alpha electrons       39 beta electrons
       nuclear repulsion energy       575.3448732515 Hartrees.
 NAtoms=   22 NActive=   22 NUniq=   22 SFac= 7.50D-01 NAtFMM=   80 NAOKFM=F Big=F
 One-electron integrals computed using PRISM.
 NBasis=   174 RedAO= T  NBF=   174
 NBsUse=   174 1.00D-06 NBFU=   174
 Harris functional with IExCor=  205 diagonalized for initial guess.
 ExpMin= 1.61D-01 ExpMax= 5.48D+03 ExpMxC= 8.25D+02 IAcc=1 IRadAn=         1 AccDes= 0.00D+00
 HarFok:  IExCor=  205 AccDes= 0.00D+00 IRadAn=         1 IDoV= 1
 ScaDFX=  1.000000  1.000000  1.000000  1.000000
 FoFCou: FMM=F IPFlag=           0 FMFlag=      100000 FMFlg1=           0
         NFxFlg=           0 DoJE=T BraDBF=F KetDBF=T FulRan=T
         Omega=  0.000000  0.000000  1.000000  0.000000  0.000000 ICntrl=     500 IOpCl=  0
         NMat0=    1 NMatS0=    1 NMatT0=    0 NMatD0=    1 NMtDS0=    0 NMtDT0=    0
         I1Cent=           4 NGrid=           0.
 Petite list used in FoFCou.
 Initial guess orbital symmetries:
       Occupied  (A) (A) (A) (A) (A) (A) (A) (A) (A) (A) (A) (A)
                 (A) (A) (A) (A) (A) (A) (A) (A) (A) (A) (A) (A)
                 (A) (A) (A) (A) (A) (A) (A) (A) (A) (A) (A) (A)
                 (A) (A) (A)
       Virtual   (A) (A) (A) (A) (A) (A) (A) (A) (A) (A) (A) (A)
                 (A) (A) (A) (A) (A) (A) (A) (A) (A) (A) (A) (A)
                 (A) (A) (A) (A) (A) (A) (A) (A) (A) (A) (A) (A)
                 (A) (A) (A) (A) (A) (A) (A) (A) (A) (A) (A) (A)
                 (A) (A) (A) (A) (A) (A) (A) (A) (A) (A) (A) (A)
                 (A) (A) (A) (A) (A) (A) (A) (A) (A) (A) (A) (A)
                 (A) (A) (A) (A) (A) (A) (A) (A) (A) (A) (A) (A)
                 (A) (A) (A) (A) (A) (A) (A) (A) (A) (A) (A) (A)
                 (A) (A) (A) (A) (A) (A) (A) (A) (A) (A) (A) (A)
                 (A) (A) (A) (A) (A) (A) (A) (A) (A) (A) (A) (A)
                 (A) (A) (A) (A) (A) (A) (A) (A) (A) (A) (A) (A)
                 (A) (A) (A)
 The electronic state of the initial guess is 1-A.
 Requested convergence on RMS density matrix=1.00D-08 within 128 cycles.
 Requested convergence on MAX density matrix=1.00D-06.
 Requested convergence on             energy=1.00D-06.
 No special actions if energy rises.
 Integral accuracy reduced to 1.0D-05 until final iterations.
 Initial convergence to 1.0D-05 achieved.  Increase integral accuracy.
 SCF Done:  E(RHF) =  -492.833522439     A.U. after   15 cycles
             Convg  =    0.4897D-08             -V/T =  2.0019

 **********************************************************************

            Population analysis using the SCF density.

 **********************************************************************

 Orbital symmetries:
       Occupied  (A) (A) (A) (A) (A) (A) (A) (A) (A) (A) (A) (A)
                 (A) (A) (A) (A) (A) (A) (A) (A) (A) (A) (A) (A)
                 (A) (A) (A) (A) (A) (A) (A) (A) (A) (A) (A) (A)
                 (A) (A) (A)
       Virtual   (A) (A) (A) (A) (A) (A) (A) (A) (A) (A) (A) (A)
                 (A) (A) (A) (A) (A) (A) (A) (A) (A) (A) (A) (A)
                 (A) (A) (A) (A) (A) (A) (A) (A) (A) (A) (A) (A)
                 (A) (A) (A) (A) (A) (A) (A) (A) (A) (A) (A) (A)
                 (A) (A) (A) (A) (A) (A) (A) (A) (A) (A) (A) (A)
                 (A) (A) (A) (A) (A) (A) (A) (A) (A) (A) (A) (A)
                 (A) (A) (A) (A) (A) (A) (A) (A) (A) (A) (A) (A)
                 (A) (A) (A) (A) (A) (A) (A) (A) (A) (A) (A) (A)
                 (A) (A) (A) (A) (A) (A) (A) (A) (A) (A) (A) (A)
                 (A) (A) (A) (A) (A) (A) (A) (A) (A) (A) (A) (A)
                 (A) (A) (A) (A) (A) (A) (A) (A) (A) (A) (A) (A)
                 (A) (A) (A)
 The electronic state is 1-A.
 Alpha  occ. eigenvalues --  -20.52348 -20.50304 -15.60187 -15.57392 -11.35683
 Alpha  occ. eigenvalues --  -11.33456 -11.28605 -11.24611 -11.24022 -11.22405
 Alpha  occ. eigenvalues --   -1.38408  -1.35947  -1.24799  -1.21994  -1.06306
 Alpha  occ. eigenvalues --   -0.99399  -0.94103  -0.89102  -0.81095  -0.76874
 Alpha  occ. eigenvalues --   -0.72180  -0.70274  -0.64478  -0.63559  -0.62002
 Alpha  occ. eigenvalues --   -0.61024  -0.58693  -0.57469  -0.56705  -0.56021
 Alpha  occ. eigenvalues --   -0.54839  -0.54253  -0.51763  -0.51386  -0.50244
 Alpha  occ. eigenvalues --   -0.42192  -0.41717  -0.38346  -0.36544
 Alpha virt. eigenvalues --    0.18673   0.19418   0.22850   0.24796   0.25766
 Alpha virt. eigenvalues --    0.27705   0.29076   0.29937   0.30759   0.32005
 Alpha virt. eigenvalues --    0.32301   0.33500   0.34058   0.35978   0.38029
 Alpha virt. eigenvalues --    0.38819   0.39733   0.45364   0.46801   0.51220
 Alpha virt. eigenvalues --    0.53057   0.59090   0.63289   0.70455   0.71847
 Alpha virt. eigenvalues --    0.73807   0.75222   0.75676   0.77679   0.79558
 Alpha virt. eigenvalues --    0.81471   0.82090   0.83909   0.89636   0.91602
 Alpha virt. eigenvalues --    0.93064   0.93928   0.95187   0.97519   0.97758
 Alpha virt. eigenvalues --    1.00965   1.01422   1.04022   1.07173   1.07736
 Alpha virt. eigenvalues --    1.11771   1.12570   1.14416   1.14601   1.16209
 Alpha virt. eigenvalues --    1.16867   1.18106   1.18706   1.19205   1.20112
 Alpha virt. eigenvalues --    1.22077   1.23623   1.24191   1.25209   1.29388
 Alpha virt. eigenvalues --    1.33634   1.36198   1.40426   1.42379   1.44084
 Alpha virt. eigenvalues --    1.48663   1.51348   1.55064   1.57722   1.60980
 Alpha virt. eigenvalues --    1.63672   1.66882   1.71002   1.72646   1.76333
 Alpha virt. eigenvalues --    1.82467   1.83919   1.87232   1.96568   1.99858
 Alpha virt. eigenvalues --    2.02352   2.05159   2.08984   2.12618   2.12795
 Alpha virt. eigenvalues --    2.14834   2.16044   2.17624   2.20424   2.21327
 Alpha virt. eigenvalues --    2.24856   2.26917   2.32354   2.34958   2.35892
 Alpha virt. eigenvalues --    2.37810   2.40582   2.41286   2.48448   2.49475
 Alpha virt. eigenvalues --    2.53936   2.55259   2.60935   2.61413   2.64371
 Alpha virt. eigenvalues --    2.65478   2.68275   2.70945   2.73425   2.76584
 Alpha virt. eigenvalues --    2.79615   2.82549   2.84891   2.91771   2.99918
 Alpha virt. eigenvalues --    3.03509   3.04077   3.08030   3.12063   3.26302
 Alpha virt. eigenvalues --    3.31195   3.36020   3.39134   3.55789   3.56971
 Alpha virt. eigenvalues --    4.37499   4.42049   4.51286   4.60124   4.62352
 Alpha virt. eigenvalues --    4.71971   4.76408   4.82853   4.89503   5.14774
          Condensed to atoms (all electrons):
              1          2          3          4          5          6
     1  H    0.453247   0.385552  -0.018661  -0.017800  -0.030153   0.003536
     2  C    0.385552   5.253639   0.373242   0.375459   0.374730  -0.067626
     3  H   -0.018661   0.373242   0.517835  -0.023976  -0.035290   0.001250
     4  H   -0.017800   0.375459  -0.023976   0.503240  -0.034697   0.001120
     5  C   -0.030153   0.374730  -0.035290  -0.034697   4.188535   0.582770
     6  O    0.003536  -0.067626   0.001250   0.001120   0.582770   8.225063
     7  N    0.003736  -0.120540   0.003627   0.003523   0.248531  -0.105264
     8  H   -0.000015  -0.000759   0.000519   0.000433  -0.017812   0.002431
     9  C   -0.000071   0.004083  -0.000162  -0.000151  -0.028195   0.012407
    10  H    0.000001  -0.000024  -0.000002  -0.000003   0.003543   0.000187
    11  C    0.000005  -0.000399   0.000029   0.000003  -0.004665  -0.015058
    12  H    0.000003   0.000268  -0.000025  -0.000003   0.002071   0.008310
    13  H    0.000000   0.000007  -0.000001   0.000000   0.000184   0.000410
    14  H    0.000000  -0.000051   0.000005   0.000000  -0.000080  -0.000024
    15  C    0.000002  -0.000236   0.000008   0.000007  -0.003306   0.002495
    16  O    0.000000  -0.000021   0.000000   0.000003   0.000007  -0.000205
    17  N    0.000001   0.000008   0.000000   0.000003   0.003596  -0.009498
    18  H    0.000000   0.000003   0.000000   0.000000  -0.000198  -0.000116
    19  C    0.000000  -0.000001   0.000000   0.000000  -0.000042   0.000046
    20  H    0.000000   0.000000   0.000000   0.000000  -0.000008  -0.000012
    21  H    0.000000   0.000000   0.000000   0.000000   0.000003  -0.000006
    22  H    0.000000   0.000001   0.000000   0.000000  -0.000018   0.000304
              7          8          9         10         11         12
     1  H    0.003736  -0.000015  -0.000071   0.000001   0.000005   0.000003
     2  C   -0.120540  -0.000759   0.004083  -0.000024  -0.000399   0.000268
     3  H    0.003627   0.000519  -0.000162  -0.000002   0.000029  -0.000025
     4  H    0.003523   0.000433  -0.000151  -0.000003   0.000003  -0.000003
     5  C    0.248531  -0.017812  -0.028195   0.003543  -0.004665   0.002071
     6  O   -0.105264   0.002431   0.012407   0.000187  -0.015058   0.008310
     7  N    7.372776   0.328208   0.191636  -0.033961  -0.065220  -0.005742
     8  H    0.328208   0.312173  -0.023329  -0.003757   0.002458  -0.000139
     9  C    0.191636  -0.023329   5.061275   0.411013   0.316241  -0.026608
    10  H   -0.033961  -0.003757   0.411013   0.473797  -0.038244   0.003485
    11  C   -0.065220   0.002458   0.316241  -0.038244   5.273371   0.386655
    12  H   -0.005742  -0.000139  -0.026608   0.003485   0.386655   0.473739
    13  H    0.004629  -0.000073  -0.045081  -0.002577   0.387228  -0.027915
    14  H    0.001538   0.000157  -0.033573  -0.002914   0.384755  -0.020263
    15  C   -0.053064   0.002180   0.367008  -0.033299  -0.076383  -0.007153
    16  O    0.003864  -0.000036  -0.073848   0.001859   0.003172  -0.000064
    17  N    0.000409  -0.000121  -0.104655   0.002610  -0.010346  -0.005405
    18  H    0.000283  -0.000005  -0.003949   0.000030   0.000185   0.003297
    19  C   -0.000139   0.000002   0.004355  -0.000074  -0.000013   0.000225
    20  H   -0.000011   0.000000   0.000512  -0.000012  -0.000061  -0.000016
    21  H   -0.000002   0.000000  -0.000019   0.000010  -0.000030   0.000025
    22  H    0.000011   0.000000  -0.000179  -0.000002   0.000017  -0.000015
             13         14         15         16         17         18
     1  H    0.000000   0.000000   0.000002   0.000000   0.000001   0.000000
     2  C    0.000007  -0.000051  -0.000236  -0.000021   0.000008   0.000003
     3  H   -0.000001   0.000005   0.000008   0.000000   0.000000   0.000000
     4  H    0.000000   0.000000   0.000007   0.000003   0.000003   0.000000
     5  C    0.000184  -0.000080  -0.003306   0.000007   0.003596  -0.000198
     6  O    0.000410  -0.000024   0.002495  -0.000205  -0.009498  -0.000116
     7  N    0.004629   0.001538  -0.053064   0.003864   0.000409   0.000283
     8  H   -0.000073   0.000157   0.002180  -0.000036  -0.000121  -0.000005
     9  C   -0.045081  -0.033573   0.367008  -0.073848  -0.104655  -0.003949
    10  H   -0.002577  -0.002914  -0.033299   0.001859   0.002610   0.000030
    11  C    0.387228   0.384755  -0.076383   0.003172  -0.010346   0.000185
    12  H   -0.027915  -0.020263  -0.007153  -0.000064  -0.005405   0.003297
    13  H    0.528463  -0.019008   0.002973  -0.000057  -0.001996  -0.001386
    14  H   -0.019008   0.509527   0.004345  -0.000063   0.000513   0.000378
    15  C    0.002973   0.004345   4.159091   0.592415   0.293742  -0.012142
    16  O   -0.000057  -0.000063   0.592415   8.222982  -0.099696   0.002505
    17  N   -0.001996   0.000513   0.293742  -0.099696   7.314123   0.315903
    18  H   -0.001386   0.000378  -0.012142   0.002505   0.315903   0.308110
    19  C   -0.000103   0.000003  -0.026953  -0.005342   0.199494  -0.021810
    20  H   -0.000008   0.000001  -0.002029   0.011013  -0.032541   0.002296
    21  H   -0.000009  -0.000001   0.000407   0.000418  -0.048961  -0.000924
    22  H    0.000010   0.000000   0.001665   0.000411  -0.047891  -0.001040
             19         20         21         22
     1  H    0.000000   0.000000   0.000000   0.000000
     2  C   -0.000001   0.000000   0.000000   0.000001
     3  H    0.000000   0.000000   0.000000   0.000000
     4  H    0.000000   0.000000   0.000000   0.000000
     5  C   -0.000042  -0.000008   0.000003  -0.000018
     6  O    0.000046  -0.000012  -0.000006   0.000304
     7  N   -0.000139  -0.000011  -0.000002   0.000011
     8  H    0.000002   0.000000   0.000000   0.000000
     9  C    0.004355   0.000512  -0.000019  -0.000179
    10  H   -0.000074  -0.000012   0.000010  -0.000002
    11  C   -0.000013  -0.000061  -0.000030   0.000017
    12  H    0.000225  -0.000016   0.000025  -0.000015
    13  H   -0.000103  -0.000008  -0.000009   0.000010
    14  H    0.000003   0.000001  -0.000001   0.000000
    15  C   -0.026953  -0.002029   0.000407   0.001665
    16  O   -0.005342   0.011013   0.000418   0.000411
    17  N    0.199494  -0.032541  -0.048961  -0.047891
    18  H   -0.021810   0.002296  -0.000924  -0.001040
    19  C    4.938940   0.396869   0.402285   0.401464
    20  H    0.396869   0.440059  -0.023597  -0.022288
    21  H    0.402285  -0.023597   0.547899  -0.037709
    22  H    0.401464  -0.022288  -0.037709   0.528916
 Mulliken atomic charges:
              1
     1  H    0.220617
     2  C   -0.577338
     3  H    0.181604
     4  H    0.192838
     5  C    0.750495
     6  O   -0.642517
     7  N   -0.778827
     8  H    0.397487
     9  C   -0.028711
    10  H    0.218335
    11  C   -0.543700
    12  H    0.215271
    13  H    0.174307
    14  H    0.174755
    15  C    0.788226
    16  O   -0.659317
    17  N   -0.769291
    18  H    0.408581
    19  C   -0.289205
    20  H    0.229833
    21  H    0.160213
    22  H    0.176343
 Sum of Mulliken atomic charges =   0.00000
 Mulliken charges with hydrogens summed into heavy atoms:
              1
     2  C    0.017722
     5  C    0.750495
     6  O   -0.642517
     7  N   -0.381341
     9  C    0.189624
    11  C    0.020634
    15  C    0.788226
    16  O   -0.659317
    17  N   -0.360710
    19  C    0.277184
 Sum of Mulliken charges with hydrogens summed into heavy atoms =   0.00000
 Electronic spatial extent (au):  <R**2>=           1579.0659
 Charge=              0.0000 electrons
 Dipole moment (field-independent basis, Debye):
    X=              2.3541    Y=              2.5038    Z=             -1.2879  Tot=              3.6701
 Quadrupole moment (field-independent basis, Debye-Ang):
   XX=            -51.2405   YY=            -57.9110   ZZ=            -66.6499
   XY=              2.7156   XZ=             10.7887   YZ=             -0.1866
 Traceless Quadrupole moment (field-independent basis, Debye-Ang):
   XX=              7.3599   YY=              0.6895   ZZ=             -8.0494
   XY=              2.7156   XZ=             10.7887   YZ=             -0.1866
 Octapole moment (field-independent basis, Debye-Ang**2):
  XXX=             14.5416  YYY=              1.6563  ZZZ=            -10.7788  XYY=             -1.0798
  XXY=             -7.8216  XXZ=             -2.6550  XZZ=              8.4979  YZZ=              3.2752
  YYZ=              7.6591  XYZ=              0.0164
 Hexadecapole moment (field-independent basis, Debye-Ang**3):
 XXXX=          -1198.3631 YYYY=           -438.3367 ZZZZ=           -350.6820 XXXY=             11.1694
 XXXZ=             15.2754 YYYX=              4.2237 YYYZ=             12.8272 ZZZX=             30.3441
 ZZZY=              6.8535 XXYY=           -266.9000 XXZZ=           -272.7501 YYZZ=           -128.0207
 XXYZ=              4.4975 YYXZ=              2.5110 ZZXY=              7.4599
 N-N= 5.753448732515D+02 E-N=-2.306257363981D+03  KE= 4.919151444414D+02
 Calling FoFJK, ICntrl=      2127 FMM=F ISym2X=0 I1Cent= 0 IOpClX= 0 NMat=1 NMatS=1 NMatT=0.
 ***** Axes restored to original set *****
 -------------------------------------------------------------------
 Center     Atomic                   Forces (Hartrees/Bohr)
 Number     Number              X              Y              Z
 -------------------------------------------------------------------
      1        1           0.008076692    0.000696786    0.005065163
      2        6           0.008694627    0.001980424    0.004009488
      3        1          -0.004194041    0.002348440    0.001625212
      4        1          -0.000674898   -0.004152665   -0.002810551
      5        6          -0.020435786    0.021632962   -0.047234056
      6        8          -0.008354453   -0.025783118    0.032571871
      7        7           0.005010233   -0.012044944    0.022824230
      8        1           0.001401039    0.011297740   -0.011734271
      9        6           0.012756250    0.002053346   -0.019167230
     10        1          -0.009508229    0.004379508   -0.001990386
     11        6           0.006289553   -0.016508987   -0.002793661
     12        1           0.007541558   -0.013425325    0.005488464
     13        1          -0.001722191   -0.005749301   -0.000979668
     14        1           0.001553480    0.004014123   -0.002910390
     15        6          -0.017641566    0.028660012    0.041243138
     16        8           0.009696330   -0.021603682   -0.028994130
     17        7           0.012146889    0.006592453   -0.006082805
     18        1          -0.011311193    0.017186335    0.017032151
     19        6          -0.001156032    0.001158686   -0.000624597
     20        1           0.002757771   -0.005267137   -0.008231114
     21        1          -0.004339159    0.001377284    0.000598420
     22        1           0.003413124    0.001157058    0.003094722
 -------------------------------------------------------------------
 Cartesian Forces:  Max     0.047234056 RMS     0.013890336

 GradGradGradGradGradGradGradGradGradGradGradGradGradGradGradGradGradGrad
 Berny optimization.
 Internal  Forces:  Max     0.044060033 RMS     0.012513950
 Search for a local minimum.
 Step number   1 out of a maximum of  108
 All quantities printed in internal units (Hartrees-Bohrs-Radians)
 Mixed Optimization -- RFO/linear search
 Second derivative matrix not updated -- first step.
     Eigenvalues ---    0.00368   0.00435   0.00999   0.01044   0.01269
     Eigenvalues ---    0.01422   0.01660   0.02552   0.02552   0.03503
     Eigenvalues ---    0.05232   0.05841   0.05844   0.05844   0.07165
     Eigenvalues ---    0.07464   0.07686   0.07686   0.15421   0.16000
     Eigenvalues ---    0.16000   0.16000   0.16000   0.16000   0.16000
     Eigenvalues ---    0.16000   0.16000   0.16000   0.16000   0.16000
     Eigenvalues ---    0.16180   0.22000   0.22000   0.25000   0.25000
     Eigenvalues ---    0.25000   0.25000   0.29419   0.29887   0.30174
     Eigenvalues ---    0.34808   0.34809   0.34810   0.34812   0.34813
     Eigenvalues ---    0.34816   0.34817   0.34818   0.34821   0.34824
     Eigenvalues ---    0.38379   0.38381   0.45962   0.45966   0.58339
     Eigenvalues ---    0.58341   0.91486   0.914891000.000001000.00000
     Eigenvalues --- 1000.000001000.000001000.000001000.000001000.00000
     Eigenvalues --- 1000.000001000.000001000.000001000.000001000.00000
     Eigenvalues --- 1000.000001000.000001000.000001000.000001000.00000
     Eigenvalues --- 1000.000001000.000001000.000001000.000001000.00000
     Eigenvalues --- 1000.000001000.000001000.000001000.000001000.00000
     Eigenvalues --- 1000.000001000.000001000.000001000.000001000.00000
     Eigenvalues --- 1000.000001000.000001000.000001000.000001000.00000
     Eigenvalues --- 1000.000001000.000001000.00000
 RFO step:  Lambda=-5.07206875D-02 EMin= 3.68497635D-03
 Linear search not attempted -- first point.
 Maximum step size (   0.300) exceeded in Quadratic search.
    -- Step size scaled by   0.551
 Iteration  1 RMS(Cart)=  0.13225362 RMS(Int)=  0.00453538
 Iteration  2 RMS(Cart)=  0.00721231 RMS(Int)=  0.00038753
 Iteration  3 RMS(Cart)=  0.00002147 RMS(Int)=  0.00038716
 Iteration  4 RMS(Cart)=  0.00000001 RMS(Int)=  0.00038716
 Iteration  1 RMS(Cart)=  0.00012950 RMS(Int)=  0.00005818
 Iteration  2 RMS(Cart)=  0.00008629 RMS(Int)=  0.00006428
 Iteration  3 RMS(Cart)=  0.00005794 RMS(Int)=  0.00007386
 Iteration  4 RMS(Cart)=  0.00003909 RMS(Int)=  0.00008189
 Iteration  5 RMS(Cart)=  0.00002644 RMS(Int)=  0.00008782
 Iteration  6 RMS(Cart)=  0.00001791 RMS(Int)=  0.00009199
 Iteration  7 RMS(Cart)=  0.00001214 RMS(Int)=  0.00009489
 Iteration  8 RMS(Cart)=  0.00000823 RMS(Int)=  0.00009687
 Iteration  9 RMS(Cart)=  0.00000558 RMS(Int)=  0.00009822
 Iteration 10 RMS(Cart)=  0.00000379 RMS(Int)=  0.00009915
 Iteration 11 RMS(Cart)=  0.00000257 RMS(Int)=  0.00009977
 Iteration 12 RMS(Cart)=  0.00000174 RMS(Int)=  0.00010020
 Iteration 13 RMS(Cart)=  0.00000118 RMS(Int)=  0.00010049
 Iteration 14 RMS(Cart)=  0.00000080 RMS(Int)=  0.00010068
 Variable       Old X    -DE/DX   Delta X   Delta X   Delta X     New X
                                 (Linear)    (Quad)   (Total)
    R1        2.05982  -0.00861   0.00000  -0.01190  -0.01190   2.04792
    R2        2.05987  -0.00302   0.00000  -0.00417  -0.00417   2.05570
    R3        2.05962  -0.00326   0.00000  -0.00451  -0.00451   2.05511
    R4        2.89137  -0.01016   0.00000  -0.01623  -0.01623   2.87513
    R5        2.32255  -0.04236   0.00000  -0.02417  -0.02417   2.29838
    R6        2.52278   0.01568   0.00000   0.01363   0.01363   2.53641
    R7        1.90874  -0.01611   0.00000  -0.01739  -0.01739   1.89135
    R8        2.73817   0.01117   0.00000   0.01417   0.01417   2.75234
    R9        2.05975  -0.00766   0.00000  -0.01058  -0.01058   2.04917
   R10        2.88188   0.01637   0.00000   0.02580   0.02580   2.90768
   R11        2.87618   0.02973   0.00000   0.04647   0.04647   2.92265
   R12        2.05972  -0.01195   0.00000  -0.01651  -0.01651   2.04321
   R13        2.05984  -0.00418   0.00000  -0.00578  -0.00578   2.05407
   R14        2.05966  -0.00374   0.00000  -0.00517  -0.00517   2.05449
   R15        2.32254  -0.03721   0.00000  -0.02123  -0.02123   2.30131
   R16        2.52280   0.00566   0.00000   0.00492   0.00492   2.52772
   R17        1.90870  -0.02582   0.00000  -0.02787  -0.02787   1.88082
   R18        2.73815  -0.00115   0.00000  -0.00146  -0.00146   2.73669
   R19        2.05985  -0.01005   0.00000  -0.01389  -0.01389   2.04596
   R20        2.05974  -0.00350   0.00000  -0.00483  -0.00483   2.05490
   R21        2.05979  -0.00422   0.00000  -0.00583  -0.00583   2.05396
    A1        1.91107   0.00043   0.00000   0.00044   0.00051   1.91158
    A2        1.91126   0.00054   0.00000   0.00060   0.00066   1.91192
    A3        1.93902  -0.00806   0.00000  -0.02182  -0.02175   1.91727
    A4        1.91022  -0.00443   0.00000  -0.00999  -0.01014   1.90007
    A5        1.89597   0.00597   0.00000   0.01600   0.01596   1.91193
    A6        1.89603   0.00560   0.00000   0.01496   0.01492   1.91095
    A7        2.10312   0.00403   0.00000   0.00738   0.00738   2.11050
    A8        2.03509  -0.01040   0.00000  -0.01905  -0.01905   2.01603
    A9        2.14498   0.00637   0.00000   0.01167   0.01167   2.15665
   A10        2.09430  -0.01475   0.00000  -0.03084  -0.03125   2.06305
   A11        2.12762   0.02667   0.00000   0.05427   0.05386   2.18147
   A12        2.06127  -0.01192   0.00000  -0.02343  -0.02386   2.03741
   A13        1.91114   0.00144   0.00000  -0.01951  -0.02049   1.89065
   A14        1.93905  -0.00741   0.00000  -0.01050  -0.01254   1.92651
   A15        1.93900  -0.01293   0.00000  -0.00892  -0.01097   1.92804
   A16        1.89609  -0.00926   0.00000  -0.03213  -0.03161   1.86448
   A17        1.89608  -0.01572   0.00000  -0.03970  -0.03954   1.85654
   A18        1.88137   0.04406   0.00000   0.11082   0.11126   1.99263
   A19        1.91115   0.01026   0.00000   0.02900   0.02879   1.93993
   A20        1.91106   0.00281   0.00000   0.00944   0.00921   1.92027
   A21        1.91110   0.00129   0.00000  -0.00089  -0.00086   1.91024
   A22        1.91011  -0.00216   0.00000   0.00288   0.00244   1.91254
   A23        1.91023  -0.00794   0.00000  -0.02497  -0.02493   1.88530
   A24        1.91015  -0.00427   0.00000  -0.01550  -0.01547   1.89468
   A25        2.10312  -0.02542   0.00000  -0.04658  -0.04663   2.05649
   A26        2.03510   0.04136   0.00000   0.07578   0.07572   2.11082
   A27        2.14496  -0.01593   0.00000  -0.02919  -0.02925   2.11571
   A28        2.09432   0.00382   0.00000   0.01040   0.01034   2.10466
   A29        2.12761   0.00137   0.00000   0.00278   0.00273   2.13034
   A30        2.06125  -0.00519   0.00000  -0.01318  -0.01323   2.04803
   A31        1.91112  -0.00347   0.00000  -0.00972  -0.00970   1.90142
   A32        1.91112   0.00436   0.00000   0.01184   0.01182   1.92294
   A33        1.91113   0.00293   0.00000   0.00786   0.00783   1.91896
   A34        1.91013  -0.00073   0.00000  -0.00231  -0.00228   1.90785
   A35        1.91020  -0.00039   0.00000  -0.00191  -0.00190   1.90831
   A36        1.91010  -0.00270   0.00000  -0.00577  -0.00583   1.90426
    D1        0.00008  -0.00007   0.00000  -0.00044  -0.00044  -0.00036
    D2       -3.14147   0.00006   0.00000   0.00068   0.00068  -3.14079
    D3        2.10326  -0.00067   0.00000  -0.00306  -0.00315   2.10010
    D4       -1.03829  -0.00054   0.00000  -0.00195  -0.00204  -1.04033
    D5       -2.10336   0.00063   0.00000   0.00265   0.00274  -2.10062
    D6        1.03827   0.00076   0.00000   0.00377   0.00386   1.04213
    D7        0.00000  -0.00025   0.00000  -0.02606  -0.02580  -0.02580
    D8        3.14154   0.00085   0.00000   0.03020   0.02993  -3.11171
    D9       -3.14154  -0.00011   0.00000  -0.02492  -0.02465   3.11699
   D10        0.00000   0.00098   0.00000   0.03135   0.03108   0.03108
   D11       -3.14158  -0.00371   0.00000  -0.06771  -0.06736   3.07424
   D12       -1.04714  -0.01898   0.00000  -0.12700  -0.12607  -1.17321
   D13        1.04721   0.02308   0.00000   0.00000   0.00000   1.04721
   D14       -0.00004  -0.00264   0.00000  -0.01246  -0.01237  -0.01241
   D15        2.09440  -0.01791   0.00000  -0.07175  -0.07107   2.02332
   D16       -2.09444   0.02415   0.00000   0.05524   0.05499  -2.03944
   D17        1.04724   0.00188   0.00000   0.01066   0.01082   1.05806
   D18        3.14157   0.00725   0.00000   0.03777   0.03818  -3.10344
   D19       -1.04726   0.00452   0.00000   0.02402   0.02431  -1.02295
   D20       -3.13259  -0.00691   0.00000  -0.04076  -0.04060   3.10999
   D21       -1.03826  -0.00154   0.00000  -0.01366  -0.01324  -1.05151
   D22        1.05609  -0.00426   0.00000  -0.02740  -0.02711   1.02898
   D23       -1.08102  -0.00638   0.00000  -0.04437  -0.04507  -1.12609
   D24        1.01331  -0.00101   0.00000  -0.01726  -0.01771   0.99559
   D25        3.10766  -0.00374   0.00000  -0.03101  -0.03158   3.07608
   D26        1.30903  -0.00906   0.00000  -0.01904  -0.01920   1.28983
   D27       -1.83260  -0.01057   0.00000   0.00000   0.00000  -1.83260
   D28       -0.79428   0.00733   0.00000   0.03629   0.03594  -0.75835
   D29        2.34727   0.00581   0.00000   0.05534   0.05514   2.40241
   D30       -2.84586   0.00262   0.00000   0.03501   0.03585  -2.81001
   D31        0.29569   0.00111   0.00000   0.05405   0.05505   0.35075
   D32        0.00009   0.00326   0.00000   0.00930   0.00921   0.00930
   D33        3.14158   0.00092   0.00000  -0.00984  -0.01007   3.13151
   D34       -3.14154   0.00171   0.00000   0.02884   0.02907  -3.11247
   D35       -0.00005  -0.00063   0.00000   0.00970   0.00978   0.00973
   D36        0.00006   0.00106   0.00000   0.00930   0.00926   0.00931
   D37        2.09443   0.00071   0.00000   0.00778   0.00769   2.10212
   D38       -2.09441   0.00187   0.00000   0.01279   0.01277  -2.08164
   D39        3.14155  -0.00124   0.00000  -0.00949  -0.00943   3.13212
   D40       -1.04726  -0.00159   0.00000  -0.01101  -0.01100  -1.05825
   D41        1.04708  -0.00043   0.00000  -0.00600  -0.00592   1.04116
         Item               Value     Threshold  Converged?
 Maximum Force            0.042358     0.000450     NO 
 RMS     Force            0.012044     0.000300     NO 
 Maximum Displacement     0.509212     0.001800     NO 
 RMS     Displacement     0.131782     0.001200     NO 
 Predicted change in Energy=-2.253388D-02
 GradGradGradGradGradGradGradGradGradGradGradGradGradGradGradGradGradGrad

                          Input orientation:                          
 ---------------------------------------------------------------------
 Center     Atomic      Atomic             Coordinates (Angstroms)
 Number     Number       Type             X           Y           Z
 ---------------------------------------------------------------------
      1          1           0        0.641910    3.607580   -1.642713
      2          6           0        1.316702    3.417122   -0.816385
      3          1           0        1.502186    2.348135   -0.737413
      4          1           0        0.865098    3.765038    0.109738
      5          6           0        2.632227    4.146487   -1.044960
      6          8           0        2.807770    4.821346   -2.041465
      7          7           0        3.556161    3.986824   -0.084555
      8          1           0        3.318469    3.430355    0.712669
      9          6           0        4.869107    4.617233   -0.075643
     10          1           0        5.365149    4.358733    0.853325
     11          6           0        5.739196    4.059257   -1.215440
     12          1           0        5.289539    4.251937   -2.179661
     13          1           0        6.729880    4.505097   -1.179869
     14          1           0        5.839848    2.982873   -1.100344
     15          6           0        4.729536    6.157514   -0.081375
     16          8           0        4.372333    6.699808    0.948850
     17          7           0        4.972292    6.865952   -1.189701
     18          1           0        5.239914    6.410688   -2.033331
     19          6           0        4.837268    8.307391   -1.225638
     20          1           0        4.534556    8.656569   -0.246542
     21          1           0        5.785912    8.766385   -1.493695
     22          1           0        4.085348    8.591275   -1.957349
 ---------------------------------------------------------------------
                    Distance matrix (angstroms):
                    1          2          3          4          5
     1  H    0.000000
     2  C    1.083714   0.000000
     3  H    1.773653   1.087830   0.000000
     4  H    1.773610   1.087518   1.769508   0.000000
     5  C    2.146879   1.521455   2.146078   2.145128   0.000000
     6  O    2.514593   2.386618   3.085753   3.085034   1.216253
     7  N    3.326341   2.423905   2.707460   2.707168   1.342209
     8  H    3.569762   2.518978   2.563751   2.548444   2.018176
     9  C    4.619989   3.822113   4.113746   4.097888   2.482903
    10  H    5.394759   4.479340   4.636316   4.599549   3.334276
    11  C    5.135066   4.486651   4.594421   5.059594   3.112865
    12  H    4.722708   4.282391   4.477565   5.005407   2.891362
    13  H    6.171154   5.533381   5.672481   6.050326   4.115527
    14  H    5.263362   4.552808   4.398855   5.179210   3.412609
    15  C    5.064448   4.438178   5.035627   4.549104   3.061279
    16  O    5.494918   4.819643   5.478894   4.649481   3.677321
    17  N    5.438237   5.039557   5.714619   5.307848   3.590591
    18  H    5.399226   5.082715   5.670481   5.543576   3.592147
    19  C    6.313732   6.039587   6.846450   6.180157   4.712534
    20  H    6.526430   6.175040   7.016592   6.125271   4.959553
    21  H    7.286716   7.003370   7.753464   7.197144   5.611644
    22  H    6.065763   5.978216   6.865695   6.159174   4.764468
                    6          7          8          9         10
     6  O    0.000000
     7  N    2.255219   0.000000
     8  H    3.127446   1.000860   0.000000
     9  C    2.855736   1.456476   2.105847   0.000000
    10  H    3.890245   2.071321   2.251792   1.084372   0.000000
    11  C    3.139483   2.459632   3.158012   1.538678   2.123532
    12  H    2.550001   2.732097   3.595231   2.176487   3.035808
    13  H    4.028065   3.397177   4.046541   2.166649   2.453119
    14  H    3.668677   2.693505   3.137612   2.159510   2.436217
    15  C    3.052947   2.467532   3.171594   1.546601   2.124448
    16  O    3.862442   3.015683   3.443215   2.373496   2.544688
    17  N    3.096946   3.393546   4.261158   2.511674   3.257981
    18  H    2.905409   3.536647   4.484958   2.680769   3.543866
    19  C    4.115453   4.648721   5.463448   3.865329   4.493623
    20  H    4.573016   4.773889   5.450896   4.056768   4.513423
    21  H    4.973200   5.459090   6.279293   4.479605   5.011281
    22  H    3.981413   4.998837   5.861075   4.466330   5.239484
                   11         12         13         14         15
    11  C    0.000000
    12  H    1.081221   0.000000
    13  H    1.086965   1.771512   0.000000
    14  H    1.087190   1.754505   1.765119   0.000000
    15  C    2.590019   2.889227   2.817542   3.514176   0.000000
    16  O    3.677631   4.076876   3.860858   4.490924   1.217801
    17  N    2.909698   2.813138   2.943272   3.979817   1.337610
    18  H    2.539184   2.164275   2.565087   3.602818   2.033400
    19  C    4.342835   4.190635   4.247530   5.419535   2.437810
    20  H    4.850278   4.869059   4.788034   5.884182   2.512086
    21  H    4.715576   4.593167   4.375858   5.797123   3.149093
    22  H    4.881068   4.508809   4.928983   5.938594   3.139658
                   16         17         18         19         20
    16  O    0.000000
    17  N    2.227320   0.000000
    18  H    3.119245   0.995289   0.000000
    19  C    2.743882   1.448195   2.100470   0.000000
    20  H    2.298738   2.070621   2.955356   1.082677   0.000000
    21  H    3.497852   2.089506   2.477625   1.087407   1.770124
    22  H    3.479368   2.086311   2.468554   1.086911   1.770003
                   21         22
    21  H    0.000000
    22  H    1.771315   0.000000
 Stoichiometry    C6H12N2O2
 Framework group  C1[X(C6H12N2O2)]
 Deg. of freedom    60
 Full point group                 C1      NOp   1
 Largest Abelian subgroup         C1      NOp   1
 Largest concise Abelian subgroup C1      NOp   1
                         Standard orientation:                         
 ---------------------------------------------------------------------
 Center     Atomic      Atomic             Coordinates (Angstroms)
 Number     Number       Type             X           Y           Z
 ---------------------------------------------------------------------
      1          1           0        3.382655   -1.824149   -0.437986
      2          6           0        3.103888   -1.018525    0.231114
      3          1           0        3.854224   -0.232192    0.185824
      4          1           0        3.049409   -1.394336    1.250178
      5          6           0        1.750415   -0.454585   -0.174974
      6          8           0        1.144819   -0.907687   -1.127456
      7          7           0        1.294398    0.555612    0.582046
      8          1           0        1.849515    0.851243    1.360613
      9          6           0        0.012191    1.222268    0.400834
     10          1           0       -0.110795    1.947254    1.197786
     11          6           0       -0.001020    2.007996   -0.922036
     12          1           0        0.149295    1.351022   -1.767511
     13          1           0       -0.945656    2.534158   -1.032986
     14          1           0        0.803689    2.739023   -0.916918
     15          6           0       -1.148734    0.211100    0.548376
     16          8           0       -1.420134   -0.183452    1.668068
     17          7           0       -1.816234   -0.230819   -0.523236
     18          1           0       -1.570308    0.079227   -1.436467
     19          6           0       -2.898762   -1.186609   -0.414291
     20          1           0       -3.044175   -1.435512    0.629304
     21          1           0       -3.816315   -0.761201   -0.813764
     22          1           0       -2.654040   -2.088847   -0.968776
 ---------------------------------------------------------------------
 Rotational constants (GHZ):      1.9713599      0.8825192      0.8186666
 Standard basis: 6-31G(d) (6D, 7F)
 There are   174 symmetry adapted basis functions of A   symmetry.
 Integral buffers will be    131072 words long.
 Raffenetti 1 integral format.
 Two-electron integral symmetry is turned on.
   174 basis functions,   328 primitive gaussians,   174 cartesian basis functions
    39 alpha electrons       39 beta electrons
       nuclear repulsion energy       568.2081291034 Hartrees.
 NAtoms=   22 NActive=   22 NUniq=   22 SFac= 7.50D-01 NAtFMM=   80 NAOKFM=F Big=F
 One-electron integrals computed using PRISM.
 NBasis=   174 RedAO= T  NBF=   174
 NBsUse=   174 1.00D-06 NBFU=   174
 Initial guess read from the read-write file.
 B after Tr=     0.000000    0.000000    0.000000
         Rot=    1.000000    0.000000    0.000000    0.000000 Ang=   0.00 deg.
 Initial guess orbital symmetries:
       Occupied  (A) (A) (A) (A) (A) (A) (A) (A) (A) (A) (A) (A)
                 (A) (A) (A) (A) (A) (A) (A) (A) (A) (A) (A) (A)
                 (A) (A) (A) (A) (A) (A) (A) (A) (A) (A) (A) (A)
                 (A) (A) (A)
       Virtual   (A) (A) (A) (A) (A) (A) (A) (A) (A) (A) (A) (A)
                 (A) (A) (A) (A) (A) (A) (A) (A) (A) (A) (A) (A)
                 (A) (A) (A) (A) (A) (A) (A) (A) (A) (A) (A) (A)
                 (A) (A) (A) (A) (A) (A) (A) (A) (A) (A) (A) (A)
                 (A) (A) (A) (A) (A) (A) (A) (A) (A) (A) (A) (A)
                 (A) (A) (A) (A) (A) (A) (A) (A) (A) (A) (A) (A)
                 (A) (A) (A) (A) (A) (A) (A) (A) (A) (A) (A) (A)
                 (A) (A) (A) (A) (A) (A) (A) (A) (A) (A) (A) (A)
                 (A) (A) (A) (A) (A) (A) (A) (A) (A) (A) (A) (A)
                 (A) (A) (A) (A) (A) (A) (A) (A) (A) (A) (A) (A)
                 (A) (A) (A) (A) (A) (A) (A) (A) (A) (A) (A) (A)
                 (A) (A) (A)
 Harris functional with IExCor=  205 diagonalized for initial guess.
 ExpMin= 1.61D-01 ExpMax= 5.48D+03 ExpMxC= 8.25D+02 IAcc=1 IRadAn=         1 AccDes= 0.00D+00
 HarFok:  IExCor=  205 AccDes= 0.00D+00 IRadAn=         1 IDoV= 1
 ScaDFX=  1.000000  1.000000  1.000000  1.000000
 FoFCou: FMM=F IPFlag=           0 FMFlag=      100000 FMFlg1=           0
         NFxFlg=           0 DoJE=T BraDBF=F KetDBF=T FulRan=T
         Omega=  0.000000  0.000000  1.000000  0.000000  0.000000 ICntrl=     500 IOpCl=  0
         NMat0=    1 NMatS0=    1 NMatT0=    0 NMatD0=    1 NMtDS0=    0 NMtDT0=    0
         I1Cent=           4 NGrid=           0.
 Petite list used in FoFCou.
 Requested convergence on RMS density matrix=1.00D-08 within 128 cycles.
 Requested convergence on MAX density matrix=1.00D-06.
 Requested convergence on             energy=1.00D-06.
 No special actions if energy rises.
 Integral accuracy reduced to 1.0D-05 until final iterations.
 Initial convergence to 1.0D-05 achieved.  Increase integral accuracy.
 SCF Done:  E(RHF) =  -492.846896533     A.U. after   14 cycles
             Convg  =    0.5131D-08             -V/T =  2.0018
 Calling FoFJK, ICntrl=      2127 FMM=F ISym2X=0 I1Cent= 0 IOpClX= 0 NMat=1 NMatS=1 NMatT=0.
 ***** Axes restored to original set *****
 -------------------------------------------------------------------
 Center     Atomic                   Forces (Hartrees/Bohr)
 Number     Number              X              Y              Z
 -------------------------------------------------------------------
      1        1           0.003674780    0.000414458    0.001956250
      2        6           0.005163421    0.000486090    0.002854845
      3        1          -0.002461688    0.001195710    0.000947416
      4        1          -0.000688579   -0.002352007   -0.001346907
      5        6          -0.011727449    0.013129445   -0.029428728
      6        8           0.001351515   -0.012457122    0.019997594
      7        7           0.006233206   -0.005406008    0.018373930
      8        1           0.000237925    0.005851555   -0.004765884
      9        6           0.008682548    0.001070064   -0.025252693
     10        1          -0.007967648    0.004139753    0.000956742
     11        6          -0.000050050    0.000553947    0.004006451
     12        1           0.000852489   -0.001049324   -0.000358237
     13        1          -0.000336898   -0.001326162   -0.001244699
     14        1           0.000566575    0.002299475   -0.000123058
     15        6          -0.015822244    0.012345030    0.029501270
     16        8           0.006383866   -0.014132077   -0.012415917
     17        7           0.010876352   -0.003192433   -0.003588216
     18        1          -0.004963409   -0.001103545    0.003082432
     19        6          -0.000915037    0.000967354   -0.000551255
     20        1           0.001381848   -0.002072318   -0.004376395
     21        1          -0.002069122    0.000212474    0.000256261
     22        1           0.001597600    0.000425641    0.001518799
 -------------------------------------------------------------------
 Cartesian Forces:  Max     0.029501270 RMS     0.008676621

 GradGradGradGradGradGradGradGradGradGradGradGradGradGradGradGradGradGrad
 Berny optimization.
 Using GEDIIS/GDIIS optimizer.
 Internal  Forces:  Max     0.023101481 RMS     0.004502063
 Search for a local minimum.
 Step number   2 out of a maximum of  108
 All quantities printed in internal units (Hartrees-Bohrs-Radians)
 Mixed Optimization -- RFO/linear search
 Update second derivatives using D2CorX and points    1    2
 DE= -1.34D-02 DEPred=-2.25D-02 R= 5.94D-01
 SS=  1.41D+00  RLast= 3.00D-01 DXNew= 5.0454D-01 8.9975D-01
 Trust test= 5.94D-01 RLast= 3.00D-01 DXMaxT set to 5.05D-01
 Use linear search instead of GDIIS.
     Eigenvalues ---    0.00368   0.00437   0.01004   0.01044   0.01272
     Eigenvalues ---    0.01421   0.01670   0.02549   0.02552   0.03847
     Eigenvalues ---    0.05160   0.05671   0.05819   0.06035   0.07247
     Eigenvalues ---    0.07321   0.07589   0.07709   0.15728   0.15963
     Eigenvalues ---    0.15999   0.16000   0.16000   0.16000   0.16000
     Eigenvalues ---    0.16000   0.16000   0.16000   0.16013   0.17024
     Eigenvalues ---    0.17413   0.21831   0.22399   0.24566   0.24999
     Eigenvalues ---    0.25000   0.28791   0.29365   0.29941   0.34348
     Eigenvalues ---    0.34707   0.34808   0.34810   0.34811   0.34813
     Eigenvalues ---    0.34815   0.34817   0.34821   0.34824   0.37972
     Eigenvalues ---    0.38380   0.43986   0.45789   0.54606   0.58137
     Eigenvalues ---    0.58414   0.86538   0.915031000.000001000.00000
     Eigenvalues --- 1000.000001000.000001000.000001000.000001000.00000
     Eigenvalues --- 1000.000001000.000001000.000001000.000001000.00000
     Eigenvalues --- 1000.000001000.000001000.000001000.000001000.00000
     Eigenvalues --- 1000.000001000.000001000.000001000.000001000.00000
     Eigenvalues --- 1000.000001000.000001000.000001000.000001000.00000
     Eigenvalues --- 1000.000001000.000001000.000001000.000001000.00000
     Eigenvalues --- 1000.000001000.000001000.000001000.000001000.00000
     Eigenvalues --- 1000.000001000.000001000.00000
 RFO step:  Lambda=-9.32234460D-03 EMin= 3.68496556D-03
 Quartic linear search produced a step of  0.14749.
 Iteration  1 RMS(Cart)=  0.06878077 RMS(Int)=  0.00223453
 Iteration  2 RMS(Cart)=  0.00445780 RMS(Int)=  0.00066420
 Iteration  3 RMS(Cart)=  0.00000513 RMS(Int)=  0.00066419
 Iteration  4 RMS(Cart)=  0.00000000 RMS(Int)=  0.00066419
 Iteration  1 RMS(Cart)=  0.00022452 RMS(Int)=  0.00008825
 Iteration  2 RMS(Cart)=  0.00012156 RMS(Int)=  0.00009860
 Iteration  3 RMS(Cart)=  0.00006586 RMS(Int)=  0.00011126
 Iteration  4 RMS(Cart)=  0.00003571 RMS(Int)=  0.00011953
 Iteration  5 RMS(Cart)=  0.00001938 RMS(Int)=  0.00012433
 Iteration  6 RMS(Cart)=  0.00001054 RMS(Int)=  0.00012701
 Iteration  7 RMS(Cart)=  0.00000574 RMS(Int)=  0.00012848
 Iteration  8 RMS(Cart)=  0.00000314 RMS(Int)=  0.00012929
 Iteration  9 RMS(Cart)=  0.00000173 RMS(Int)=  0.00012972
 Iteration 10 RMS(Cart)=  0.00000096 RMS(Int)=  0.00012996
 Variable       Old X    -DE/DX   Delta X   Delta X   Delta X     New X
                                 (Linear)    (Quad)   (Total)
    R1        2.04792  -0.00371  -0.00175  -0.01062  -0.01237   2.03555
    R2        2.05570  -0.00153  -0.00062  -0.00444  -0.00505   2.05065
    R3        2.05511  -0.00161  -0.00066  -0.00468  -0.00535   2.04977
    R4        2.87513  -0.00413  -0.00239  -0.01394  -0.01634   2.85880
    R5        2.29838  -0.02310  -0.00356  -0.02571  -0.02928   2.26911
    R6        2.53641   0.00687   0.00201   0.01173   0.01374   2.55015
    R7        1.89135  -0.00711  -0.00257  -0.01544  -0.01800   1.87335
    R8        2.75234  -0.00203   0.00209  -0.00713  -0.00504   2.74730
    R9        2.04917  -0.00381  -0.00156  -0.01107  -0.01263   2.03654
   R10        2.90768  -0.00128   0.00380  -0.00692  -0.00311   2.90457
   R11        2.92265  -0.00625   0.00685  -0.02671  -0.01985   2.90280
   R12        2.04321  -0.00022  -0.00243   0.00078  -0.00165   2.04156
   R13        2.05407  -0.00089  -0.00085  -0.00229  -0.00314   2.05092
   R14        2.05449  -0.00224  -0.00076  -0.00659  -0.00735   2.04714
   R15        2.30131  -0.01867  -0.00313  -0.02061  -0.02374   2.27757
   R16        2.52772   0.00158   0.00073   0.00253   0.00325   2.53097
   R17        1.88082  -0.00344  -0.00411  -0.00564  -0.00975   1.87107
   R18        2.73669  -0.00039  -0.00021  -0.00097  -0.00119   2.73550
   R19        2.04596  -0.00501  -0.00205  -0.01456  -0.01661   2.02936
   R20        2.05490  -0.00178  -0.00071  -0.00517  -0.00589   2.04902
   R21        2.05396  -0.00202  -0.00086  -0.00583  -0.00669   2.04727
    A1        1.91158  -0.00005   0.00008  -0.00203  -0.00177   1.90981
    A2        1.91192   0.00004   0.00010  -0.00185  -0.00159   1.91033
    A3        1.91727  -0.00398  -0.00321  -0.02685  -0.02988   1.88739
    A4        1.90007  -0.00266  -0.00150  -0.01320  -0.01511   1.88496
    A5        1.91193   0.00348   0.00235   0.02306   0.02529   1.93723
    A6        1.91095   0.00319   0.00220   0.02104   0.02310   1.93405
    A7        2.11050   0.00667   0.00109   0.02839   0.02940   2.13990
    A8        2.01603  -0.00246  -0.00281  -0.00911  -0.01198   2.00405
    A9        2.15665  -0.00422   0.00172  -0.01930  -0.01764   2.13901
   A10        2.06305   0.00009  -0.00461   0.00007  -0.00605   2.05700
   A11        2.18147  -0.00121   0.00794  -0.01127  -0.00489   2.17659
   A12        2.03741   0.00109  -0.00352   0.00680   0.00166   2.03907
   A13        1.89065  -0.00333  -0.00302  -0.05540  -0.06012   1.83053
   A14        1.92651   0.00341  -0.00185   0.03931   0.03644   1.96295
   A15        1.92804  -0.00309  -0.00162  -0.00205  -0.00729   1.92074
   A16        1.86448   0.00198  -0.00466   0.03087   0.02798   1.89246
   A17        1.85654  -0.00430  -0.00583  -0.05600  -0.06338   1.79316
   A18        1.99263   0.00475   0.01641   0.03502   0.05091   2.04354
   A19        1.93993   0.00154   0.00425   0.01004   0.01415   1.95409
   A20        1.92027   0.00197   0.00136   0.01327   0.01449   1.93476
   A21        1.91024  -0.00028  -0.00013  -0.00437  -0.00446   1.90578
   A22        1.91254  -0.00140   0.00036  -0.00456  -0.00447   1.90807
   A23        1.88530  -0.00074  -0.00368  -0.00473  -0.00838   1.87693
   A24        1.89468  -0.00120  -0.00228  -0.01050  -0.01275   1.88193
   A25        2.05649  -0.00077  -0.00688   0.00066  -0.00640   2.05009
   A26        2.11082  -0.01374   0.01117  -0.06582  -0.05484   2.05598
   A27        2.11571   0.01454  -0.00431   0.06580   0.06128   2.17699
   A28        2.10466  -0.00512   0.00153  -0.03065  -0.03009   2.07458
   A29        2.13034   0.00526   0.00040   0.02534   0.02473   2.15507
   A30        2.04803  -0.00017  -0.00195   0.00397   0.00096   2.04899
   A31        1.90142  -0.00123  -0.00143  -0.00843  -0.00983   1.89160
   A32        1.92294   0.00152   0.00174   0.00998   0.01169   1.93463
   A33        1.91896   0.00131   0.00116   0.00845   0.00957   1.92853
   A34        1.90785  -0.00022  -0.00034  -0.00184  -0.00214   1.90571
   A35        1.90831  -0.00026  -0.00028  -0.00289  -0.00315   1.90516
   A36        1.90426  -0.00113  -0.00086  -0.00538  -0.00633   1.89793
    D1       -0.00036  -0.00018  -0.00006  -0.00652  -0.00670  -0.00706
    D2       -3.14079   0.00022   0.00010   0.01398   0.01421  -3.12658
    D3        2.10010  -0.00054  -0.00047  -0.01130  -0.01212   2.08798
    D4       -1.04033  -0.00014  -0.00030   0.00920   0.00878  -1.03155
    D5       -2.10062   0.00025   0.00040  -0.00072  -0.00021  -2.10083
    D6        1.04213   0.00065   0.00057   0.01977   0.02070   1.06283
    D7       -0.02580  -0.00007  -0.00380  -0.04539  -0.04865  -0.07444
    D8       -3.11171   0.00051   0.00441   0.05217   0.05642  -3.05529
    D9        3.11699   0.00034  -0.00364  -0.02432  -0.02779   3.08920
   D10        0.03108   0.00091   0.00458   0.07324   0.07728   0.10836
   D11        3.07424  -0.00281  -0.00994  -0.10048  -0.10943   2.96481
   D12       -1.17321  -0.00047  -0.01859  -0.07366  -0.09198  -1.26519
   D13        1.04721   0.00598   0.00000   0.00000   0.00000   1.04721
   D14       -0.01241  -0.00222  -0.00182  -0.00403  -0.00512  -0.01753
   D15        2.02332   0.00013  -0.01048   0.02279   0.01233   2.03565
   D16       -2.03944   0.00658   0.00811   0.09645   0.10431  -1.93513
   D17        1.05806   0.00063   0.00160   0.00053   0.00289   1.06095
   D18       -3.10344   0.00122   0.00563   0.01045   0.01701  -3.08643
   D19       -1.02295   0.00077   0.00359   0.00296   0.00739  -1.01556
   D20        3.10999  -0.00038  -0.00599  -0.02674  -0.03290   3.07710
   D21       -1.05151   0.00022  -0.00195  -0.01682  -0.01878  -1.07029
   D22        1.02898  -0.00024  -0.00400  -0.02431  -0.02840   1.00058
   D23       -1.12609  -0.00167  -0.00665  -0.05555  -0.06303  -1.18912
   D24        0.99559  -0.00107  -0.00261  -0.04562  -0.04891   0.94668
   D25        3.07608  -0.00152  -0.00466  -0.05312  -0.05853   3.01755
   D26        1.28983  -0.00360  -0.00283   0.03887   0.03577   1.32560
   D27       -1.83260  -0.00542   0.00000   0.00000   0.00000  -1.83259
   D28       -0.75835   0.00444   0.00530   0.13787   0.14186  -0.61649
   D29        2.40241   0.00261   0.00813   0.09900   0.10610   2.50851
   D30       -2.81001   0.00214   0.00529   0.11692   0.12243  -2.68758
   D31        0.35075   0.00031   0.00812   0.07804   0.08666   0.43741
   D32        0.00930   0.00288   0.00136   0.09843   0.09996   0.10926
   D33        3.13151   0.00105  -0.00149   0.01462   0.01422  -3.13746
   D34       -3.11247   0.00118   0.00429   0.05901   0.06222  -3.05025
   D35        0.00973  -0.00066   0.00144  -0.02479  -0.02352  -0.01379
   D36        0.00931   0.00091   0.00137   0.04319   0.04483   0.05415
   D37        2.10212   0.00080   0.00113   0.04176   0.04313   2.14525
   D38       -2.08164   0.00119   0.00188   0.04681   0.04901  -2.03263
   D39        3.13212  -0.00092  -0.00139  -0.03841  -0.04008   3.09205
   D40       -1.05825  -0.00103  -0.00162  -0.03984  -0.04178  -1.10004
   D41        1.04116  -0.00064  -0.00087  -0.03479  -0.03590   1.00527
         Item               Value     Threshold  Converged?
 Maximum Force            0.023101     0.000450     NO 
 RMS     Force            0.004388     0.000300     NO 
 Maximum Displacement     0.268676     0.001800     NO 
 RMS     Displacement     0.070049     0.001200     NO 
 Predicted change in Energy=-4.383806D-03
 GradGradGradGradGradGradGradGradGradGradGradGradGradGradGradGradGradGrad

                          Input orientation:                          
 ---------------------------------------------------------------------
 Center     Atomic      Atomic             Coordinates (Angstroms)
 Number     Number       Type             X           Y           Z
 ---------------------------------------------------------------------
      1          1           0        0.644126    3.685816   -1.624542
      2          6           0        1.310818    3.468565   -0.806857
      3          1           0        1.448101    2.394973   -0.728637
      4          1           0        0.870910    3.818703    0.120739
      5          6           0        2.626783    4.165209   -1.074285
      6          8           0        2.821491    4.824662   -2.058680
      7          7           0        3.574299    3.966544   -0.134156
      8          1           0        3.324543    3.447812    0.672865
      9          6           0        4.876544    4.612739   -0.121814
     10          1           0        5.294769    4.374191    0.842342
     11          6           0        5.815169    4.063515   -1.207999
     12          1           0        5.417007    4.215638   -2.200711
     13          1           0        6.795773    4.523584   -1.139958
     14          1           0        5.938753    2.996730   -1.065746
     15          6           0        4.707068    6.137749   -0.049635
     16          8           0        4.401508    6.613246    1.014855
     17          7           0        4.927715    6.844264   -1.165860
     18          1           0        5.097737    6.359746   -2.012436
     19          6           0        4.808601    8.285244   -1.235407
     20          1           0        4.577560    8.653707   -0.253525
     21          1           0        5.735812    8.733114   -1.575089
     22          1           0        4.015314    8.567851   -1.916962
 ---------------------------------------------------------------------
                    Distance matrix (angstroms):
                    1          2          3          4          5
     1  H    0.000000
     2  C    1.077166   0.000000
     3  H    1.765020   1.085157   0.000000
     4  H    1.764964   1.084689   1.755447   0.000000
     5  C    2.112707   1.512810   2.154646   2.152032   0.000000
     6  O    2.495269   2.384993   3.091699   3.092991   1.200759
     7  N    3.299390   2.413266   2.709974   2.719401   1.349480
     8  H    3.538271   2.499019   2.567822   2.542188   2.013470
     9  C    4.585928   3.806943   4.128067   4.090774   2.483728
    10  H    5.309224   4.405891   4.602405   4.516614   3.291699
    11  C    5.201524   4.561146   4.699479   5.125542   3.192808
    12  H    4.836639   4.400197   4.608041   5.119931   3.009440
    13  H    6.227314   5.595422   5.770422   6.098379   4.184880
    14  H    5.368442   4.659123   4.543315   5.269385   3.512059
    15  C    4.999981   4.385480   5.009020   4.485879   3.044406
    16  O    5.445566   4.770745   5.436562   4.590647   3.675192
    17  N    5.341846   4.960460   5.665251   5.221784   3.532705
    18  H    5.209128   4.914581   5.539622   5.373398   3.435365
    19  C    6.216834   5.968127   6.800373   6.106926   4.664866
    20  H    6.483173   6.153330   7.013629   6.103818   4.962438
    21  H    7.169583   6.919987   7.698894   7.120010   5.548208
    22  H    5.940092   5.877869   6.790222   6.049291   4.692694
                    6          7          8          9         10
     6  O    0.000000
     7  N    2.237606   0.000000
     8  H    3.100018   0.991334   0.000000
     9  C    2.831890   1.453809   2.096968   0.000000
    10  H    3.838744   2.019837   2.183733   1.077689   0.000000
    11  C    3.203921   2.486773   3.181187   1.537031   2.138045
    12  H    2.669792   2.779976   3.636674   2.184400   3.049631
    13  H    4.090185   3.420501   4.061164   2.174399   2.490953
    14  H    3.747609   2.720118   3.171803   2.151925   2.439860
    15  C    3.052189   2.450396   3.109524   1.536095   2.061832
    16  O    3.891285   3.001589   3.361069   2.349405   2.416825
    17  N    3.051572   3.343265   4.181740   2.464214   3.204507
    18  H    2.745891   3.402384   4.339864   2.583682   3.482960
    19  C    4.074556   4.624654   5.407835   3.838228   4.455304
    20  H    4.583006   4.794818   5.434114   4.054154   4.475441
    21  H    4.899297   5.428500   6.229119   4.452846   5.003868
    22  H    3.931508   4.954283   5.779201   4.428000   5.180497
                   11         12         13         14         15
    11  C    0.000000
    12  H    1.080348   0.000000
    13  H    1.085301   1.766641   0.000000
    14  H    1.083300   1.745308   1.752505   0.000000
    15  C    2.621478   2.970800   2.856051   3.523568   0.000000
    16  O    3.666149   4.137587   3.839585   4.446483   1.205240
    17  N    2.919232   2.867053   2.979239   3.979414   1.339331
    18  H    2.536633   2.175909   2.648780   3.593523   2.013578
    19  C    4.340153   4.226542   4.255355   5.410583   2.455219
    20  H    4.848976   4.918604   4.771179   5.874857   2.527526
[...]
    13  H    6.135440   5.588744   5.838278   6.138906   4.140489
    14  H    5.253247   4.724437   4.715944   5.474101   3.506394
    15  C    5.074912   4.338722   4.850584   4.401923   3.035642
    16  O    5.594949   4.744726   5.195915   4.560441   3.699834
    17  N    5.415580   4.904310   5.595685   5.013335   3.520524
    18  H    4.982216   4.632046   5.364516   4.906310   3.203457
    19  C    6.231623   5.779077   6.583137   5.668701   4.567201
    20  H    7.037079   6.470144   7.191467   6.288742   5.275592
    21  H    6.767575   6.450081   7.301696   6.421864   5.202514
    22  H    5.823706   5.414943   6.297259   5.141945   4.415938
                    6          7          8          9         10
     6  O    0.000000
     7  N    2.246058   0.000000
     8  H    3.097583   0.994533   0.000000
     9  C    2.814516   1.459967   2.096323   0.000000
    10  H    3.834636   2.032117   2.197805   1.080984   0.000000
    11  C    3.127924   2.479213   3.252552   1.527791   2.129178
    12  H    2.566205   2.764123   3.691446   2.180234   3.045606
    13  H    3.995310   3.411412   4.117180   2.158926   2.485538
    14  H    3.691284   2.721837   3.311095   2.142614   2.416269
    15  C    3.060904   2.463098   3.018390   1.538978   2.073886
    16  O    3.935839   3.041557   3.254796   2.366228   2.449567
    17  N    3.050269   3.363324   4.116935   2.475324   3.221072
    18  H    2.472275   3.297646   4.194768   2.591758   3.533684
    19  C    4.016780   4.575817   5.231496   3.820908   4.451442
    20  H    4.892384   5.057715   5.587608   4.154411   4.548253
    21  H    4.447828   5.332499   6.084018   4.540768   5.244417
    22  H    3.899956   4.633734   5.214450   4.197177   4.866903
                   11         12         13         14         15
    11  C    0.000000
    12  H    1.080801   0.000000
    13  H    1.084422   1.761108   0.000000
    14  H    1.084196   1.750051   1.758719   0.000000
    15  C    2.608893   2.968474   2.818413   3.512692   0.000000
    16  O    3.660745   4.138114   3.805747   4.445707   1.202384
    17  N    2.908359   2.868864   2.927506   3.972649   1.349095
    18  H    2.629529   2.238323   2.803446   3.675053   1.994439
    19  C    4.350380   4.249165   4.261631   5.418426   2.419658
    20  H    4.789821   4.898519   4.543276   5.828828   2.668293
    21  H    4.761786   4.489586   4.569584   5.844668   3.296893
    22  H    4.931958   4.763737   5.038473   5.958660   2.801622
                   16         17         18         19         20
    16  O    0.000000
    17  N    2.246469   0.000000
    18  H    3.069746   0.995292   0.000000
    19  C    2.743377   1.448602   2.092075   0.000000
    20  H    2.620297   2.075968   2.933194   1.079726   0.000000
    21  H    3.780799   2.066500   2.337317   1.082052   1.759949
    22  H    2.919342   2.111854   2.607888   1.085243   1.756272
                   21         22
    21  H    0.000000
    22  H    1.765531   0.000000
 Stoichiometry    C6H12N2O2
 Framework group  C1[X(C6H12N2O2)]
 Deg. of freedom    60
 Full point group                 C1      NOp   1
 Largest Abelian subgroup         C1      NOp   1
 Largest concise Abelian subgroup C1      NOp   1
                         Standard orientation:                         
 ---------------------------------------------------------------------
 Center     Atomic      Atomic             Coordinates (Angstroms)
 Number     Number       Type             X           Y           Z
 ---------------------------------------------------------------------
      1          1           0        3.484916   -1.573471   -0.538103
      2          6           0        2.988261   -1.105478    0.299397
      3          1           0        3.665537   -0.415357    0.788770
      4          1           0        2.712412   -1.877700    1.011124
      5          6           0        1.732525   -0.423190   -0.195292
      6          8           0        1.166451   -0.778691   -1.195919
      7          7           0        1.290036    0.606533    0.567787
      8          1           0        1.693639    0.705504    1.471338
      9          6           0       -0.013246    1.235964    0.376017
     10          1           0       -0.138391    1.894196    1.224307
     11          6           0       -0.062471    2.081945   -0.895217
     12          1           0        0.141993    1.499835   -1.782614
     13          1           0       -1.035497    2.549256   -0.999202
     14          1           0        0.686709    2.862922   -0.829746
     15          6           0       -1.139923    0.203928    0.560280
     16          8           0       -1.446179   -0.127472    1.674779
     17          7           0       -1.766211   -0.249040   -0.545451
     18          1           0       -1.234387   -0.220212   -1.386247
     19          6           0       -2.740453   -1.315123   -0.432460
     20          1           0       -3.481639   -1.049763    0.306482
     21          1           0       -3.227463   -1.441145   -1.390467
     22          1           0       -2.284946   -2.255484   -0.139222
 ---------------------------------------------------------------------
 Rotational constants (GHZ):      1.8749291      0.9223430      0.8435253

 **********************************************************************

            Population analysis using the SCF density.

 **********************************************************************

 Orbital symmetries:
       Occupied  (A) (A) (A) (A) (A) (A) (A) (A) (A) (A) (A) (A)
                 (A) (A) (A) (A) (A) (A) (A) (A) (A) (A) (A) (A)
                 (A) (A) (A) (A) (A) (A) (A) (A) (A) (A) (A) (A)
                 (A) (A) (A)
       Virtual   (A) (A) (A) (A) (A) (A) (A) (A) (A) (A) (A) (A)
                 (A) (A) (A) (A) (A) (A) (A) (A) (A) (A) (A) (A)
                 (A) (A) (A) (A) (A) (A) (A) (A) (A) (A) (A) (A)
                 (A) (A) (A) (A) (A) (A) (A) (A) (A) (A) (A) (A)
                 (A) (A) (A) (A) (A) (A) (A) (A) (A) (A) (A) (A)
                 (A) (A) (A) (A) (A) (A) (A) (A) (A) (A) (A) (A)
                 (A) (A) (A) (A) (A) (A) (A) (A) (A) (A) (A) (A)
                 (A) (A) (A) (A) (A) (A) (A) (A) (A) (A) (A) (A)
                 (A) (A) (A) (A) (A) (A) (A) (A) (A) (A) (A) (A)
                 (A) (A) (A) (A) (A) (A) (A) (A) (A) (A) (A) (A)
                 (A) (A) (A) (A) (A) (A) (A) (A) (A) (A) (A) (A)
                 (A) (A) (A)
 The electronic state is 1-A.
 Alpha  occ. eigenvalues --  -20.53412 -20.51890 -15.59432 -15.57273 -11.35821
 Alpha  occ. eigenvalues --  -11.33785 -11.28243 -11.24681 -11.23844 -11.22166
 Alpha  occ. eigenvalues --   -1.40278  -1.38544  -1.24497  -1.22304  -1.05709
 Alpha  occ. eigenvalues --   -0.99740  -0.94640  -0.88773  -0.80376  -0.76662
 Alpha  occ. eigenvalues --   -0.71982  -0.70178  -0.65222  -0.63904  -0.62516
 Alpha  occ. eigenvalues --   -0.61591  -0.59964  -0.58206  -0.57176  -0.56058
 Alpha  occ. eigenvalues --   -0.54673  -0.54154  -0.52402  -0.51696  -0.50815
 Alpha  occ. eigenvalues --   -0.43313  -0.42647  -0.39353  -0.37730
 Alpha virt. eigenvalues --    0.18702   0.19584   0.22239   0.24898   0.25846
 Alpha virt. eigenvalues --    0.27535   0.29589   0.29961   0.31080   0.32175
 Alpha virt. eigenvalues --    0.32824   0.33961   0.34140   0.35525   0.38717
 Alpha virt. eigenvalues --    0.39234   0.39796   0.45310   0.47274   0.49943
 Alpha virt. eigenvalues --    0.52536   0.59905   0.63637   0.69916   0.70596
 Alpha virt. eigenvalues --    0.73295   0.75463   0.76506   0.77307   0.78979
 Alpha virt. eigenvalues --    0.81306   0.81860   0.82639   0.88727   0.91207
 Alpha virt. eigenvalues --    0.92961   0.94320   0.94701   0.96638   1.00585
 Alpha virt. eigenvalues --    1.01671   1.02417   1.04354   1.04719   1.10167
 Alpha virt. eigenvalues --    1.11936   1.12791   1.13744   1.14973   1.16118
 Alpha virt. eigenvalues --    1.16782   1.17090   1.19109   1.20670   1.20758
 Alpha virt. eigenvalues --    1.22187   1.23251   1.24127   1.24956   1.28573
 Alpha virt. eigenvalues --    1.29780   1.34010   1.37818   1.38386   1.40491
 Alpha virt. eigenvalues --    1.46666   1.49185   1.51834   1.56177   1.61018
 Alpha virt. eigenvalues --    1.65599   1.66254   1.68054   1.71474   1.73415
 Alpha virt. eigenvalues --    1.77418   1.85340   1.89984   1.95731   1.98047
 Alpha virt. eigenvalues --    1.99308   2.04020   2.07527   2.11189   2.11196
 Alpha virt. eigenvalues --    2.14730   2.16833   2.19273   2.21245   2.22311
 Alpha virt. eigenvalues --    2.26159   2.26874   2.30834   2.32252   2.35147
 Alpha virt. eigenvalues --    2.36003   2.38659   2.42625   2.44668   2.50776
 Alpha virt. eigenvalues --    2.52775   2.56541   2.57306   2.61804   2.64629
 Alpha virt. eigenvalues --    2.68431   2.70105   2.72647   2.74257   2.75620
 Alpha virt. eigenvalues --    2.80145   2.83489   2.86744   2.93549   2.99253
 Alpha virt. eigenvalues --    3.02333   3.03723   3.07428   3.10610   3.27441
 Alpha virt. eigenvalues --    3.32560   3.38125   3.39848   3.53830   3.54822
 Alpha virt. eigenvalues --    4.37550   4.41842   4.49475   4.58847   4.62822
 Alpha virt. eigenvalues --    4.67143   4.77502   4.80949   4.89163   5.10613
          Condensed to atoms (all electrons):
              1          2          3          4          5          6
     1  H    0.462984   0.384255  -0.020902  -0.017375  -0.031695   0.002940
     2  C    0.384255   5.262906   0.376720   0.376143   0.373190  -0.070956
     3  H   -0.020902   0.376720   0.516279  -0.023615  -0.037240   0.002155
     4  H   -0.017375   0.376143  -0.023615   0.484822  -0.026574   0.000207
     5  C   -0.031695   0.373190  -0.037240  -0.026574   4.149993   0.595050
     6  O    0.002940  -0.070956   0.002155   0.000207   0.595050   8.184771
     7  N    0.003982  -0.117094   0.005335   0.000360   0.270094  -0.106066
     8  H    0.000065  -0.000132   0.000228   0.000020  -0.019495   0.002613
     9  C   -0.000091   0.004424   0.000081  -0.000225  -0.027573   0.011462
    10  H    0.000001  -0.000032  -0.000017   0.000002   0.003800   0.000146
    11  C    0.000011  -0.000230  -0.000007  -0.000003  -0.003188  -0.006401
    12  H    0.000000   0.000108  -0.000009   0.000000   0.002348   0.004713
    13  H    0.000000   0.000005   0.000000   0.000000   0.000065   0.000182
    14  H   -0.000001  -0.000021   0.000002   0.000000   0.000038   0.000005
    15  C   -0.000005  -0.000329   0.000012   0.000058  -0.003072   0.002072
    16  O    0.000000  -0.000041   0.000000   0.000007  -0.000065  -0.000034
    17  N    0.000001  -0.000002  -0.000001   0.000003   0.002660  -0.007268
    18  H    0.000000   0.000085  -0.000001  -0.000004  -0.000123   0.008818
    19  C    0.000000  -0.000001   0.000000   0.000001  -0.000090   0.000058
    20  H    0.000000   0.000000   0.000000   0.000000   0.000003  -0.000003
    21  H    0.000000   0.000000   0.000000   0.000000   0.000002  -0.000014
    22  H    0.000000   0.000001   0.000000  -0.000001  -0.000020   0.000167
              7          8          9         10         11         12
     1  H    0.003982   0.000065  -0.000091   0.000001   0.000011   0.000000
     2  C   -0.117094  -0.000132   0.004424  -0.000032  -0.000230   0.000108
     3  H    0.005335   0.000228   0.000081  -0.000017  -0.000007  -0.000009
     4  H    0.000360   0.000020  -0.000225   0.000002  -0.000003   0.000000
     5  C    0.270094  -0.019495  -0.027573   0.003800  -0.003188   0.002348
     6  O   -0.106066   0.002613   0.011462   0.000146  -0.006401   0.004713
     7  N    7.360515   0.329869   0.190950  -0.037955  -0.057119  -0.004155
     8  H    0.329869   0.319907  -0.026550  -0.004855   0.003384  -0.000095
     9  C    0.190950  -0.026550   5.053246   0.416779   0.322210  -0.027558
    10  H   -0.037955  -0.004855   0.416779   0.486097  -0.036405   0.003355
    11  C   -0.057119   0.003384   0.322210  -0.036405   5.152422   0.388295
    12  H   -0.004155  -0.000095  -0.027558   0.003355   0.388295   0.486287
    13  H    0.004004  -0.000072  -0.040737  -0.001751   0.389125  -0.024062
    14  H    0.000783  -0.000044  -0.034055  -0.004585   0.387911  -0.024253
    15  C   -0.057104   0.001782   0.382840  -0.046665  -0.053760  -0.003826
    16  O    0.003040   0.000641  -0.076147   0.004005   0.002659  -0.000027
    17  N    0.001802  -0.000062  -0.109195   0.003940   0.004968   0.000181
    18  H   -0.000439  -0.000020  -0.000137   0.000086  -0.001541   0.002252
    19  C   -0.000180   0.000003   0.004536  -0.000135  -0.000209  -0.000032
    20  H   -0.000007   0.000000   0.000127   0.000010  -0.000028  -0.000001
    21  H    0.000000   0.000000   0.000026   0.000002  -0.000024   0.000008
    22  H    0.000021   0.000000  -0.000302  -0.000008   0.000019  -0.000002
             13         14         15         16         17         18
     1  H    0.000000  -0.000001  -0.000005   0.000000   0.000001   0.000000
     2  C    0.000005  -0.000021  -0.000329  -0.000041  -0.000002   0.000085
     3  H    0.000000   0.000002   0.000012   0.000000  -0.000001  -0.000001
     4  H    0.000000   0.000000   0.000058   0.000007   0.000003  -0.000004
     5  C    0.000065   0.000038  -0.003072  -0.000065   0.002660  -0.000123
     6  O    0.000182   0.000005   0.002072  -0.000034  -0.007268   0.008818
     7  N    0.004004   0.000783  -0.057104   0.003040   0.001802  -0.000439
     8  H   -0.000072  -0.000044   0.001782   0.000641  -0.000062  -0.000020
     9  C   -0.040737  -0.034055   0.382840  -0.076147  -0.109195  -0.000137
    10  H   -0.001751  -0.004585  -0.046665   0.004005   0.003940   0.000086
    11  C    0.389125   0.387911  -0.053760   0.002659   0.004968  -0.001541
    12  H   -0.024062  -0.024253  -0.003826  -0.000027   0.000181   0.002252
    13  H    0.520306  -0.023831   0.000428  -0.000010   0.000437  -0.000156
    14  H   -0.023831   0.520101   0.003854  -0.000063   0.000012   0.000012
    15  C    0.000428   0.003854   4.187266   0.603737   0.285886  -0.018392
    16  O   -0.000010  -0.000063   0.603737   8.173483  -0.107610   0.002401
    17  N    0.000437   0.000012   0.285886  -0.107610   7.293840   0.316438
    18  H   -0.000156   0.000012  -0.018392   0.002401   0.316438   0.302897
    19  C   -0.000056   0.000005  -0.033426   0.007426   0.212505  -0.023472
    20  H   -0.000007   0.000000  -0.003927   0.003444  -0.037616   0.002725
    21  H   -0.000001   0.000000   0.004483   0.000392  -0.039123  -0.003801
    22  H    0.000003   0.000000  -0.002297   0.001777  -0.048659   0.000693
             19         20         21         22
     1  H    0.000000   0.000000   0.000000   0.000000
     2  C   -0.000001   0.000000   0.000000   0.000001
     3  H    0.000000   0.000000   0.000000   0.000000
     4  H    0.000001   0.000000   0.000000  -0.000001
     5  C   -0.000090   0.000003   0.000002  -0.000020
     6  O    0.000058  -0.000003  -0.000014   0.000167
     7  N   -0.000180  -0.000007   0.000000   0.000021
     8  H    0.000003   0.000000   0.000000   0.000000
     9  C    0.004536   0.000127   0.000026  -0.000302
    10  H   -0.000135   0.000010   0.000002  -0.000008
    11  C   -0.000209  -0.000028  -0.000024   0.000019
    12  H   -0.000032  -0.000001   0.000008  -0.000002
    13  H   -0.000056  -0.000007  -0.000001   0.000003
    14  H    0.000005   0.000000   0.000000   0.000000
    15  C   -0.033426  -0.003927   0.004483  -0.002297
    16  O    0.007426   0.003444   0.000392   0.001777
    17  N    0.212505  -0.037616  -0.039123  -0.048659
    18  H   -0.023472   0.002725  -0.003801   0.000693
    19  C    4.907280   0.403096   0.399042   0.403771
    20  H    0.403096   0.491429  -0.025049  -0.032552
    21  H    0.399042  -0.025049   0.528141  -0.032875
    22  H    0.403771  -0.032552  -0.032875   0.535353
 Mulliken atomic charges:
              1
     1  H    0.215832
     2  C   -0.588999
     3  H    0.180979
     4  H    0.206176
     5  C    0.751893
     6  O   -0.624617
     7  N   -0.790637
     8  H    0.392812
     9  C   -0.044109
    10  H    0.214185
    11  C   -0.492090
    12  H    0.196472
    13  H    0.176128
    14  H    0.174130
    15  C    0.750383
    16  O   -0.619015
    17  N   -0.773138
    18  H    0.411680
    19  C   -0.280123
    20  H    0.198355
    21  H    0.168791
    22  H    0.174911
 Sum of Mulliken atomic charges =   0.00000
 Mulliken charges with hydrogens summed into heavy atoms:
              1
     2  C    0.013988
     5  C    0.751893
     6  O   -0.624617
     7  N   -0.397825
     9  C    0.170076
    11  C    0.054640
    15  C    0.750383
    16  O   -0.619015
    17  N   -0.361457
    19  C    0.261933
 Sum of Mulliken charges with hydrogens summed into heavy atoms =   0.00000
 Electronic spatial extent (au):  <R**2>=           1603.5938
 Charge=              0.0000 electrons
 Dipole moment (field-independent basis, Debye):
    X=              2.1437    Y=              1.1488    Z=             -0.2501  Tot=              2.4449
 Quadrupole moment (field-independent basis, Debye-Ang):
   XX=            -54.3224   YY=            -57.6327   ZZ=            -65.8212
   XY=              0.9187   XZ=             10.5312   YZ=              0.4639
 Traceless Quadrupole moment (field-independent basis, Debye-Ang):
   XX=              4.9364   YY=              1.6260   ZZ=             -6.5624
   XY=              0.9187   XZ=             10.5312   YZ=              0.4639
 Octapole moment (field-independent basis, Debye-Ang**2):
  XXX=             12.4115  YYY=             -1.9629  ZZZ=             -6.4933  XYY=             -2.4582
  XXY=            -12.3501  XXZ=             -0.8992  XZZ=              8.2614  YZZ=              4.6992
  YYZ=              5.1600  XYZ=             -4.3874
 Hexadecapole moment (field-independent basis, Debye-Ang**3):
 XXXX=          -1164.2827 YYYY=           -513.2096 ZZZZ=           -337.2648 XXXY=              5.1496
 XXXZ=             10.2667 YYYX=             -0.7223 YYYZ=              4.3138 ZZZX=             31.7698
 ZZZY=              9.4947 XXYY=           -279.3780 XXZZ=           -264.8389 YYZZ=           -140.0101
 XXYZ=             10.5677 YYXZ=              2.4603 ZZXY=              6.6390
 N-N= 5.708571310308D+02 E-N=-2.297235005226D+03  KE= 4.921255432322D+02
 1\1\GINC-RODAN\FOpt\RHF\6-31G(d)\C6H12N2O2\STEBOSS\09-Feb-2017\0\\# HF
 /6-31G* Opt=(ModRedundant) geom=nocrowd\\Phi Psi fixed scan\\0,1\H,0.8
 439765134,3.4127559385,-1.8604812955\C,1.3279387312,3.56732961,-0.9070
 780424\H,1.3589437602,2.6348110967,-0.3558038242\H,0.7438790434,4.2833
 473691,-0.3368436112\C,2.7076227473,4.1389006074,-1.1455848438\O,2.976
 9798178,4.758518163,-2.1413737673\N,3.6110580085,3.9099766076,-0.16079
 37714\H,3.2593847153,3.5695400063,0.7049566717\C,4.9147712492,4.565102
 1716,-0.1093661804\H,5.3232794585,4.3092700538,0.8582070284\C,5.866140
 7776,4.0389656099,-1.1827815324\H,5.4777315596,4.1839885206,-2.1808985
 835\H,6.8292777801,4.5314457296,-1.1066096513\H,6.0133795273,2.9751055
 133,-1.0344425856\C,4.7449674663,6.0925508555,-0.0286243363\O,4.437228
 225,6.5869956058,1.0233015617\N,4.9963809723,6.8139058023,-1.140602671
 1\H,4.8779496577,6.333189954,-2.0040215591\C,4.7243669084,8.2367107193
 ,-1.1497398101\H,5.2169664936,8.7036465171,-0.3100225364\H,5.115996037
 2,8.6575142887,-2.0664666471\H,3.6621805501,8.4500292599,-1.0864300124
 \\Version=EM64L-G09RevA.02\State=1-A\HF=-492.8540822\RMSD=5.045e-09\RM
 SF=5.013e-04\Dipole=-0.1300326,-0.9493636,-0.0839941\Quadrupole=3.0144
 753,2.829844,-5.8443193,2.1947268,-2.9087056,-6.5080142\PG=C01 [X(C6H1
 2N2O2)]\\@


 The most important thing in communication is to hear what isn't being said.
 -- Peter F. Drucker
 Job cpu time:  0 days  0 hours 19 minutes 24.9 seconds.
 File lengths (MBytes):  RWF=     25 Int=      0 D2E=      0 Chk=      3 Scr=      1
 Normal termination of Gaussian 09 at Thu Feb  9 18:55:52 2017.
