 Entering Gaussian System, Link 0=g09
 Initial command:
 /home/steboss/Software/g09/l1.exe /home/steboss/projects/phi_psi_scan/alanine/MP2/105/5182/Gau-15409.inp -scrdir=/home/steboss/projects/phi_psi_scan/alanine/MP2/105/5182/
 Entering Link 1 = /home/steboss/Software/g09/l1.exe PID=     15420.
  
 Copyright (c) 1988,1990,1992,1993,1995,1998,2003,2009, Gaussian, Inc.
                  All Rights Reserved.
  
 This is part of the Gaussian(R) 09 program.  It is based on
 the Gaussian(R) 03 system (copyright 2003, Gaussian, Inc.),
 the Gaussian(R) 98 system (copyright 1998, Gaussian, Inc.),
 the Gaussian(R) 94 system (copyright 1995, Gaussian, Inc.),
 the Gaussian 92(TM) system (copyright 1992, Gaussian, Inc.),
 the Gaussian 90(TM) system (copyright 1990, Gaussian, Inc.),
 the Gaussian 88(TM) system (copyright 1988, Gaussian, Inc.),
 the Gaussian 86(TM) system (copyright 1986, Carnegie Mellon
 University), and the Gaussian 82(TM) system (copyright 1983,
 Carnegie Mellon University). Gaussian is a federally registered
 trademark of Gaussian, Inc.
  
 This software contains proprietary and confidential information,
 including trade secrets, belonging to Gaussian, Inc.
  
 This software is provided under written license and may be
 used, copied, transmitted, or stored only in accord with that
 written license.
  
 The following legend is applicable only to US Government
 contracts under FAR:
  
                    RESTRICTED RIGHTS LEGEND
  
 Use, reproduction and disclosure by the US Government is
 subject to restrictions as set forth in subparagraphs (a)
 and (c) of the Commercial Computer Software - Restricted
 Rights clause in FAR 52.227-19.
  
 Gaussian, Inc.
 340 Quinnipiac St., Bldg. 40, Wallingford CT 06492
  
  
 ---------------------------------------------------------------
 Warning -- This program may not be used in any manner that
 competes with the business of Gaussian, Inc. or will provide
 assistance to any competitor of Gaussian, Inc.  The licensee
 of this program is prohibited from giving any competitor of
 Gaussian, Inc. access to this program.  By using this program,
 the user acknowledges that Gaussian, Inc. is engaged in the
 business of creating and licensing software in the field of
 computational chemistry and represents and warrants to the
 licensee that it is not a competitor of Gaussian, Inc. and that
 it will not use this program in any manner prohibited above.
 ---------------------------------------------------------------
  

 Cite this work as:
 Gaussian 09, Revision A.02,
 M. J. Frisch, G. W. Trucks, H. B. Schlegel, G. E. Scuseria, 
 M. A. Robb, J. R. Cheeseman, G. Scalmani, V. Barone, B. Mennucci, 
 G. A. Petersson, H. Nakatsuji, M. Caricato, X. Li, H. P. Hratchian, 
 A. F. Izmaylov, J. Bloino, G. Zheng, J. L. Sonnenberg, M. Hada, 
 M. Ehara, K. Toyota, R. Fukuda, J. Hasegawa, M. Ishida, T. Nakajima, 
 Y. Honda, O. Kitao, H. Nakai, T. Vreven, J. A. Montgomery, Jr., 
 J. E. Peralta, F. Ogliaro, M. Bearpark, J. J. Heyd, E. Brothers, 
 K. N. Kudin, V. N. Staroverov, R. Kobayashi, J. Normand, 
 K. Raghavachari, A. Rendell, J. C. Burant, S. S. Iyengar, J. Tomasi, 
 M. Cossi, N. Rega, J. M. Millam, M. Klene, J. E. Knox, J. B. Cross, 
 V. Bakken, C. Adamo, J. Jaramillo, R. Gomperts, R. E. Stratmann, 
 O. Yazyev, A. J. Austin, R. Cammi, C. Pomelli, J. W. Ochterski, 
 R. L. Martin, K. Morokuma, V. G. Zakrzewski, G. A. Voth, 
 P. Salvador, J. J. Dannenberg, S. Dapprich, A. D. Daniels, 
 O. Farkas, J. B. Foresman, J. V. Ortiz, J. Cioslowski, 
 and D. J. Fox, Gaussian, Inc., Wallingford CT, 2009.
 
 ******************************************
 Gaussian 09:  EM64L-G09RevA.02 11-Jun-2009
                12-Feb-2017 
 ******************************************
 %chk=structure_105.chk
 %NProcShared=8
 Will use up to    8 processors via shared memory.
 -------------------
 #SP MP2/aug-cc-pVDZ
 -------------------
 1/38=1/1;
 2/12=2,17=6,18=5,40=1/2;
 3/5=16,7=10,11=9,16=1,25=1,30=1/1,2,3;
 4//1;
 5/5=2,38=5/2;
 8/10=1/1;
 9/16=-3/6;
 6/7=2,8=2,9=2,10=2/1;
 99/5=1,9=1/99;
 -------------------------------
 Single Point calculation at MP2
 -------------------------------
 Symbolic Z-matrix:
 Charge =  0 Multiplicity = 1
 H                    -3.9835   -1.3986   -0.0422 
 C                    -2.913    -1.6131   -0.0263 
 H                    -2.6573   -2.2444   -0.8842 
 H                    -2.6957   -2.1727    0.8911 
 C                    -2.1553   -0.2878    0.0084 
 O                    -2.6034    0.6868    0.591 
 N                    -0.9578   -0.32     -0.6704 
 H                    -0.6924   -1.2228   -1.0408 
 C                     0.1248    0.6703   -0.6795 
 H                     0.4608    0.7441   -1.7255 
 C                    -0.2626    2.0725   -0.2059 
 H                    -0.5068    2.0698    0.855 
 H                     0.5924    2.7377   -0.376 
 H                    -1.1221    2.4522   -0.7612 
 C                     1.2897    0.1252    0.1812 
 O                     1.2207    0.0672    1.4005 
 N                     2.3619   -0.3349   -0.5355 
 H                     2.3829   -0.1684   -1.5315 
 C                     3.5615   -0.8497    0.1032 
 H                     3.3317   -0.9859    1.1609 
 H                     3.8509   -1.8118   -0.3335 
 H                     4.4021   -0.1508    0.0099 
 
                          Input orientation:                          
 ---------------------------------------------------------------------
 Center     Atomic      Atomic             Coordinates (Angstroms)
 Number     Number       Type             X           Y           Z
 ---------------------------------------------------------------------
      1          1           0       -3.983500   -1.398600   -0.042200
      2          6           0       -2.913000   -1.613100   -0.026300
      3          1           0       -2.657300   -2.244400   -0.884200
      4          1           0       -2.695700   -2.172700    0.891100
      5          6           0       -2.155300   -0.287800    0.008400
      6          8           0       -2.603400    0.686800    0.591000
      7          7           0       -0.957800   -0.320000   -0.670400
      8          1           0       -0.692400   -1.222800   -1.040800
      9          6           0        0.124800    0.670300   -0.679500
     10          1           0        0.460800    0.744100   -1.725500
     11          6           0       -0.262600    2.072500   -0.205900
     12          1           0       -0.506800    2.069800    0.855000
     13          1           0        0.592400    2.737700   -0.376000
     14          1           0       -1.122100    2.452200   -0.761200
     15          6           0        1.289700    0.125200    0.181200
     16          8           0        1.220700    0.067200    1.400500
     17          7           0        2.361900   -0.334900   -0.535500
     18          1           0        2.382900   -0.168400   -1.531500
     19          6           0        3.561500   -0.849700    0.103200
     20          1           0        3.331700   -0.985900    1.160900
     21          1           0        3.850900   -1.811800   -0.333500
     22          1           0        4.402100   -0.150800    0.009900
 ---------------------------------------------------------------------
                    Distance matrix (angstroms):
                    1          2          3          4          5
     1  H    0.000000
     2  C    1.091894   0.000000
     3  H    1.784138   1.095406   0.000000
     4  H    1.768816   1.096355   1.777162   0.000000
     5  C    2.139802   1.527001   2.208398   2.150358   0.000000
     6  O    2.579634   2.401344   3.281928   2.876686   1.220681
     7  N    3.273053   2.431004   2.576301   2.981791   1.376885
     8  H    3.443755   2.472369   2.220140   2.940707   2.028576
     9  C    4.643773   3.856010   4.034533   4.301704   2.567103
    10  H    5.213105   4.452662   4.400167   5.031681   3.303817
    11  C    5.091211   4.543184   4.983002   5.014490   3.033027
    12  H    4.992215   4.486674   5.124626   4.774033   2.998760
    13  H    6.177318   5.598176   5.969936   6.043937   4.105030
    14  H    4.851106   4.502673   4.942673   5.157132   3.027769
    15  C    5.493497   4.552739   4.725346   4.654859   3.473968
    16  O    5.595860   4.684724   5.059865   4.540356   3.668970
    17  N    6.452821   5.451390   5.381464   5.567047   4.550070
    18  H    6.653003   5.692042   5.489298   5.973139   4.793830
    19  C    7.566337   6.520636   6.449312   6.443886   5.745130
    20  H    7.424953   6.387417   6.452471   6.149052   5.650024
    21  H    7.850695   6.773787   6.545768   6.669922   6.205958
    22  H    8.478090   7.459914   7.417392   7.432588   6.558831
                    6          7          8          9         10
     6  O    0.000000
     7  N    2.304946   0.000000
     8  H    3.156147   1.011277   0.000000
     9  C    3.009571   1.467242   2.093366   0.000000
    10  H    3.841715   2.063485   2.380626   1.101117   0.000000
    11  C    2.834530   2.534387   3.426483   1.529883   2.144094
    12  H    2.525493   2.870782   3.803908   2.170762   3.058220
    13  H    3.918471   3.440831   4.216424   2.141239   2.410998
    14  H    2.671953   2.778549   3.710585   2.176374   2.520526
    15  C    3.954688   2.444316   2.690559   1.547556   2.169243
    16  O    3.957643   3.030580   3.359166   2.427164   3.287479
    17  N    5.192983   3.322473   3.220628   2.456782   2.488880
    18  H    5.486307   3.453223   3.287859   2.555061   2.136530
    19  C    6.372187   4.615529   4.420815   3.838480   3.936837
    20  H    6.192586   4.711358   4.593145   4.051454   4.423378
    21  H    6.982528   5.046044   4.635598   4.490474   4.468005
    22  H    7.079285   5.405549   5.311034   4.409623   4.398443
                   11         12         13         14         15
    11  C    0.000000
    12  H    1.088646   0.000000
    13  H    1.096563   1.780363   0.000000
    14  H    1.091453   1.771137   1.780281   0.000000
    15  C    2.520210   2.731829   2.760771   3.481354   0.000000
    16  O    2.966804   2.700414   3.268376   3.981191   1.222627
    17  N    3.576620   3.993183   3.549287   4.467340   1.369293
    18  H    3.711808   4.365236   3.603677   4.443639   2.052956
    19  C    4.822710   5.063571   4.681306   5.795329   2.473376
    20  H    4.913344   4.915787   4.871450   5.945699   2.522721
    21  H    5.659059   5.955577   5.596211   6.564705   3.252173
    22  H    5.171949   5.453674   4.796474   6.155241   3.129306
                   16         17         18         19         20
    16  O    0.000000
    17  N    2.283006   0.000000
    18  H    3.162727   1.010039   0.000000
    19  C    2.828964   1.453271   2.127325   0.000000
    20  H    2.371234   2.059632   2.969435   1.090911   0.000000
    21  H    3.668153   2.106931   2.508185   1.095489   1.784632
    22  H    3.478879   2.119851   2.540353   1.097167   1.779873
                   21         22
    21  H    0.000000
    22  H    1.783442   0.000000
 Stoichiometry    C6H12N2O2
 Framework group  C1[X(C6H12N2O2)]
 Deg. of freedom    60
 Full point group                 C1      NOp   1
 Largest Abelian subgroup         C1      NOp   1
 Largest concise Abelian subgroup C1      NOp   1
                         Standard orientation:                         
 ---------------------------------------------------------------------
 Center     Atomic      Atomic             Coordinates (Angstroms)
 Number     Number       Type             X           Y           Z
 ---------------------------------------------------------------------
      1          1           0       -3.983511   -1.398601   -0.042191
      2          6           0       -2.913011   -1.613102   -0.026291
      3          1           0       -2.657312   -2.244403   -0.884191
      4          1           0       -2.695712   -2.172703    0.891109
      5          6           0       -2.155309   -0.287803    0.008409
      6          8           0       -2.603408    0.686797    0.591009
      7          7           0       -0.957809   -0.320005   -0.670391
      8          1           0       -0.692411   -1.222805   -1.040791
      9          6           0        0.124792    0.670293   -0.679491
     10          1           0        0.460792    0.744093   -1.725491
     11          6           0       -0.262606    2.072494   -0.205891
     12          1           0       -0.506806    2.069794    0.855009
     13          1           0        0.592395    2.737693   -0.375991
     14          1           0       -1.122105    2.452195   -0.761191
     15          6           0        1.289691    0.125192    0.181209
     16          8           0        1.220691    0.067192    1.400509
     17          7           0        2.361891   -0.334910   -0.535491
     18          1           0        2.382891   -0.168410   -1.531491
     19          6           0        3.561490   -0.849712    0.103209
     20          1           0        3.331690   -0.985911    1.160909
     21          1           0        3.850888   -1.811812   -0.333491
     22          1           0        4.402091   -0.150813    0.009909
 ---------------------------------------------------------------------
 Rotational constants (GHZ):      2.4132613      0.7188436      0.6454059
 Standard basis: Aug-CC-pVDZ (5D, 7F)
 There are   338 symmetry adapted basis functions of A   symmetry.
 Integral buffers will be    131072 words long.
 Raffenetti 1 integral format.
 Two-electron integral symmetry is turned on.
   338 basis functions,   562 primitive gaussians,   358 cartesian basis functions
    39 alpha electrons       39 beta electrons
       nuclear repulsion energy       551.9255662646 Hartrees.
 NAtoms=   22 NActive=   22 NUniq=   22 SFac= 7.50D-01 NAtFMM=   80 NAOKFM=F Big=F
 One-electron integrals computed using PRISM.
 NBasis=   338 RedAO= T  NBF=   338
 NBsUse=   338 1.00D-06 NBFU=   338
 Harris functional with IExCor=  205 diagonalized for initial guess.
 ExpMin= 2.97D-02 ExpMax= 1.17D+04 ExpMxC= 4.01D+02 IAcc=3 IRadAn=         0 AccDes= 0.00D+00
 HarFok:  IExCor=  205 AccDes= 0.00D+00 IRadAn=         0 IDoV= 1
 ScaDFX=  1.000000  1.000000  1.000000  1.000000
 FoFCou: FMM=F IPFlag=           0 FMFlag=      100000 FMFlg1=           0
         NFxFlg=           0 DoJE=T BraDBF=F KetDBF=T FulRan=T
         Omega=  0.000000  0.000000  1.000000  0.000000  0.000000 ICntrl=     500 IOpCl=  0
         NMat0=    1 NMatS0=    1 NMatT0=    0 NMatD0=    1 NMtDS0=    0 NMtDT0=    0
         I1Cent=           4 NGrid=           0.
 Petite list used in FoFCou.
 Initial guess orbital symmetries:
       Occupied  (A) (A) (A) (A) (A) (A) (A) (A) (A) (A) (A) (A)
                 (A) (A) (A) (A) (A) (A) (A) (A) (A) (A) (A) (A)
                 (A) (A) (A) (A) (A) (A) (A) (A) (A) (A) (A) (A)
                 (A) (A) (A)
       Virtual   (A) (A) (A) (A) (A) (A) (A) (A) (A) (A) (A) (A)
                 (A) (A) (A) (A) (A) (A) (A) (A) (A) (A) (A) (A)
                 (A) (A) (A) (A) (A) (A) (A) (A) (A) (A) (A) (A)
                 (A) (A) (A) (A) (A) (A) (A) (A) (A) (A) (A) (A)
                 (A) (A) (A) (A) (A) (A) (A) (A) (A) (A) (A) (A)
                 (A) (A) (A) (A) (A) (A) (A) (A) (A) (A) (A) (A)
                 (A) (A) (A) (A) (A) (A) (A) (A) (A) (A) (A) (A)
                 (A) (A) (A) (A) (A) (A) (A) (A) (A) (A) (A) (A)
                 (A) (A) (A) (A) (A) (A) (A) (A) (A) (A) (A) (A)
                 (A) (A) (A) (A) (A) (A) (A) (A) (A) (A) (A) (A)
                 (A) (A) (A) (A) (A) (A) (A) (A) (A) (A) (A) (A)
                 (A) (A) (A) (A) (A) (A) (A) (A) (A) (A) (A) (A)
                 (A) (A) (A) (A) (A) (A) (A) (A) (A) (A) (A) (A)
                 (A) (A) (A) (A) (A) (A) (A) (A) (A) (A) (A) (A)
                 (A) (A) (A) (A) (A) (A) (A) (A) (A) (A) (A) (A)
                 (A) (A) (A) (A) (A) (A) (A) (A) (A) (A) (A) (A)
                 (A) (A) (A) (A) (A) (A) (A) (A) (A) (A) (A) (A)
                 (A) (A) (A) (A) (A) (A) (A) (A) (A) (A) (A) (A)
                 (A) (A) (A) (A) (A) (A) (A) (A) (A) (A) (A) (A)
                 (A) (A) (A) (A) (A) (A) (A) (A) (A) (A) (A) (A)
                 (A) (A) (A) (A) (A) (A) (A) (A) (A) (A) (A) (A)
                 (A) (A) (A) (A) (A) (A) (A) (A) (A) (A) (A) (A)
                 (A) (A) (A) (A) (A) (A) (A) (A) (A) (A) (A) (A)
                 (A) (A) (A) (A) (A) (A) (A) (A) (A) (A) (A) (A)
                 (A) (A) (A) (A) (A) (A) (A) (A) (A) (A) (A)
 The electronic state of the initial guess is 1-A.
 Requested convergence on RMS density matrix=1.00D-08 within 128 cycles.
 Requested convergence on MAX density matrix=1.00D-06.
 Requested convergence on             energy=1.00D-06.
 No special actions if energy rises.
 Initial convergence to 1.0D-05 achieved.  Increase integral accuracy.
 SCF Done:  E(RHF) =  -492.912113324     A.U. after   14 cycles
             Convg  =    0.7386D-08             -V/T =  2.0017
 ExpMin= 2.97D-02 ExpMax= 1.17D+04 ExpMxC= 4.01D+02 IAcc=3 IRadAn=         5 AccDes= 0.00D+00
 HarFok:  IExCor=  205 AccDes= 0.00D+00 IRadAn=         5 IDoV=-2
 ScaDFX=  1.000000  1.000000  1.000000  1.000000
 Range of M.O.s used for correlation:    11   338
 NBasis=   338 NAE=    39 NBE=    39 NFC=    10 NFV=     0
 NROrb=    328 NOA=    29 NOB=    29 NVA=   299 NVB=   299

 **** Warning!!: The largest alpha MO coefficient is  0.72723329D+02

 Disk-based method using OVN memory for 29 occupieds at a time.
 Estimated scratch disk usage=  1377588121 words.
 Actual    scratch disk usage=  1364367309 words.
 JobTyp=1 Pass  1:  I=   1 to  29 NPSUse=  8 ParTrn=T ParDer=T DoDerP=F.
 Spin components of T(2) and E(2):
     alpha-alpha T2 =       0.6790412351D-01 E2=     -0.2055546708D+00
     alpha-beta  T2 =       0.3770310873D+00 E2=     -0.1190423944D+01
     beta-beta   T2 =       0.6790412351D-01 E2=     -0.2055546708D+00
 ANorm=    0.1229975339D+01
 E2 =    -0.1601533286D+01 EUMP2 =    -0.49451364661004D+03

 **********************************************************************

            Population analysis using the SCF density.

 **********************************************************************

 Orbital symmetries:
       Occupied  (A) (A) (A) (A) (A) (A) (A) (A) (A) (A) (A) (A)
                 (A) (A) (A) (A) (A) (A) (A) (A) (A) (A) (A) (A)
                 (A) (A) (A) (A) (A) (A) (A) (A) (A) (A) (A) (A)
                 (A) (A) (A)
       Virtual   (A) (A) (A) (A) (A) (A) (A) (A) (A) (A) (A) (A)
                 (A) (A) (A) (A) (A) (A) (A) (A) (A) (A) (A) (A)
                 (A) (A) (A) (A) (A) (A) (A) (A) (A) (A) (A) (A)
                 (A) (A) (A) (A) (A) (A) (A) (A) (A) (A) (A) (A)
                 (A) (A) (A) (A) (A) (A) (A) (A) (A) (A) (A) (A)
                 (A) (A) (A) (A) (A) (A) (A) (A) (A) (A) (A) (A)
                 (A) (A) (A) (A) (A) (A) (A) (A) (A) (A) (A) (A)
                 (A) (A) (A) (A) (A) (A) (A) (A) (A) (A) (A) (A)
                 (A) (A) (A) (A) (A) (A) (A) (A) (A) (A) (A) (A)
                 (A) (A) (A) (A) (A) (A) (A) (A) (A) (A) (A) (A)
                 (A) (A) (A) (A) (A) (A) (A) (A) (A) (A) (A) (A)
                 (A) (A) (A) (A) (A) (A) (A) (A) (A) (A) (A) (A)
                 (A) (A) (A) (A) (A) (A) (A) (A) (A) (A) (A) (A)
                 (A) (A) (A) (A) (A) (A) (A) (A) (A) (A) (A) (A)
                 (A) (A) (A) (A) (A) (A) (A) (A) (A) (A) (A) (A)
                 (A) (A) (A) (A) (A) (A) (A) (A) (A) (A) (A) (A)
                 (A) (A) (A) (A) (A) (A) (A) (A) (A) (A) (A) (A)
                 (A) (A) (A) (A) (A) (A) (A) (A) (A) (A) (A) (A)
                 (A) (A) (A) (A) (A) (A) (A) (A) (A) (A) (A) (A)
                 (A) (A) (A) (A) (A) (A) (A) (A) (A) (A) (A) (A)
                 (A) (A) (A) (A) (A) (A) (A) (A) (A) (A) (A) (A)
                 (A) (A) (A) (A) (A) (A) (A) (A) (A) (A) (A) (A)
                 (A) (A) (A) (A) (A) (A) (A) (A) (A) (A) (A) (A)
                 (A) (A) (A) (A) (A) (A) (A) (A) (A) (A) (A) (A)
                 (A) (A) (A) (A) (A) (A) (A) (A) (A) (A) (A)
 The electronic state is 1-A.
 Alpha  occ. eigenvalues --  -20.53346 -20.52476 -15.60626 -15.59946 -11.36229
 Alpha  occ. eigenvalues --  -11.36212 -11.30026 -11.27453 -11.24406 -11.22366
 Alpha  occ. eigenvalues --   -1.38949  -1.37856  -1.24395  -1.23383  -1.05517
 Alpha  occ. eigenvalues --   -0.98740  -0.96326  -0.87979  -0.80139  -0.77134
 Alpha  occ. eigenvalues --   -0.72259  -0.69633  -0.66030  -0.64082  -0.62486
 Alpha  occ. eigenvalues --   -0.61880  -0.59779  -0.58681  -0.56251  -0.55342
 Alpha  occ. eigenvalues --   -0.54861  -0.53181  -0.51931  -0.51331  -0.50834
 Alpha  occ. eigenvalues --   -0.44369  -0.41319  -0.39956  -0.38589
 Alpha virt. eigenvalues --    0.02091   0.03636   0.03902   0.04557   0.05655
 Alpha virt. eigenvalues --    0.05981   0.06206   0.06571   0.07719   0.07862
 Alpha virt. eigenvalues --    0.08565   0.09373   0.11032   0.12099   0.12524
 Alpha virt. eigenvalues --    0.13287   0.13605   0.14534   0.14604   0.15004
 Alpha virt. eigenvalues --    0.15342   0.16010   0.16293   0.16431   0.16987
 Alpha virt. eigenvalues --    0.17384   0.18499   0.18750   0.18870   0.19399
 Alpha virt. eigenvalues --    0.20078   0.20553   0.20834   0.21281   0.22224
 Alpha virt. eigenvalues --    0.23129   0.24058   0.24724   0.25377   0.26759
 Alpha virt. eigenvalues --    0.27151   0.28005   0.29138   0.30678   0.30896
 Alpha virt. eigenvalues --    0.30982   0.32012   0.32145   0.33114   0.33584
 Alpha virt. eigenvalues --    0.34440   0.34708   0.35137   0.35879   0.36384
 Alpha virt. eigenvalues --    0.37280   0.37857   0.38957   0.39653   0.39879
 Alpha virt. eigenvalues --    0.40357   0.40800   0.41701   0.42062   0.42592
 Alpha virt. eigenvalues --    0.43010   0.44089   0.44585   0.44807   0.45606
 Alpha virt. eigenvalues --    0.46170   0.47324   0.47585   0.48922   0.49485
 Alpha virt. eigenvalues --    0.49918   0.50285   0.51158   0.51465   0.52981
 Alpha virt. eigenvalues --    0.53060   0.54264   0.54694   0.55898   0.56342
 Alpha virt. eigenvalues --    0.56987   0.57303   0.58018   0.58268   0.58955
 Alpha virt. eigenvalues --    0.59623   0.60072   0.60827   0.61522   0.62013
 Alpha virt. eigenvalues --    0.62534   0.62939   0.63318   0.64269   0.64979
 Alpha virt. eigenvalues --    0.65617   0.66824   0.67045   0.68362   0.68727
 Alpha virt. eigenvalues --    0.69392   0.69952   0.70154   0.70593   0.71130
 Alpha virt. eigenvalues --    0.71499   0.72216   0.73559   0.74035   0.74797
 Alpha virt. eigenvalues --    0.75051   0.76015   0.77506   0.78235   0.79094
 Alpha virt. eigenvalues --    0.79894   0.80728   0.81356   0.81755   0.82358
 Alpha virt. eigenvalues --    0.83505   0.84843   0.85087   0.85787   0.87040
 Alpha virt. eigenvalues --    0.88615   0.90051   0.91026   0.91836   0.94002
 Alpha virt. eigenvalues --    0.94477   0.96341   0.97250   0.97606   0.98797
 Alpha virt. eigenvalues --    1.00285   1.00737   1.01743   1.02728   1.04134
 Alpha virt. eigenvalues --    1.05349   1.06196   1.08355   1.09174   1.09312
 Alpha virt. eigenvalues --    1.10894   1.12497   1.13483   1.13979   1.15329
 Alpha virt. eigenvalues --    1.16507   1.17651   1.19481   1.19971   1.21326
 Alpha virt. eigenvalues --    1.24069   1.25599   1.26123   1.27914   1.29372
 Alpha virt. eigenvalues --    1.30951   1.32366   1.34179   1.35878   1.36825
 Alpha virt. eigenvalues --    1.40701   1.42074   1.44442   1.45096   1.46549
 Alpha virt. eigenvalues --    1.49039   1.51225   1.52437   1.54728   1.55449
 Alpha virt. eigenvalues --    1.55816   1.57249   1.58246   1.61998   1.63798
 Alpha virt. eigenvalues --    1.65874   1.68767   1.69320   1.71451   1.73124
 Alpha virt. eigenvalues --    1.73697   1.74803   1.77029   1.78220   1.79146
 Alpha virt. eigenvalues --    1.80313   1.84216   1.85962   1.87385   1.88200
 Alpha virt. eigenvalues --    1.89336   1.89743   1.91128   1.91780   1.93437
 Alpha virt. eigenvalues --    1.95138   1.95885   1.97092   1.98012   2.02673
 Alpha virt. eigenvalues --    2.02901   2.04879   2.04946   2.07296   2.08349
 Alpha virt. eigenvalues --    2.11362   2.11906   2.13663   2.14923   2.17172
 Alpha virt. eigenvalues --    2.18786   2.19157   2.20146   2.20987   2.21120
 Alpha virt. eigenvalues --    2.25249   2.25679   2.27091   2.27742   2.30148
 Alpha virt. eigenvalues --    2.30891   2.33004   2.34686   2.35926   2.36614
 Alpha virt. eigenvalues --    2.39702   2.40709   2.41048   2.42413   2.42752
 Alpha virt. eigenvalues --    2.47364   2.48119   2.50524   2.50957   2.51976
 Alpha virt. eigenvalues --    2.54293   2.55477   2.56606   2.59410   2.62286
 Alpha virt. eigenvalues --    2.63299   2.64313   2.66238   2.67056   2.69210
 Alpha virt. eigenvalues --    2.70812   2.73684   2.75430   2.76738   2.78819
 Alpha virt. eigenvalues --    2.81179   2.82990   2.85806   2.86725   2.88297
 Alpha virt. eigenvalues --    2.91089   2.92691   2.94103   2.95962   2.98531
 Alpha virt. eigenvalues --    2.99507   3.02154   3.02861   3.06487   3.09156
 Alpha virt. eigenvalues --    3.09939   3.12583   3.19279   3.20058   3.25172
 Alpha virt. eigenvalues --    3.30210   3.30840   3.40881   3.44986   3.46658
 Alpha virt. eigenvalues --    3.57947   3.64953   3.73978   3.83434   3.84527
 Alpha virt. eigenvalues --    3.86063   3.87872   3.93270   3.98440   4.03618
 Alpha virt. eigenvalues --    4.09002   4.16285   4.21826   4.36556
          Condensed to atoms (all electrons):
              1          2          3          4          5          6
     1  H    0.792499   0.390786  -0.107555  -0.055024  -0.076358   0.027826
     2  C    0.390786   4.496995   0.310158   0.347060   0.199791  -0.031847
     3  H   -0.107555   0.310158   1.038886  -0.063658   0.112130  -0.006761
     4  H   -0.055024   0.347060  -0.063658   0.726375  -0.060587   0.013664
     5  C   -0.076358   0.199791   0.112130  -0.060587   5.391457   0.210714
     6  O    0.027826  -0.031847  -0.006761   0.013664   0.210714   8.657509
     7  N    0.044230  -0.019103  -0.158229   0.033047   0.157308  -0.106186
     8  H   -0.003764  -0.056130   0.012087  -0.005350  -0.154084  -0.000426
     9  C    0.005457  -0.011106  -0.028799  -0.013833  -0.425345   0.077717
    10  H   -0.001134   0.009971   0.003940   0.000384  -0.002466   0.004687
    11  C    0.000842   0.011270  -0.003952   0.003787  -0.040937  -0.029737
    12  H   -0.001674   0.007332   0.001751   0.000875   0.020583  -0.027988
    13  H   -0.000034  -0.002797  -0.000922   0.000376  -0.025520   0.005195
    14  H    0.001282   0.001910  -0.000958  -0.000446   0.018937  -0.007016
    15  C   -0.003190   0.011193  -0.008098   0.007607  -0.005068   0.011189
    16  O   -0.000897  -0.007511   0.000386  -0.000198  -0.007793   0.000128
    17  N    0.000221  -0.003497   0.000274  -0.000164  -0.009880   0.001073
    18  H    0.000096  -0.000004  -0.000325   0.000012  -0.002440   0.000095
    19  C   -0.000277  -0.002003  -0.000533   0.000058  -0.012902   0.000680
    20  H   -0.000028   0.000087   0.000106   0.000028  -0.002688  -0.000111
    21  H   -0.000006   0.000120  -0.000111   0.000011  -0.000366   0.000033
    22  H    0.000003   0.000108   0.000047  -0.000018   0.000837   0.000070
              7          8          9         10         11         12
     1  H    0.044230  -0.003764   0.005457  -0.001134   0.000842  -0.001674
     2  C   -0.019103  -0.056130  -0.011106   0.009971   0.011270   0.007332
     3  H   -0.158229   0.012087  -0.028799   0.003940  -0.003952   0.001751
     4  H    0.033047  -0.005350  -0.013833   0.000384   0.003787   0.000875
     5  C    0.157308  -0.154084  -0.425345  -0.002466  -0.040937   0.020583
     6  O   -0.106186  -0.000426   0.077717   0.004687  -0.029737  -0.027988
     7  N    7.599679   0.302309  -0.385304  -0.190781   0.010833  -0.039508
     8  H    0.302309   1.034746  -0.039829   0.045096  -0.035205  -0.006317
     9  C   -0.385304  -0.039829   8.372505  -0.260349   0.024107  -0.059609
    10  H   -0.190781   0.045096  -0.260349   1.653216   0.013660   0.071592
    11  C    0.010833  -0.035205   0.024107   0.013660   4.402587   0.398666
    12  H   -0.039508  -0.006317  -0.059609   0.071592   0.398666   0.955604
    13  H    0.138911  -0.000898  -0.282190  -0.085507   0.331403  -0.166800
    14  H   -0.061446  -0.000162   0.203671  -0.029093   0.144910  -0.193238
    15  C    0.014491  -0.040435  -0.848390   0.144138   0.001798  -0.028629
    16  O    0.027861   0.001822  -0.058161  -0.015330  -0.011127  -0.002103
    17  N    0.026940   0.029277   0.064024  -0.058832   0.002620  -0.005106
    18  H   -0.014452  -0.002117  -0.025764   0.005489   0.000155  -0.000940
    19  C    0.003946   0.005371  -0.017944   0.009666  -0.005736  -0.003791
    20  H   -0.007026  -0.000088   0.035195   0.008185  -0.008498   0.000630
    21  H    0.000841  -0.000878  -0.016927  -0.002897   0.008029   0.000311
    22  H   -0.001098  -0.000528   0.021980  -0.000291  -0.001968  -0.000851
             13         14         15         16         17         18
     1  H   -0.000034   0.001282  -0.003190  -0.000897   0.000221   0.000096
     2  C   -0.002797   0.001910   0.011193  -0.007511  -0.003497  -0.000004
     3  H   -0.000922  -0.000958  -0.008098   0.000386   0.000274  -0.000325
     4  H    0.000376  -0.000446   0.007607  -0.000198  -0.000164   0.000012
     5  C   -0.025520   0.018937  -0.005068  -0.007793  -0.009880  -0.002440
     6  O    0.005195  -0.007016   0.011189   0.000128   0.001073   0.000095
     7  N    0.138911  -0.061446   0.014491   0.027861   0.026940  -0.014452
     8  H   -0.000898  -0.000162  -0.040435   0.001822   0.029277  -0.002117
     9  C   -0.282190   0.203671  -0.848390  -0.058161   0.064024  -0.025764
    10  H   -0.085507  -0.029093   0.144138  -0.015330  -0.058832   0.005489
    11  C    0.331403   0.144910   0.001798  -0.011127   0.002620   0.000155
    12  H   -0.166800  -0.193238  -0.028629  -0.002103  -0.005106  -0.000940
    13  H    1.340607  -0.204769   0.038234   0.007636  -0.003657   0.008466
    14  H   -0.204769   1.094161   0.009611   0.000666   0.005731  -0.002573
    15  C    0.038234   0.009611   5.361347   0.289642   0.103314  -0.042320
    16  O    0.007636   0.000666   0.289642   8.704988  -0.163843   0.010628
    17  N   -0.003657   0.005731   0.103314  -0.163843   7.137352   0.277835
    18  H    0.008466  -0.002573  -0.042320   0.010628   0.277835   1.011832
    19  C   -0.000332   0.001843  -0.103080   0.008971   0.245100  -0.124229
    20  H   -0.001416  -0.000365  -0.028526   0.009910  -0.035181  -0.000186
    21  H    0.000770   0.000345  -0.015308   0.014403  -0.107813   0.009215
    22  H   -0.001061   0.000302  -0.025193   0.005130   0.004845  -0.004151
             19         20         21         22
     1  H   -0.000277  -0.000028  -0.000006   0.000003
     2  C   -0.002003   0.000087   0.000120   0.000108
     3  H   -0.000533   0.000106  -0.000111   0.000047
     4  H    0.000058   0.000028   0.000011  -0.000018
     5  C   -0.012902  -0.002688  -0.000366   0.000837
     6  O    0.000680  -0.000111   0.000033   0.000070
     7  N    0.003946  -0.007026   0.000841  -0.001098
     8  H    0.005371  -0.000088  -0.000878  -0.000528
     9  C   -0.017944   0.035195  -0.016927   0.021980
    10  H    0.009666   0.008185  -0.002897  -0.000291
    11  C   -0.005736  -0.008498   0.008029  -0.001968
    12  H   -0.003791   0.000630   0.000311  -0.000851
    13  H   -0.000332  -0.001416   0.000770  -0.001061
    14  H    0.001843  -0.000365   0.000345   0.000302
    15  C   -0.103080  -0.028526  -0.015308  -0.025193
    16  O    0.008971   0.009910   0.014403   0.005130
    17  N    0.245100  -0.035181  -0.107813   0.004845
    18  H   -0.124229  -0.000186   0.009215  -0.004151
    19  C    4.090039   0.463970   0.383161   0.313462
    20  H    0.463970   0.938161  -0.135727  -0.094415
    21  H    0.383161  -0.135727   1.140692  -0.153848
    22  H    0.313462  -0.094415  -0.153848   1.021329
 Mulliken atomic charges:
              1
     1  H   -0.013300
     2  C    0.347217
     3  H   -0.099865
     4  H    0.065995
     5  C    0.714678
     6  O   -0.800510
     7  N   -0.377264
     8  H   -0.084498
     9  C   -0.331106
    10  H   -0.323348
    11  C    0.782493
    12  H    0.079208
    13  H   -0.095698
    14  H    0.016693
    15  C    1.155672
    16  O   -0.815208
    17  N   -0.510635
    18  H   -0.104321
    19  C    0.744558
    20  H   -0.142019
    21  H   -0.124050
    22  H   -0.084693
 Sum of Mulliken atomic charges =   0.00000
 Mulliken charges with hydrogens summed into heavy atoms:
              1
     2  C    0.300047
     5  C    0.714678
     6  O   -0.800510
     7  N   -0.461762
     9  C   -0.654454
    11  C    0.782697
    15  C    1.155672
    16  O   -0.815208
    17  N   -0.614957
    19  C    0.393797
 Sum of Mulliken charges with hydrogens summed into heavy atoms =   0.00000
 Electronic spatial extent (au):  <R**2>=           1879.7020
 Charge=              0.0000 electrons
 Dipole moment (field-independent basis, Debye):
    X=              3.1102    Y=             -2.7922    Z=             -5.2204  Tot=              6.6874
 Quadrupole moment (field-independent basis, Debye-Ang):
   XX=            -58.9615   YY=            -57.8506   ZZ=            -63.9687
   XY=              5.9976   XZ=             -1.9062   YZ=             -1.0088
 Traceless Quadrupole moment (field-independent basis, Debye-Ang):
   XX=              1.2988   YY=              2.4096   ZZ=             -3.7084
   XY=              5.9976   XZ=             -1.9062   YZ=             -1.0088
 Octapole moment (field-independent basis, Debye-Ang**2):
  XXX=             42.9009  YYY=             -2.9702  ZZZ=             -9.2624  XYY=             -0.6849
  XXY=            -26.7220  XXZ=            -15.6901  XZZ=              2.9241  YZZ=             -3.2087
  YYZ=             -0.7151  XYZ=              2.4312
 Hexadecapole moment (field-independent basis, Debye-Ang**3):
 XXXX=          -1676.7510 YYYY=           -488.4302 ZZZZ=           -226.7735 XXXY=             32.7633
 XXXZ=             16.3090 YYYX=             -1.9192 YYYZ=              5.0666 ZZZX=            -21.7167
 ZZZY=              1.8729 XXYY=           -365.8394 XXZZ=           -331.8408 YYZZ=           -115.2615
 XXYZ=            -12.0488 YYXZ=              1.2517 ZZXY=             -0.5395
 N-N= 5.519255662646D+02 E-N=-2.259207678150D+03  KE= 4.920582888410D+02
 1\1\GINC-NODE005\SP\RMP2-FC\Aug-CC-pVDZ\C6H12N2O2\MANAGER\12-Feb-2017\
 0\\#SP MP2/aug-cc-pVDZ\\Single Point calculation at MP2\\0,1\H,0,-3.98
 35,-1.3986,-0.0422\C,0,-2.913,-1.6131,-0.0263\H,0,-2.6573,-2.2444,-0.8
 842\H,0,-2.6957,-2.1727,0.8911\C,0,-2.1553,-0.2878,0.0084\O,0,-2.6034,
 0.6868,0.591\N,0,-0.9578,-0.32,-0.6704\H,0,-0.6924,-1.2228,-1.0408\C,0
 ,0.1248,0.6703,-0.6795\H,0,0.4608,0.7441,-1.7255\C,0,-0.2626,2.0725,-0
 .2059\H,0,-0.5068,2.0698,0.855\H,0,0.5924,2.7377,-0.376\H,0,-1.1221,2.
 4522,-0.7612\C,0,1.2897,0.1252,0.1812\O,0,1.2207,0.0672,1.4005\N,0,2.3
 619,-0.3349,-0.5355\H,0,2.3829,-0.1684,-1.5315\C,0,3.5615,-0.8497,0.10
 32\H,0,3.3317,-0.9859,1.1609\H,0,3.8509,-1.8118,-0.3335\H,0,4.4021,-0.
 1508,0.0099\\Version=EM64L-G09RevA.02\State=1-A\HF=-492.9121133\MP2=-4
 94.5136466\RMSD=7.386e-09\PG=C01 [X(C6H12N2O2)]\\@


 "MATHEMATICS IS THE ART OF GIVING THE SAME NAME
 TO DIFFERENT THINGS."
                    - H. POINCARE
 Job cpu time:  0 days 10 hours 12 minutes 36.6 seconds.
 File lengths (MBytes):  RWF=  10526 Int=      0 D2E=      0 Chk=      7 Scr=      2
 Normal termination of Gaussian 09 at Sun Feb 12 14:20:06 2017.
