 Entering Gaussian System, Link 0=g09
 Initial command:
 /home/steboss/Software/g09/l1.exe /home/steboss/projects/phi_psi_scan/alanine/MP2/315/5564/Gau-15761.inp -scrdir=/home/steboss/projects/phi_psi_scan/alanine/MP2/315/5564/
 Entering Link 1 = /home/steboss/Software/g09/l1.exe PID=     15763.
  
 Copyright (c) 1988,1990,1992,1993,1995,1998,2003,2009, Gaussian, Inc.
                  All Rights Reserved.
  
 This is part of the Gaussian(R) 09 program.  It is based on
 the Gaussian(R) 03 system (copyright 2003, Gaussian, Inc.),
 the Gaussian(R) 98 system (copyright 1998, Gaussian, Inc.),
 the Gaussian(R) 94 system (copyright 1995, Gaussian, Inc.),
 the Gaussian 92(TM) system (copyright 1992, Gaussian, Inc.),
 the Gaussian 90(TM) system (copyright 1990, Gaussian, Inc.),
 the Gaussian 88(TM) system (copyright 1988, Gaussian, Inc.),
 the Gaussian 86(TM) system (copyright 1986, Carnegie Mellon
 University), and the Gaussian 82(TM) system (copyright 1983,
 Carnegie Mellon University). Gaussian is a federally registered
 trademark of Gaussian, Inc.
  
 This software contains proprietary and confidential information,
 including trade secrets, belonging to Gaussian, Inc.
  
 This software is provided under written license and may be
 used, copied, transmitted, or stored only in accord with that
 written license.
  
 The following legend is applicable only to US Government
 contracts under FAR:
  
                    RESTRICTED RIGHTS LEGEND
  
 Use, reproduction and disclosure by the US Government is
 subject to restrictions as set forth in subparagraphs (a)
 and (c) of the Commercial Computer Software - Restricted
 Rights clause in FAR 52.227-19.
  
 Gaussian, Inc.
 340 Quinnipiac St., Bldg. 40, Wallingford CT 06492
  
  
 ---------------------------------------------------------------
 Warning -- This program may not be used in any manner that
 competes with the business of Gaussian, Inc. or will provide
 assistance to any competitor of Gaussian, Inc.  The licensee
 of this program is prohibited from giving any competitor of
 Gaussian, Inc. access to this program.  By using this program,
 the user acknowledges that Gaussian, Inc. is engaged in the
 business of creating and licensing software in the field of
 computational chemistry and represents and warrants to the
 licensee that it is not a competitor of Gaussian, Inc. and that
 it will not use this program in any manner prohibited above.
 ---------------------------------------------------------------
  

 Cite this work as:
 Gaussian 09, Revision A.02,
 M. J. Frisch, G. W. Trucks, H. B. Schlegel, G. E. Scuseria, 
 M. A. Robb, J. R. Cheeseman, G. Scalmani, V. Barone, B. Mennucci, 
 G. A. Petersson, H. Nakatsuji, M. Caricato, X. Li, H. P. Hratchian, 
 A. F. Izmaylov, J. Bloino, G. Zheng, J. L. Sonnenberg, M. Hada, 
 M. Ehara, K. Toyota, R. Fukuda, J. Hasegawa, M. Ishida, T. Nakajima, 
 Y. Honda, O. Kitao, H. Nakai, T. Vreven, J. A. Montgomery, Jr., 
 J. E. Peralta, F. Ogliaro, M. Bearpark, J. J. Heyd, E. Brothers, 
 K. N. Kudin, V. N. Staroverov, R. Kobayashi, J. Normand, 
 K. Raghavachari, A. Rendell, J. C. Burant, S. S. Iyengar, J. Tomasi, 
 M. Cossi, N. Rega, J. M. Millam, M. Klene, J. E. Knox, J. B. Cross, 
 V. Bakken, C. Adamo, J. Jaramillo, R. Gomperts, R. E. Stratmann, 
 O. Yazyev, A. J. Austin, R. Cammi, C. Pomelli, J. W. Ochterski, 
 R. L. Martin, K. Morokuma, V. G. Zakrzewski, G. A. Voth, 
 P. Salvador, J. J. Dannenberg, S. Dapprich, A. D. Daniels, 
 O. Farkas, J. B. Foresman, J. V. Ortiz, J. Cioslowski, 
 and D. J. Fox, Gaussian, Inc., Wallingford CT, 2009.
 
 ******************************************
 Gaussian 09:  EM64L-G09RevA.02 11-Jun-2009
                13-Feb-2017 
 ******************************************
 %chk=structure_105.chk
 %NProcShared=8
 Will use up to    8 processors via shared memory.
 -------------------
 #SP MP2/aug-cc-pVDZ
 -------------------
 1/38=1/1;
 2/12=2,17=6,18=5,40=1/2;
 3/5=16,7=10,11=9,16=1,25=1,30=1/1,2,3;
 4//1;
 5/5=2,38=5/2;
 8/10=1/1;
 9/16=-3/6;
 6/7=2,8=2,9=2,10=2/1;
 99/5=1,9=1/99;
 -------------------------------
 Single Point calculation at MP2
 -------------------------------
 Symbolic Z-matrix:
 Charge =  0 Multiplicity = 1
 H                    -3.5225   -1.7298    0.1087 
 C                    -3.0034   -0.9088    0.6079 
 H                    -2.7651   -1.2334    1.6277 
 H                    -3.6672   -0.0404    0.6674 
 C                    -1.7093   -0.6223   -0.1362 
 O                    -1.0473   -1.5129   -0.6614 
 N                    -1.347     0.6979   -0.2076 
 H                    -1.8418    1.3302    0.4097 
 C                     0.0183    1.1176   -0.5584 
 H                     0.1447    0.9534   -1.6357 
 C                     0.187     2.6023   -0.2461 
 H                     0.1642    2.7597    0.8366 
 H                     1.1533    2.9592   -0.6143 
 H                    -0.6027    3.1912   -0.7253 
 C                     1.0952    0.2931    0.195 
 O                     1.3731    0.5418    1.3631 
 N                     1.743    -0.6408   -0.5584 
 H                     1.1828   -1.0257   -1.31 
 C                     2.6788   -1.556     0.0796 
 H                     3.3095   -0.9888    0.7659 
 H                     2.1631   -2.3382    0.6522 
 H                     3.3032   -2.024    -0.6861 
 
                          Input orientation:                          
 ---------------------------------------------------------------------
 Center     Atomic      Atomic             Coordinates (Angstroms)
 Number     Number       Type             X           Y           Z
 ---------------------------------------------------------------------
      1          1           0       -3.522500   -1.729800    0.108700
      2          6           0       -3.003400   -0.908800    0.607900
      3          1           0       -2.765100   -1.233400    1.627700
      4          1           0       -3.667200   -0.040400    0.667400
      5          6           0       -1.709300   -0.622300   -0.136200
      6          8           0       -1.047300   -1.512900   -0.661400
      7          7           0       -1.347000    0.697900   -0.207600
      8          1           0       -1.841800    1.330200    0.409700
      9          6           0        0.018300    1.117600   -0.558400
     10          1           0        0.144700    0.953400   -1.635700
     11          6           0        0.187000    2.602300   -0.246100
     12          1           0        0.164200    2.759700    0.836600
     13          1           0        1.153300    2.959200   -0.614300
     14          1           0       -0.602700    3.191200   -0.725300
     15          6           0        1.095200    0.293100    0.195000
     16          8           0        1.373100    0.541800    1.363100
     17          7           0        1.743000   -0.640800   -0.558400
     18          1           0        1.182800   -1.025700   -1.310000
     19          6           0        2.678800   -1.556000    0.079600
     20          1           0        3.309500   -0.988800    0.765900
     21          1           0        2.163100   -2.338200    0.652200
     22          1           0        3.303200   -2.024000   -0.686100
 ---------------------------------------------------------------------
                    Distance matrix (angstroms):
                    1          2          3          4          5
     1  H    0.000000
     2  C    1.092111   0.000000
     3  H    1.768454   1.096423   0.000000
     4  H    1.785261   1.094664   1.777417   0.000000
     5  C    2.138744   1.520020   2.144645   2.194938   0.000000
     6  O    2.601291   2.408814   2.875576   3.286007   1.227700
     7  N    3.275145   2.447486   3.018154   2.587284   1.370871
     8  H    3.504134   2.530162   2.984636   2.297181   2.031704
     9  C    4.592382   3.820631   4.248947   4.052957   2.487992
    10  H    4.867325   4.290928   4.888641   4.563167   2.858084
    11  C    5.714312   4.820352   5.190242   4.761639   3.742469
    12  H    5.854674   4.852204   5.015126   4.748559   3.986761
    13  H    6.661273   5.808042   6.161032   5.820445   4.609794
    14  H    5.782476   4.934651   5.457991   4.666263   4.014273
    15  C    5.042095   4.291104   4.391440   4.797378   2.968648
    16  O    5.540811   4.672079   4.510659   5.121287   3.619975
    17  N    5.418158   4.894935   5.045114   5.579725   3.478070
    18  H    4.964707   4.606113   4.925356   5.329487   3.147186
    19  C    6.203803   5.743289   5.668927   6.550898   4.491524
    20  H    6.903421   6.315384   6.140301   7.041556   5.112383
    21  H    5.743831   5.360771   5.143864   6.266779   4.308291
    22  H    6.878113   6.533859   6.542399   7.372456   5.233766
                    6          7          8          9         10
     6  O    0.000000
     7  N    2.276706   0.000000
     8  H    3.140335   1.012763   0.000000
     9  C    2.840008   1.470800   2.107697   0.000000
    10  H    2.907363   2.080846   2.876077   1.097048   0.000000
    11  C    4.316346   2.445686   2.482809   1.526540   2.156768
    12  H    4.686880   2.761358   2.499950   2.159584   3.061922
    13  H    4.984429   3.395642   3.559893   2.163987   2.466529
    14  H    4.725496   2.653025   2.507372   2.171017   2.528870
    15  C    2.930079   2.508045   3.122121   1.551491   2.165851
    16  O    3.765465   3.144902   3.444725   2.420577   3.266678
    17  N    2.925225   3.385746   4.203909   2.463039   2.501322
    18  H    2.373055   3.253609   4.201885   2.552391   2.258444
    19  C    3.799310   4.622728   5.373541   3.825368   3.957399
    20  H    4.614496   5.047341   5.660436   4.125856   4.422192
    21  H    3.565576   4.719954   5.436468   4.243616   4.488102
    22  H    4.380489   5.409442   6.238787   4.547145   4.443284
                   11         12         13         14         15
    11  C    0.000000
    12  H    1.094319   0.000000
    13  H    1.093931   1.767266   0.000000
    14  H    1.095473   1.792724   1.774734   0.000000
    15  C    2.520278   2.713398   2.786832   3.482643   0.000000
    16  O    2.870892   2.580256   3.130854   3.909542   1.226188
    17  N    3.610591   4.000254   3.648407   4.496041   1.363608
    18  H    3.909717   4.469305   4.045281   4.616506   2.002981
    19  C    4.858663   5.051884   4.816189   5.826836   2.437268
    20  H    4.865198   4.893788   4.705407   5.916197   2.621511
    21  H    5.396337   5.478886   5.539509   6.334147   2.876314
    22  H    5.595262   5.920787   5.427661   6.515819   3.319722
                   16         17         18         19         20
    16  O    0.000000
    17  N    2.286379   0.000000
    18  H    3.104631   1.013348   0.000000
    19  C    2.784419   1.456144   2.109555   0.000000
    20  H    2.539494   2.080576   2.972133   1.091103   0.000000
    21  H    3.069834   2.126782   2.556144   1.098023   1.774272
    22  H    3.808915   2.088965   2.425273   1.093250   1.783251
                   21         22
    21  H    0.000000
    22  H    1.785944   0.000000
 Stoichiometry    C6H12N2O2
 Framework group  C1[X(C6H12N2O2)]
 Deg. of freedom    60
 Full point group                 C1      NOp   1
 Largest Abelian subgroup         C1      NOp   1
 Largest concise Abelian subgroup C1      NOp   1
                         Standard orientation:                         
 ---------------------------------------------------------------------
 Center     Atomic      Atomic             Coordinates (Angstroms)
 Number     Number       Type             X           Y           Z
 ---------------------------------------------------------------------
      1          1           0       -3.522496   -1.729792    0.108710
      2          6           0       -3.003395   -0.908792    0.607910
      3          1           0       -2.765095   -1.233393    1.627710
      4          1           0       -3.667194   -0.040391    0.667410
      5          6           0       -1.709294   -0.622294   -0.136190
      6          8           0       -1.047296   -1.512895   -0.661390
      7          7           0       -1.346993    0.697906   -0.207590
      8          1           0       -1.841792    1.330206    0.409710
      9          6           0        0.018308    1.117604   -0.558390
     10          1           0        0.144708    0.953404   -1.635690
     11          6           0        0.187010    2.602304   -0.246090
     12          1           0        0.164210    2.759704    0.836610
     13          1           0        1.153310    2.959202   -0.614290
     14          1           0       -0.602690    3.191205   -0.725290
     15          6           0        1.095207    0.293102    0.195010
     16          8           0        1.373107    0.541802    1.363110
     17          7           0        1.743006   -0.640798   -0.558390
     18          1           0        1.182805   -1.025698   -1.309990
     19          6           0        2.678804   -1.556000    0.079610
     20          1           0        3.309505   -0.988800    0.765910
     21          1           0        2.163103   -2.338199    0.652210
     22          1           0        3.303204   -2.024000   -0.686090
 ---------------------------------------------------------------------
 Rotational constants (GHZ):      1.6724475      1.0328428      0.7568750
 Standard basis: Aug-CC-pVDZ (5D, 7F)
 There are   338 symmetry adapted basis functions of A   symmetry.
 Integral buffers will be    131072 words long.
 Raffenetti 1 integral format.
 Two-electron integral symmetry is turned on.
   338 basis functions,   562 primitive gaussians,   358 cartesian basis functions
    39 alpha electrons       39 beta electrons
       nuclear repulsion energy       564.4061361298 Hartrees.
 NAtoms=   22 NActive=   22 NUniq=   22 SFac= 7.50D-01 NAtFMM=   80 NAOKFM=F Big=F
 One-electron integrals computed using PRISM.
 NBasis=   338 RedAO= T  NBF=   338
 NBsUse=   338 1.00D-06 NBFU=   338
 Harris functional with IExCor=  205 diagonalized for initial guess.
 ExpMin= 2.97D-02 ExpMax= 1.17D+04 ExpMxC= 4.01D+02 IAcc=3 IRadAn=         0 AccDes= 0.00D+00
 HarFok:  IExCor=  205 AccDes= 0.00D+00 IRadAn=         0 IDoV= 1
 ScaDFX=  1.000000  1.000000  1.000000  1.000000
 FoFCou: FMM=F IPFlag=           0 FMFlag=      100000 FMFlg1=           0
         NFxFlg=           0 DoJE=T BraDBF=F KetDBF=T FulRan=T
         Omega=  0.000000  0.000000  1.000000  0.000000  0.000000 ICntrl=     500 IOpCl=  0
         NMat0=    1 NMatS0=    1 NMatT0=    0 NMatD0=    1 NMtDS0=    0 NMtDT0=    0
         I1Cent=           4 NGrid=           0.
 Petite list used in FoFCou.
 Initial guess orbital symmetries:
       Occupied  (A) (A) (A) (A) (A) (A) (A) (A) (A) (A) (A) (A)
                 (A) (A) (A) (A) (A) (A) (A) (A) (A) (A) (A) (A)
                 (A) (A) (A) (A) (A) (A) (A) (A) (A) (A) (A) (A)
                 (A) (A) (A)
       Virtual   (A) (A) (A) (A) (A) (A) (A) (A) (A) (A) (A) (A)
                 (A) (A) (A) (A) (A) (A) (A) (A) (A) (A) (A) (A)
                 (A) (A) (A) (A) (A) (A) (A) (A) (A) (A) (A) (A)
                 (A) (A) (A) (A) (A) (A) (A) (A) (A) (A) (A) (A)
                 (A) (A) (A) (A) (A) (A) (A) (A) (A) (A) (A) (A)
                 (A) (A) (A) (A) (A) (A) (A) (A) (A) (A) (A) (A)
                 (A) (A) (A) (A) (A) (A) (A) (A) (A) (A) (A) (A)
                 (A) (A) (A) (A) (A) (A) (A) (A) (A) (A) (A) (A)
                 (A) (A) (A) (A) (A) (A) (A) (A) (A) (A) (A) (A)
                 (A) (A) (A) (A) (A) (A) (A) (A) (A) (A) (A) (A)
                 (A) (A) (A) (A) (A) (A) (A) (A) (A) (A) (A) (A)
                 (A) (A) (A) (A) (A) (A) (A) (A) (A) (A) (A) (A)
                 (A) (A) (A) (A) (A) (A) (A) (A) (A) (A) (A) (A)
                 (A) (A) (A) (A) (A) (A) (A) (A) (A) (A) (A) (A)
                 (A) (A) (A) (A) (A) (A) (A) (A) (A) (A) (A) (A)
                 (A) (A) (A) (A) (A) (A) (A) (A) (A) (A) (A) (A)
                 (A) (A) (A) (A) (A) (A) (A) (A) (A) (A) (A) (A)
                 (A) (A) (A) (A) (A) (A) (A) (A) (A) (A) (A) (A)
                 (A) (A) (A) (A) (A) (A) (A) (A) (A) (A) (A) (A)
                 (A) (A) (A) (A) (A) (A) (A) (A) (A) (A) (A) (A)
                 (A) (A) (A) (A) (A) (A) (A) (A) (A) (A) (A) (A)
                 (A) (A) (A) (A) (A) (A) (A) (A) (A) (A) (A) (A)
                 (A) (A) (A) (A) (A) (A) (A) (A) (A) (A) (A) (A)
                 (A) (A) (A) (A) (A) (A) (A) (A) (A) (A) (A) (A)
                 (A) (A) (A) (A) (A) (A) (A) (A) (A) (A) (A)
 The electronic state of the initial guess is 1-A.
 Requested convergence on RMS density matrix=1.00D-08 within 128 cycles.
 Requested convergence on MAX density matrix=1.00D-06.
 Requested convergence on             energy=1.00D-06.
 No special actions if energy rises.
 Initial convergence to 1.0D-05 achieved.  Increase integral accuracy.
 SCF Done:  E(RHF) =  -492.924178825     A.U. after   15 cycles
             Convg  =    0.3703D-08             -V/T =  2.0017
 ExpMin= 2.97D-02 ExpMax= 1.17D+04 ExpMxC= 4.01D+02 IAcc=3 IRadAn=         5 AccDes= 0.00D+00
 HarFok:  IExCor=  205 AccDes= 0.00D+00 IRadAn=         5 IDoV=-2
 ScaDFX=  1.000000  1.000000  1.000000  1.000000
 Range of M.O.s used for correlation:    11   338
 NBasis=   338 NAE=    39 NBE=    39 NFC=    10 NFV=     0
 NROrb=    328 NOA=    29 NOB=    29 NVA=   299 NVB=   299

 **** Warning!!: The largest alpha MO coefficient is  0.64956076D+02

 Disk-based method using OVN memory for 29 occupieds at a time.
 Estimated scratch disk usage=  1393905594 words.
 Actual    scratch disk usage=  1380709630 words.
 JobTyp=1 Pass  1:  I=   1 to  29 NPSUse=  8 ParTrn=T ParDer=T DoDerP=F.
 Spin components of T(2) and E(2):
     alpha-alpha T2 =       0.6796513101D-01 E2=     -0.2058631040D+00
     alpha-beta  T2 =       0.3769517476D+00 E2=     -0.1190931471D+01
     beta-beta   T2 =       0.6796513101D-01 E2=     -0.2058631040D+00
 ANorm=    0.1229992687D+01
 E2 =    -0.1602657679D+01 EUMP2 =    -0.49452683650459D+03

 **********************************************************************

            Population analysis using the SCF density.

 **********************************************************************

 Orbital symmetries:
       Occupied  (A) (A) (A) (A) (A) (A) (A) (A) (A) (A) (A) (A)
                 (A) (A) (A) (A) (A) (A) (A) (A) (A) (A) (A) (A)
                 (A) (A) (A) (A) (A) (A) (A) (A) (A) (A) (A) (A)
                 (A) (A) (A)
       Virtual   (A) (A) (A) (A) (A) (A) (A) (A) (A) (A) (A) (A)
                 (A) (A) (A) (A) (A) (A) (A) (A) (A) (A) (A) (A)
                 (A) (A) (A) (A) (A) (A) (A) (A) (A) (A) (A) (A)
                 (A) (A) (A) (A) (A) (A) (A) (A) (A) (A) (A) (A)
                 (A) (A) (A) (A) (A) (A) (A) (A) (A) (A) (A) (A)
                 (A) (A) (A) (A) (A) (A) (A) (A) (A) (A) (A) (A)
                 (A) (A) (A) (A) (A) (A) (A) (A) (A) (A) (A) (A)
                 (A) (A) (A) (A) (A) (A) (A) (A) (A) (A) (A) (A)
                 (A) (A) (A) (A) (A) (A) (A) (A) (A) (A) (A) (A)
                 (A) (A) (A) (A) (A) (A) (A) (A) (A) (A) (A) (A)
                 (A) (A) (A) (A) (A) (A) (A) (A) (A) (A) (A) (A)
                 (A) (A) (A) (A) (A) (A) (A) (A) (A) (A) (A) (A)
                 (A) (A) (A) (A) (A) (A) (A) (A) (A) (A) (A) (A)
                 (A) (A) (A) (A) (A) (A) (A) (A) (A) (A) (A) (A)
                 (A) (A) (A) (A) (A) (A) (A) (A) (A) (A) (A) (A)
                 (A) (A) (A) (A) (A) (A) (A) (A) (A) (A) (A) (A)
                 (A) (A) (A) (A) (A) (A) (A) (A) (A) (A) (A) (A)
                 (A) (A) (A) (A) (A) (A) (A) (A) (A) (A) (A) (A)
                 (A) (A) (A) (A) (A) (A) (A) (A) (A) (A) (A) (A)
                 (A) (A) (A) (A) (A) (A) (A) (A) (A) (A) (A) (A)
                 (A) (A) (A) (A) (A) (A) (A) (A) (A) (A) (A) (A)
                 (A) (A) (A) (A) (A) (A) (A) (A) (A) (A) (A) (A)
                 (A) (A) (A) (A) (A) (A) (A) (A) (A) (A) (A) (A)
                 (A) (A) (A) (A) (A) (A) (A) (A) (A) (A) (A) (A)
                 (A) (A) (A) (A) (A) (A) (A) (A) (A) (A) (A)
 The electronic state is 1-A.
 Alpha  occ. eigenvalues --  -20.54202 -20.53005 -15.60547 -15.58127 -11.37225
 Alpha  occ. eigenvalues --  -11.35277 -11.29601 -11.25645 -11.25316 -11.24079
 Alpha  occ. eigenvalues --   -1.39624  -1.37922  -1.24551  -1.22205  -1.05882
 Alpha  occ. eigenvalues --   -0.99722  -0.95219  -0.87111  -0.80724  -0.76854
 Alpha  occ. eigenvalues --   -0.71585  -0.69004  -0.67305  -0.63629  -0.61998
 Alpha  occ. eigenvalues --   -0.61639  -0.59634  -0.58649  -0.57559  -0.54908
 Alpha  occ. eigenvalues --   -0.54141  -0.53611  -0.52817  -0.51414  -0.50696
 Alpha  occ. eigenvalues --   -0.44244  -0.43583  -0.40188  -0.38104
 Alpha virt. eigenvalues --    0.02937   0.03984   0.04288   0.04844   0.05627
 Alpha virt. eigenvalues --    0.06231   0.06453   0.06910   0.07363   0.08013
 Alpha virt. eigenvalues --    0.09122   0.09578   0.11013   0.11881   0.13217
 Alpha virt. eigenvalues --    0.13362   0.14190   0.14768   0.14844   0.15397
 Alpha virt. eigenvalues --    0.15585   0.16193   0.16240   0.16955   0.17308
 Alpha virt. eigenvalues --    0.17957   0.18012   0.18233   0.18464   0.19402
 Alpha virt. eigenvalues --    0.20165   0.20249   0.20640   0.21344   0.22434
 Alpha virt. eigenvalues --    0.23294   0.24066   0.24956   0.25357   0.26328
 Alpha virt. eigenvalues --    0.27474   0.28664   0.28993   0.29929   0.31241
 Alpha virt. eigenvalues --    0.31857   0.32488   0.32908   0.33117   0.33620
 Alpha virt. eigenvalues --    0.34608   0.34860   0.35214   0.36142   0.37261
 Alpha virt. eigenvalues --    0.37338   0.37874   0.38790   0.39442   0.39698
 Alpha virt. eigenvalues --    0.40629   0.41318   0.42259   0.42757   0.42938
 Alpha virt. eigenvalues --    0.43937   0.44178   0.44692   0.46094   0.46297
 Alpha virt. eigenvalues --    0.46740   0.47269   0.49011   0.49182   0.49487
 Alpha virt. eigenvalues --    0.50136   0.50481   0.50863   0.51955   0.53123
 Alpha virt. eigenvalues --    0.53789   0.54532   0.54964   0.55332   0.56071
 Alpha virt. eigenvalues --    0.56419   0.57593   0.58065   0.58604   0.58844
 Alpha virt. eigenvalues --    0.59164   0.59802   0.61121   0.61706   0.62518
 Alpha virt. eigenvalues --    0.62966   0.63359   0.64310   0.64845   0.65053
 Alpha virt. eigenvalues --    0.65919   0.66254   0.66737   0.67908   0.68204
 Alpha virt. eigenvalues --    0.69359   0.69590   0.69976   0.70663   0.71710
 Alpha virt. eigenvalues --    0.72423   0.73105   0.73730   0.74386   0.74968
 Alpha virt. eigenvalues --    0.76023   0.76900   0.77741   0.78738   0.79418
 Alpha virt. eigenvalues --    0.79764   0.80508   0.82254   0.82397   0.83133
 Alpha virt. eigenvalues --    0.84656   0.85467   0.86044   0.87153   0.88218
 Alpha virt. eigenvalues --    0.88595   0.89000   0.90447   0.91195   0.92238
 Alpha virt. eigenvalues --    0.93379   0.96139   0.96583   0.98622   1.00032
 Alpha virt. eigenvalues --    1.00444   1.01317   1.03384   1.03648   1.04886
 Alpha virt. eigenvalues --    1.05137   1.07946   1.08767   1.10467   1.11774
 Alpha virt. eigenvalues --    1.12390   1.13561   1.14669   1.16061   1.16539
 Alpha virt. eigenvalues --    1.17090   1.18465   1.21511   1.21727   1.23386
 Alpha virt. eigenvalues --    1.23682   1.25175   1.27132   1.28817   1.30018
 Alpha virt. eigenvalues --    1.30794   1.32485   1.36607   1.37618   1.38444
 Alpha virt. eigenvalues --    1.39627   1.41223   1.43625   1.45595   1.46588
 Alpha virt. eigenvalues --    1.50017   1.51319   1.51753   1.53710   1.56478
 Alpha virt. eigenvalues --    1.57478   1.59240   1.60195   1.62398   1.64268
 Alpha virt. eigenvalues --    1.67011   1.67487   1.70561   1.71135   1.72497
 Alpha virt. eigenvalues --    1.74256   1.76429   1.77250   1.78850   1.81369
 Alpha virt. eigenvalues --    1.82495   1.83707   1.84531   1.87989   1.88789
 Alpha virt. eigenvalues --    1.89510   1.90498   1.91776   1.92382   1.93793
 Alpha virt. eigenvalues --    1.95247   1.97075   1.99010   2.00087   2.01656
 Alpha virt. eigenvalues --    2.02828   2.04001   2.06566   2.07582   2.11397
 Alpha virt. eigenvalues --    2.12264   2.13371   2.14467   2.15253   2.16920
 Alpha virt. eigenvalues --    2.19523   2.21378   2.22259   2.23021   2.25249
 Alpha virt. eigenvalues --    2.26155   2.28202   2.28928   2.30623   2.30629
 Alpha virt. eigenvalues --    2.31870   2.33236   2.34933   2.36491   2.37167
 Alpha virt. eigenvalues --    2.39309   2.40445   2.42648   2.44626   2.45841
 Alpha virt. eigenvalues --    2.46961   2.48579   2.49481   2.50686   2.51491
 Alpha virt. eigenvalues --    2.53900   2.55486   2.55533   2.58063   2.61336
 Alpha virt. eigenvalues --    2.62373   2.65854   2.67178   2.67514   2.68955
 Alpha virt. eigenvalues --    2.71781   2.73558   2.76438   2.77119   2.78669
 Alpha virt. eigenvalues --    2.82892   2.85706   2.86924   2.87781   2.88953
 Alpha virt. eigenvalues --    2.91159   2.92244   2.92858   2.95423   2.97490
 Alpha virt. eigenvalues --    3.00267   3.02372   3.04727   3.05002   3.08431
 Alpha virt. eigenvalues --    3.10005   3.12180   3.16022   3.20181   3.23282
 Alpha virt. eigenvalues --    3.32484   3.38512   3.41429   3.46396   3.48329
 Alpha virt. eigenvalues --    3.58937   3.67111   3.77050   3.84707   3.86391
 Alpha virt. eigenvalues --    3.87462   3.88202   3.95408   3.97125   4.03317
 Alpha virt. eigenvalues --    4.08218   4.13116   4.22239   4.33808
          Condensed to atoms (all electrons):
              1          2          3          4          5          6
     1  H    0.783261   0.392368  -0.047941  -0.106751  -0.090947   0.022048
     2  C    0.392368   4.568637   0.345007   0.307706   0.084075  -0.019031
     3  H   -0.047941   0.345007   0.715098  -0.070091  -0.047359   0.014192
     4  H   -0.106751   0.307706  -0.070091   1.038991   0.134970  -0.006601
     5  C   -0.090947   0.084075  -0.047359   0.134970   5.534638   0.156586
     6  O    0.022048  -0.019031   0.014192  -0.006601   0.156586   8.753484
     7  N    0.056194   0.035202   0.023069  -0.175390   0.037539  -0.121807
     8  H   -0.004822  -0.067853  -0.007353   0.013735  -0.030793  -0.001456
     9  C   -0.010907   0.020891   0.023640  -0.029694  -0.334218   0.075569
    10  H   -0.002756   0.001024   0.001372  -0.000462   0.008855   0.018855
    11  C    0.001818  -0.030994  -0.001382  -0.006149   0.015461  -0.009626
    12  H   -0.000157  -0.010071  -0.000893  -0.000099   0.002673  -0.000278
    13  H    0.000210   0.001227  -0.000034  -0.000387   0.010630  -0.000896
    14  H   -0.000082   0.007205   0.000424   0.001331  -0.025255   0.001371
    15  C    0.008084   0.005068  -0.015627  -0.008920  -0.143108  -0.001213
    16  O   -0.000762   0.003867   0.001051   0.001510   0.022985   0.005195
    17  N    0.000198  -0.014555   0.000138   0.001296   0.055071   0.001046
    18  H    0.000477  -0.002399  -0.000084   0.000393   0.025357  -0.030971
    19  C   -0.000287  -0.001185  -0.000525   0.000094   0.009584   0.002431
    20  H    0.000026   0.001578  -0.000013   0.000028  -0.006566  -0.002226
    21  H   -0.000359  -0.003828  -0.000392   0.000160   0.006966   0.002713
    22  H   -0.000039  -0.000565  -0.000071  -0.000013  -0.000419   0.003309
              7          8          9         10         11         12
     1  H    0.056194  -0.004822  -0.010907  -0.002756   0.001818  -0.000157
     2  C    0.035202  -0.067853   0.020891   0.001024  -0.030994  -0.010071
     3  H    0.023069  -0.007353   0.023640   0.001372  -0.001382  -0.000893
     4  H   -0.175390   0.013735  -0.029694  -0.000462  -0.006149  -0.000099
     5  C    0.037539  -0.030793  -0.334218   0.008855   0.015461   0.002673
     6  O   -0.121807  -0.001456   0.075569   0.018855  -0.009626  -0.000278
     7  N    7.457056   0.397472  -0.178377  -0.042972  -0.022348   0.000041
     8  H    0.397472   0.880733  -0.280262   0.011639   0.020524   0.016000
     9  C   -0.178377  -0.280262   7.360117  -0.318453   0.165742  -0.166648
    10  H   -0.042972   0.011639  -0.318453   1.543111  -0.029627   0.063685
    11  C   -0.022348   0.020524   0.165742  -0.029627   4.363330   0.432092
    12  H    0.000041   0.016000  -0.166648   0.063685   0.432092   0.957089
    13  H    0.070689   0.004830  -0.074087  -0.067473   0.244631  -0.129587
    14  H   -0.087064  -0.010586   0.247071  -0.039730   0.212970  -0.219537
    15  C    0.085645   0.062163  -0.717241   0.206734  -0.027786   0.056459
    16  O    0.018443  -0.009122  -0.014828  -0.019356  -0.022441  -0.013638
    17  N    0.009891   0.003185   0.034355  -0.055610   0.022220  -0.014386
    18  H   -0.003472  -0.000399  -0.021045   0.021530   0.008172   0.001779
    19  C   -0.000352   0.002815  -0.041667   0.016518  -0.002597  -0.000695
    20  H   -0.001872  -0.000345   0.015065   0.003975  -0.002195  -0.000374
    21  H   -0.000584   0.000980   0.012236  -0.000367   0.004444   0.000184
    22  H    0.000711  -0.000012  -0.013142   0.000704   0.000541   0.000490
             13         14         15         16         17         18
     1  H    0.000210  -0.000082   0.008084  -0.000762   0.000198   0.000477
     2  C    0.001227   0.007205   0.005068   0.003867  -0.014555  -0.002399
     3  H   -0.000034   0.000424  -0.015627   0.001051   0.000138  -0.000084
     4  H   -0.000387   0.001331  -0.008920   0.001510   0.001296   0.000393
     5  C    0.010630  -0.025255  -0.143108   0.022985   0.055071   0.025357
     6  O   -0.000896   0.001371  -0.001213   0.005195   0.001046  -0.030971
     7  N    0.070689  -0.087064   0.085645   0.018443   0.009891  -0.003472
     8  H    0.004830  -0.010586   0.062163  -0.009122   0.003185  -0.000399
     9  C   -0.074087   0.247071  -0.717241  -0.014828   0.034355  -0.021045
    10  H   -0.067473  -0.039730   0.206734  -0.019356  -0.055610   0.021530
    11  C    0.244631   0.212970  -0.027786  -0.022441   0.022220   0.008172
    12  H   -0.129587  -0.219537   0.056459  -0.013638  -0.014386   0.001779
    13  H    1.240482  -0.217844  -0.017821   0.010972  -0.003251   0.004530
    14  H   -0.217844   1.179567  -0.033190   0.005333   0.015302  -0.002935
    15  C   -0.017821  -0.033190   5.609682   0.099273  -0.011389  -0.095032
    16  O    0.010972   0.005333   0.099273   8.823446  -0.079884   0.006535
    17  N   -0.003251   0.015302  -0.011389  -0.079884   7.179095   0.331202
    18  H    0.004530  -0.002935  -0.095032   0.006535   0.331202   0.816273
    19  C   -0.001063   0.000474  -0.113775   0.047560   0.207760  -0.092530
    20  H   -0.000978   0.000616   0.108667  -0.033619  -0.073224   0.004449
    21  H    0.000280   0.000083  -0.043199   0.007499   0.119062  -0.017472
    22  H   -0.000392  -0.000191  -0.056981   0.015575  -0.137788   0.019005
             19         20         21         22
     1  H   -0.000287   0.000026  -0.000359  -0.000039
     2  C   -0.001185   0.001578  -0.003828  -0.000565
     3  H   -0.000525  -0.000013  -0.000392  -0.000071
     4  H    0.000094   0.000028   0.000160  -0.000013
     5  C    0.009584  -0.006566   0.006966  -0.000419
     6  O    0.002431  -0.002226   0.002713   0.003309
     7  N   -0.000352  -0.001872  -0.000584   0.000711
     8  H    0.002815  -0.000345   0.000980  -0.000012
     9  C   -0.041667   0.015065   0.012236  -0.013142
    10  H    0.016518   0.003975  -0.000367   0.000704
    11  C   -0.002597  -0.002195   0.004444   0.000541
    12  H   -0.000695  -0.000374   0.000184   0.000490
    13  H   -0.001063  -0.000978   0.000280  -0.000392
    14  H    0.000474   0.000616   0.000083  -0.000191
    15  C   -0.113775   0.108667  -0.043199  -0.056981
    16  O    0.047560  -0.033619   0.007499   0.015575
    17  N    0.207760  -0.073224   0.119062  -0.137788
    18  H   -0.092530   0.004449  -0.017472   0.019005
    19  C    4.084657   0.368838   0.279540   0.477537
    20  H    0.368838   1.027989  -0.103526  -0.183735
    21  H    0.279540  -0.103526   0.975456  -0.175871
    22  H    0.477537  -0.183735  -0.175871   1.231887
 Mulliken atomic charges:
              1
     1  H    0.001125
     2  C    0.376625
     3  H    0.067773
     4  H   -0.095659
     5  C    0.573276
     6  O   -0.862697
     7  N   -0.557715
     8  H   -0.001070
     9  C    0.245883
    10  H   -0.321196
    11  C    0.663198
    12  H    0.025870
    13  H   -0.074666
    14  H   -0.035331
    15  C    1.043507
    16  O   -0.875593
    17  N   -0.589732
    18  H    0.026638
    19  C    0.756869
    20  H   -0.122559
    21  H   -0.064005
    22  H   -0.180541
 Sum of Mulliken atomic charges =   0.00000
 Mulliken charges with hydrogens summed into heavy atoms:
              1
     2  C    0.349865
     5  C    0.573276
     6  O   -0.862697
     7  N   -0.558786
     9  C   -0.075313
    11  C    0.579071
    15  C    1.043507
    16  O   -0.875593
    17  N   -0.563094
    19  C    0.389764
 Sum of Mulliken charges with hydrogens summed into heavy atoms =   0.00000
 Electronic spatial extent (au):  <R**2>=           1653.3366
 Charge=              0.0000 electrons
 Dipole moment (field-independent basis, Debye):
    X=             -2.3372    Y=              1.3975    Z=             -1.1819  Tot=              2.9685
 Quadrupole moment (field-independent basis, Debye-Ang):
   XX=            -53.8750   YY=            -60.1846   ZZ=            -65.0910
   XY=             -5.2385   XZ=             -7.6721   YZ=             -3.1468
 Traceless Quadrupole moment (field-independent basis, Debye-Ang):
   XX=              5.8419   YY=             -0.4677   ZZ=             -5.3741
   XY=             -5.2385   XZ=             -7.6721   YZ=             -3.1468
 Octapole moment (field-independent basis, Debye-Ang**2):
  XXX=            -17.9844  YYY=              8.8612  ZZZ=             -7.4835  XYY=              5.4979
  XXY=            -12.0075  XXZ=              3.9567  XZZ=             -5.7204  YZZ=             -4.8015
  YYZ=              2.6884  XYZ=              0.0577
 Hexadecapole moment (field-independent basis, Debye-Ang**3):
 XXXX=          -1148.8422 YYYY=           -741.6056 ZZZZ=           -226.4304 XXXY=             -5.3418
 XXXZ=             -7.4658 YYYX=            -13.0363 YYYZ=             -1.4830 ZZZX=            -12.0269
 ZZZY=              2.3582 XXYY=           -303.1960 XXZZ=           -251.5156 YYZZ=           -158.1865
 XXYZ=              1.6485 YYXZ=            -12.0341 ZZXY=             -6.6265
 N-N= 5.644061361298D+02 E-N=-2.284182995125D+03  KE= 4.920733466946D+02
 1\1\GINC-NODE011\SP\RMP2-FC\Aug-CC-pVDZ\C6H12N2O2\MANAGER\13-Feb-2017\
 0\\#SP MP2/aug-cc-pVDZ\\Single Point calculation at MP2\\0,1\H,0,-3.52
 25,-1.7298,0.1087\C,0,-3.0034,-0.9088,0.6079\H,0,-2.7651,-1.2334,1.627
 7\H,0,-3.6672,-0.0404,0.6674\C,0,-1.7093,-0.6223,-0.1362\O,0,-1.0473,-
 1.5129,-0.6614\N,0,-1.347,0.6979,-0.2076\H,0,-1.8418,1.3302,0.4097\C,0
 ,0.0183,1.1176,-0.5584\H,0,0.1447,0.9534,-1.6357\C,0,0.187,2.6023,-0.2
 461\H,0,0.1642,2.7597,0.8366\H,0,1.1533,2.9592,-0.6143\H,0,-0.6027,3.1
 912,-0.7253\C,0,1.0952,0.2931,0.195\O,0,1.3731,0.5418,1.3631\N,0,1.743
 ,-0.6408,-0.5584\H,0,1.1828,-1.0257,-1.31\C,0,2.6788,-1.556,0.0796\H,0
 ,3.3095,-0.9888,0.7659\H,0,2.1631,-2.3382,0.6522\H,0,3.3032,-2.024,-0.
 6861\\Version=EM64L-G09RevA.02\State=1-A\HF=-492.9241788\MP2=-494.5268
 365\RMSD=3.703e-09\PG=C01 [X(C6H12N2O2)]\\@


 A MAN IS NEVER SO BRILLIANT AS WHEN HE TAKES THE WORDS RIGHT OUT
 OF YOUR MOUTH. -- ARNOT SHEPPARD, JR.
 Job cpu time:  0 days 11 hours 16 minutes 33.2 seconds.
 File lengths (MBytes):  RWF=  10650 Int=      0 D2E=      0 Chk=      7 Scr=      2
 Normal termination of Gaussian 09 at Mon Feb 13 17:41:19 2017.
