 Entering Gaussian System, Link 0=g09
 Initial command:
 /home/steboss/Software/g09/l1.exe /home/steboss/projects/phi_psi_scan/alanine/MP2/315/5581/Gau-12240.inp -scrdir=/home/steboss/projects/phi_psi_scan/alanine/MP2/315/5581/
 Entering Link 1 = /home/steboss/Software/g09/l1.exe PID=     12242.
  
 Copyright (c) 1988,1990,1992,1993,1995,1998,2003,2009, Gaussian, Inc.
                  All Rights Reserved.
  
 This is part of the Gaussian(R) 09 program.  It is based on
 the Gaussian(R) 03 system (copyright 2003, Gaussian, Inc.),
 the Gaussian(R) 98 system (copyright 1998, Gaussian, Inc.),
 the Gaussian(R) 94 system (copyright 1995, Gaussian, Inc.),
 the Gaussian 92(TM) system (copyright 1992, Gaussian, Inc.),
 the Gaussian 90(TM) system (copyright 1990, Gaussian, Inc.),
 the Gaussian 88(TM) system (copyright 1988, Gaussian, Inc.),
 the Gaussian 86(TM) system (copyright 1986, Carnegie Mellon
 University), and the Gaussian 82(TM) system (copyright 1983,
 Carnegie Mellon University). Gaussian is a federally registered
 trademark of Gaussian, Inc.
  
 This software contains proprietary and confidential information,
 including trade secrets, belonging to Gaussian, Inc.
  
 This software is provided under written license and may be
 used, copied, transmitted, or stored only in accord with that
 written license.
  
 The following legend is applicable only to US Government
 contracts under FAR:
  
                    RESTRICTED RIGHTS LEGEND
  
 Use, reproduction and disclosure by the US Government is
 subject to restrictions as set forth in subparagraphs (a)
 and (c) of the Commercial Computer Software - Restricted
 Rights clause in FAR 52.227-19.
  
 Gaussian, Inc.
 340 Quinnipiac St., Bldg. 40, Wallingford CT 06492
  
  
 ---------------------------------------------------------------
 Warning -- This program may not be used in any manner that
 competes with the business of Gaussian, Inc. or will provide
 assistance to any competitor of Gaussian, Inc.  The licensee
 of this program is prohibited from giving any competitor of
 Gaussian, Inc. access to this program.  By using this program,
 the user acknowledges that Gaussian, Inc. is engaged in the
 business of creating and licensing software in the field of
 computational chemistry and represents and warrants to the
 licensee that it is not a competitor of Gaussian, Inc. and that
 it will not use this program in any manner prohibited above.
 ---------------------------------------------------------------
  

 Cite this work as:
 Gaussian 09, Revision A.02,
 M. J. Frisch, G. W. Trucks, H. B. Schlegel, G. E. Scuseria, 
 M. A. Robb, J. R. Cheeseman, G. Scalmani, V. Barone, B. Mennucci, 
 G. A. Petersson, H. Nakatsuji, M. Caricato, X. Li, H. P. Hratchian, 
 A. F. Izmaylov, J. Bloino, G. Zheng, J. L. Sonnenberg, M. Hada, 
 M. Ehara, K. Toyota, R. Fukuda, J. Hasegawa, M. Ishida, T. Nakajima, 
 Y. Honda, O. Kitao, H. Nakai, T. Vreven, J. A. Montgomery, Jr., 
 J. E. Peralta, F. Ogliaro, M. Bearpark, J. J. Heyd, E. Brothers, 
 K. N. Kudin, V. N. Staroverov, R. Kobayashi, J. Normand, 
 K. Raghavachari, A. Rendell, J. C. Burant, S. S. Iyengar, J. Tomasi, 
 M. Cossi, N. Rega, J. M. Millam, M. Klene, J. E. Knox, J. B. Cross, 
 V. Bakken, C. Adamo, J. Jaramillo, R. Gomperts, R. E. Stratmann, 
 O. Yazyev, A. J. Austin, R. Cammi, C. Pomelli, J. W. Ochterski, 
 R. L. Martin, K. Morokuma, V. G. Zakrzewski, G. A. Voth, 
 P. Salvador, J. J. Dannenberg, S. Dapprich, A. D. Daniels, 
 O. Farkas, J. B. Foresman, J. V. Ortiz, J. Cioslowski, 
 and D. J. Fox, Gaussian, Inc., Wallingford CT, 2009.
 
 ******************************************
 Gaussian 09:  EM64L-G09RevA.02 11-Jun-2009
                13-Feb-2017 
 ******************************************
 %chk=structure_330.chk
 %NProcShared=8
 Will use up to    8 processors via shared memory.
 -------------------
 #SP MP2/aug-cc-pVDZ
 -------------------
 1/38=1/1;
 2/12=2,17=6,18=5,40=1/2;
 3/5=16,7=10,11=9,16=1,25=1,30=1/1,2,3;
 4//1;
 5/5=2,38=5/2;
 8/10=1/1;
 9/16=-3/6;
 6/7=2,8=2,9=2,10=2/1;
 99/5=1,9=1/99;
 -------------------------------
 Single Point calculation at MP2
 -------------------------------
 Symbolic Z-matrix:
 Charge =  0 Multiplicity = 1
 H                     3.3108   -1.6101   -0.6666 
 C                     3.2072   -0.5733   -0.3365 
 H                     3.4539    0.0965   -1.1666 
 H                     3.9331   -0.4124    0.468 
 C                     1.8041   -0.3738    0.2227 
 O                     1.2849   -1.1845    0.9799 
 N                     1.1836    0.787    -0.1575 
 H                     1.668     1.3956   -0.8026 
 C                    -0.144     1.2189    0.2854 
 H                    -0.0858    1.5231    1.3372 
 C                    -0.5893    2.4237   -0.5527 
 H                    -0.6841    2.1518   -1.6103 
 H                    -1.5617    2.7708   -0.1958 
 H                     0.126     3.2501   -0.4623 
 C                    -1.2702    0.1607    0.2823 
 O                    -2.2337    0.3392    1.0164 
 N                    -1.1978   -0.8372   -0.6431 
 H                    -0.2815   -1.0466   -1.0103 
 C                    -2.1635   -1.9254   -0.6303 
 H                    -3.128    -1.5213   -0.3209 
 H                    -2.2509   -2.3511   -1.6344 
 H                    -1.8752   -2.7173    0.0732 
 
                          Input orientation:                          
 ---------------------------------------------------------------------
 Center     Atomic      Atomic             Coordinates (Angstroms)
 Number     Number       Type             X           Y           Z
 ---------------------------------------------------------------------
      1          1           0        3.310800   -1.610100   -0.666600
      2          6           0        3.207200   -0.573300   -0.336500
      3          1           0        3.453900    0.096500   -1.166600
      4          1           0        3.933100   -0.412400    0.468000
      5          6           0        1.804100   -0.373800    0.222700
      6          8           0        1.284900   -1.184500    0.979900
      7          7           0        1.183600    0.787000   -0.157500
      8          1           0        1.668000    1.395600   -0.802600
      9          6           0       -0.144000    1.218900    0.285400
     10          1           0       -0.085800    1.523100    1.337200
     11          6           0       -0.589300    2.423700   -0.552700
     12          1           0       -0.684100    2.151800   -1.610300
     13          1           0       -1.561700    2.770800   -0.195800
     14          1           0        0.126000    3.250100   -0.462300
     15          6           0       -1.270200    0.160700    0.282300
     16          8           0       -2.233700    0.339200    1.016400
     17          7           0       -1.197800   -0.837200   -0.643100
     18          1           0       -0.281500   -1.046600   -1.010300
     19          6           0       -2.163500   -1.925400   -0.630300
     20          1           0       -3.128000   -1.521300   -0.320900
     21          1           0       -2.250900   -2.351100   -1.634400
     22          1           0       -1.875200   -2.717300    0.073200
 ---------------------------------------------------------------------
                    Distance matrix (angstroms):
                    1          2          3          4          5
     1  H    0.000000
     2  C    1.093002   0.000000
     3  H    1.784086   1.094787   0.000000
     4  H    1.763253   1.095463   1.777788   0.000000
     5  C    2.142297   1.523547   2.207527   2.143433   0.000000
     6  O    2.645065   2.408674   3.309529   2.805556   1.224808
     7  N    3.245035   2.444875   2.578630   3.064239   1.370047
     8  H    3.428049   2.542234   2.238213   3.164485   2.049522
     9  C    4.565653   3.850881   4.038932   4.395137   2.517085
    10  H    5.036770   4.247354   4.564392   4.544582   2.900355
    11  C    5.612067   4.841711   4.705337   5.434832   3.762395
    12  H    5.567916   4.918430   4.641570   5.675649   3.991201
    13  H    6.569261   5.826252   5.766331   6.384843   4.625177
    14  H    5.814313   4.912027   4.638550   5.364082   4.051900
    15  C    5.002170   4.579168   4.941716   5.238059   3.120987
    16  O    6.113407   5.680351   6.096982   6.236591   4.176381
    17  N    4.574429   4.423536   4.773276   5.266985   3.158442
    18  H    3.652435   3.584557   3.909517   4.511145   2.514493
    19  C    5.483493   5.546072   5.994237   6.376830   4.344758
    20  H    6.448685   6.405756   6.830366   7.191047   5.092923
    21  H    5.693700   5.885233   6.225297   6.813259   4.878684
    22  H    5.354231   5.531309   6.152551   6.261372   4.364813
                    6          7          8          9         10
     6  O    0.000000
     7  N    2.278322   0.000000
     8  H    3.159270   1.010540   0.000000
     9  C    2.881044   1.464657   2.120922   0.000000
    10  H    3.055745   2.094600   2.769624   1.096453   0.000000
    11  C    4.345181   2.445024   2.492959   1.533704   2.153210
    12  H    4.660150   2.731595   2.599345   2.180754   3.072618
    13  H    5.012963   3.387270   3.562351   2.156344   2.466805
    14  H    4.805067   2.697829   2.435721   2.181222   2.503116
    15  C    2.970647   2.570372   3.366750   1.545355   2.090873
    16  O    3.834520   3.640948   4.432607   2.382242   2.473460
    17  N    2.986393   2.923166   3.636433   2.490011   3.275538
    18  H    2.536439   2.497173   3.131778   2.613472   3.486031
    19  C    3.877259   4.334020   5.073374   3.847533   4.481076
    20  H    4.612938   4.893347   5.634000   4.096407   4.612228
    21  H    4.549440   4.881055   5.485201   4.568321   5.341113
    22  H    3.627370   4.657209   5.498840   4.305317   4.772907
                   11         12         13         14         15
    11  C    0.000000
    12  H    1.096100   0.000000
    13  H    1.092437   1.775994   0.000000
    14  H    1.096706   1.783376   1.774565   0.000000
    15  C    2.506396   2.808901   2.669489   3.471051   0.000000
    16  O    3.084034   3.547722   2.798873   4.028409   1.224376
    17  N    3.318420   3.183313   3.653788   4.300134   1.362869
    18  H    3.513847   3.279001   4.107903   4.350631   2.026306
    19  C    4.625884   4.446637   4.754498   5.661787   2.445943
    20  H    4.696994   4.596397   4.570675   5.777090   2.577672
    21  H    5.170078   4.767762   5.364553   6.196524   3.308270
    22  H    5.336213   5.287819   5.503625   6.316757   2.948327
                   16         17         18         19         20
    16  O    0.000000
    17  N    2.282750   0.000000
    18  H    3.136724   1.009104   0.000000
    19  C    2.800886   1.454964   2.111543   0.000000
    20  H    2.459594   2.073036   2.967014   1.090544   0.000000
    21  H    3.776870   2.093702   2.443309   1.094110   1.784140
    22  H    3.218748   2.122907   2.550508   1.097786   1.776299
                   21         22
    21  H    0.000000
    22  H    1.786379   0.000000
 Stoichiometry    C6H12N2O2
 Framework group  C1[X(C6H12N2O2)]
 Deg. of freedom    60
 Full point group                 C1      NOp   1
 Largest Abelian subgroup         C1      NOp   1
 Largest concise Abelian subgroup C1      NOp   1
                         Standard orientation:                         
 ---------------------------------------------------------------------
 Center     Atomic      Atomic             Coordinates (Angstroms)
 Number     Number       Type             X           Y           Z
 ---------------------------------------------------------------------
      1          1           0        3.310799   -1.610088   -0.666603
      2          6           0        3.207195   -0.573288   -0.336503
      3          1           0        3.453892    0.096513   -1.166603
      4          1           0        3.933094   -0.412385    0.467997
      5          6           0        1.804094   -0.373794    0.222697
      6          8           0        1.284897   -1.184496    0.979897
      7          7           0        1.183589    0.787004   -0.157503
      8          1           0        1.667987    1.395605   -0.802603
      9          6           0       -0.144013    1.218898    0.285397
     10          1           0       -0.085814    1.523098    1.337197
     11          6           0       -0.589318    2.423696   -0.552703
     12          1           0       -0.684116    2.151796   -1.610303
     13          1           0       -1.561719    2.770792   -0.195803
     14          1           0        0.125979    3.250099   -0.462303
     15          6           0       -1.270208    0.160694    0.282297
     16          8           0       -2.233709    0.339190    1.016397
     17          7           0       -1.197804   -0.837206   -0.643103
     18          1           0       -0.281503   -1.046602   -1.010303
     19          6           0       -2.163500   -1.925410   -0.630303
     20          1           0       -3.128002   -1.521314   -0.320903
     21          1           0       -2.250898   -2.351110   -1.634403
     22          1           0       -1.875197   -2.717309    0.073197
 ---------------------------------------------------------------------
 Rotational constants (GHZ):      1.7473255      0.9856542      0.7438476
 Standard basis: Aug-CC-pVDZ (5D, 7F)
 There are   338 symmetry adapted basis functions of A   symmetry.
 Integral buffers will be    131072 words long.
 Raffenetti 1 integral format.
 Two-electron integral symmetry is turned on.
   338 basis functions,   562 primitive gaussians,   358 cartesian basis functions
    39 alpha electrons       39 beta electrons
       nuclear repulsion energy       563.0832318335 Hartrees.
 NAtoms=   22 NActive=   22 NUniq=   22 SFac= 7.50D-01 NAtFMM=   80 NAOKFM=F Big=F
 One-electron integrals computed using PRISM.
 NBasis=   338 RedAO= T  NBF=   338
 NBsUse=   338 1.00D-06 NBFU=   338
 Harris functional with IExCor=  205 diagonalized for initial guess.
 ExpMin= 2.97D-02 ExpMax= 1.17D+04 ExpMxC= 4.01D+02 IAcc=3 IRadAn=         0 AccDes= 0.00D+00
 HarFok:  IExCor=  205 AccDes= 0.00D+00 IRadAn=         0 IDoV= 1
 ScaDFX=  1.000000  1.000000  1.000000  1.000000
 FoFCou: FMM=F IPFlag=           0 FMFlag=      100000 FMFlg1=           0
         NFxFlg=           0 DoJE=T BraDBF=F KetDBF=T FulRan=T
         Omega=  0.000000  0.000000  1.000000  0.000000  0.000000 ICntrl=     500 IOpCl=  0
         NMat0=    1 NMatS0=    1 NMatT0=    0 NMatD0=    1 NMtDS0=    0 NMtDT0=    0
         I1Cent=           4 NGrid=           0.
 Petite list used in FoFCou.
 Initial guess orbital symmetries:
       Occupied  (A) (A) (A) (A) (A) (A) (A) (A) (A) (A) (A) (A)
                 (A) (A) (A) (A) (A) (A) (A) (A) (A) (A) (A) (A)
                 (A) (A) (A) (A) (A) (A) (A) (A) (A) (A) (A) (A)
                 (A) (A) (A)
       Virtual   (A) (A) (A) (A) (A) (A) (A) (A) (A) (A) (A) (A)
                 (A) (A) (A) (A) (A) (A) (A) (A) (A) (A) (A) (A)
                 (A) (A) (A) (A) (A) (A) (A) (A) (A) (A) (A) (A)
                 (A) (A) (A) (A) (A) (A) (A) (A) (A) (A) (A) (A)
                 (A) (A) (A) (A) (A) (A) (A) (A) (A) (A) (A) (A)
                 (A) (A) (A) (A) (A) (A) (A) (A) (A) (A) (A) (A)
                 (A) (A) (A) (A) (A) (A) (A) (A) (A) (A) (A) (A)
                 (A) (A) (A) (A) (A) (A) (A) (A) (A) (A) (A) (A)
                 (A) (A) (A) (A) (A) (A) (A) (A) (A) (A) (A) (A)
                 (A) (A) (A) (A) (A) (A) (A) (A) (A) (A) (A) (A)
                 (A) (A) (A) (A) (A) (A) (A) (A) (A) (A) (A) (A)
                 (A) (A) (A) (A) (A) (A) (A) (A) (A) (A) (A) (A)
                 (A) (A) (A) (A) (A) (A) (A) (A) (A) (A) (A) (A)
                 (A) (A) (A) (A) (A) (A) (A) (A) (A) (A) (A) (A)
                 (A) (A) (A) (A) (A) (A) (A) (A) (A) (A) (A) (A)
                 (A) (A) (A) (A) (A) (A) (A) (A) (A) (A) (A) (A)
                 (A) (A) (A) (A) (A) (A) (A) (A) (A) (A) (A) (A)
                 (A) (A) (A) (A) (A) (A) (A) (A) (A) (A) (A) (A)
                 (A) (A) (A) (A) (A) (A) (A) (A) (A) (A) (A) (A)
                 (A) (A) (A) (A) (A) (A) (A) (A) (A) (A) (A) (A)
                 (A) (A) (A) (A) (A) (A) (A) (A) (A) (A) (A) (A)
                 (A) (A) (A) (A) (A) (A) (A) (A) (A) (A) (A) (A)
                 (A) (A) (A) (A) (A) (A) (A) (A) (A) (A) (A) (A)
                 (A) (A) (A) (A) (A) (A) (A) (A) (A) (A) (A) (A)
                 (A) (A) (A) (A) (A) (A) (A) (A) (A) (A) (A)
 The electronic state of the initial guess is 1-A.
 Requested convergence on RMS density matrix=1.00D-08 within 128 cycles.
 Requested convergence on MAX density matrix=1.00D-06.
 Requested convergence on             energy=1.00D-06.
 No special actions if energy rises.
 Initial convergence to 1.0D-05 achieved.  Increase integral accuracy.
 SCF Done:  E(RHF) =  -492.920454825     A.U. after   14 cycles
             Convg  =    0.7008D-08             -V/T =  2.0017
 ExpMin= 2.97D-02 ExpMax= 1.17D+04 ExpMxC= 4.01D+02 IAcc=3 IRadAn=         5 AccDes= 0.00D+00
 HarFok:  IExCor=  205 AccDes= 0.00D+00 IRadAn=         5 IDoV=-2
 ScaDFX=  1.000000  1.000000  1.000000  1.000000
 Range of M.O.s used for correlation:    11   338
 NBasis=   338 NAE=    39 NBE=    39 NFC=    10 NFV=     0
 NROrb=    328 NOA=    29 NOB=    29 NVA=   299 NVB=   299

 **** Warning!!: The largest alpha MO coefficient is  0.59681472D+02

 Disk-based method using OVN memory for 29 occupieds at a time.
 Estimated scratch disk usage=  1393380597 words.
 Actual    scratch disk usage=  1380510197 words.
 JobTyp=1 Pass  1:  I=   1 to  29 NPSUse=  8 ParTrn=T ParDer=T DoDerP=F.
 Spin components of T(2) and E(2):
     alpha-alpha T2 =       0.6805094698D-01 E2=     -0.2060567331D+00
     alpha-beta  T2 =       0.3768958880D+00 E2=     -0.1191010175D+01
     beta-beta   T2 =       0.6805094698D-01 E2=     -0.2060567331D+00
 ANorm=    0.1230039748D+01
 E2 =    -0.1603123641D+01 EUMP2 =    -0.49452357846609D+03

 **********************************************************************

            Population analysis using the SCF density.

 **********************************************************************

 Orbital symmetries:
       Occupied  (A) (A) (A) (A) (A) (A) (A) (A) (A) (A) (A) (A)
                 (A) (A) (A) (A) (A) (A) (A) (A) (A) (A) (A) (A)
                 (A) (A) (A) (A) (A) (A) (A) (A) (A) (A) (A) (A)
                 (A) (A) (A)
       Virtual   (A) (A) (A) (A) (A) (A) (A) (A) (A) (A) (A) (A)
                 (A) (A) (A) (A) (A) (A) (A) (A) (A) (A) (A) (A)
                 (A) (A) (A) (A) (A) (A) (A) (A) (A) (A) (A) (A)
                 (A) (A) (A) (A) (A) (A) (A) (A) (A) (A) (A) (A)
                 (A) (A) (A) (A) (A) (A) (A) (A) (A) (A) (A) (A)
                 (A) (A) (A) (A) (A) (A) (A) (A) (A) (A) (A) (A)
                 (A) (A) (A) (A) (A) (A) (A) (A) (A) (A) (A) (A)
                 (A) (A) (A) (A) (A) (A) (A) (A) (A) (A) (A) (A)
                 (A) (A) (A) (A) (A) (A) (A) (A) (A) (A) (A) (A)
                 (A) (A) (A) (A) (A) (A) (A) (A) (A) (A) (A) (A)
                 (A) (A) (A) (A) (A) (A) (A) (A) (A) (A) (A) (A)
                 (A) (A) (A) (A) (A) (A) (A) (A) (A) (A) (A) (A)
                 (A) (A) (A) (A) (A) (A) (A) (A) (A) (A) (A) (A)
                 (A) (A) (A) (A) (A) (A) (A) (A) (A) (A) (A) (A)
                 (A) (A) (A) (A) (A) (A) (A) (A) (A) (A) (A) (A)
                 (A) (A) (A) (A) (A) (A) (A) (A) (A) (A) (A) (A)
                 (A) (A) (A) (A) (A) (A) (A) (A) (A) (A) (A) (A)
                 (A) (A) (A) (A) (A) (A) (A) (A) (A) (A) (A) (A)
                 (A) (A) (A) (A) (A) (A) (A) (A) (A) (A) (A) (A)
                 (A) (A) (A) (A) (A) (A) (A) (A) (A) (A) (A) (A)
                 (A) (A) (A) (A) (A) (A) (A) (A) (A) (A) (A) (A)
                 (A) (A) (A) (A) (A) (A) (A) (A) (A) (A) (A) (A)
                 (A) (A) (A) (A) (A) (A) (A) (A) (A) (A) (A) (A)
                 (A) (A) (A) (A) (A) (A) (A) (A) (A) (A) (A) (A)
                 (A) (A) (A) (A) (A) (A) (A) (A) (A) (A) (A)
 The electronic state is 1-A.
 Alpha  occ. eigenvalues --  -20.54204 -20.52374 -15.61221 -15.58411 -11.37548
 Alpha  occ. eigenvalues --  -11.35388 -11.29655 -11.25935 -11.25792 -11.24794
 Alpha  occ. eigenvalues --   -1.39762  -1.37720  -1.25239  -1.22106  -1.06302
 Alpha  occ. eigenvalues --   -1.00177  -0.95091  -0.88091  -0.81553  -0.77759
 Alpha  occ. eigenvalues --   -0.71253  -0.69428  -0.67756  -0.62625  -0.62566
 Alpha  occ. eigenvalues --   -0.62009  -0.59674  -0.58845  -0.58186  -0.55749
 Alpha  occ. eigenvalues --   -0.54828  -0.54151  -0.53753  -0.52043  -0.49685
 Alpha  occ. eigenvalues --   -0.43640  -0.43044  -0.40319  -0.38221
 Alpha virt. eigenvalues --    0.02232   0.03756   0.04039   0.04632   0.05763
 Alpha virt. eigenvalues --    0.05956   0.06285   0.06767   0.07117   0.08254
 Alpha virt. eigenvalues --    0.08541   0.09564   0.11524   0.11673   0.12062
 Alpha virt. eigenvalues --    0.13372   0.14069   0.14857   0.14996   0.15463
 Alpha virt. eigenvalues --    0.15538   0.16091   0.16546   0.17154   0.17482
 Alpha virt. eigenvalues --    0.17766   0.18028   0.18228   0.18985   0.19173
 Alpha virt. eigenvalues --    0.19777   0.20175   0.20591   0.21407   0.22257
 Alpha virt. eigenvalues --    0.22567   0.23232   0.25380   0.25723   0.26037
 Alpha virt. eigenvalues --    0.26457   0.28438   0.29349   0.30503   0.30783
 Alpha virt. eigenvalues --    0.31353   0.31772   0.32347   0.33815   0.34283
 Alpha virt. eigenvalues --    0.34647   0.35242   0.35401   0.36341   0.37085
 Alpha virt. eigenvalues --    0.37429   0.37717   0.39233   0.39477   0.39904
 Alpha virt. eigenvalues --    0.40869   0.41077   0.41966   0.42497   0.43269
 Alpha virt. eigenvalues --    0.43806   0.43907   0.44873   0.45275   0.46144
 Alpha virt. eigenvalues --    0.46352   0.46871   0.47637   0.48524   0.48893
 Alpha virt. eigenvalues --    0.49324   0.50701   0.50798   0.51873   0.52097
 Alpha virt. eigenvalues --    0.52923   0.53836   0.54298   0.54940   0.55747
 Alpha virt. eigenvalues --    0.56087   0.57716   0.58115   0.58527   0.58729
 Alpha virt. eigenvalues --    0.59163   0.60297   0.60781   0.61039   0.61769
 Alpha virt. eigenvalues --    0.62521   0.63625   0.64021   0.64710   0.65435
 Alpha virt. eigenvalues --    0.65637   0.66620   0.67531   0.68178   0.68253
 Alpha virt. eigenvalues --    0.68790   0.69317   0.70098   0.70455   0.71546
 Alpha virt. eigenvalues --    0.73069   0.73221   0.73461   0.73744   0.74894
 Alpha virt. eigenvalues --    0.76010   0.76697   0.77735   0.78547   0.78770
 Alpha virt. eigenvalues --    0.80170   0.80382   0.80943   0.82188   0.84155
 Alpha virt. eigenvalues --    0.84703   0.85232   0.86071   0.86832   0.87931
 Alpha virt. eigenvalues --    0.89071   0.89644   0.91255   0.92111   0.93275
 Alpha virt. eigenvalues --    0.94231   0.95651   0.96787   0.98938   0.99305
 Alpha virt. eigenvalues --    1.00735   1.01009   1.01962   1.03758   1.05958
 Alpha virt. eigenvalues --    1.07299   1.07842   1.09541   1.10850   1.12152
 Alpha virt. eigenvalues --    1.12732   1.13483   1.15529   1.16505   1.18102
 Alpha virt. eigenvalues --    1.18272   1.18718   1.20300   1.21202   1.23134
 Alpha virt. eigenvalues --    1.24408   1.25522   1.26457   1.28323   1.29505
 Alpha virt. eigenvalues --    1.30763   1.34538   1.35911   1.36739   1.38172
 Alpha virt. eigenvalues --    1.39128   1.39729   1.43207   1.44219   1.46089
 Alpha virt. eigenvalues --    1.48036   1.50400   1.51387   1.52190   1.54086
 Alpha virt. eigenvalues --    1.55588   1.56770   1.59392   1.60673   1.62952
 Alpha virt. eigenvalues --    1.66662   1.68506   1.71234   1.71886   1.74433
 Alpha virt. eigenvalues --    1.75120   1.76410   1.76813   1.79219   1.82519
 Alpha virt. eigenvalues --    1.83494   1.84661   1.86012   1.86573   1.88087
 Alpha virt. eigenvalues --    1.89771   1.90046   1.90293   1.93179   1.93572
 Alpha virt. eigenvalues --    1.96414   1.96575   1.99519   1.99803   2.01968
 Alpha virt. eigenvalues --    2.02441   2.02987   2.05318   2.08127   2.10171
 Alpha virt. eigenvalues --    2.12132   2.12781   2.14799   2.15816   2.16699
 Alpha virt. eigenvalues --    2.18135   2.18934   2.20157   2.22908   2.24032
 Alpha virt. eigenvalues --    2.25253   2.26125   2.26503   2.28472   2.30495
 Alpha virt. eigenvalues --    2.32304   2.35065   2.36336   2.37290   2.37804
 Alpha virt. eigenvalues --    2.38750   2.39608   2.41220   2.44313   2.45001
 Alpha virt. eigenvalues --    2.47083   2.49084   2.49642   2.52272   2.53474
 Alpha virt. eigenvalues --    2.53798   2.54758   2.56494   2.57989   2.59170
 Alpha virt. eigenvalues --    2.62298   2.63531   2.66505   2.68182   2.69354
 Alpha virt. eigenvalues --    2.71996   2.73414   2.75188   2.77636   2.80677
 Alpha virt. eigenvalues --    2.81416   2.84386   2.86229   2.87778   2.88726
 Alpha virt. eigenvalues --    2.90543   2.91314   2.93525   2.94671   2.97702
 Alpha virt. eigenvalues --    2.99179   3.01880   3.05483   3.07191   3.10618
 Alpha virt. eigenvalues --    3.11537   3.14802   3.16009   3.18422   3.24711
 Alpha virt. eigenvalues --    3.34153   3.40458   3.42958   3.48361   3.50883
 Alpha virt. eigenvalues --    3.62263   3.68093   3.76723   3.84309   3.84583
 Alpha virt. eigenvalues --    3.86081   3.90100   3.91174   3.94127   3.98610
 Alpha virt. eigenvalues --    4.04518   4.06054   4.20783   4.26527
          Condensed to atoms (all electrons):
              1          2          3          4          5          6
     1  H    0.755997   0.326609  -0.096219  -0.049510  -0.074179   0.028066
     2  C    0.326609   4.524855   0.330890   0.411599   0.246238  -0.053057
     3  H   -0.096219   0.330890   1.105706  -0.059328   0.153401  -0.012745
     4  H   -0.049510   0.411599  -0.059328   0.705497  -0.083782   0.003793
     5  C   -0.074179   0.246238   0.153401  -0.083782   5.446898   0.216913
     6  O    0.028066  -0.053057  -0.012745   0.003793   0.216913   8.699690
     7  N    0.072744  -0.088794  -0.243073   0.036705  -0.086362  -0.101534
     8  H   -0.003777  -0.057194   0.015949  -0.007255  -0.068109  -0.007928
     9  C    0.014771  -0.006246  -0.025069  -0.020511  -0.071002   0.043554
    10  H    0.000514  -0.004205   0.001210  -0.004046   0.003421   0.018205
    11  C   -0.000219  -0.027106  -0.007040   0.002579  -0.037362   0.008894
    12  H   -0.000454  -0.006167  -0.000375   0.000085  -0.006933   0.000116
    13  H    0.000293   0.002441   0.000424   0.000102   0.004849  -0.001243
    14  H   -0.000403  -0.005395  -0.000981  -0.000138  -0.012729   0.001732
    15  C    0.002184   0.009358  -0.002405   0.003403  -0.076395  -0.029620
    16  O   -0.000118   0.001850   0.000304   0.000065   0.022715   0.002454
    17  N   -0.000581  -0.010677  -0.002554   0.000095   0.008684  -0.004916
    18  H    0.002612   0.001834  -0.003630  -0.001059   0.012228   0.009337
    19  C   -0.000902   0.001319  -0.000629   0.000051  -0.005526   0.002204
    20  H    0.000092   0.000438  -0.000074   0.000039  -0.011464  -0.000912
    21  H   -0.000280   0.000898   0.000133   0.000092   0.009147  -0.000915
    22  H    0.000053  -0.001323   0.000172  -0.000294   0.010677   0.004435
              7          8          9         10         11         12
     1  H    0.072744  -0.003777   0.014771   0.000514  -0.000219  -0.000454
     2  C   -0.088794  -0.057194  -0.006246  -0.004205  -0.027106  -0.006167
     3  H   -0.243073   0.015949  -0.025069   0.001210  -0.007040  -0.000375
     4  H    0.036705  -0.007255  -0.020511  -0.004046   0.002579   0.000085
     5  C   -0.086362  -0.068109  -0.071002   0.003421  -0.037362  -0.006933
     6  O   -0.101534  -0.007928   0.043554   0.018205   0.008894   0.000116
     7  N    7.777159   0.385293  -0.470447  -0.054447   0.057084  -0.051901
     8  H    0.385293   0.957720  -0.236697   0.003996   0.024751   0.008658
     9  C   -0.470447  -0.236697   7.195648  -0.126222   0.162229  -0.122935
    10  H   -0.054447   0.003996  -0.126222   1.157621   0.002435   0.069512
    11  C    0.057084   0.024751   0.162229   0.002435   4.354551   0.420681
    12  H   -0.051901   0.008658  -0.122935   0.069512   0.420681   1.061637
    13  H    0.047714  -0.001152  -0.037009  -0.045693   0.319772  -0.140693
    14  H   -0.043550   0.005619   0.124309  -0.028552   0.219185  -0.208989
    15  C    0.132381   0.015079  -0.471576   0.034958  -0.160926  -0.055863
    16  O    0.000412  -0.003012  -0.104826   0.056709   0.066636   0.005109
    17  N   -0.005039   0.018022  -0.052535   0.047843   0.060776   0.024734
    18  H    0.001653  -0.001729  -0.029356  -0.000140  -0.027776  -0.002027
    19  C    0.013202   0.002631  -0.086876   0.011772   0.002248   0.004123
    20  H    0.005569   0.000603  -0.014954   0.000183  -0.004374  -0.001619
    21  H   -0.001642  -0.000205  -0.009378   0.000411  -0.000061   0.000242
    22  H   -0.001467   0.000084  -0.004351  -0.000605  -0.000238   0.000272
             13         14         15         16         17         18
     1  H    0.000293  -0.000403   0.002184  -0.000118  -0.000581   0.002612
     2  C    0.002441  -0.005395   0.009358   0.001850  -0.010677   0.001834
     3  H    0.000424  -0.000981  -0.002405   0.000304  -0.002554  -0.003630
     4  H    0.000102  -0.000138   0.003403   0.000065   0.000095  -0.001059
     5  C    0.004849  -0.012729  -0.076395   0.022715   0.008684   0.012228
     6  O   -0.001243   0.001732  -0.029620   0.002454  -0.004916   0.009337
     7  N    0.047714  -0.043550   0.132381   0.000412  -0.005039   0.001653
     8  H   -0.001152   0.005619   0.015079  -0.003012   0.018022  -0.001729
     9  C   -0.037009   0.124309  -0.471576  -0.104826  -0.052535  -0.029356
    10  H   -0.045693  -0.028552   0.034958   0.056709   0.047843  -0.000140
    11  C    0.319772   0.219185  -0.160926   0.066636   0.060776  -0.027776
    12  H   -0.140693  -0.208989  -0.055863   0.005109   0.024734  -0.002027
    13  H    1.084138  -0.195656   0.019752   0.012322  -0.009267  -0.000088
    14  H   -0.195656   1.175210   0.051797  -0.002248  -0.003217  -0.000457
    15  C    0.019752   0.051797   5.325865   0.089899   0.111085  -0.001725
    16  O    0.012322  -0.002248   0.089899   8.875255  -0.103282   0.005705
    17  N   -0.009267  -0.003217   0.111085  -0.103282   7.114172   0.248747
    18  H   -0.000088  -0.000457  -0.001725   0.005705   0.248747   0.960579
    19  C   -0.000937   0.001289  -0.076752   0.013931   0.206443  -0.113706
    20  H    0.001454   0.000008   0.077239  -0.032027  -0.057471   0.000949
    21  H   -0.000678   0.000066  -0.039218   0.013159  -0.160986   0.018917
    22  H   -0.000526   0.000242  -0.023266   0.010304   0.097698  -0.013563
             19         20         21         22
     1  H   -0.000902   0.000092  -0.000280   0.000053
     2  C    0.001319   0.000438   0.000898  -0.001323
     3  H   -0.000629  -0.000074   0.000133   0.000172
     4  H    0.000051   0.000039   0.000092  -0.000294
     5  C   -0.005526  -0.011464   0.009147   0.010677
     6  O    0.002204  -0.000912  -0.000915   0.004435
     7  N    0.013202   0.005569  -0.001642  -0.001467
     8  H    0.002631   0.000603  -0.000205   0.000084
     9  C   -0.086876  -0.014954  -0.009378  -0.004351
    10  H    0.011772   0.000183   0.000411  -0.000605
    11  C    0.002248  -0.004374  -0.000061  -0.000238
    12  H    0.004123  -0.001619   0.000242   0.000272
    13  H   -0.000937   0.001454  -0.000678  -0.000526
    14  H    0.001289   0.000008   0.000066   0.000242
    15  C   -0.076752   0.077239  -0.039218  -0.023266
    16  O    0.013931  -0.032027   0.013159   0.010304
    17  N    0.206443  -0.057471  -0.160986   0.097698
    18  H   -0.113706   0.000949   0.018917  -0.013563
    19  C    4.142425   0.432746   0.448615   0.276905
    20  H    0.432746   1.017740  -0.179035  -0.108865
    21  H    0.448615  -0.179035   1.241402  -0.172272
    22  H    0.276905  -0.108865  -0.172272   0.999660
 Mulliken atomic charges:
              1
     1  H    0.022707
     2  C    0.401835
     3  H   -0.154068
     4  H    0.061817
     5  C    0.398671
     6  O   -0.826525
     7  N   -0.381659
     8  H   -0.051347
     9  C    0.349478
    10  H   -0.144881
    11  C    0.563280
    12  H    0.002787
    13  H   -0.060320
    14  H   -0.077142
    15  C    1.064745
    16  O   -0.931317
    17  N   -0.527772
    18  H   -0.067305
    19  C    0.725424
    20  H   -0.126265
    21  H   -0.168413
    22  H   -0.073733
 Sum of Mulliken atomic charges =   0.00000
 Mulliken charges with hydrogens summed into heavy atoms:
              1
     2  C    0.332292
     5  C    0.398671
     6  O   -0.826525
     7  N   -0.433006
     9  C    0.204598
    11  C    0.428606
    15  C    1.064745
    16  O   -0.931317
    17  N   -0.595077
    19  C    0.357013
 Sum of Mulliken charges with hydrogens summed into heavy atoms =   0.00000
 Electronic spatial extent (au):  <R**2>=           1671.3455
 Charge=              0.0000 electrons
 Dipole moment (field-independent basis, Debye):
    X=              4.1256    Y=              1.6869    Z=             -4.5646  Tot=              6.3798
 Quadrupole moment (field-independent basis, Debye-Ang):
   XX=            -60.5587   YY=            -57.2491   ZZ=            -64.9581
   XY=              5.5227   XZ=              1.3165   YZ=              2.8019
 Traceless Quadrupole moment (field-independent basis, Debye-Ang):
   XX=              0.3632   YY=              3.6729   ZZ=             -4.0361
   XY=              5.5227   XZ=              1.3165   YZ=              2.8019
 Octapole moment (field-independent basis, Debye-Ang**2):
  XXX=             41.9237  YYY=              3.7849  ZZZ=             -2.2954  XYY=             -6.9694
  XXY=             -8.3726  XXZ=            -16.5581  XZZ=              6.0508  YZZ=              1.1164
  YYZ=             -7.3911  XYZ=              3.2900
 Hexadecapole moment (field-independent basis, Debye-Ang**3):
 XXXX=          -1223.2860 YYYY=           -693.5325 ZZZZ=           -227.5131 XXXY=             11.8087
 XXXZ=             26.5889 YYYX=             10.3981 YYYZ=              7.5087 ZZZX=              1.1176
 ZZZY=              4.8198 XXYY=           -314.8470 XXZZ=           -263.1530 YYZZ=           -155.0432
 XXYZ=             -1.2444 YYXZ=             -9.2396 ZZXY=             10.6743
 N-N= 5.630832318335D+02 E-N=-2.281333863981D+03  KE= 4.920644208269D+02
 1\1\GINC-NODE001\SP\RMP2-FC\Aug-CC-pVDZ\C6H12N2O2\STEBOSS\13-Feb-2017\
 0\\#SP MP2/aug-cc-pVDZ\\Single Point calculation at MP2\\0,1\H,0,3.310
 8,-1.6101,-0.6666\C,0,3.2072,-0.5733,-0.3365\H,0,3.4539,0.0965,-1.1666
 \H,0,3.9331,-0.4124,0.468\C,0,1.8041,-0.3738,0.2227\O,0,1.2849,-1.1845
 ,0.9799\N,0,1.1836,0.787,-0.1575\H,0,1.668,1.3956,-0.8026\C,0,-0.144,1
 .2189,0.2854\H,0,-0.0858,1.5231,1.3372\C,0,-0.5893,2.4237,-0.5527\H,0,
 -0.6841,2.1518,-1.6103\H,0,-1.5617,2.7708,-0.1958\H,0,0.126,3.2501,-0.
 4623\C,0,-1.2702,0.1607,0.2823\O,0,-2.2337,0.3392,1.0164\N,0,-1.1978,-
 0.8372,-0.6431\H,0,-0.2815,-1.0466,-1.0103\C,0,-2.1635,-1.9254,-0.6303
 \H,0,-3.128,-1.5213,-0.3209\H,0,-2.2509,-2.3511,-1.6344\H,0,-1.8752,-2
 .7173,0.0732\\Version=EM64L-G09RevA.02\State=1-A\HF=-492.9204548\MP2=-
 494.5235785\RMSD=7.008e-09\PG=C01 [X(C6H12N2O2)]\\@


 NOTHING WILL BE ATTEMPTED IF ALL POSSIBLE OBJECTIONS
 MUST FIRST BE OVERCOME.

                               -- THE GOLDEN PRINCIPLE,
                    PAUL DICKSON'S "THE OFFICIAL RULES"
 Job cpu time:  0 days 16 hours 53 minutes 45.8 seconds.
 File lengths (MBytes):  RWF=  10649 Int=      0 D2E=      0 Chk=      7 Scr=      2
 Normal termination of Gaussian 09 at Mon Feb 13 20:04:54 2017.
