 Entering Gaussian System, Link 0=g09
 Initial command:
 /home/steboss/Software/g09/l1.exe /home/steboss/projects/phi_psi_scan/alanine/MP2/315/5568/Gau-26580.inp -scrdir=/home/steboss/projects/phi_psi_scan/alanine/MP2/315/5568/
 Entering Link 1 = /home/steboss/Software/g09/l1.exe PID=     26582.
  
 Copyright (c) 1988,1990,1992,1993,1995,1998,2003,2009, Gaussian, Inc.
                  All Rights Reserved.
  
 This is part of the Gaussian(R) 09 program.  It is based on
 the Gaussian(R) 03 system (copyright 2003, Gaussian, Inc.),
 the Gaussian(R) 98 system (copyright 1998, Gaussian, Inc.),
 the Gaussian(R) 94 system (copyright 1995, Gaussian, Inc.),
 the Gaussian 92(TM) system (copyright 1992, Gaussian, Inc.),
 the Gaussian 90(TM) system (copyright 1990, Gaussian, Inc.),
 the Gaussian 88(TM) system (copyright 1988, Gaussian, Inc.),
 the Gaussian 86(TM) system (copyright 1986, Carnegie Mellon
 University), and the Gaussian 82(TM) system (copyright 1983,
 Carnegie Mellon University). Gaussian is a federally registered
 trademark of Gaussian, Inc.
  
 This software contains proprietary and confidential information,
 including trade secrets, belonging to Gaussian, Inc.
  
 This software is provided under written license and may be
 used, copied, transmitted, or stored only in accord with that
 written license.
  
 The following legend is applicable only to US Government
 contracts under FAR:
  
                    RESTRICTED RIGHTS LEGEND
  
 Use, reproduction and disclosure by the US Government is
 subject to restrictions as set forth in subparagraphs (a)
 and (c) of the Commercial Computer Software - Restricted
 Rights clause in FAR 52.227-19.
  
 Gaussian, Inc.
 340 Quinnipiac St., Bldg. 40, Wallingford CT 06492
  
  
 ---------------------------------------------------------------
 Warning -- This program may not be used in any manner that
 competes with the business of Gaussian, Inc. or will provide
 assistance to any competitor of Gaussian, Inc.  The licensee
 of this program is prohibited from giving any competitor of
 Gaussian, Inc. access to this program.  By using this program,
 the user acknowledges that Gaussian, Inc. is engaged in the
 business of creating and licensing software in the field of
 computational chemistry and represents and warrants to the
 licensee that it is not a competitor of Gaussian, Inc. and that
 it will not use this program in any manner prohibited above.
 ---------------------------------------------------------------
  

 Cite this work as:
 Gaussian 09, Revision A.02,
 M. J. Frisch, G. W. Trucks, H. B. Schlegel, G. E. Scuseria, 
 M. A. Robb, J. R. Cheeseman, G. Scalmani, V. Barone, B. Mennucci, 
 G. A. Petersson, H. Nakatsuji, M. Caricato, X. Li, H. P. Hratchian, 
 A. F. Izmaylov, J. Bloino, G. Zheng, J. L. Sonnenberg, M. Hada, 
 M. Ehara, K. Toyota, R. Fukuda, J. Hasegawa, M. Ishida, T. Nakajima, 
 Y. Honda, O. Kitao, H. Nakai, T. Vreven, J. A. Montgomery, Jr., 
 J. E. Peralta, F. Ogliaro, M. Bearpark, J. J. Heyd, E. Brothers, 
 K. N. Kudin, V. N. Staroverov, R. Kobayashi, J. Normand, 
 K. Raghavachari, A. Rendell, J. C. Burant, S. S. Iyengar, J. Tomasi, 
 M. Cossi, N. Rega, J. M. Millam, M. Klene, J. E. Knox, J. B. Cross, 
 V. Bakken, C. Adamo, J. Jaramillo, R. Gomperts, R. E. Stratmann, 
 O. Yazyev, A. J. Austin, R. Cammi, C. Pomelli, J. W. Ochterski, 
 R. L. Martin, K. Morokuma, V. G. Zakrzewski, G. A. Voth, 
 P. Salvador, J. J. Dannenberg, S. Dapprich, A. D. Daniels, 
 O. Farkas, J. B. Foresman, J. V. Ortiz, J. Cioslowski, 
 and D. J. Fox, Gaussian, Inc., Wallingford CT, 2009.
 
 ******************************************
 Gaussian 09:  EM64L-G09RevA.02 11-Jun-2009
                13-Feb-2017 
 ******************************************
 %chk=structure_15.chk
 %NProcShared=8
 Will use up to    8 processors via shared memory.
 -------------------
 #SP MP2/aug-cc-pVDZ
 -------------------
 1/38=1/1;
 2/12=2,17=6,18=5,40=1/2;
 3/5=16,7=10,11=9,16=1,25=1,30=1/1,2,3;
 4//1;
 5/5=2,38=5/2;
 8/10=1/1;
 9/16=-3/6;
 6/7=2,8=2,9=2,10=2/1;
 99/5=1,9=1/99;
 -------------------------------
 Single Point calculation at MP2
 -------------------------------
 Symbolic Z-matrix:
 Charge =  0 Multiplicity = 1
 H                    -3.9873   -0.6758   -0.3618 
 C                    -3.2873   -0.4168    0.438 
 H                    -3.3494   -1.2072    1.1926 
 H                    -3.5975    0.5308    0.8888 
 C                    -1.8791   -0.4055   -0.1401 
 O                    -1.4358   -1.3997   -0.7195 
 N                    -1.2009    0.7635    0.0103 
 H                    -1.6687    1.4615    0.572 
 C                     0.1727    1.1494   -0.3781 
 H                     0.1773    1.2657   -1.4723 
 C                     0.4591    2.5206    0.2428 
 H                     0.4274    2.4649    1.3376 
 H                     1.4571    2.8446   -0.0504 
 H                    -0.2751    3.2603   -0.0964 
 C                     1.3783    0.2014   -0.105 
 O                     2.5055    0.686    -0.1785 
 N                     1.1467   -1.0943    0.2065 
 H                     0.2419   -1.4796   -0.0637 
 C                     2.2732   -2.0033    0.3591 
 H                     3.0054   -1.5688    1.0436 
 H                     1.9076   -2.9475    0.7703 
 H                     2.7799   -2.1987   -0.595 
 
                          Input orientation:                          
 ---------------------------------------------------------------------
 Center     Atomic      Atomic             Coordinates (Angstroms)
 Number     Number       Type             X           Y           Z
 ---------------------------------------------------------------------
      1          1           0       -3.987300   -0.675800   -0.361800
      2          6           0       -3.287300   -0.416800    0.438000
      3          1           0       -3.349400   -1.207200    1.192600
      4          1           0       -3.597500    0.530800    0.888800
      5          6           0       -1.879100   -0.405500   -0.140100
      6          8           0       -1.435800   -1.399700   -0.719500
      7          7           0       -1.200900    0.763500    0.010300
      8          1           0       -1.668700    1.461500    0.572000
      9          6           0        0.172700    1.149400   -0.378100
     10          1           0        0.177300    1.265700   -1.472300
     11          6           0        0.459100    2.520600    0.242800
     12          1           0        0.427400    2.464900    1.337600
     13          1           0        1.457100    2.844600   -0.050400
     14          1           0       -0.275100    3.260300   -0.096400
     15          6           0        1.378300    0.201400   -0.105000
     16          8           0        2.505500    0.686000   -0.178500
     17          7           0        1.146700   -1.094300    0.206500
     18          1           0        0.241900   -1.479600   -0.063700
     19          6           0        2.273200   -2.003300    0.359100
     20          1           0        3.005400   -1.568800    1.043600
     21          1           0        1.907600   -2.947500    0.770300
     22          1           0        2.779900   -2.198700   -0.595000
 ---------------------------------------------------------------------
                    Distance matrix (angstroms):
                    1          2          3          4          5
     1  H    0.000000
     2  C    1.093966   0.000000
     3  H    1.762232   1.094536   0.000000
     4  H    1.780963   1.094253   1.781710   0.000000
     5  C    2.136989   1.522286   2.140232   2.210925   0.000000
     6  O    2.676216   2.394567   2.712019   3.314575   1.233148
     7  N    3.158175   2.434974   3.146036   2.563124   1.359830
     8  H    3.288760   2.483110   3.214321   2.164910   2.009240
     9  C    4.542821   3.884662   4.519497   4.025184   2.585390
    10  H    4.727211   4.299245   5.065031   4.512647   2.965881
    11  C    5.509355   4.764655   5.413251   4.564277   3.765083
    12  H    5.678163   4.786697   5.269683   4.487982   3.967712
    13  H    6.490892   5.777940   6.408165   5.637796   4.658479
    14  H    5.416987   4.783304   5.574172   4.411251   4.001602
    15  C    5.442893   4.737599   5.100889   5.084755   3.313641
    16  O    6.636607   5.928977   6.304282   6.197566   4.518580
    17  N    5.182284   4.491431   4.604352   5.061019   3.122506
    18  H    4.315216   3.719745   3.814437   4.437337   2.378691
    19  C    6.440172   5.782938   5.739523   6.416180   4.477026
    20  H    7.188216   6.425880   6.366823   6.930409   5.158755
    21  H    6.418109   5.788078   5.553650   6.512967   4.650773
    22  H    6.940360   6.407275   6.461184   7.093875   5.012862
                    6          7          8          9         10
     6  O    0.000000
     7  N    2.295043   0.000000
     8  H    3.147806   1.010716   0.000000
     9  C    3.033437   1.478699   2.095436   0.000000
    10  H    3.205177   2.085604   2.761379   1.100373   0.000000
    11  C    4.459307   2.428386   2.399500   1.532231   2.143771
    12  H    4.757973   2.703303   2.446751   2.176933   3.065317
    13  H    5.179831   3.376333   3.474331   2.151923   2.480446
    14  H    4.842631   2.665052   2.371616   2.176184   2.464994
    15  C    3.295495   2.642257   3.366064   1.557806   2.108233
    16  O    4.491845   3.712015   4.311449   2.386742   2.725892
    17  N    2.760444   3.000190   3.819971   2.514880   3.054129
    18  H    1.803090   2.668079   3.564348   2.648637   3.086260
    19  C    3.909526   4.454909   5.252499   3.859415   4.293388
    20  H    4.781357   4.919379   5.590379   4.175408   4.728879
    21  H    3.974105   4.900193   5.680539   4.594920   5.076834
    22  H    4.292555   4.998778   5.877839   4.249036   4.421001
                   11         12         13         14         15
    11  C    0.000000
    12  H    1.096674   0.000000
    13  H    1.089471   1.769463   0.000000
    14  H    1.096021   1.783963   1.781976   0.000000
    15  C    2.518845   2.847585   2.644938   3.477165   0.000000
    16  O    2.780468   3.127546   2.403145   3.790184   1.229154
    17  N    3.679893   3.803247   3.959454   4.590839   1.352594
    18  H    4.017800   4.190123   4.491725   4.768124   2.029500
    19  C    4.875465   4.932469   4.933137   5.865731   2.424239
    20  H    4.883453   4.796171   4.803350   5.948234   2.664647
    21  H    5.681243   5.639760   5.867275   6.637178   3.310873
    22  H    5.325393   5.569413   5.242258   6.275532   2.822244
                   16         17         18         19         20
    16  O    0.000000
    17  N    2.272450   0.000000
    18  H    3.134787   1.019866   0.000000
    19  C    2.752328   1.455531   2.139907   0.000000
    20  H    2.612958   2.093001   2.978423   1.092450   0.000000
    21  H    3.802634   2.081151   2.371675   1.092823   1.783444
    22  H    2.927501   2.128249   2.690879   1.097831   1.769925
                   21         22
    21  H    0.000000
    22  H    1.784840   0.000000
 Stoichiometry    C6H12N2O2
 Framework group  C1[X(C6H12N2O2)]
 Deg. of freedom    60
 Full point group                 C1      NOp   1
 Largest Abelian subgroup         C1      NOp   1
 Largest concise Abelian subgroup C1      NOp   1
                         Standard orientation:                         
 ---------------------------------------------------------------------
 Center     Atomic      Atomic             Coordinates (Angstroms)
 Number     Number       Type             X           Y           Z
 ---------------------------------------------------------------------
      1          1           0       -3.987291   -0.675714   -0.361788
      2          6           0       -3.287286   -0.416729    0.438012
      3          1           0       -3.349402   -1.207128    1.192612
      4          1           0       -3.597466    0.530878    0.888812
      5          6           0       -1.879085   -0.405458   -0.140088
      6          8           0       -1.435806   -1.399667   -0.719488
      7          7           0       -1.200861    0.763528    0.010312
      8          1           0       -1.668646    1.461537    0.572012
      9          6           0        0.172747    1.149399   -0.378088
     10          1           0        0.177349    1.265699   -1.472288
     11          6           0        0.459176    2.520593    0.242812
     12          1           0        0.427475    2.464894    1.337612
     13          1           0        1.457182    2.844572   -0.050388
     14          1           0       -0.275009    3.260308   -0.096388
     15          6           0        1.378327    0.201374   -0.104988
     16          8           0        2.505537    0.685950   -0.178488
     17          7           0        1.146700   -1.094321    0.206512
     18          1           0        0.241892   -1.479602   -0.063688
     19          6           0        2.273181   -2.003345    0.359112
     20          1           0        3.005390   -1.568860    1.043612
     21          1           0        1.907562   -2.947537    0.770312
     22          1           0        2.779877   -2.198755   -0.594988
 ---------------------------------------------------------------------
 Rotational constants (GHZ):      1.7912551      0.9662952      0.6686722
 Standard basis: Aug-CC-pVDZ (5D, 7F)
 There are   338 symmetry adapted basis functions of A   symmetry.
 Integral buffers will be    131072 words long.
 Raffenetti 1 integral format.
 Two-electron integral symmetry is turned on.
   338 basis functions,   562 primitive gaussians,   358 cartesian basis functions
    39 alpha electrons       39 beta electrons
       nuclear repulsion energy       558.6251720422 Hartrees.
 NAtoms=   22 NActive=   22 NUniq=   22 SFac= 7.50D-01 NAtFMM=   80 NAOKFM=F Big=F
 One-electron integrals computed using PRISM.
 NBasis=   338 RedAO= T  NBF=   338
 NBsUse=   338 1.00D-06 NBFU=   338
 Harris functional with IExCor=  205 diagonalized for initial guess.
 ExpMin= 2.97D-02 ExpMax= 1.17D+04 ExpMxC= 4.01D+02 IAcc=3 IRadAn=         0 AccDes= 0.00D+00
 HarFok:  IExCor=  205 AccDes= 0.00D+00 IRadAn=         0 IDoV= 1
 ScaDFX=  1.000000  1.000000  1.000000  1.000000
 FoFCou: FMM=F IPFlag=           0 FMFlag=      100000 FMFlg1=           0
         NFxFlg=           0 DoJE=T BraDBF=F KetDBF=T FulRan=T
         Omega=  0.000000  0.000000  1.000000  0.000000  0.000000 ICntrl=     500 IOpCl=  0
         NMat0=    1 NMatS0=    1 NMatT0=    0 NMatD0=    1 NMtDS0=    0 NMtDT0=    0
         I1Cent=           4 NGrid=           0.
 Petite list used in FoFCou.
 Initial guess orbital symmetries:
       Occupied  (A) (A) (A) (A) (A) (A) (A) (A) (A) (A) (A) (A)
                 (A) (A) (A) (A) (A) (A) (A) (A) (A) (A) (A) (A)
                 (A) (A) (A) (A) (A) (A) (A) (A) (A) (A) (A) (A)
                 (A) (A) (A)
       Virtual   (A) (A) (A) (A) (A) (A) (A) (A) (A) (A) (A) (A)
                 (A) (A) (A) (A) (A) (A) (A) (A) (A) (A) (A) (A)
                 (A) (A) (A) (A) (A) (A) (A) (A) (A) (A) (A) (A)
                 (A) (A) (A) (A) (A) (A) (A) (A) (A) (A) (A) (A)
                 (A) (A) (A) (A) (A) (A) (A) (A) (A) (A) (A) (A)
                 (A) (A) (A) (A) (A) (A) (A) (A) (A) (A) (A) (A)
                 (A) (A) (A) (A) (A) (A) (A) (A) (A) (A) (A) (A)
                 (A) (A) (A) (A) (A) (A) (A) (A) (A) (A) (A) (A)
                 (A) (A) (A) (A) (A) (A) (A) (A) (A) (A) (A) (A)
                 (A) (A) (A) (A) (A) (A) (A) (A) (A) (A) (A) (A)
                 (A) (A) (A) (A) (A) (A) (A) (A) (A) (A) (A) (A)
                 (A) (A) (A) (A) (A) (A) (A) (A) (A) (A) (A) (A)
                 (A) (A) (A) (A) (A) (A) (A) (A) (A) (A) (A) (A)
                 (A) (A) (A) (A) (A) (A) (A) (A) (A) (A) (A) (A)
                 (A) (A) (A) (A) (A) (A) (A) (A) (A) (A) (A) (A)
                 (A) (A) (A) (A) (A) (A) (A) (A) (A) (A) (A) (A)
                 (A) (A) (A) (A) (A) (A) (A) (A) (A) (A) (A) (A)
                 (A) (A) (A) (A) (A) (A) (A) (A) (A) (A) (A) (A)
                 (A) (A) (A) (A) (A) (A) (A) (A) (A) (A) (A) (A)
                 (A) (A) (A) (A) (A) (A) (A) (A) (A) (A) (A) (A)
                 (A) (A) (A) (A) (A) (A) (A) (A) (A) (A) (A) (A)
                 (A) (A) (A) (A) (A) (A) (A) (A) (A) (A) (A) (A)
                 (A) (A) (A) (A) (A) (A) (A) (A) (A) (A) (A) (A)
                 (A) (A) (A) (A) (A) (A) (A) (A) (A) (A) (A) (A)
                 (A) (A) (A) (A) (A) (A) (A) (A) (A) (A) (A)
 The electronic state of the initial guess is 1-A.
 Requested convergence on RMS density matrix=1.00D-08 within 128 cycles.
 Requested convergence on MAX density matrix=1.00D-06.
 Requested convergence on             energy=1.00D-06.
 No special actions if energy rises.
 Initial convergence to 1.0D-05 achieved.  Increase integral accuracy.
 SCF Done:  E(RHF) =  -492.918613473     A.U. after   14 cycles
             Convg  =    0.6525D-08             -V/T =  2.0017
 ExpMin= 2.97D-02 ExpMax= 1.17D+04 ExpMxC= 4.01D+02 IAcc=3 IRadAn=         5 AccDes= 0.00D+00
 HarFok:  IExCor=  205 AccDes= 0.00D+00 IRadAn=         5 IDoV=-2
 ScaDFX=  1.000000  1.000000  1.000000  1.000000
 Range of M.O.s used for correlation:    11   338
 NBasis=   338 NAE=    39 NBE=    39 NFC=    10 NFV=     0
 NROrb=    328 NOA=    29 NOB=    29 NVA=   299 NVB=   299

 **** Warning!!: The largest alpha MO coefficient is  0.66578356D+02

 Disk-based method using OVN memory for 29 occupieds at a time.
 Estimated scratch disk usage=  1384386172 words.
 Actual    scratch disk usage=  1371668852 words.
 JobTyp=1 Pass  1:  I=   1 to  29 NPSUse=  8 ParTrn=T ParDer=T DoDerP=F.
 Spin components of T(2) and E(2):
     alpha-alpha T2 =       0.6821817416D-01 E2=     -0.2064873977D+00
     alpha-beta  T2 =       0.3769973991D+00 E2=     -0.1191259820D+01
     beta-beta   T2 =       0.6821817416D-01 E2=     -0.2064873977D+00
 ANorm=    0.1230216951D+01
 E2 =    -0.1604234615D+01 EUMP2 =    -0.49452284808835D+03

 **********************************************************************

            Population analysis using the SCF density.

 **********************************************************************

 Orbital symmetries:
       Occupied  (A) (A) (A) (A) (A) (A) (A) (A) (A) (A) (A) (A)
                 (A) (A) (A) (A) (A) (A) (A) (A) (A) (A) (A) (A)
                 (A) (A) (A) (A) (A) (A) (A) (A) (A) (A) (A) (A)
                 (A) (A) (A)
       Virtual   (A) (A) (A) (A) (A) (A) (A) (A) (A) (A) (A) (A)
                 (A) (A) (A) (A) (A) (A) (A) (A) (A) (A) (A) (A)
                 (A) (A) (A) (A) (A) (A) (A) (A) (A) (A) (A) (A)
                 (A) (A) (A) (A) (A) (A) (A) (A) (A) (A) (A) (A)
                 (A) (A) (A) (A) (A) (A) (A) (A) (A) (A) (A) (A)
                 (A) (A) (A) (A) (A) (A) (A) (A) (A) (A) (A) (A)
                 (A) (A) (A) (A) (A) (A) (A) (A) (A) (A) (A) (A)
                 (A) (A) (A) (A) (A) (A) (A) (A) (A) (A) (A) (A)
                 (A) (A) (A) (A) (A) (A) (A) (A) (A) (A) (A) (A)
                 (A) (A) (A) (A) (A) (A) (A) (A) (A) (A) (A) (A)
                 (A) (A) (A) (A) (A) (A) (A) (A) (A) (A) (A) (A)
                 (A) (A) (A) (A) (A) (A) (A) (A) (A) (A) (A) (A)
                 (A) (A) (A) (A) (A) (A) (A) (A) (A) (A) (A) (A)
                 (A) (A) (A) (A) (A) (A) (A) (A) (A) (A) (A) (A)
                 (A) (A) (A) (A) (A) (A) (A) (A) (A) (A) (A) (A)
                 (A) (A) (A) (A) (A) (A) (A) (A) (A) (A) (A) (A)
                 (A) (A) (A) (A) (A) (A) (A) (A) (A) (A) (A) (A)
                 (A) (A) (A) (A) (A) (A) (A) (A) (A) (A) (A) (A)
                 (A) (A) (A) (A) (A) (A) (A) (A) (A) (A) (A) (A)
                 (A) (A) (A) (A) (A) (A) (A) (A) (A) (A) (A) (A)
                 (A) (A) (A) (A) (A) (A) (A) (A) (A) (A) (A) (A)
                 (A) (A) (A) (A) (A) (A) (A) (A) (A) (A) (A) (A)
                 (A) (A) (A) (A) (A) (A) (A) (A) (A) (A) (A) (A)
                 (A) (A) (A) (A) (A) (A) (A) (A) (A) (A) (A) (A)
                 (A) (A) (A) (A) (A) (A) (A) (A) (A) (A) (A)
 The electronic state is 1-A.
 Alpha  occ. eigenvalues --  -20.54740 -20.52209 -15.61771 -15.57403 -11.38388
 Alpha  occ. eigenvalues --  -11.35361 -11.30384 -11.26099 -11.25522 -11.24138
 Alpha  occ. eigenvalues --   -1.40202  -1.37608  -1.25575  -1.21697  -1.06439
 Alpha  occ. eigenvalues --   -1.00201  -0.95032  -0.87760  -0.81974  -0.77245
 Alpha  occ. eigenvalues --   -0.71825  -0.69779  -0.67655  -0.63301  -0.62144
 Alpha  occ. eigenvalues --   -0.61846  -0.59756  -0.58982  -0.58154  -0.55407
 Alpha  occ. eigenvalues --   -0.54292  -0.53801  -0.53422  -0.52224  -0.49661
 Alpha  occ. eigenvalues --   -0.44396  -0.43514  -0.40054  -0.37974
 Alpha virt. eigenvalues --    0.02406   0.03999   0.04365   0.04577   0.05785
 Alpha virt. eigenvalues --    0.06138   0.06450   0.06569   0.07263   0.07941
 Alpha virt. eigenvalues --    0.09276   0.09943   0.11455   0.11677   0.12835
 Alpha virt. eigenvalues --    0.13157   0.13863   0.14730   0.15092   0.15571
 Alpha virt. eigenvalues --    0.15687   0.16068   0.16295   0.16781   0.17711
 Alpha virt. eigenvalues --    0.17959   0.18048   0.18454   0.18703   0.19214
 Alpha virt. eigenvalues --    0.19625   0.20280   0.20564   0.21206   0.22319
 Alpha virt. eigenvalues --    0.23851   0.24290   0.24685   0.26138   0.26422
 Alpha virt. eigenvalues --    0.26607   0.28228   0.29290   0.29680   0.31003
 Alpha virt. eigenvalues --    0.31518   0.32031   0.32202   0.33218   0.33725
 Alpha virt. eigenvalues --    0.34236   0.34863   0.35192   0.36158   0.36875
 Alpha virt. eigenvalues --    0.37118   0.37852   0.38603   0.39678   0.40069
 Alpha virt. eigenvalues --    0.40345   0.41637   0.41983   0.42598   0.42672
 Alpha virt. eigenvalues --    0.43079   0.43429   0.44476   0.45145   0.46062
 Alpha virt. eigenvalues --    0.46500   0.47592   0.47828   0.48340   0.48850
 Alpha virt. eigenvalues --    0.49905   0.50221   0.50554   0.51981   0.52680
 Alpha virt. eigenvalues --    0.52856   0.53863   0.54147   0.55066   0.56240
 Alpha virt. eigenvalues --    0.56664   0.57278   0.57689   0.58930   0.59561
 Alpha virt. eigenvalues --    0.59790   0.60062   0.61137   0.61453   0.61772
 Alpha virt. eigenvalues --    0.62406   0.62911   0.64281   0.64992   0.65561
 Alpha virt. eigenvalues --    0.66030   0.66613   0.67029   0.67467   0.68150
 Alpha virt. eigenvalues --    0.68963   0.69869   0.70546   0.71001   0.71952
 Alpha virt. eigenvalues --    0.72415   0.72871   0.73470   0.74502   0.75947
 Alpha virt. eigenvalues --    0.76161   0.77356   0.77780   0.78471   0.79142
 Alpha virt. eigenvalues --    0.80186   0.81021   0.82234   0.82870   0.84167
 Alpha virt. eigenvalues --    0.84942   0.85754   0.86785   0.87445   0.88378
 Alpha virt. eigenvalues --    0.90447   0.90620   0.91686   0.92256   0.93133
 Alpha virt. eigenvalues --    0.95446   0.95709   0.96725   0.98378   1.00274
 Alpha virt. eigenvalues --    1.00540   1.01044   1.03332   1.04837   1.06405
 Alpha virt. eigenvalues --    1.06708   1.07203   1.07772   1.10685   1.11480
 Alpha virt. eigenvalues --    1.12806   1.13392   1.14470   1.15632   1.17174
 Alpha virt. eigenvalues --    1.17493   1.19606   1.20256   1.21175   1.23111
 Alpha virt. eigenvalues --    1.24783   1.26179   1.27152   1.28720   1.30778
 Alpha virt. eigenvalues --    1.32691   1.33733   1.35048   1.36494   1.38326
 Alpha virt. eigenvalues --    1.39092   1.42512   1.42789   1.44642   1.45233
 Alpha virt. eigenvalues --    1.48185   1.49575   1.50253   1.50939   1.52352
 Alpha virt. eigenvalues --    1.55700   1.57634   1.60216   1.63060   1.63161
 Alpha virt. eigenvalues --    1.65712   1.69285   1.70228   1.72444   1.73763
 Alpha virt. eigenvalues --    1.75498   1.76037   1.76643   1.78535   1.82422
 Alpha virt. eigenvalues --    1.83718   1.84785   1.84947   1.86108   1.87007
 Alpha virt. eigenvalues --    1.88693   1.90334   1.91249   1.91604   1.93206
 Alpha virt. eigenvalues --    1.95638   1.96177   1.97202   2.00551   2.01144
 Alpha virt. eigenvalues --    2.01868   2.04829   2.06035   2.08628   2.09274
 Alpha virt. eigenvalues --    2.11024   2.11596   2.14130   2.15599   2.16211
 Alpha virt. eigenvalues --    2.17710   2.18999   2.20978   2.21901   2.23325
 Alpha virt. eigenvalues --    2.25502   2.26209   2.27723   2.29053   2.29721
 Alpha virt. eigenvalues --    2.30680   2.32197   2.33743   2.35538   2.35572
 Alpha virt. eigenvalues --    2.39145   2.40464   2.43228   2.43313   2.44540
 Alpha virt. eigenvalues --    2.44853   2.48618   2.48828   2.50192   2.51661
 Alpha virt. eigenvalues --    2.53804   2.54369   2.56545   2.58375   2.61948
 Alpha virt. eigenvalues --    2.62783   2.64657   2.66206   2.67397   2.68433
 Alpha virt. eigenvalues --    2.69593   2.72249   2.75834   2.78470   2.81295
 Alpha virt. eigenvalues --    2.83373   2.84481   2.87509   2.88418   2.88888
 Alpha virt. eigenvalues --    2.89789   2.91294   2.94343   2.96236   2.96892
 Alpha virt. eigenvalues --    2.97506   3.00760   3.05427   3.10054   3.11528
 Alpha virt. eigenvalues --    3.13113   3.14680   3.18749   3.20000   3.24649
 Alpha virt. eigenvalues --    3.30983   3.39831   3.44563   3.49693   3.54653
 Alpha virt. eigenvalues --    3.62215   3.66450   3.76733   3.83678   3.85149
 Alpha virt. eigenvalues --    3.86875   3.90579   3.94634   3.96451   3.97049
 Alpha virt. eigenvalues --    4.04133   4.15908   4.21857   4.23139
          Condensed to atoms (all electrons):
              1          2          3          4          5          6
     1  H    0.729244   0.427181  -0.047763  -0.080695  -0.118187   0.004555
     2  C    0.427181   4.514743   0.330872   0.314546   0.179407  -0.035631
     3  H   -0.047763   0.330872   0.731398  -0.069245  -0.088626   0.020596
     4  H   -0.080695   0.314546  -0.069245   1.128200   0.179956  -0.006918
     5  C   -0.118187   0.179407  -0.088626   0.179956   5.605496   0.174514
     6  O    0.004555  -0.035631   0.020596  -0.006918   0.174514   8.851384
     7  N    0.049253  -0.013864   0.062872  -0.209066   0.061293  -0.121179
     8  H   -0.004738  -0.043678  -0.003281   0.002354  -0.078117  -0.015824
     9  C   -0.009165  -0.023271   0.017853  -0.070856  -0.386741   0.072648
    10  H   -0.001534  -0.000844   0.000537  -0.002087  -0.007499   0.014335
    11  C    0.000577  -0.019791  -0.001976   0.002360   0.031500  -0.005441
    12  H   -0.000355  -0.010358  -0.000708  -0.001462  -0.006704   0.001110
    13  H    0.000245   0.002754   0.000093   0.000890   0.007964  -0.001136
    14  H   -0.000377   0.000538  -0.000142   0.000240  -0.013115   0.000596
    15  C    0.004395   0.008996  -0.000955  -0.004140  -0.108259   0.020095
    16  O   -0.000130   0.000554   0.000151   0.000006  -0.003111  -0.001687
    17  N   -0.002685   0.000506   0.004404   0.001892   0.012456  -0.086341
    18  H   -0.005202  -0.009779   0.000989   0.002847   0.030471   0.033442
    19  C    0.000135  -0.000445  -0.000419  -0.000167   0.016458   0.003643
    20  H    0.000014   0.000925   0.000233  -0.000087  -0.001880  -0.000174
    21  H    0.000184  -0.001572  -0.000419  -0.000179   0.012870   0.000341
    22  H   -0.000025  -0.000147  -0.000018   0.000020  -0.003915  -0.000348
              7          8          9         10         11         12
     1  H    0.049253  -0.004738  -0.009165  -0.001534   0.000577  -0.000355
     2  C   -0.013864  -0.043678  -0.023271  -0.000844  -0.019791  -0.010358
     3  H    0.062872  -0.003281   0.017853   0.000537  -0.001976  -0.000708
     4  H   -0.209066   0.002354  -0.070856  -0.002087   0.002360  -0.001462
     5  C    0.061293  -0.078117  -0.386741  -0.007499   0.031500  -0.006704
     6  O   -0.121179  -0.015824   0.072648   0.014335  -0.005441   0.001110
     7  N    7.599903   0.391105  -0.318501  -0.118339   0.027628  -0.073308
     8  H    0.391105   0.917802  -0.232492   0.000191   0.015378   0.007765
     9  C   -0.318501  -0.232492   7.097539   0.152783   0.157291  -0.104514
    10  H   -0.118339   0.000191   0.152783   0.980717  -0.071515   0.077794
    11  C    0.027628   0.015378   0.157291  -0.071515   4.296381   0.350998
    12  H   -0.073308   0.007765  -0.104514   0.077794   0.350998   1.117157
    13  H    0.071176  -0.003564  -0.073422  -0.043999   0.348948  -0.170291
    14  H   -0.042326   0.005183   0.174619  -0.052421   0.260845  -0.205671
    15  C    0.119032   0.030821  -0.475006   0.004879  -0.058718  -0.003614
    16  O   -0.008149  -0.000601  -0.064991   0.007611  -0.013509   0.020151
    17  N   -0.014689   0.009593  -0.078588   0.032524   0.032952   0.015553
    18  H    0.027749  -0.001174  -0.033686   0.000639   0.001728  -0.000729
    19  C   -0.003629   0.003758  -0.054657   0.009024  -0.003172   0.004614
    20  H   -0.000433   0.000302   0.017326   0.002222  -0.005013  -0.000253
    21  H   -0.000382   0.000371  -0.028478  -0.001632   0.003063  -0.000163
    22  H   -0.000661  -0.000187   0.008166   0.000286   0.000216   0.000425
             13         14         15         16         17         18
     1  H    0.000245  -0.000377   0.004395  -0.000130  -0.002685  -0.005202
     2  C    0.002754   0.000538   0.008996   0.000554   0.000506  -0.009779
     3  H    0.000093  -0.000142  -0.000955   0.000151   0.004404   0.000989
     4  H    0.000890   0.000240  -0.004140   0.000006   0.001892   0.002847
     5  C    0.007964  -0.013115  -0.108259  -0.003111   0.012456   0.030471
     6  O   -0.001136   0.000596   0.020095  -0.001687  -0.086341   0.033442
     7  N    0.071176  -0.042326   0.119032  -0.008149  -0.014689   0.027749
     8  H   -0.003564   0.005183   0.030821  -0.000601   0.009593  -0.001174
     9  C   -0.073422   0.174619  -0.475006  -0.064991  -0.078588  -0.033686
    10  H   -0.043999  -0.052421   0.004879   0.007611   0.032524   0.000639
    11  C    0.348948   0.260845  -0.058718  -0.013509   0.032952   0.001728
    12  H   -0.170291  -0.205671  -0.003614   0.020151   0.015553  -0.000729
    13  H    1.182853  -0.226352   0.072324  -0.048218  -0.012986  -0.000105
    14  H   -0.226352   1.187739  -0.041851   0.011940   0.002156  -0.000720
    15  C    0.072324  -0.041851   5.367767   0.288136   0.179109  -0.062988
    16  O   -0.048218   0.011940   0.288136   8.803193  -0.170079   0.010073
    17  N   -0.012986   0.002156   0.179109  -0.170079   7.114126   0.220143
    18  H   -0.000105  -0.000720  -0.062988   0.010073   0.220143   1.011061
    19  C    0.001353  -0.001365  -0.092493   0.022966   0.170404  -0.178218
    20  H   -0.000830   0.000093   0.030825  -0.007873  -0.072518   0.008035
    21  H    0.000378   0.000181  -0.018822   0.007913  -0.141090   0.007835
    22  H    0.000235  -0.000210  -0.003165   0.001700   0.138675  -0.026657
             19         20         21         22
     1  H    0.000135   0.000014   0.000184  -0.000025
     2  C   -0.000445   0.000925  -0.001572  -0.000147
     3  H   -0.000419   0.000233  -0.000419  -0.000018
     4  H   -0.000167  -0.000087  -0.000179   0.000020
     5  C    0.016458  -0.001880   0.012870  -0.003915
     6  O    0.003643  -0.000174   0.000341  -0.000348
     7  N   -0.003629  -0.000433  -0.000382  -0.000661
     8  H    0.003758   0.000302   0.000371  -0.000187
     9  C   -0.054657   0.017326  -0.028478   0.008166
    10  H    0.009024   0.002222  -0.001632   0.000286
    11  C   -0.003172  -0.005013   0.003063   0.000216
    12  H    0.004614  -0.000253  -0.000163   0.000425
    13  H    0.001353  -0.000830   0.000378   0.000235
    14  H   -0.001365   0.000093   0.000181  -0.000210
    15  C   -0.092493   0.030825  -0.018822  -0.003165
    16  O    0.022966  -0.007873   0.007913   0.001700
    17  N    0.170404  -0.072518  -0.141090   0.138675
    18  H   -0.178218   0.008035   0.007835  -0.026657
    19  C    4.226043   0.430281   0.466320   0.242810
    20  H    0.430281   1.031784  -0.220061  -0.094980
    21  H    0.466320  -0.220061   1.261429  -0.151040
    22  H    0.242810  -0.094980  -0.151040   0.926643
 Mulliken atomic charges:
              1
     1  H    0.055073
     2  C    0.378359
     3  H    0.043555
     4  H   -0.188407
     5  C    0.503768
     6  O   -0.922578
     7  N   -0.485486
     8  H   -0.000966
     9  C    0.256145
    10  H    0.016331
    11  C    0.649270
    12  H   -0.017437
    13  H   -0.108308
    14  H   -0.059580
    15  C    0.743633
    16  O   -0.856046
    17  N   -0.355516
    18  H   -0.035754
    19  C    0.736756
    20  H   -0.117940
    21  H   -0.197049
    22  H   -0.037824
 Sum of Mulliken atomic charges =   0.00000
 Mulliken charges with hydrogens summed into heavy atoms:
              1
     2  C    0.288580
     5  C    0.503768
     6  O   -0.922578
     7  N   -0.486452
     9  C    0.272476
    11  C    0.463945
    15  C    0.743633
    16  O   -0.856046
    17  N   -0.391270
    19  C    0.383943
 Sum of Mulliken charges with hydrogens summed into heavy atoms =   0.00000
 Electronic spatial extent (au):  <R**2>=           1749.3609
 Charge=              0.0000 electrons
 Dipole moment (field-independent basis, Debye):
    X=             -4.3931    Y=              1.4366    Z=              1.8102  Tot=              4.9639
 Quadrupole moment (field-independent basis, Debye-Ang):
   XX=            -63.5240   YY=            -59.1044   ZZ=            -61.6980
   XY=             -8.8714   XZ=             -2.5985   YZ=             -2.0185
 Traceless Quadrupole moment (field-independent basis, Debye-Ang):
   XX=             -2.0819   YY=              2.3377   ZZ=             -0.2558
   XY=             -8.8714   XZ=             -2.5985   YZ=             -2.0185
 Octapole moment (field-independent basis, Debye-Ang**2):
  XXX=            -56.5786  YYY=              3.4173  ZZZ=             -2.1366  XYY=              7.2682
  XXY=            -13.3783  XXZ=              9.8791  XZZ=              0.9521  YZZ=              2.2329
  YYZ=              6.1711  XYZ=              2.7025
 Hexadecapole moment (field-independent basis, Debye-Ang**3):
 XXXX=          -1374.7011 YYYY=           -768.8956 ZZZZ=           -134.8410 XXXY=            -30.3716
 XXXZ=              6.0811 YYYX=            -19.0835 YYYZ=             -9.8389 ZZZX=             -1.8505
 ZZZY=              0.5488 XXYY=           -356.2994 XXZZ=           -248.1936 YYZZ=           -154.3443
 XXYZ=             -1.1150 YYXZ=            -10.2810 ZZXY=             -0.7925
 N-N= 5.586251720422D+02 E-N=-2.272388687099D+03  KE= 4.920597828628D+02
 1\1\GINC-NODE003\SP\RMP2-FC\Aug-CC-pVDZ\C6H12N2O2\STEBOSS\13-Feb-2017\
 0\\#SP MP2/aug-cc-pVDZ\\Single Point calculation at MP2\\0,1\H,0,-3.98
 73,-0.6758,-0.3618\C,0,-3.2873,-0.4168,0.438\H,0,-3.3494,-1.2072,1.192
 6\H,0,-3.5975,0.5308,0.8888\C,0,-1.8791,-0.4055,-0.1401\O,0,-1.4358,-1
 .3997,-0.7195\N,0,-1.2009,0.7635,0.0103\H,0,-1.6687,1.4615,0.572\C,0,0
 .1727,1.1494,-0.3781\H,0,0.1773,1.2657,-1.4723\C,0,0.4591,2.5206,0.242
 8\H,0,0.4274,2.4649,1.3376\H,0,1.4571,2.8446,-0.0504\H,0,-0.2751,3.260
 3,-0.0964\C,0,1.3783,0.2014,-0.105\O,0,2.5055,0.686,-0.1785\N,0,1.1467
 ,-1.0943,0.2065\H,0,0.2419,-1.4796,-0.0637\C,0,2.2732,-2.0033,0.3591\H
 ,0,3.0054,-1.5688,1.0436\H,0,1.9076,-2.9475,0.7703\H,0,2.7799,-2.1987,
 -0.595\\Version=EM64L-G09RevA.02\State=1-A\HF=-492.9186135\MP2=-494.52
 28481\RMSD=6.525e-09\PG=C01 [X(C6H12N2O2)]\\@


 THE CHYMISTS ARE A STRANGE CLASS OF MORTALS IMPELLED
 BY AN ALMOST INSANE IMPULSE TO SEEK THEIR PLEASURE
 AMONG SMOKE AND VAPOR, SOOT AND FLAME, POISONS AND
 POVERTY; YET AMONG ALL THESE EVILS I SEEM TO LIVE
 SO SWEETLY, THAT I MAY DIE IF I WOULD CHANGE PLACES
 WITH THE PERSIAN KING.
   --  JOHANN JOACHIM BECHER, 1635-1682
 ACTA LABORATORII CHYMICA MONACENSIS, 1669
 Job cpu time:  0 days 13 hours 17 minutes 25.2 seconds.
 File lengths (MBytes):  RWF=  10582 Int=      0 D2E=      0 Chk=      7 Scr=      2
 Normal termination of Gaussian 09 at Mon Feb 13 18:35:17 2017.
