 Entering Gaussian System, Link 0=g09
 Initial command:
 /home/steboss/Software/g09/l1.exe /home/steboss/projects/phi_psi_scan/alanine/MP2/315/5580/Gau-13295.inp -scrdir=/home/steboss/projects/phi_psi_scan/alanine/MP2/315/5580/
 Entering Link 1 = /home/steboss/Software/g09/l1.exe PID=     13297.
  
 Copyright (c) 1988,1990,1992,1993,1995,1998,2003,2009, Gaussian, Inc.
                  All Rights Reserved.
  
 This is part of the Gaussian(R) 09 program.  It is based on
 the Gaussian(R) 03 system (copyright 2003, Gaussian, Inc.),
 the Gaussian(R) 98 system (copyright 1998, Gaussian, Inc.),
 the Gaussian(R) 94 system (copyright 1995, Gaussian, Inc.),
 the Gaussian 92(TM) system (copyright 1992, Gaussian, Inc.),
 the Gaussian 90(TM) system (copyright 1990, Gaussian, Inc.),
 the Gaussian 88(TM) system (copyright 1988, Gaussian, Inc.),
 the Gaussian 86(TM) system (copyright 1986, Carnegie Mellon
 University), and the Gaussian 82(TM) system (copyright 1983,
 Carnegie Mellon University). Gaussian is a federally registered
 trademark of Gaussian, Inc.
  
 This software contains proprietary and confidential information,
 including trade secrets, belonging to Gaussian, Inc.
  
 This software is provided under written license and may be
 used, copied, transmitted, or stored only in accord with that
 written license.
  
 The following legend is applicable only to US Government
 contracts under FAR:
  
                    RESTRICTED RIGHTS LEGEND
  
 Use, reproduction and disclosure by the US Government is
 subject to restrictions as set forth in subparagraphs (a)
 and (c) of the Commercial Computer Software - Restricted
 Rights clause in FAR 52.227-19.
  
 Gaussian, Inc.
 340 Quinnipiac St., Bldg. 40, Wallingford CT 06492
  
  
 ---------------------------------------------------------------
 Warning -- This program may not be used in any manner that
 competes with the business of Gaussian, Inc. or will provide
 assistance to any competitor of Gaussian, Inc.  The licensee
 of this program is prohibited from giving any competitor of
 Gaussian, Inc. access to this program.  By using this program,
 the user acknowledges that Gaussian, Inc. is engaged in the
 business of creating and licensing software in the field of
 computational chemistry and represents and warrants to the
 licensee that it is not a competitor of Gaussian, Inc. and that
 it will not use this program in any manner prohibited above.
 ---------------------------------------------------------------
  

 Cite this work as:
 Gaussian 09, Revision A.02,
 M. J. Frisch, G. W. Trucks, H. B. Schlegel, G. E. Scuseria, 
 M. A. Robb, J. R. Cheeseman, G. Scalmani, V. Barone, B. Mennucci, 
 G. A. Petersson, H. Nakatsuji, M. Caricato, X. Li, H. P. Hratchian, 
 A. F. Izmaylov, J. Bloino, G. Zheng, J. L. Sonnenberg, M. Hada, 
 M. Ehara, K. Toyota, R. Fukuda, J. Hasegawa, M. Ishida, T. Nakajima, 
 Y. Honda, O. Kitao, H. Nakai, T. Vreven, J. A. Montgomery, Jr., 
 J. E. Peralta, F. Ogliaro, M. Bearpark, J. J. Heyd, E. Brothers, 
 K. N. Kudin, V. N. Staroverov, R. Kobayashi, J. Normand, 
 K. Raghavachari, A. Rendell, J. C. Burant, S. S. Iyengar, J. Tomasi, 
 M. Cossi, N. Rega, J. M. Millam, M. Klene, J. E. Knox, J. B. Cross, 
 V. Bakken, C. Adamo, J. Jaramillo, R. Gomperts, R. E. Stratmann, 
 O. Yazyev, A. J. Austin, R. Cammi, C. Pomelli, J. W. Ochterski, 
 R. L. Martin, K. Morokuma, V. G. Zakrzewski, G. A. Voth, 
 P. Salvador, J. J. Dannenberg, S. Dapprich, A. D. Daniels, 
 O. Farkas, J. B. Foresman, J. V. Ortiz, J. Cioslowski, 
 and D. J. Fox, Gaussian, Inc., Wallingford CT, 2009.
 
 ******************************************
 Gaussian 09:  EM64L-G09RevA.02 11-Jun-2009
                13-Feb-2017 
 ******************************************
 %chk=structure_315.chk
 %NProcShared=8
 Will use up to    8 processors via shared memory.
 -------------------
 #SP MP2/aug-cc-pVDZ
 -------------------
 1/38=1/1;
 2/12=2,17=6,18=5,40=1/2;
 3/5=16,7=10,11=9,16=1,25=1,30=1/1,2,3;
 4//1;
 5/5=2,38=5/2;
 8/10=1/1;
 9/16=-3/6;
 6/7=2,8=2,9=2,10=2/1;
 99/5=1,9=1/99;
 -------------------------------
 Single Point calculation at MP2
 -------------------------------
 Symbolic Z-matrix:
 Charge =  0 Multiplicity = 1
 H                     3.2632   -1.6694   -0.6667 
 C                     3.1791   -0.6286   -0.3438 
 H                     3.445     0.0306   -1.1766 
 H                     3.9023   -0.4777    0.4652 
 C                     1.7759   -0.3965    0.201 
 O                     1.2292   -1.1906    0.9541 
 N                     1.1755    0.7692   -0.2026 
 H                     1.7056    1.4097   -0.7775 
 C                    -0.1206    1.2336    0.2963 
 H                    -0.0166    1.5557    1.3393 
 C                    -0.6058    2.4157   -0.5497 
 H                    -0.7478    2.1223   -1.5954 
 H                    -1.562     2.7749   -0.1596 
 H                     0.1095    3.2465   -0.5097 
 C                    -1.2096    0.1408    0.3591 
 O                    -2.0177    0.1399    1.2756 
 N                    -1.3035   -0.667    -0.7398 
 H                    -0.4727   -0.7369   -1.3118 
 C                    -2.2023   -1.811    -0.7372 
 H                    -3.1101   -1.5292   -0.2023 
 H                    -2.4555   -2.0816   -1.7666 
 H                    -1.7577   -2.6792   -0.2331 
 
                          Input orientation:                          
 ---------------------------------------------------------------------
 Center     Atomic      Atomic             Coordinates (Angstroms)
 Number     Number       Type             X           Y           Z
 ---------------------------------------------------------------------
      1          1           0        3.263200   -1.669400   -0.666700
      2          6           0        3.179100   -0.628600   -0.343800
      3          1           0        3.445000    0.030600   -1.176600
      4          1           0        3.902300   -0.477700    0.465200
      5          6           0        1.775900   -0.396500    0.201000
      6          8           0        1.229200   -1.190600    0.954100
      7          7           0        1.175500    0.769200   -0.202600
      8          1           0        1.705600    1.409700   -0.777500
      9          6           0       -0.120600    1.233600    0.296300
     10          1           0       -0.016600    1.555700    1.339300
     11          6           0       -0.605800    2.415700   -0.549700
     12          1           0       -0.747800    2.122300   -1.595400
     13          1           0       -1.562000    2.774900   -0.159600
     14          1           0        0.109500    3.246500   -0.509700
     15          6           0       -1.209600    0.140800    0.359100
     16          8           0       -2.017700    0.139900    1.275600
     17          7           0       -1.303500   -0.667000   -0.739800
     18          1           0       -0.472700   -0.736900   -1.311800
     19          6           0       -2.202300   -1.811000   -0.737200
     20          1           0       -3.110100   -1.529200   -0.202300
     21          1           0       -2.455500   -2.081600   -1.766600
     22          1           0       -1.757700   -2.679200   -0.233100
 ---------------------------------------------------------------------
                    Distance matrix (angstroms):
                    1          2          3          4          5
     1  H    0.000000
     2  C    1.092978   0.000000
     3  H    1.784110   1.094899   0.000000
     4  H    1.763461   1.095568   1.778482   0.000000
     5  C    2.141317   1.523039   2.205922   2.144288   0.000000
     6  O    2.644503   2.408838   3.307715   2.809397   1.223370
     7  N    3.243555   2.447079   2.577758   3.071832   1.371944
     8  H    3.452427   2.552247   2.255374   3.151519   2.055423
     9  C    4.561237   3.842595   4.041058   4.375020   2.502603
    10  H    5.018206   4.220958   4.542946   4.500727   2.884418
    11  C    5.627690   4.861648   4.742435   5.452041   3.760919
    12  H    5.597106   4.955249   4.704272   5.712224   3.992552
    13  H    6.579628   5.839158   5.799614   6.389707   4.618375
    14  H    5.842649   4.946349   4.681061   5.404205   4.068591
    15  C    4.933055   4.510735   4.902634   5.150274   3.037581
    16  O    5.910499   5.497252   5.988850   6.007044   3.979182
    17  N    4.675992   4.500221   4.819304   5.346795   3.231250
    18  H    3.904185   3.779470   3.994460   4.729222   2.731417
    19  C    5.467788   5.523794   5.956220   6.363144   4.325171
    20  H    6.391735   6.354930   6.808199   7.122146   5.031765
    21  H    5.838083   5.990349   6.294870   6.926402   4.961427
    22  H    5.139761   5.346888   5.941489   6.113086   4.229124
                    6          7          8          9         10
     6  O    0.000000
     7  N    2.276325   0.000000
     8  H    3.160214   1.010820   0.000000
     9  C    2.851562   1.464392   2.125809   0.000000
    10  H    3.040158   2.101699   2.732788   1.096546   0.000000
    11  C    4.316716   2.450402   2.531106   1.532480   2.157563
    12  H    4.624261   2.733103   2.682523   2.182131   3.077036
    13  H    4.975572   3.393904   3.594827   2.158954   2.474149
    14  H    4.804612   2.714347   2.448078   2.180447   2.508686
    15  C    2.841548   2.529643   3.376442   1.544046   2.094274
    16  O    3.523628   3.574580   4.437406   2.398791   2.452131
    17  N    3.091605   2.914909   3.656335   2.466787   3.304416
    18  H    2.869949   2.493035   3.104571   2.567651   3.534455
    19  C    3.875640   4.284012   5.064209   3.830298   4.519270
    20  H    4.503491   4.863025   5.670887   4.101070   4.632805
    21  H    4.666166   4.874148   5.521073   4.549491   5.368873
    22  H    3.542167   4.527257   5.386086   4.274385   4.841307
                   11         12         13         14         15
    11  C    0.000000
    12  H    1.095325   0.000000
    13  H    1.093399   1.774917   0.000000
    14  H    1.097034   1.782564   1.771691   0.000000
    15  C    2.523026   2.821289   2.707715   3.484281   0.000000
    16  O    3.241057   3.712842   3.034911   4.166922   1.221883
    17  N    3.166380   2.970025   3.500019   4.167133   1.367092
    18  H    3.246136   2.886370   3.853165   4.104850   2.026150
    19  C    4.522053   4.280529   4.666271   5.565472   2.448847
    20  H    4.685557   4.566688   4.574245   5.767810   2.591519
    21  H    5.012778   4.540740   5.192917   6.045467   3.318121
    22  H    5.233079   5.092167   5.458105   6.219073   2.933175
                   16         17         18         19         20
    16  O    0.000000
    17  N    2.285390   0.000000
    18  H    3.138541   1.011088   0.000000
    19  C    2.809173   1.454849   2.115508   0.000000
    20  H    2.482624   2.072703   2.968941   1.090702   0.000000
    21  H    3.792323   2.093446   2.438556   1.094074   1.783446
    22  H    3.207975   2.124145   2.566583   1.097979   1.775510
                   21         22
    21  H    0.000000
    22  H    1.787644   0.000000
 Stoichiometry    C6H12N2O2
 Framework group  C1[X(C6H12N2O2)]
 Deg. of freedom    60
 Full point group                 C1      NOp   1
 Largest Abelian subgroup         C1      NOp   1
 Largest concise Abelian subgroup C1      NOp   1
                         Standard orientation:                         
 ---------------------------------------------------------------------
 Center     Atomic      Atomic             Coordinates (Angstroms)
 Number     Number       Type             X           Y           Z
 ---------------------------------------------------------------------
      1          1           0        3.263201   -1.669406   -0.666703
      2          6           0        3.179105   -0.628606   -0.343803
      3          1           0        3.445008    0.030593   -1.176603
      4          1           0        3.902306   -0.477709    0.465197
      5          6           0        1.775906   -0.396500    0.200997
      6          8           0        1.229203   -1.190598    0.954097
      7          7           0        1.175511    0.769202   -0.202603
      8          1           0        1.705613    1.409700   -0.777503
      9          6           0       -0.120588    1.233607    0.296297
     10          1           0       -0.016586    1.555706    1.339297
     11          6           0       -0.605783    2.415709   -0.549703
     12          1           0       -0.747784    2.122309   -1.595403
     13          1           0       -1.561982    2.774912   -0.159603
     14          1           0        0.109520    3.246506   -0.509703
     15          6           0       -1.209592    0.140811    0.359097
     16          8           0       -2.017692    0.139914    1.275597
     17          7           0       -1.303495   -0.666989   -0.739803
     18          1           0       -0.472695   -0.736892   -1.311803
     19          6           0       -2.202299   -1.810985   -0.737203
     20          1           0       -3.110098   -1.529182   -0.202303
     21          1           0       -2.455500   -2.081584   -1.766603
     22          1           0       -1.757703   -2.679187   -0.233103
 ---------------------------------------------------------------------
 Rotational constants (GHZ):      1.7290708      0.9898120      0.7751807
 Standard basis: Aug-CC-pVDZ (5D, 7F)
 There are   338 symmetry adapted basis functions of A   symmetry.
 Integral buffers will be    131072 words long.
 Raffenetti 1 integral format.
 Two-electron integral symmetry is turned on.
   338 basis functions,   562 primitive gaussians,   358 cartesian basis functions
    39 alpha electrons       39 beta electrons
       nuclear repulsion energy       564.7446942961 Hartrees.
 NAtoms=   22 NActive=   22 NUniq=   22 SFac= 7.50D-01 NAtFMM=   80 NAOKFM=F Big=F
 One-electron integrals computed using PRISM.
 NBasis=   338 RedAO= T  NBF=   338
 NBsUse=   338 1.00D-06 NBFU=   338
 Harris functional with IExCor=  205 diagonalized for initial guess.
 ExpMin= 2.97D-02 ExpMax= 1.17D+04 ExpMxC= 4.01D+02 IAcc=3 IRadAn=         0 AccDes= 0.00D+00
 HarFok:  IExCor=  205 AccDes= 0.00D+00 IRadAn=         0 IDoV= 1
 ScaDFX=  1.000000  1.000000  1.000000  1.000000
 FoFCou: FMM=F IPFlag=           0 FMFlag=      100000 FMFlg1=           0
         NFxFlg=           0 DoJE=T BraDBF=F KetDBF=T FulRan=T
         Omega=  0.000000  0.000000  1.000000  0.000000  0.000000 ICntrl=     500 IOpCl=  0
         NMat0=    1 NMatS0=    1 NMatT0=    0 NMatD0=    1 NMtDS0=    0 NMtDT0=    0
         I1Cent=           4 NGrid=           0.
 Petite list used in FoFCou.
 Initial guess orbital symmetries:
       Occupied  (A) (A) (A) (A) (A) (A) (A) (A) (A) (A) (A) (A)
                 (A) (A) (A) (A) (A) (A) (A) (A) (A) (A) (A) (A)
                 (A) (A) (A) (A) (A) (A) (A) (A) (A) (A) (A) (A)
                 (A) (A) (A)
       Virtual   (A) (A) (A) (A) (A) (A) (A) (A) (A) (A) (A) (A)
                 (A) (A) (A) (A) (A) (A) (A) (A) (A) (A) (A) (A)
                 (A) (A) (A) (A) (A) (A) (A) (A) (A) (A) (A) (A)
                 (A) (A) (A) (A) (A) (A) (A) (A) (A) (A) (A) (A)
                 (A) (A) (A) (A) (A) (A) (A) (A) (A) (A) (A) (A)
                 (A) (A) (A) (A) (A) (A) (A) (A) (A) (A) (A) (A)
                 (A) (A) (A) (A) (A) (A) (A) (A) (A) (A) (A) (A)
                 (A) (A) (A) (A) (A) (A) (A) (A) (A) (A) (A) (A)
                 (A) (A) (A) (A) (A) (A) (A) (A) (A) (A) (A) (A)
                 (A) (A) (A) (A) (A) (A) (A) (A) (A) (A) (A) (A)
                 (A) (A) (A) (A) (A) (A) (A) (A) (A) (A) (A) (A)
                 (A) (A) (A) (A) (A) (A) (A) (A) (A) (A) (A) (A)
                 (A) (A) (A) (A) (A) (A) (A) (A) (A) (A) (A) (A)
                 (A) (A) (A) (A) (A) (A) (A) (A) (A) (A) (A) (A)
                 (A) (A) (A) (A) (A) (A) (A) (A) (A) (A) (A) (A)
                 (A) (A) (A) (A) (A) (A) (A) (A) (A) (A) (A) (A)
                 (A) (A) (A) (A) (A) (A) (A) (A) (A) (A) (A) (A)
                 (A) (A) (A) (A) (A) (A) (A) (A) (A) (A) (A) (A)
                 (A) (A) (A) (A) (A) (A) (A) (A) (A) (A) (A) (A)
                 (A) (A) (A) (A) (A) (A) (A) (A) (A) (A) (A) (A)
                 (A) (A) (A) (A) (A) (A) (A) (A) (A) (A) (A) (A)
                 (A) (A) (A) (A) (A) (A) (A) (A) (A) (A) (A) (A)
                 (A) (A) (A) (A) (A) (A) (A) (A) (A) (A) (A) (A)
                 (A) (A) (A) (A) (A) (A) (A) (A) (A) (A) (A) (A)
                 (A) (A) (A) (A) (A) (A) (A) (A) (A) (A) (A)
 The electronic state of the initial guess is 1-A.
 Requested convergence on RMS density matrix=1.00D-08 within 128 cycles.
 Requested convergence on MAX density matrix=1.00D-06.
 Requested convergence on             energy=1.00D-06.
 No special actions if energy rises.
 Initial convergence to 1.0D-05 achieved.  Increase integral accuracy.
 SCF Done:  E(RHF) =  -492.920920220     A.U. after   14 cycles
             Convg  =    0.7278D-08             -V/T =  2.0017
 ExpMin= 2.97D-02 ExpMax= 1.17D+04 ExpMxC= 4.01D+02 IAcc=3 IRadAn=         5 AccDes= 0.00D+00
 HarFok:  IExCor=  205 AccDes= 0.00D+00 IRadAn=         5 IDoV=-2
 ScaDFX=  1.000000  1.000000  1.000000  1.000000
 Range of M.O.s used for correlation:    11   338
 NBasis=   338 NAE=    39 NBE=    39 NFC=    10 NFV=     0
 NROrb=    328 NOA=    29 NOB=    29 NVA=   299 NVB=   299

 **** Warning!!: The largest alpha MO coefficient is  0.58533492D+02

 Disk-based method using OVN memory for 29 occupieds at a time.
 Estimated scratch disk usage=  1395169538 words.
 Actual    scratch disk usage=  1381893921 words.
 JobTyp=1 Pass  1:  I=   1 to  29 NPSUse=  8 ParTrn=T ParDer=T DoDerP=F.
 Spin components of T(2) and E(2):
     alpha-alpha T2 =       0.6802718506D-01 E2=     -0.2059925498D+00
     alpha-beta  T2 =       0.3769061153D+00 E2=     -0.1190983144D+01
     beta-beta   T2 =       0.6802718506D-01 E2=     -0.2059925498D+00
 ANorm=    0.1230024587D+01
 E2 =    -0.1602968244D+01 EUMP2 =    -0.49452388846373D+03

 **********************************************************************

            Population analysis using the SCF density.

 **********************************************************************

 Orbital symmetries:
       Occupied  (A) (A) (A) (A) (A) (A) (A) (A) (A) (A) (A) (A)
                 (A) (A) (A) (A) (A) (A) (A) (A) (A) (A) (A) (A)
                 (A) (A) (A) (A) (A) (A) (A) (A) (A) (A) (A) (A)
                 (A) (A) (A)
       Virtual   (A) (A) (A) (A) (A) (A) (A) (A) (A) (A) (A) (A)
                 (A) (A) (A) (A) (A) (A) (A) (A) (A) (A) (A) (A)
                 (A) (A) (A) (A) (A) (A) (A) (A) (A) (A) (A) (A)
                 (A) (A) (A) (A) (A) (A) (A) (A) (A) (A) (A) (A)
                 (A) (A) (A) (A) (A) (A) (A) (A) (A) (A) (A) (A)
                 (A) (A) (A) (A) (A) (A) (A) (A) (A) (A) (A) (A)
                 (A) (A) (A) (A) (A) (A) (A) (A) (A) (A) (A) (A)
                 (A) (A) (A) (A) (A) (A) (A) (A) (A) (A) (A) (A)
                 (A) (A) (A) (A) (A) (A) (A) (A) (A) (A) (A) (A)
                 (A) (A) (A) (A) (A) (A) (A) (A) (A) (A) (A) (A)
                 (A) (A) (A) (A) (A) (A) (A) (A) (A) (A) (A) (A)
                 (A) (A) (A) (A) (A) (A) (A) (A) (A) (A) (A) (A)
                 (A) (A) (A) (A) (A) (A) (A) (A) (A) (A) (A) (A)
                 (A) (A) (A) (A) (A) (A) (A) (A) (A) (A) (A) (A)
                 (A) (A) (A) (A) (A) (A) (A) (A) (A) (A) (A) (A)
                 (A) (A) (A) (A) (A) (A) (A) (A) (A) (A) (A) (A)
                 (A) (A) (A) (A) (A) (A) (A) (A) (A) (A) (A) (A)
                 (A) (A) (A) (A) (A) (A) (A) (A) (A) (A) (A) (A)
                 (A) (A) (A) (A) (A) (A) (A) (A) (A) (A) (A) (A)
                 (A) (A) (A) (A) (A) (A) (A) (A) (A) (A) (A) (A)
                 (A) (A) (A) (A) (A) (A) (A) (A) (A) (A) (A) (A)
                 (A) (A) (A) (A) (A) (A) (A) (A) (A) (A) (A) (A)
                 (A) (A) (A) (A) (A) (A) (A) (A) (A) (A) (A) (A)
                 (A) (A) (A) (A) (A) (A) (A) (A) (A) (A) (A) (A)
                 (A) (A) (A) (A) (A) (A) (A) (A) (A) (A) (A)
 The electronic state is 1-A.
 Alpha  occ. eigenvalues --  -20.54054 -20.52344 -15.61087 -15.58294 -11.37348
 Alpha  occ. eigenvalues --  -11.35225 -11.29513 -11.25800 -11.25734 -11.24957
 Alpha  occ. eigenvalues --   -1.39659  -1.37602  -1.25178  -1.21943  -1.06264
 Alpha  occ. eigenvalues --   -1.00128  -0.94948  -0.88148  -0.81438  -0.77444
 Alpha  occ. eigenvalues --   -0.70730  -0.69523  -0.67790  -0.62729  -0.62178
 Alpha  occ. eigenvalues --   -0.61999  -0.59659  -0.58594  -0.58170  -0.55792
 Alpha  occ. eigenvalues --   -0.54851  -0.54238  -0.53807  -0.51816  -0.49927
 Alpha  occ. eigenvalues --   -0.43353  -0.42625  -0.40155  -0.38400
 Alpha virt. eigenvalues --    0.02182   0.03711   0.03927   0.04642   0.05662
 Alpha virt. eigenvalues --    0.05898   0.06247   0.06673   0.07276   0.08389
 Alpha virt. eigenvalues --    0.08434   0.09265   0.11508   0.11619   0.12050
 Alpha virt. eigenvalues --    0.13335   0.14122   0.14884   0.15013   0.15289
 Alpha virt. eigenvalues --    0.15618   0.16156   0.16316   0.17019   0.17397
 Alpha virt. eigenvalues --    0.17801   0.17966   0.18003   0.18969   0.19364
 Alpha virt. eigenvalues --    0.19839   0.20148   0.20605   0.21417   0.22038
 Alpha virt. eigenvalues --    0.22437   0.23524   0.25144   0.25817   0.26378
 Alpha virt. eigenvalues --    0.27228   0.28327   0.29121   0.30159   0.31015
 Alpha virt. eigenvalues --    0.31291   0.31568   0.32062   0.33961   0.34170
 Alpha virt. eigenvalues --    0.34841   0.35179   0.35327   0.36484   0.37264
 Alpha virt. eigenvalues --    0.37346   0.38078   0.39215   0.39562   0.40431
 Alpha virt. eigenvalues --    0.40971   0.41043   0.41881   0.42330   0.43303
 Alpha virt. eigenvalues --    0.43688   0.44293   0.44711   0.45543   0.46160
 Alpha virt. eigenvalues --    0.46379   0.46817   0.47450   0.48364   0.48916
 Alpha virt. eigenvalues --    0.49364   0.50630   0.50854   0.51711   0.52065
 Alpha virt. eigenvalues --    0.52836   0.54172   0.54474   0.54755   0.56195
 Alpha virt. eigenvalues --    0.56359   0.56887   0.57961   0.58287   0.58922
 Alpha virt. eigenvalues --    0.59236   0.59942   0.61010   0.61440   0.61988
 Alpha virt. eigenvalues --    0.62787   0.63486   0.63718   0.64296   0.65052
 Alpha virt. eigenvalues --    0.66173   0.67076   0.67217   0.67784   0.68055
 Alpha virt. eigenvalues --    0.68944   0.69894   0.70817   0.71130   0.71732
 Alpha virt. eigenvalues --    0.72573   0.73070   0.73264   0.74108   0.74541
 Alpha virt. eigenvalues --    0.76108   0.76559   0.77196   0.78602   0.79172
 Alpha virt. eigenvalues --    0.79965   0.80660   0.82302   0.82506   0.83427
 Alpha virt. eigenvalues --    0.83824   0.85474   0.86640   0.87406   0.87811
 Alpha virt. eigenvalues --    0.89031   0.90020   0.91780   0.92212   0.92745
 Alpha virt. eigenvalues --    0.93427   0.95235   0.96999   0.97951   0.98835
 Alpha virt. eigenvalues --    1.00769   1.00903   1.01588   1.04730   1.05990
 Alpha virt. eigenvalues --    1.07630   1.08308   1.09556   1.10620   1.11812
 Alpha virt. eigenvalues --    1.12558   1.13820   1.15280   1.15385   1.17426
 Alpha virt. eigenvalues --    1.17705   1.18355   1.20086   1.20795   1.21851
 Alpha virt. eigenvalues --    1.22567   1.24198   1.26482   1.27271   1.29444
 Alpha virt. eigenvalues --    1.30271   1.33789   1.35981   1.36915   1.38366
 Alpha virt. eigenvalues --    1.39573   1.40857   1.42720   1.44427   1.48276
 Alpha virt. eigenvalues --    1.48965   1.51206   1.52349   1.53440   1.54945
 Alpha virt. eigenvalues --    1.56682   1.58636   1.59079   1.61923   1.65465
 Alpha virt. eigenvalues --    1.66977   1.68457   1.71431   1.72568   1.74333
 Alpha virt. eigenvalues --    1.75090   1.76138   1.77028   1.79290   1.81637
 Alpha virt. eigenvalues --    1.82166   1.85017   1.86628   1.87360   1.88505
 Alpha virt. eigenvalues --    1.89655   1.89670   1.91513   1.92407   1.93235
 Alpha virt. eigenvalues --    1.95549   1.96770   1.99108   1.99751   2.01967
 Alpha virt. eigenvalues --    2.02307   2.03730   2.05171   2.08650   2.11348
 Alpha virt. eigenvalues --    2.12378   2.13906   2.14669   2.15693   2.16570
 Alpha virt. eigenvalues --    2.17457   2.19115   2.19553   2.21510   2.23275
 Alpha virt. eigenvalues --    2.24598   2.25570   2.26477   2.29787   2.30332
 Alpha virt. eigenvalues --    2.32516   2.33672   2.35891   2.36709   2.38034
 Alpha virt. eigenvalues --    2.38489   2.40735   2.41577   2.43870   2.46124
 Alpha virt. eigenvalues --    2.47138   2.48774   2.50712   2.52066   2.53282
 Alpha virt. eigenvalues --    2.54512   2.56577   2.57496   2.58858   2.59780
 Alpha virt. eigenvalues --    2.62296   2.64711   2.67064   2.68080   2.70315
 Alpha virt. eigenvalues --    2.71491   2.72966   2.74330   2.76213   2.80812
 Alpha virt. eigenvalues --    2.81650   2.83700   2.85391   2.86444   2.88636
 Alpha virt. eigenvalues --    2.90222   2.91633   2.92323   2.95807   2.96925
 Alpha virt. eigenvalues --    2.99194   3.01390   3.05733   3.07077   3.08375
 Alpha virt. eigenvalues --    3.11736   3.13426   3.17051   3.18802   3.27219
 Alpha virt. eigenvalues --    3.32614   3.38988   3.45697   3.46986   3.48256
 Alpha virt. eigenvalues --    3.63983   3.67671   3.75565   3.82504   3.84091
 Alpha virt. eigenvalues --    3.85551   3.90252   3.93994   3.96739   3.99975
 Alpha virt. eigenvalues --    4.06551   4.08501   4.20883   4.28492
          Condensed to atoms (all electrons):
              1          2          3          4          5          6
     1  H    0.759468   0.327245  -0.094701  -0.049432  -0.072766   0.028614
     2  C    0.327245   4.536928   0.337798   0.403845   0.227287  -0.048469
     3  H   -0.094701   0.337798   1.111329  -0.068790   0.140396  -0.009652
     4  H   -0.049432   0.403845  -0.068790   0.707839  -0.082165   0.006320
     5  C   -0.072766   0.227287   0.140396  -0.082165   5.412461   0.232679
     6  O    0.028614  -0.048469  -0.009652   0.006320   0.232679   8.678861
     7  N    0.067975  -0.074194  -0.232704   0.044590  -0.075330  -0.112847
     8  H   -0.004053  -0.060484   0.010169  -0.007562  -0.074420  -0.001581
     9  C    0.014408  -0.028835  -0.033429  -0.016875  -0.102850   0.057105
    10  H    0.000374  -0.005219   0.000746  -0.003601   0.014782   0.019093
    11  C    0.000503  -0.023465  -0.005379   0.002226  -0.026211   0.006623
    12  H   -0.000613  -0.007067   0.000204  -0.000013  -0.007420   0.000280
    13  H    0.000317   0.003304   0.000700   0.000015   0.010248  -0.000054
    14  H   -0.000231  -0.006813  -0.001333  -0.000110  -0.013696   0.000375
    15  C   -0.000132   0.009589   0.002503   0.002036  -0.088860  -0.034098
    16  O   -0.000200   0.002923   0.000474   0.000165   0.030456  -0.002054
    17  N   -0.000775  -0.013064  -0.001458  -0.000161   0.024885  -0.002374
    18  H    0.002522   0.007678  -0.003087  -0.000233   0.010700   0.008496
    19  C   -0.001280   0.001627  -0.000897   0.000186  -0.015405   0.001340
    20  H    0.000091   0.000392  -0.000124   0.000007  -0.014396  -0.000623
    21  H   -0.000113   0.000618  -0.000059   0.000068   0.006490  -0.002328
    22  H   -0.000119  -0.002583   0.000225  -0.000357   0.012965   0.006309
              7          8          9         10         11         12
     1  H    0.067975  -0.004053   0.014408   0.000374   0.000503  -0.000613
     2  C   -0.074194  -0.060484  -0.028835  -0.005219  -0.023465  -0.007067
     3  H   -0.232704   0.010169  -0.033429   0.000746  -0.005379   0.000204
     4  H    0.044590  -0.007562  -0.016875  -0.003601   0.002226  -0.000013
     5  C   -0.075330  -0.074420  -0.102850   0.014782  -0.026211  -0.007420
     6  O   -0.112847  -0.001581   0.057105   0.019093   0.006623   0.000280
     7  N    7.857334   0.383806  -0.658341  -0.052717   0.049533  -0.054005
     8  H    0.383806   0.997467  -0.242598   0.015347   0.029533   0.012453
     9  C   -0.658341  -0.242598   7.670640  -0.212152   0.184791  -0.085000
    10  H   -0.052717   0.015347  -0.212152   1.273062  -0.026110   0.070058
    11  C    0.049533   0.029533   0.184791  -0.026110   4.327565   0.384962
    12  H   -0.054005   0.012453  -0.085000   0.070058   0.384962   1.083460
    13  H    0.061222  -0.001156  -0.058277  -0.047153   0.332799  -0.144304
    14  H   -0.044246   0.005167   0.082019  -0.025988   0.255609  -0.218575
    15  C    0.186594   0.003256  -0.668488   0.110792  -0.173737  -0.018603
    16  O   -0.020462  -0.002422  -0.015813   0.052915   0.036633  -0.001503
    17  N    0.011463   0.013305  -0.055233   0.036423   0.031133  -0.006481
    18  H    0.009728  -0.002090  -0.028443  -0.002626  -0.034118  -0.006234
    19  C    0.025454   0.001739  -0.120423   0.010272   0.007437   0.003236
    20  H    0.009699   0.000762  -0.008262   0.000751  -0.005251  -0.001439
    21  H    0.000282   0.000008  -0.026611  -0.000297   0.002234   0.000872
    22  H   -0.004655  -0.000106   0.010334  -0.000108   0.000129  -0.000034
             13         14         15         16         17         18
     1  H    0.000317  -0.000231  -0.000132  -0.000200  -0.000775   0.002522
     2  C    0.003304  -0.006813   0.009589   0.002923  -0.013064   0.007678
     3  H    0.000700  -0.001333   0.002503   0.000474  -0.001458  -0.003087
     4  H    0.000015  -0.000110   0.002036   0.000165  -0.000161  -0.000233
     5  C    0.010248  -0.013696  -0.088860   0.030456   0.024885   0.010700
     6  O   -0.000054   0.000375  -0.034098  -0.002054  -0.002374   0.008496
     7  N    0.061222  -0.044246   0.186594  -0.020462   0.011463   0.009728
     8  H   -0.001156   0.005167   0.003256  -0.002422   0.013305  -0.002090
     9  C   -0.058277   0.082019  -0.668488  -0.015813  -0.055233  -0.028443
    10  H   -0.047153  -0.025988   0.110792   0.052915   0.036423  -0.002626
    11  C    0.332799   0.255609  -0.173737   0.036633   0.031133  -0.034118
    12  H   -0.144304  -0.218575  -0.018603  -0.001503  -0.006481  -0.006234
    13  H    1.088802  -0.187847  -0.027303   0.022774  -0.000715   0.001085
    14  H   -0.187847   1.175504   0.059804  -0.004802   0.006002  -0.001147
    15  C   -0.027303   0.059804   5.419635   0.066567   0.100222  -0.004957
    16  O    0.022774  -0.004802   0.066567   8.843762  -0.080402   0.002781
    17  N   -0.000715   0.006002   0.100222  -0.080402   7.199127   0.254590
    18  H    0.001085  -0.001147  -0.004957   0.002781   0.254590   0.925724
    19  C   -0.001912   0.003254  -0.037647   0.001885   0.202768  -0.103422
    20  H    0.000619   0.000305   0.075714  -0.036620  -0.075090   0.001279
    21  H   -0.000370  -0.000122  -0.014079   0.009912  -0.176163   0.013651
    22  H   -0.000763   0.000503  -0.055880   0.012666   0.127741  -0.010591
             19         20         21         22
     1  H   -0.001280   0.000091  -0.000113  -0.000119
     2  C    0.001627   0.000392   0.000618  -0.002583
     3  H   -0.000897  -0.000124  -0.000059   0.000225
     4  H    0.000186   0.000007   0.000068  -0.000357
     5  C   -0.015405  -0.014396   0.006490   0.012965
     6  O    0.001340  -0.000623  -0.002328   0.006309
     7  N    0.025454   0.009699   0.000282  -0.004655
     8  H    0.001739   0.000762   0.000008  -0.000106
     9  C   -0.120423  -0.008262  -0.026611   0.010334
    10  H    0.010272   0.000751  -0.000297  -0.000108
    11  C    0.007437  -0.005251   0.002234   0.000129
    12  H    0.003236  -0.001439   0.000872  -0.000034
    13  H   -0.001912   0.000619  -0.000370  -0.000763
    14  H    0.003254   0.000305  -0.000122   0.000503
    15  C   -0.037647   0.075714  -0.014079  -0.055880
    16  O    0.001885  -0.036620   0.009912   0.012666
    17  N    0.202768  -0.075090  -0.176163   0.127741
    18  H   -0.103422   0.001279   0.013651  -0.010591
    19  C    4.142078   0.429277   0.460359   0.272219
    20  H    0.429277   1.027348  -0.177016  -0.110153
    21  H    0.460359  -0.177016   1.263550  -0.185160
    22  H    0.272219  -0.110153  -0.185160   1.005398
 Mulliken atomic charges:
              1
     1  H    0.022895
     2  C    0.410957
     3  H   -0.152932
     4  H    0.062003
     5  C    0.450170
     6  O   -0.832016
     7  N   -0.378178
     8  H   -0.076539
     9  C    0.342331
    10  H   -0.228644
    11  C    0.642561
    12  H   -0.004235
    13  H   -0.052029
    14  H   -0.083630
    15  C    1.087072
    16  O   -0.919634
    17  N   -0.595745
    18  H   -0.041286
    19  C    0.717854
    20  H   -0.117268
    21  H   -0.175728
    22  H   -0.077978
 Sum of Mulliken atomic charges =   0.00000
 Mulliken charges with hydrogens summed into heavy atoms:
              1
     2  C    0.342923
     5  C    0.450170
     6  O   -0.832016
     7  N   -0.454717
     9  C    0.113686
    11  C    0.502667
    15  C    1.087072
    16  O   -0.919634
    17  N   -0.637030
    19  C    0.346880
 Sum of Mulliken charges with hydrogens summed into heavy atoms =   0.00000
 Electronic spatial extent (au):  <R**2>=           1646.1793
 Charge=              0.0000 electrons
 Dipole moment (field-independent basis, Debye):
    X=              3.8689    Y=              2.2265    Z=             -5.0936  Tot=              6.7728
 Quadrupole moment (field-independent basis, Debye-Ang):
   XX=            -58.5299   YY=            -57.4248   ZZ=            -65.6983
   XY=              4.4978   XZ=              2.2753   YZ=              3.4108
 Traceless Quadrupole moment (field-independent basis, Debye-Ang):
   XX=              2.0211   YY=              3.1262   ZZ=             -5.1473
   XY=              4.4978   XZ=              2.2753   YZ=              3.4108
 Octapole moment (field-independent basis, Debye-Ang**2):
  XXX=             35.5632  YYY=              5.2826  ZZZ=             -6.5435  XYY=             -6.1315
  XXY=             -6.0741  XXZ=            -15.1794  XZZ=              8.2154  YZZ=              0.6136
  YYZ=             -6.2054  XYZ=              1.3122
 Hexadecapole moment (field-independent basis, Debye-Ang**3):
 XXXX=          -1172.2011 YYYY=           -665.0782 ZZZZ=           -262.5677 XXXY=              6.2256
 XXXZ=             20.9774 YYYX=              9.7162 YYYZ=              5.6723 ZZZX=              8.1319
 ZZZY=              5.8233 XXYY=           -301.0322 XXZZ=           -265.4845 YYZZ=           -157.1846
 XXYZ=              1.7649 YYXZ=             -9.6473 ZZXY=             10.7221
 N-N= 5.647446942961D+02 E-N=-2.284727779534D+03  KE= 4.920654258855D+02
 1\1\GINC-NODE004\SP\RMP2-FC\Aug-CC-pVDZ\C6H12N2O2\STEBOSS\13-Feb-2017\
 0\\#SP MP2/aug-cc-pVDZ\\Single Point calculation at MP2\\0,1\H,0,3.263
 2,-1.6694,-0.6667\C,0,3.1791,-0.6286,-0.3438\H,0,3.445,0.0306,-1.1766\
 H,0,3.9023,-0.4777,0.4652\C,0,1.7759,-0.3965,0.201\O,0,1.2292,-1.1906,
 0.9541\N,0,1.1755,0.7692,-0.2026\H,0,1.7056,1.4097,-0.7775\C,0,-0.1206
 ,1.2336,0.2963\H,0,-0.0166,1.5557,1.3393\C,0,-0.6058,2.4157,-0.5497\H,
 0,-0.7478,2.1223,-1.5954\H,0,-1.562,2.7749,-0.1596\H,0,0.1095,3.2465,-
 0.5097\C,0,-1.2096,0.1408,0.3591\O,0,-2.0177,0.1399,1.2756\N,0,-1.3035
 ,-0.667,-0.7398\H,0,-0.4727,-0.7369,-1.3118\C,0,-2.2023,-1.811,-0.7372
 \H,0,-3.1101,-1.5292,-0.2023\H,0,-2.4555,-2.0816,-1.7666\H,0,-1.7577,-
 2.6792,-0.2331\\Version=EM64L-G09RevA.02\State=1-A\HF=-492.9209202\MP2
 =-494.5238885\RMSD=7.278e-09\PG=C01 [X(C6H12N2O2)]\\@


 There ain't no surer way to find out whether you
 like people or hate them than to travel with them.
                                     -- Mark Twain
 Job cpu time:  0 days 12 hours  1 minutes 23.3 seconds.
 File lengths (MBytes):  RWF=  10660 Int=      0 D2E=      0 Chk=      7 Scr=      2
 Normal termination of Gaussian 09 at Mon Feb 13 19:29:11 2017.
