 Entering Gaussian System, Link 0=g09
 Initial command:
 /home/steboss/Software/g09/l1.exe /home/steboss/projects/phi_psi_scan/alanine/MP2/180/5325/Gau-20542.inp -scrdir=/home/steboss/projects/phi_psi_scan/alanine/MP2/180/5325/
 Entering Link 1 = /home/steboss/Software/g09/l1.exe PID=     20547.
  
 Copyright (c) 1988,1990,1992,1993,1995,1998,2003,2009, Gaussian, Inc.
                  All Rights Reserved.
  
 This is part of the Gaussian(R) 09 program.  It is based on
 the Gaussian(R) 03 system (copyright 2003, Gaussian, Inc.),
 the Gaussian(R) 98 system (copyright 1998, Gaussian, Inc.),
 the Gaussian(R) 94 system (copyright 1995, Gaussian, Inc.),
 the Gaussian 92(TM) system (copyright 1992, Gaussian, Inc.),
 the Gaussian 90(TM) system (copyright 1990, Gaussian, Inc.),
 the Gaussian 88(TM) system (copyright 1988, Gaussian, Inc.),
 the Gaussian 86(TM) system (copyright 1986, Carnegie Mellon
 University), and the Gaussian 82(TM) system (copyright 1983,
 Carnegie Mellon University). Gaussian is a federally registered
 trademark of Gaussian, Inc.
  
 This software contains proprietary and confidential information,
 including trade secrets, belonging to Gaussian, Inc.
  
 This software is provided under written license and may be
 used, copied, transmitted, or stored only in accord with that
 written license.
  
 The following legend is applicable only to US Government
 contracts under FAR:
  
                    RESTRICTED RIGHTS LEGEND
  
 Use, reproduction and disclosure by the US Government is
 subject to restrictions as set forth in subparagraphs (a)
 and (c) of the Commercial Computer Software - Restricted
 Rights clause in FAR 52.227-19.
  
 Gaussian, Inc.
 340 Quinnipiac St., Bldg. 40, Wallingford CT 06492
  
  
 ---------------------------------------------------------------
 Warning -- This program may not be used in any manner that
 competes with the business of Gaussian, Inc. or will provide
 assistance to any competitor of Gaussian, Inc.  The licensee
 of this program is prohibited from giving any competitor of
 Gaussian, Inc. access to this program.  By using this program,
 the user acknowledges that Gaussian, Inc. is engaged in the
 business of creating and licensing software in the field of
 computational chemistry and represents and warrants to the
 licensee that it is not a competitor of Gaussian, Inc. and that
 it will not use this program in any manner prohibited above.
 ---------------------------------------------------------------
  

 Cite this work as:
 Gaussian 09, Revision A.02,
 M. J. Frisch, G. W. Trucks, H. B. Schlegel, G. E. Scuseria, 
 M. A. Robb, J. R. Cheeseman, G. Scalmani, V. Barone, B. Mennucci, 
 G. A. Petersson, H. Nakatsuji, M. Caricato, X. Li, H. P. Hratchian, 
 A. F. Izmaylov, J. Bloino, G. Zheng, J. L. Sonnenberg, M. Hada, 
 M. Ehara, K. Toyota, R. Fukuda, J. Hasegawa, M. Ishida, T. Nakajima, 
 Y. Honda, O. Kitao, H. Nakai, T. Vreven, J. A. Montgomery, Jr., 
 J. E. Peralta, F. Ogliaro, M. Bearpark, J. J. Heyd, E. Brothers, 
 K. N. Kudin, V. N. Staroverov, R. Kobayashi, J. Normand, 
 K. Raghavachari, A. Rendell, J. C. Burant, S. S. Iyengar, J. Tomasi, 
 M. Cossi, N. Rega, J. M. Millam, M. Klene, J. E. Knox, J. B. Cross, 
 V. Bakken, C. Adamo, J. Jaramillo, R. Gomperts, R. E. Stratmann, 
 O. Yazyev, A. J. Austin, R. Cammi, C. Pomelli, J. W. Ochterski, 
 R. L. Martin, K. Morokuma, V. G. Zakrzewski, G. A. Voth, 
 P. Salvador, J. J. Dannenberg, S. Dapprich, A. D. Daniels, 
 O. Farkas, J. B. Foresman, J. V. Ortiz, J. Cioslowski, 
 and D. J. Fox, Gaussian, Inc., Wallingford CT, 2009.
 
 ******************************************
 Gaussian 09:  EM64L-G09RevA.02 11-Jun-2009
                12-Feb-2017 
 ******************************************
 %chk=structure_105.chk
 %NProcShared=8
 Will use up to    8 processors via shared memory.
 -------------------
 #SP MP2/aug-cc-pVDZ
 -------------------
 1/38=1/1;
 2/12=2,17=6,18=5,40=1/2;
 3/5=16,7=10,11=9,16=1,25=1,30=1/1,2,3;
 4//1;
 5/5=2,38=5/2;
 8/10=1/1;
 9/16=-3/6;
 6/7=2,8=2,9=2,10=2/1;
 99/5=1,9=1/99;
 -------------------------------
 Single Point calculation at MP2
 -------------------------------
 Symbolic Z-matrix:
 Charge =  0 Multiplicity = 1
 H                    -3.8991   -1.6769   -0.1713 
 C                    -3.1509   -1.291     0.5252 
 H                    -2.6181   -2.1282    0.9868 
 H                    -3.6825   -0.7398    1.3096 
 C                    -2.2351   -0.3324   -0.223 
 O                    -2.6556    0.4542   -1.0616 
 N                    -0.8996   -0.4369    0.0891 
 H                    -0.6692   -0.913     0.9544 
 C                     0.0525    0.6185   -0.2835 
 H                     0.0416    0.6914   -1.3767 
 C                    -0.2851    1.9878    0.3211 
 H                    -0.2282    1.9349    1.4118 
 H                     0.433     2.7415   -0.0226 
 H                    -1.2864    2.2933    0.0122 
 C                     1.421     0.1415    0.2311 
 O                     1.6682    0.1259    1.4335 
 N                     2.2771   -0.321    -0.7206 
 H                     1.9837   -0.2873   -1.6862 
 C                     3.596    -0.8444   -0.4084 
 H                     3.7128   -0.806     0.6753 
 H                     3.6963   -1.8826   -0.7453 
 H                     4.3831   -0.2422   -0.877 
 
                          Input orientation:                          
 ---------------------------------------------------------------------
 Center     Atomic      Atomic             Coordinates (Angstroms)
 Number     Number       Type             X           Y           Z
 ---------------------------------------------------------------------
      1          1           0       -3.899100   -1.676900   -0.171300
      2          6           0       -3.150900   -1.291000    0.525200
      3          1           0       -2.618100   -2.128200    0.986800
      4          1           0       -3.682500   -0.739800    1.309600
      5          6           0       -2.235100   -0.332400   -0.223000
      6          8           0       -2.655600    0.454200   -1.061600
      7          7           0       -0.899600   -0.436900    0.089100
      8          1           0       -0.669200   -0.913000    0.954400
      9          6           0        0.052500    0.618500   -0.283500
     10          1           0        0.041600    0.691400   -1.376700
     11          6           0       -0.285100    1.987800    0.321100
     12          1           0       -0.228200    1.934900    1.411800
     13          1           0        0.433000    2.741500   -0.022600
     14          1           0       -1.286400    2.293300    0.012200
     15          6           0        1.421000    0.141500    0.231100
     16          8           0        1.668200    0.125900    1.433500
     17          7           0        2.277100   -0.321000   -0.720600
     18          1           0        1.983700   -0.287300   -1.686200
     19          6           0        3.596000   -0.844400   -0.408400
     20          1           0        3.712800   -0.806000    0.675300
     21          1           0        3.696300   -1.882600   -0.745300
     22          1           0        4.383100   -0.242200   -0.877000
 ---------------------------------------------------------------------
                    Distance matrix (angstroms):
                    1          2          3          4          5
     1  H    0.000000
     2  C    1.092627   0.000000
     3  H    1.784889   1.094465   0.000000
     4  H    1.765825   1.096222   1.778989   0.000000
     5  C    2.139918   1.522303   2.198909   2.147045   0.000000
     6  O    2.623073   2.410182   3.296383   2.846533   1.224259
     7  N    3.256134   2.447043   2.572859   3.053834   1.375459
     8  H    3.504711   2.546749   2.296948   3.039102   2.043382
     9  C    4.571279   3.816013   4.036103   4.281725   2.478101
    10  H    4.752994   4.211792   4.539855   4.809726   2.750010
    11  C    5.170443   4.359472   4.777813   4.467579   3.079265
    12  H    5.387654   4.442372   4.732972   4.369972   3.441056
    13  H    6.189625   5.422682   5.834559   5.552616   4.075264
    14  H    4.756297   4.072682   4.719421   4.077283   2.801723
    15  C    5.636663   4.800085   4.694353   5.290138   3.714546
    16  O    6.067973   5.104541   4.863422   5.421695   4.264948
    17  N    6.347097   5.652973   5.490371   6.309829   4.539569
    18  H    6.231633   5.679949   5.631199   6.425371   4.465564
    19  C    7.544919   6.825813   6.496904   7.479240   5.856470
    20  H    7.708192   6.882451   6.474993   7.422748   6.033967
    21  H    7.619835   6.989157   6.552262   7.744372   6.152839
    22  H    8.435118   7.734811   7.486491   8.371543   6.651047
                    6          7          8          9         10
     6  O    0.000000
     7  N    2.280725   0.000000
     8  H    3.143132   1.014150   0.000000
     9  C    2.822453   1.469420   2.097317   0.000000
    10  H    2.725883   2.075449   2.917767   1.095682   0.000000
    11  C    3.143733   2.512092   2.993867   1.534437   2.160998
    12  H    3.768614   2.797454   2.917915   2.164658   3.065096
    13  H    3.981295   3.448264   3.940145   2.172551   2.487909
    14  H    2.531806   2.758536   3.398387   2.164497   2.501742
    15  C    4.288067   2.395808   2.450320   1.537899   2.188642
    16  O    5.002854   2.952584   2.602362   2.408574   3.295883
    17  N    5.004872   3.280316   3.440461   2.454091   2.540252
    18  H    4.739520   3.389320   3.795016   2.552954   2.196678
    19  C    6.418375   4.541363   4.478154   3.835631   3.991246
    20  H    6.720226   4.664129   4.392183   4.043055   4.464372
    21  H    6.775494   4.889639   4.784004   4.443652   4.514529
    22  H    7.075475   5.373842   5.415693   4.455013   4.468773
                   11         12         13         14         15
    11  C    0.000000
    12  H    1.093464   0.000000
    13  H    1.096294   1.773497   0.000000
    14  H    1.091490   1.790843   1.777197   0.000000
    15  C    2.515492   2.707434   2.792939   3.465281   0.000000
    16  O    2.918816   2.620932   3.238412   3.930315   1.227647
    17  N    3.602855   3.989078   3.642364   4.479966   1.361083
    18  H    3.788507   4.407752   3.787594   4.498623   2.043658
    19  C    4.859677   5.065781   4.797092   5.818926   2.472162
    20  H    4.890192   4.856588   4.881486   5.919237   2.519408
    21  H    5.654092   5.884563   5.705587   6.545170   3.198019
    22  H    5.310408   5.589495   5.023520   6.273967   3.185773
                   16         17         18         19         20
    16  O    0.000000
    17  N    2.282679   0.000000
    18  H    3.162721   1.009754   0.000000
    19  C    2.837339   1.452898   2.131348   0.000000
    20  H    2.371433   2.060339   2.972460   1.090652   0.000000
    21  H    3.590882   2.110292   2.522553   1.096093   1.782539
    22  H    3.583935   2.113269   2.532580   1.096247   1.782360
                   21         22
    21  H    0.000000
    22  H    1.783242   0.000000
 Stoichiometry    C6H12N2O2
 Framework group  C1[X(C6H12N2O2)]
 Deg. of freedom    60
 Full point group                 C1      NOp   1
 Largest Abelian subgroup         C1      NOp   1
 Largest concise Abelian subgroup C1      NOp   1
                         Standard orientation:                         
 ---------------------------------------------------------------------
 Center     Atomic      Atomic             Coordinates (Angstroms)
 Number     Number       Type             X           Y           Z
 ---------------------------------------------------------------------
      1          1           0       -3.899105   -1.676918   -0.171309
      2          6           0       -3.150906   -1.291016    0.525191
      3          1           0       -2.618103   -2.128215    0.986791
      4          1           0       -3.682507   -0.739817    1.309591
      5          6           0       -2.235108   -0.332414   -0.223009
      6          8           0       -2.655610    0.454185   -1.061609
      7          7           0       -0.899608   -0.436910    0.089091
      8          1           0       -0.669207   -0.913009    0.954391
      9          6           0        0.052489    0.618492   -0.283509
     10          1           0        0.041589    0.691392   -1.376709
     11          6           0       -0.285114    1.987792    0.321091
     12          1           0       -0.228214    1.934892    1.411791
     13          1           0        0.432984    2.741493   -0.022609
     14          1           0       -1.286415    2.293289    0.012191
     15          6           0        1.420991    0.141496    0.231091
     16          8           0        1.668191    0.125897    1.433491
     17          7           0        2.277092   -0.321002   -0.720609
     18          1           0        1.983692   -0.287302   -1.686209
     19          6           0        3.595993   -0.844398   -0.408409
     20          1           0        3.712793   -0.805998    0.675291
     21          1           0        3.696296   -1.882598   -0.745309
     22          1           0        4.383092   -0.242196   -0.877009
 ---------------------------------------------------------------------
 Rotational constants (GHZ):      2.5400038      0.6569825      0.6235907
 Standard basis: Aug-CC-pVDZ (5D, 7F)
 There are   338 symmetry adapted basis functions of A   symmetry.
 Integral buffers will be    131072 words long.
 Raffenetti 1 integral format.
 Two-electron integral symmetry is turned on.
   338 basis functions,   562 primitive gaussians,   358 cartesian basis functions
    39 alpha electrons       39 beta electrons
       nuclear repulsion energy       548.9211902907 Hartrees.
 NAtoms=   22 NActive=   22 NUniq=   22 SFac= 7.50D-01 NAtFMM=   80 NAOKFM=F Big=F
 One-electron integrals computed using PRISM.
 NBasis=   338 RedAO= T  NBF=   338
 NBsUse=   338 1.00D-06 NBFU=   338
 Harris functional with IExCor=  205 diagonalized for initial guess.
 ExpMin= 2.97D-02 ExpMax= 1.17D+04 ExpMxC= 4.01D+02 IAcc=3 IRadAn=         0 AccDes= 0.00D+00
 HarFok:  IExCor=  205 AccDes= 0.00D+00 IRadAn=         0 IDoV= 1
 ScaDFX=  1.000000  1.000000  1.000000  1.000000
 FoFCou: FMM=F IPFlag=           0 FMFlag=      100000 FMFlg1=           0
         NFxFlg=           0 DoJE=T BraDBF=F KetDBF=T FulRan=T
         Omega=  0.000000  0.000000  1.000000  0.000000  0.000000 ICntrl=     500 IOpCl=  0
         NMat0=    1 NMatS0=    1 NMatT0=    0 NMatD0=    1 NMtDS0=    0 NMtDT0=    0
         I1Cent=           4 NGrid=           0.
 Petite list used in FoFCou.
 Initial guess orbital symmetries:
       Occupied  (A) (A) (A) (A) (A) (A) (A) (A) (A) (A) (A) (A)
                 (A) (A) (A) (A) (A) (A) (A) (A) (A) (A) (A) (A)
                 (A) (A) (A) (A) (A) (A) (A) (A) (A) (A) (A) (A)
                 (A) (A) (A)
       Virtual   (A) (A) (A) (A) (A) (A) (A) (A) (A) (A) (A) (A)
                 (A) (A) (A) (A) (A) (A) (A) (A) (A) (A) (A) (A)
                 (A) (A) (A) (A) (A) (A) (A) (A) (A) (A) (A) (A)
                 (A) (A) (A) (A) (A) (A) (A) (A) (A) (A) (A) (A)
                 (A) (A) (A) (A) (A) (A) (A) (A) (A) (A) (A) (A)
                 (A) (A) (A) (A) (A) (A) (A) (A) (A) (A) (A) (A)
                 (A) (A) (A) (A) (A) (A) (A) (A) (A) (A) (A) (A)
                 (A) (A) (A) (A) (A) (A) (A) (A) (A) (A) (A) (A)
                 (A) (A) (A) (A) (A) (A) (A) (A) (A) (A) (A) (A)
                 (A) (A) (A) (A) (A) (A) (A) (A) (A) (A) (A) (A)
                 (A) (A) (A) (A) (A) (A) (A) (A) (A) (A) (A) (A)
                 (A) (A) (A) (A) (A) (A) (A) (A) (A) (A) (A) (A)
                 (A) (A) (A) (A) (A) (A) (A) (A) (A) (A) (A) (A)
                 (A) (A) (A) (A) (A) (A) (A) (A) (A) (A) (A) (A)
                 (A) (A) (A) (A) (A) (A) (A) (A) (A) (A) (A) (A)
                 (A) (A) (A) (A) (A) (A) (A) (A) (A) (A) (A) (A)
                 (A) (A) (A) (A) (A) (A) (A) (A) (A) (A) (A) (A)
                 (A) (A) (A) (A) (A) (A) (A) (A) (A) (A) (A) (A)
                 (A) (A) (A) (A) (A) (A) (A) (A) (A) (A) (A) (A)
                 (A) (A) (A) (A) (A) (A) (A) (A) (A) (A) (A) (A)
                 (A) (A) (A) (A) (A) (A) (A) (A) (A) (A) (A) (A)
                 (A) (A) (A) (A) (A) (A) (A) (A) (A) (A) (A) (A)
                 (A) (A) (A) (A) (A) (A) (A) (A) (A) (A) (A) (A)
                 (A) (A) (A) (A) (A) (A) (A) (A) (A) (A) (A) (A)
                 (A) (A) (A) (A) (A) (A) (A) (A) (A) (A) (A)
 The electronic state of the initial guess is 1-A.
 Requested convergence on RMS density matrix=1.00D-08 within 128 cycles.
 Requested convergence on MAX density matrix=1.00D-06.
 Requested convergence on             energy=1.00D-06.
 No special actions if energy rises.
 Initial convergence to 1.0D-05 achieved.  Increase integral accuracy.
 SCF Done:  E(RHF) =  -492.923361320     A.U. after   14 cycles
             Convg  =    0.7508D-08             -V/T =  2.0017
 ExpMin= 2.97D-02 ExpMax= 1.17D+04 ExpMxC= 4.01D+02 IAcc=3 IRadAn=         5 AccDes= 0.00D+00
 HarFok:  IExCor=  205 AccDes= 0.00D+00 IRadAn=         5 IDoV=-2
 ScaDFX=  1.000000  1.000000  1.000000  1.000000
 Range of M.O.s used for correlation:    11   338
 NBasis=   338 NAE=    39 NBE=    39 NFC=    10 NFV=     0
 NROrb=    328 NOA=    29 NOB=    29 NVA=   299 NVB=   299

 **** Warning!!: The largest alpha MO coefficient is  0.66305323D+02

 Disk-based method using OVN memory for 29 occupieds at a time.
 Estimated scratch disk usage=  1371323077 words.
 Actual    scratch disk usage=  1358584590 words.
 JobTyp=1 Pass  1:  I=   1 to  29 NPSUse=  8 ParTrn=T ParDer=T DoDerP=F.
 Spin components of T(2) and E(2):
     alpha-alpha T2 =       0.6791112613D-01 E2=     -0.2056931642D+00
     alpha-beta  T2 =       0.3766383715D+00 E2=     -0.1190152029D+01
     beta-beta   T2 =       0.6791112613D-01 E2=     -0.2056931642D+00
 ANorm=    0.1229821379D+01
 E2 =    -0.1601538357D+01 EUMP2 =    -0.49452489967677D+03

 **********************************************************************

            Population analysis using the SCF density.

 **********************************************************************

 Orbital symmetries:
       Occupied  (A) (A) (A) (A) (A) (A) (A) (A) (A) (A) (A) (A)
                 (A) (A) (A) (A) (A) (A) (A) (A) (A) (A) (A) (A)
                 (A) (A) (A) (A) (A) (A) (A) (A) (A) (A) (A) (A)
                 (A) (A) (A)
       Virtual   (A) (A) (A) (A) (A) (A) (A) (A) (A) (A) (A) (A)
                 (A) (A) (A) (A) (A) (A) (A) (A) (A) (A) (A) (A)
                 (A) (A) (A) (A) (A) (A) (A) (A) (A) (A) (A) (A)
                 (A) (A) (A) (A) (A) (A) (A) (A) (A) (A) (A) (A)
                 (A) (A) (A) (A) (A) (A) (A) (A) (A) (A) (A) (A)
                 (A) (A) (A) (A) (A) (A) (A) (A) (A) (A) (A) (A)
                 (A) (A) (A) (A) (A) (A) (A) (A) (A) (A) (A) (A)
                 (A) (A) (A) (A) (A) (A) (A) (A) (A) (A) (A) (A)
                 (A) (A) (A) (A) (A) (A) (A) (A) (A) (A) (A) (A)
                 (A) (A) (A) (A) (A) (A) (A) (A) (A) (A) (A) (A)
                 (A) (A) (A) (A) (A) (A) (A) (A) (A) (A) (A) (A)
                 (A) (A) (A) (A) (A) (A) (A) (A) (A) (A) (A) (A)
                 (A) (A) (A) (A) (A) (A) (A) (A) (A) (A) (A) (A)
                 (A) (A) (A) (A) (A) (A) (A) (A) (A) (A) (A) (A)
                 (A) (A) (A) (A) (A) (A) (A) (A) (A) (A) (A) (A)
                 (A) (A) (A) (A) (A) (A) (A) (A) (A) (A) (A) (A)
                 (A) (A) (A) (A) (A) (A) (A) (A) (A) (A) (A) (A)
                 (A) (A) (A) (A) (A) (A) (A) (A) (A) (A) (A) (A)
                 (A) (A) (A) (A) (A) (A) (A) (A) (A) (A) (A) (A)
                 (A) (A) (A) (A) (A) (A) (A) (A) (A) (A) (A) (A)
                 (A) (A) (A) (A) (A) (A) (A) (A) (A) (A) (A) (A)
                 (A) (A) (A) (A) (A) (A) (A) (A) (A) (A) (A) (A)
                 (A) (A) (A) (A) (A) (A) (A) (A) (A) (A) (A) (A)
                 (A) (A) (A) (A) (A) (A) (A) (A) (A) (A) (A) (A)
                 (A) (A) (A) (A) (A) (A) (A) (A) (A) (A) (A)
 The electronic state is 1-A.
 Alpha  occ. eigenvalues --  -20.53936 -20.53403 -15.60725 -15.59830 -11.36828
 Alpha  occ. eigenvalues --  -11.36477 -11.29417 -11.27548 -11.24822 -11.22458
 Alpha  occ. eigenvalues --   -1.39491  -1.38565  -1.24519  -1.23590  -1.05348
 Alpha  occ. eigenvalues --   -0.99202  -0.96570  -0.87912  -0.79930  -0.78617
 Alpha  occ. eigenvalues --   -0.73067  -0.67300  -0.66288  -0.64428  -0.62918
 Alpha  occ. eigenvalues --   -0.62079  -0.60495  -0.58620  -0.57074  -0.56509
 Alpha  occ. eigenvalues --   -0.55444  -0.54150  -0.52331  -0.51564  -0.49844
 Alpha  occ. eigenvalues --   -0.43493  -0.42680  -0.40462  -0.39558
 Alpha virt. eigenvalues --    0.02811   0.03704   0.04482   0.04589   0.05639
 Alpha virt. eigenvalues --    0.05936   0.06247   0.06975   0.07663   0.08088
 Alpha virt. eigenvalues --    0.09068   0.09328   0.11065   0.11981   0.12685
 Alpha virt. eigenvalues --    0.13216   0.14030   0.14386   0.14702   0.15152
 Alpha virt. eigenvalues --    0.15398   0.15780   0.16386   0.16839   0.17304
 Alpha virt. eigenvalues --    0.17616   0.17772   0.18409   0.18922   0.19382
 Alpha virt. eigenvalues --    0.19732   0.20248   0.20721   0.21305   0.22364
 Alpha virt. eigenvalues --    0.22850   0.23334   0.24603   0.25830   0.26170
 Alpha virt. eigenvalues --    0.26780   0.27342   0.27769   0.30045   0.30722
 Alpha virt. eigenvalues --    0.31396   0.32214   0.32959   0.33623   0.33750
 Alpha virt. eigenvalues --    0.34347   0.34568   0.34939   0.35922   0.36262
 Alpha virt. eigenvalues --    0.37397   0.38066   0.38502   0.38824   0.39933
 Alpha virt. eigenvalues --    0.40420   0.40735   0.41519   0.42438   0.42723
 Alpha virt. eigenvalues --    0.43530   0.44112   0.44426   0.45116   0.45850
 Alpha virt. eigenvalues --    0.45918   0.46760   0.47499   0.48452   0.49157
 Alpha virt. eigenvalues --    0.49709   0.50553   0.51101   0.52010   0.52356
 Alpha virt. eigenvalues --    0.52792   0.53641   0.54824   0.55216   0.56024
 Alpha virt. eigenvalues --    0.56496   0.56786   0.57386   0.57567   0.58293
 Alpha virt. eigenvalues --    0.59433   0.59697   0.60743   0.61355   0.61535
 Alpha virt. eigenvalues --    0.62747   0.62926   0.63107   0.64369   0.65623
 Alpha virt. eigenvalues --    0.65865   0.66197   0.66670   0.67159   0.68551
 Alpha virt. eigenvalues --    0.68679   0.69516   0.70562   0.71209   0.71289
 Alpha virt. eigenvalues --    0.72250   0.73247   0.73920   0.74325   0.75030
 Alpha virt. eigenvalues --    0.75513   0.76197   0.76781   0.77755   0.78959
 Alpha virt. eigenvalues --    0.79591   0.80115   0.81008   0.81883   0.82635
 Alpha virt. eigenvalues --    0.83440   0.84977   0.85813   0.85846   0.86663
 Alpha virt. eigenvalues --    0.88167   0.89374   0.90017   0.92166   0.93395
 Alpha virt. eigenvalues --    0.94478   0.95539   0.97899   0.98353   0.99465
 Alpha virt. eigenvalues --    1.00592   1.01406   1.01978   1.02946   1.04279
 Alpha virt. eigenvalues --    1.05208   1.07680   1.07995   1.08559   1.09972
 Alpha virt. eigenvalues --    1.11086   1.12610   1.13384   1.15537   1.15732
 Alpha virt. eigenvalues --    1.17359   1.17615   1.18608   1.18913   1.20769
 Alpha virt. eigenvalues --    1.22547   1.24504   1.25545   1.27158   1.29450
 Alpha virt. eigenvalues --    1.31604   1.33483   1.34481   1.35784   1.37747
 Alpha virt. eigenvalues --    1.38821   1.40581   1.41519   1.42501   1.44718
 Alpha virt. eigenvalues --    1.48580   1.50260   1.51870   1.54072   1.55080
 Alpha virt. eigenvalues --    1.56619   1.57016   1.57743   1.62337   1.64199
 Alpha virt. eigenvalues --    1.67063   1.69619   1.70415   1.70804   1.73329
 Alpha virt. eigenvalues --    1.74019   1.76426   1.77041   1.78939   1.80236
 Alpha virt. eigenvalues --    1.81494   1.83132   1.85351   1.85682   1.87597
 Alpha virt. eigenvalues --    1.88480   1.88837   1.89578   1.90813   1.92234
 Alpha virt. eigenvalues --    1.94441   1.97538   1.98631   1.99613   2.01397
 Alpha virt. eigenvalues --    2.02162   2.03541   2.05506   2.07129   2.08843
 Alpha virt. eigenvalues --    2.11031   2.11941   2.14359   2.14980   2.17954
 Alpha virt. eigenvalues --    2.19024   2.19882   2.20463   2.21337   2.22811
 Alpha virt. eigenvalues --    2.25175   2.26678   2.27593   2.28247   2.29799
 Alpha virt. eigenvalues --    2.31307   2.33632   2.34146   2.35792   2.36544
 Alpha virt. eigenvalues --    2.38143   2.39151   2.41301   2.43171   2.44438
 Alpha virt. eigenvalues --    2.45557   2.47396   2.48541   2.49116   2.53197
 Alpha virt. eigenvalues --    2.53685   2.55548   2.57642   2.58984   2.59496
 Alpha virt. eigenvalues --    2.62335   2.62738   2.66234   2.67453   2.70884
 Alpha virt. eigenvalues --    2.72810   2.73934   2.75994   2.76572   2.78859
 Alpha virt. eigenvalues --    2.82448   2.83863   2.84669   2.86058   2.88981
 Alpha virt. eigenvalues --    2.89611   2.92428   2.94132   2.97248   2.99456
 Alpha virt. eigenvalues --    3.00656   3.03037   3.04025   3.04226   3.06108
 Alpha virt. eigenvalues --    3.09389   3.11486   3.18460   3.20346   3.24007
 Alpha virt. eigenvalues --    3.29728   3.31375   3.42228   3.43163   3.50351
 Alpha virt. eigenvalues --    3.60084   3.64514   3.72384   3.83054   3.84146
 Alpha virt. eigenvalues --    3.86162   3.87433   3.90855   3.94704   4.02230
 Alpha virt. eigenvalues --    4.03789   4.13622   4.21486   4.32846
          Condensed to atoms (all electrons):
              1          2          3          4          5          6
     1  H    0.760869   0.416631  -0.100457  -0.054083  -0.097565   0.028624
     2  C    0.416631   4.535716   0.313095   0.340765   0.154362  -0.039254
     3  H   -0.100457   0.313095   1.061303  -0.065905   0.088138  -0.009777
     4  H   -0.054083   0.340765  -0.065905   0.737296  -0.067122   0.015886
     5  C   -0.097565   0.154362   0.088138  -0.067122   5.324876   0.230331
     6  O    0.028624  -0.039254  -0.009777   0.015886   0.230331   8.703841
     7  N    0.056518  -0.016832  -0.195324   0.031306   0.090113  -0.115954
     8  H   -0.005074  -0.051256   0.010606  -0.005482  -0.073169   0.000309
     9  C   -0.015313   0.032842   0.028871   0.013920  -0.101529   0.015708
    10  H   -0.001684  -0.005368   0.001865  -0.000661   0.005237  -0.004668
    11  C    0.002822  -0.016153  -0.018808  -0.001346  -0.100728   0.027348
    12  H    0.000371  -0.007168  -0.001047  -0.001143   0.008555  -0.005064
    13  H   -0.000049   0.001948  -0.000652   0.000169  -0.028150   0.008832
    14  H   -0.000797   0.007520   0.002204   0.000138   0.014847   0.012599
    15  C   -0.000669  -0.031310  -0.005600   0.001274  -0.022915  -0.012762
    16  O    0.000191   0.001402   0.000603  -0.000020  -0.022023   0.001961
    17  N    0.000533   0.007479  -0.000781   0.000779  -0.004318  -0.002009
    18  H   -0.000323  -0.001649   0.000175   0.000036  -0.003202   0.000188
    19  C   -0.000041  -0.001212   0.000088   0.000049  -0.002998  -0.000060
    20  H   -0.000021  -0.000097  -0.000008   0.000012  -0.001191   0.000065
    21  H    0.000018   0.000049   0.000003  -0.000016  -0.000431   0.000042
    22  H   -0.000006  -0.000085   0.000017   0.000002   0.001116  -0.000022
              7          8          9         10         11         12
     1  H    0.056518  -0.005074  -0.015313  -0.001684   0.002822   0.000371
     2  C   -0.016832  -0.051256   0.032842  -0.005368  -0.016153  -0.007168
     3  H   -0.195324   0.010606   0.028871   0.001865  -0.018808  -0.001047
     4  H    0.031306  -0.005482   0.013920  -0.000661  -0.001346  -0.001143
     5  C    0.090113  -0.073169  -0.101529   0.005237  -0.100728   0.008555
     6  O   -0.115954   0.000309   0.015708  -0.004668   0.027348  -0.005064
     7  N    7.424628   0.358436  -0.354619  -0.103127   0.089109  -0.015668
     8  H    0.358436   0.874156  -0.150190   0.005330   0.015545   0.008442
     9  C   -0.354619  -0.150190   7.732711  -0.206815  -0.131565  -0.210326
    10  H   -0.103127   0.005330  -0.206815   1.570705   0.082031   0.075380
    11  C    0.089109   0.015545  -0.131565   0.082031   4.391778   0.367557
    12  H   -0.015668   0.008442  -0.210326   0.075380   0.367557   1.068635
    13  H    0.066672   0.002355  -0.189487  -0.077305   0.336754  -0.096288
    14  H   -0.065934  -0.006508   0.232230  -0.013566   0.267561  -0.205564
    15  C    0.074064   0.057611  -0.826803   0.052148   0.048700   0.033164
    16  O   -0.038857   0.016443   0.069686  -0.026080  -0.030968  -0.020180
    17  N   -0.007699  -0.020307   0.148615  -0.065738  -0.026622  -0.006036
    18  H    0.012454   0.001659  -0.128791   0.005096   0.009647   0.000717
    19  C   -0.009490  -0.004963   0.051463   0.006435  -0.012479  -0.002820
    20  H   -0.005928  -0.001571   0.022976   0.005381  -0.003397  -0.000273
    21  H    0.002202  -0.002631   0.007247  -0.000503   0.008586   0.000392
    22  H    0.000034   0.000950   0.020600  -0.000673  -0.006059  -0.000203
             13         14         15         16         17         18
     1  H   -0.000049  -0.000797  -0.000669   0.000191   0.000533  -0.000323
     2  C    0.001948   0.007520  -0.031310   0.001402   0.007479  -0.001649
     3  H   -0.000652   0.002204  -0.005600   0.000603  -0.000781   0.000175
     4  H    0.000169   0.000138   0.001274  -0.000020   0.000779   0.000036
     5  C   -0.028150   0.014847  -0.022915  -0.022023  -0.004318  -0.003202
     6  O    0.008832   0.012599  -0.012762   0.001961  -0.002009   0.000188
     7  N    0.066672  -0.065934   0.074064  -0.038857  -0.007699   0.012454
     8  H    0.002355  -0.006508   0.057611   0.016443  -0.020307   0.001659
     9  C   -0.189487   0.232230  -0.826803   0.069686   0.148615  -0.128791
    10  H   -0.077305  -0.013566   0.052148  -0.026080  -0.065738   0.005096
    11  C    0.336754   0.267561   0.048700  -0.030968  -0.026622   0.009647
    12  H   -0.096288  -0.205564   0.033164  -0.020180  -0.006036   0.000717
    13  H    1.207650  -0.185787   0.016991   0.012555  -0.014445   0.007755
    14  H   -0.185787   0.981537  -0.025952  -0.001350   0.008639  -0.001832
    15  C    0.016991  -0.025952   5.469043   0.206714   0.124817   0.018622
    16  O    0.012555  -0.001350   0.206714   8.785677  -0.168780   0.008423
    17  N   -0.014445   0.008639   0.124817  -0.168780   7.129618   0.263217
    18  H    0.007755  -0.001832   0.018622   0.008423   0.263217   1.007141
    19  C   -0.005859   0.001887  -0.144072   0.017824   0.260555  -0.101473
    20  H   -0.001697   0.000219  -0.019922   0.018542  -0.029436   0.001177
    21  H    0.000380   0.000437  -0.057505   0.016322  -0.047177   0.000447
    22  H   -0.000938  -0.000191  -0.024776   0.008518  -0.048938   0.006539
             19         20         21         22
     1  H   -0.000041  -0.000021   0.000018  -0.000006
     2  C   -0.001212  -0.000097   0.000049  -0.000085
     3  H    0.000088  -0.000008   0.000003   0.000017
     4  H    0.000049   0.000012  -0.000016   0.000002
     5  C   -0.002998  -0.001191  -0.000431   0.001116
     6  O   -0.000060   0.000065   0.000042  -0.000022
     7  N   -0.009490  -0.005928   0.002202   0.000034
     8  H   -0.004963  -0.001571  -0.002631   0.000950
     9  C    0.051463   0.022976   0.007247   0.020600
    10  H    0.006435   0.005381  -0.000503  -0.000673
    11  C   -0.012479  -0.003397   0.008586  -0.006059
    12  H   -0.002820  -0.000273   0.000392  -0.000203
    13  H   -0.005859  -0.001697   0.000380  -0.000938
    14  H    0.001887   0.000219   0.000437  -0.000191
    15  C   -0.144072  -0.019922  -0.057505  -0.024776
    16  O    0.017824   0.018542   0.016322   0.008518
    17  N    0.260555  -0.029436  -0.047177  -0.048938
    18  H   -0.101473   0.001177   0.000447   0.006539
    19  C    4.072871   0.454932   0.359871   0.343599
    20  H    0.454932   0.940878  -0.114078  -0.119968
    21  H    0.359871  -0.114078   1.079101  -0.147881
    22  H    0.343599  -0.119968  -0.147881   1.056427
 Mulliken atomic charges:
              1
     1  H    0.009506
     2  C    0.358574
     3  H   -0.108608
     4  H    0.054146
     5  C    0.607765
     6  O   -0.856165
     7  N   -0.276105
     8  H   -0.030689
     9  C   -0.061431
    10  H   -0.303422
    11  C    0.700688
    12  H    0.008567
    13  H   -0.061403
    14  H   -0.022334
    15  C    1.069137
    16  O   -0.856603
    17  N   -0.501965
    18  H   -0.106024
    19  C    0.715895
    20  H   -0.146593
    21  H   -0.104875
    22  H   -0.088062
 Sum of Mulliken atomic charges =   0.00000
 Mulliken charges with hydrogens summed into heavy atoms:
              1
     2  C    0.313619
     5  C    0.607765
     6  O   -0.856165
     7  N   -0.306794
     9  C   -0.364853
    11  C    0.625517
    15  C    1.069137
    16  O   -0.856603
    17  N   -0.607988
    19  C    0.376365
 Sum of Mulliken charges with hydrogens summed into heavy atoms =   0.00000
 Electronic spatial extent (au):  <R**2>=           1956.9085
 Charge=              0.0000 electrons
 Dipole moment (field-independent basis, Debye):
    X=              1.8541    Y=             -2.1002    Z=             -0.8973  Tot=              2.9417
 Quadrupole moment (field-independent basis, Debye-Ang):
   XX=            -60.5050   YY=            -59.1447   ZZ=            -64.9145
   XY=              3.7918   XZ=            -15.2218   YZ=             -0.0293
 Traceless Quadrupole moment (field-independent basis, Debye-Ang):
   XX=              1.0164   YY=              2.3767   ZZ=             -3.3931
   XY=              3.7918   XZ=            -15.2218   YZ=             -0.0293
 Octapole moment (field-independent basis, Debye-Ang**2):
  XXX=             34.0817  YYY=             -1.6579  ZZZ=            -10.0391  XYY=             -0.2344
  XXY=            -26.2987  XXZ=              7.1698  XZZ=              3.0142  YZZ=             -4.5353
  YYZ=              1.6547  XYZ=             -3.0818
 Hexadecapole moment (field-independent basis, Debye-Ang**3):
 XXXX=          -1806.8713 YYYY=           -418.0097 ZZZZ=           -260.8210 XXXY=             26.4892
 XXXZ=            -79.4461 YYYX=             -0.7051 YYYZ=             -4.0759 ZZZX=            -28.6301
 ZZZY=              0.6039 XXYY=           -370.9276 XXZZ=           -377.7027 YYZZ=           -113.3650
 XXYZ=             13.2381 YYXZ=             -0.4282 ZZXY=              0.5287
 N-N= 5.489211902907D+02 E-N=-2.253012624851D+03  KE= 4.920734110541D+02
 1\1\GINC-NODE005\SP\RMP2-FC\Aug-CC-pVDZ\C6H12N2O2\MANAGER\13-Feb-2017\
 0\\#SP MP2/aug-cc-pVDZ\\Single Point calculation at MP2\\0,1\H,0,-3.89
 91,-1.6769,-0.1713\C,0,-3.1509,-1.291,0.5252\H,0,-2.6181,-2.1282,0.986
 8\H,0,-3.6825,-0.7398,1.3096\C,0,-2.2351,-0.3324,-0.223\O,0,-2.6556,0.
 4542,-1.0616\N,0,-0.8996,-0.4369,0.0891\H,0,-0.6692,-0.913,0.9544\C,0,
 0.0525,0.6185,-0.2835\H,0,0.0416,0.6914,-1.3767\C,0,-0.2851,1.9878,0.3
 211\H,0,-0.2282,1.9349,1.4118\H,0,0.433,2.7415,-0.0226\H,0,-1.2864,2.2
 933,0.0122\C,0,1.421,0.1415,0.2311\O,0,1.6682,0.1259,1.4335\N,0,2.2771
 ,-0.321,-0.7206\H,0,1.9837,-0.2873,-1.6862\C,0,3.596,-0.8444,-0.4084\H
 ,0,3.7128,-0.806,0.6753\H,0,3.6963,-1.8826,-0.7453\H,0,4.3831,-0.2422,
 -0.877\\Version=EM64L-G09RevA.02\State=1-A\HF=-492.9233613\MP2=-494.52
 48997\RMSD=7.508e-09\PG=C01 [X(C6H12N2O2)]\\@


 YOU KNOW YOU'VE SPOKEN TOO LONG WHEN THE AUDIENCE STOPS LOOKING AT
 THEIR WATCHES AND STARTS SHAKING THEM.
 Job cpu time:  0 days 14 hours 18 minutes 48.7 seconds.
 File lengths (MBytes):  RWF=  10482 Int=      0 D2E=      0 Chk=      7 Scr=      2
 Normal termination of Gaussian 09 at Mon Feb 13 00:43:05 2017.
