 Entering Gaussian System, Link 0=g09
 Initial command:
 /home/steboss/Software/g09/l1.exe /home/steboss/projects/phi_psi_scan/alanine/MP2/330/5601/Gau-12587.inp -scrdir=/home/steboss/projects/phi_psi_scan/alanine/MP2/330/5601/
 Entering Link 1 = /home/steboss/Software/g09/l1.exe PID=     12589.
  
 Copyright (c) 1988,1990,1992,1993,1995,1998,2003,2009, Gaussian, Inc.
                  All Rights Reserved.
  
 This is part of the Gaussian(R) 09 program.  It is based on
 the Gaussian(R) 03 system (copyright 2003, Gaussian, Inc.),
 the Gaussian(R) 98 system (copyright 1998, Gaussian, Inc.),
 the Gaussian(R) 94 system (copyright 1995, Gaussian, Inc.),
 the Gaussian 92(TM) system (copyright 1992, Gaussian, Inc.),
 the Gaussian 90(TM) system (copyright 1990, Gaussian, Inc.),
 the Gaussian 88(TM) system (copyright 1988, Gaussian, Inc.),
 the Gaussian 86(TM) system (copyright 1986, Carnegie Mellon
 University), and the Gaussian 82(TM) system (copyright 1983,
 Carnegie Mellon University). Gaussian is a federally registered
 trademark of Gaussian, Inc.
  
 This software contains proprietary and confidential information,
 including trade secrets, belonging to Gaussian, Inc.
  
 This software is provided under written license and may be
 used, copied, transmitted, or stored only in accord with that
 written license.
  
 The following legend is applicable only to US Government
 contracts under FAR:
  
                    RESTRICTED RIGHTS LEGEND
  
 Use, reproduction and disclosure by the US Government is
 subject to restrictions as set forth in subparagraphs (a)
 and (c) of the Commercial Computer Software - Restricted
 Rights clause in FAR 52.227-19.
  
 Gaussian, Inc.
 340 Quinnipiac St., Bldg. 40, Wallingford CT 06492
  
  
 ---------------------------------------------------------------
 Warning -- This program may not be used in any manner that
 competes with the business of Gaussian, Inc. or will provide
 assistance to any competitor of Gaussian, Inc.  The licensee
 of this program is prohibited from giving any competitor of
 Gaussian, Inc. access to this program.  By using this program,
 the user acknowledges that Gaussian, Inc. is engaged in the
 business of creating and licensing software in the field of
 computational chemistry and represents and warrants to the
 licensee that it is not a competitor of Gaussian, Inc. and that
 it will not use this program in any manner prohibited above.
 ---------------------------------------------------------------
  

 Cite this work as:
 Gaussian 09, Revision A.02,
 M. J. Frisch, G. W. Trucks, H. B. Schlegel, G. E. Scuseria, 
 M. A. Robb, J. R. Cheeseman, G. Scalmani, V. Barone, B. Mennucci, 
 G. A. Petersson, H. Nakatsuji, M. Caricato, X. Li, H. P. Hratchian, 
 A. F. Izmaylov, J. Bloino, G. Zheng, J. L. Sonnenberg, M. Hada, 
 M. Ehara, K. Toyota, R. Fukuda, J. Hasegawa, M. Ishida, T. Nakajima, 
 Y. Honda, O. Kitao, H. Nakai, T. Vreven, J. A. Montgomery, Jr., 
 J. E. Peralta, F. Ogliaro, M. Bearpark, J. J. Heyd, E. Brothers, 
 K. N. Kudin, V. N. Staroverov, R. Kobayashi, J. Normand, 
 K. Raghavachari, A. Rendell, J. C. Burant, S. S. Iyengar, J. Tomasi, 
 M. Cossi, N. Rega, J. M. Millam, M. Klene, J. E. Knox, J. B. Cross, 
 V. Bakken, C. Adamo, J. Jaramillo, R. Gomperts, R. E. Stratmann, 
 O. Yazyev, A. J. Austin, R. Cammi, C. Pomelli, J. W. Ochterski, 
 R. L. Martin, K. Morokuma, V. G. Zakrzewski, G. A. Voth, 
 P. Salvador, J. J. Dannenberg, S. Dapprich, A. D. Daniels, 
 O. Farkas, J. B. Foresman, J. V. Ortiz, J. Cioslowski, 
 and D. J. Fox, Gaussian, Inc., Wallingford CT, 2009.
 
 ******************************************
 Gaussian 09:  EM64L-G09RevA.02 11-Jun-2009
                13-Feb-2017 
 ******************************************
 %chk=structure_285.chk
 %NProcShared=8
 Will use up to    8 processors via shared memory.
 -------------------
 #SP MP2/aug-cc-pVDZ
 -------------------
 1/38=1/1;
 2/12=2,17=6,18=5,40=1/2;
 3/5=16,7=10,11=9,16=1,25=1,30=1/1,2,3;
 4//1;
 5/5=2,38=5/2;
 8/10=1/1;
 9/16=-3/6;
 6/7=2,8=2,9=2,10=2/1;
 99/5=1,9=1/99;
 -------------------------------
 Single Point calculation at MP2
 -------------------------------
 Symbolic Z-matrix:
 Charge =  0 Multiplicity = 1
 H                     3.4021   -1.6175   -0.8134 
 C                     3.2479   -0.6525   -0.3257 
 H                     3.6182    0.1465   -0.9766 
 H                     3.8384   -0.6486    0.5978 
 C                     1.7723   -0.5153    0.0282 
 O                     1.1046   -1.468     0.4045 
 N                     1.259     0.7492   -0.1201 
 H                     1.9114    1.4843   -0.3607 
 C                    -0.0381    1.2115    0.3918 
 H                     0.0789    1.5108    1.441 
 C                    -0.5104    2.4218   -0.4206 
 H                    -0.6454    2.1736   -1.478 
 H                    -1.4634    2.789    -0.0286 
 H                     0.2177    3.2402   -0.3517 
 C                    -1.1049    0.0915    0.4693 
 O                    -1.5637   -0.2531    1.5459 
 N                    -1.6467   -0.2891   -0.7332 
 H                    -1.0469   -0.1735   -1.5412 
 C                    -2.556    -1.4275   -0.7735 
 H                    -3.2915   -1.3104    0.0236 
 H                    -3.0678   -1.4444   -1.7397 
 H                    -2.0307   -2.379    -0.6201 
 
                          Input orientation:                          
 ---------------------------------------------------------------------
 Center     Atomic      Atomic             Coordinates (Angstroms)
 Number     Number       Type             X           Y           Z
 ---------------------------------------------------------------------
      1          1           0        3.402100   -1.617500   -0.813400
      2          6           0        3.247900   -0.652500   -0.325700
      3          1           0        3.618200    0.146500   -0.976600
      4          1           0        3.838400   -0.648600    0.597800
      5          6           0        1.772300   -0.515300    0.028200
      6          8           0        1.104600   -1.468000    0.404500
      7          7           0        1.259000    0.749200   -0.120100
      8          1           0        1.911400    1.484300   -0.360700
      9          6           0       -0.038100    1.211500    0.391800
     10          1           0        0.078900    1.510800    1.441000
     11          6           0       -0.510400    2.421800   -0.420600
     12          1           0       -0.645400    2.173600   -1.478000
     13          1           0       -1.463400    2.789000   -0.028600
     14          1           0        0.217700    3.240200   -0.351700
     15          6           0       -1.104900    0.091500    0.469300
     16          8           0       -1.563700   -0.253100    1.545900
     17          7           0       -1.646700   -0.289100   -0.733200
     18          1           0       -1.046900   -0.173500   -1.541200
     19          6           0       -2.556000   -1.427500   -0.773500
     20          1           0       -3.291500   -1.310400    0.023600
     21          1           0       -3.067800   -1.444400   -1.739700
     22          1           0       -2.030700   -2.379000   -0.620100
 ---------------------------------------------------------------------
                    Distance matrix (angstroms):
                    1          2          3          4          5
     1  H    0.000000
     2  C    1.092179   0.000000
     3  H    1.784665   1.095077   0.000000
     4  H    1.766525   1.096156   1.777472   0.000000
     5  C    2.139949   1.523635   2.203395   2.147320   0.000000
     6  O    2.604638   2.406651   3.291236   2.860497   1.222727
     7  N    3.267233   2.441876   2.581214   3.020353   1.372745
     8  H    3.471064   2.520590   2.254375   3.030068   2.041811
     9  C    4.614187   3.845400   4.046637   4.304609   2.528160
    10  H    5.090407   4.224175   4.498083   4.416767   2.994777
    11  C    5.637188   4.856454   4.746732   5.420014   3.746825
    12  H    5.585373   4.946961   4.747507   5.690186   3.917154
    13  H    6.611070   5.841964   5.805529   6.349689   4.625082
    14  H    5.826733   4.933143   4.639491   5.397572   4.082265
    15  C    4.987890   4.486918   4.939770   5.000048   2.973391
    16  O    5.664544   5.178214   5.777090   5.498909   3.674379
    17  N    5.221251   4.924959   5.288493   5.655716   3.510051
    18  H    4.733754   4.489119   4.710025   5.354176   3.244647
    19  C    5.961262   5.872513   6.374910   6.586008   4.495444
    20  H    6.752715   6.581686   7.132104   7.183534   5.125844
    21  H    6.538165   6.520320   6.914903   7.334358   5.235959
    22  H    5.489314   5.561573   6.198009   6.238902   4.284446
                    6          7          8          9         10
     6  O    0.000000
     7  N    2.283642   0.000000
     8  H    3.154763   1.011873   0.000000
     9  C    2.913013   1.469092   2.107422   0.000000
    10  H    3.316571   2.099929   2.569996   1.097310   0.000000
    11  C    4.291801   2.453297   2.597616   1.532282   2.154704
    12  H    4.457304   2.738530   2.874147   2.188744   3.079688
    13  H    4.990416   3.403031   3.633429   2.167192   2.484393
    14  H    4.850317   2.709802   2.439649   2.175741   2.494767
    15  C    2.705204   2.523487   3.424450   1.548699   2.088060
    16  O    3.146204   3.427506   4.327817   2.409244   2.412568
    17  N    3.202158   3.145958   3.992966   2.470834   3.308244
    18  H    3.176544   2.861481   3.590741   2.583097   3.605247
    19  C    3.845688   4.440628   5.348518   3.829108   4.525518
    20  H    4.415384   4.996964   5.918463   4.132815   4.618202
    21  H    4.691170   5.114312   5.938969   4.558089   5.362069
    22  H    3.421963   4.567030   5.525625   4.229195   4.881505
                   11         12         13         14         15
    11  C    0.000000
    12  H    1.094497   0.000000
    13  H    1.093942   1.774430   0.000000
    14  H    1.097568   1.775142   1.770331   0.000000
    15  C    2.564303   2.887604   2.766393   3.512495   0.000000
    16  O    3.483052   3.984485   3.426877   4.356308   1.219965
    17  N    2.955990   2.760837   3.163030   4.009674   1.372738
    18  H    2.877353   2.382032   3.352288   3.829813   2.028719
    19  C    4.373343   4.136984   4.418996   5.445985   2.440820
    20  H    4.675591   4.625463   4.488848   5.758758   2.635373
    21  H    4.819525   4.361930   4.839797   5.887829   3.330412
    22  H    5.039722   4.835413   5.232583   6.058279   2.854342
                   16         17         18         19         20
    16  O    0.000000
    17  N    2.280895   0.000000
    18  H    3.131071   1.012910   0.000000
    19  C    2.782713   1.457534   2.106956   0.000000
    20  H    2.533885   2.078742   2.963000   1.090890   0.000000
    21  H    3.804823   2.089805   2.395543   1.093511   1.782477
    22  H    3.070683   2.127893   2.584670   1.097645   1.773661
                   21         22
    21  H    0.000000
    22  H    1.789569   0.000000
 Stoichiometry    C6H12N2O2
 Framework group  C1[X(C6H12N2O2)]
 Deg. of freedom    60
 Full point group                 C1      NOp   1
 Largest Abelian subgroup         C1      NOp   1
 Largest concise Abelian subgroup C1      NOp   1
                         Standard orientation:                         
 ---------------------------------------------------------------------
 Center     Atomic      Atomic             Coordinates (Angstroms)
 Number     Number       Type             X           Y           Z
 ---------------------------------------------------------------------
      1          1           0        3.402137   -1.617445   -0.813394
      2          6           0        3.247922   -0.652448   -0.325694
      3          1           0        3.618209    0.146558   -0.976594
      4          1           0        3.838422   -0.648538    0.597806
      5          6           0        1.772320   -0.515271    0.028206
      6          8           0        1.104635   -1.467981    0.404506
      7          7           0        1.259000    0.749221   -0.120094
      8          1           0        1.911388    1.484331   -0.360694
      9          6           0       -0.038108    1.211501    0.391806
     10          1           0        0.078888    1.510803    1.441006
     11          6           0       -0.510427    2.421793   -0.420594
     12          1           0       -0.645423    2.173591   -1.477994
     13          1           0       -1.463432    2.788978   -0.028594
     14          1           0        0.217661    3.240205   -0.351694
     15          6           0       -1.104890    0.091484    0.469306
     16          8           0       -1.563684   -0.253123    1.545906
     17          7           0       -1.646684   -0.289125   -0.733194
     18          1           0       -1.046886   -0.173515   -1.541194
     19          6           0       -2.555966   -1.427539   -0.773494
     20          1           0       -3.291468   -1.310451    0.023606
     21          1           0       -3.067766   -1.444447   -1.739694
     22          1           0       -2.030651   -2.379031   -0.620094
 ---------------------------------------------------------------------
 Rotational constants (GHZ):      1.7967582      0.9594108      0.7696430
 Standard basis: Aug-CC-pVDZ (5D, 7F)
 There are   338 symmetry adapted basis functions of A   symmetry.
 Integral buffers will be    131072 words long.
 Raffenetti 1 integral format.
 Two-electron integral symmetry is turned on.
   338 basis functions,   562 primitive gaussians,   358 cartesian basis functions
    39 alpha electrons       39 beta electrons
       nuclear repulsion energy       563.9116835763 Hartrees.
 NAtoms=   22 NActive=   22 NUniq=   22 SFac= 7.50D-01 NAtFMM=   80 NAOKFM=F Big=F
 One-electron integrals computed using PRISM.
 NBasis=   338 RedAO= T  NBF=   338
 NBsUse=   338 1.00D-06 NBFU=   338
 Harris functional with IExCor=  205 diagonalized for initial guess.
 ExpMin= 2.97D-02 ExpMax= 1.17D+04 ExpMxC= 4.01D+02 IAcc=3 IRadAn=         0 AccDes= 0.00D+00
 HarFok:  IExCor=  205 AccDes= 0.00D+00 IRadAn=         0 IDoV= 1
 ScaDFX=  1.000000  1.000000  1.000000  1.000000
 FoFCou: FMM=F IPFlag=           0 FMFlag=      100000 FMFlg1=           0
         NFxFlg=           0 DoJE=T BraDBF=F KetDBF=T FulRan=T
         Omega=  0.000000  0.000000  1.000000  0.000000  0.000000 ICntrl=     500 IOpCl=  0
         NMat0=    1 NMatS0=    1 NMatT0=    0 NMatD0=    1 NMtDS0=    0 NMtDT0=    0
         I1Cent=           4 NGrid=           0.
 Petite list used in FoFCou.
 Initial guess orbital symmetries:
       Occupied  (A) (A) (A) (A) (A) (A) (A) (A) (A) (A) (A) (A)
                 (A) (A) (A) (A) (A) (A) (A) (A) (A) (A) (A) (A)
                 (A) (A) (A) (A) (A) (A) (A) (A) (A) (A) (A) (A)
                 (A) (A) (A)
       Virtual   (A) (A) (A) (A) (A) (A) (A) (A) (A) (A) (A) (A)
                 (A) (A) (A) (A) (A) (A) (A) (A) (A) (A) (A) (A)
                 (A) (A) (A) (A) (A) (A) (A) (A) (A) (A) (A) (A)
                 (A) (A) (A) (A) (A) (A) (A) (A) (A) (A) (A) (A)
                 (A) (A) (A) (A) (A) (A) (A) (A) (A) (A) (A) (A)
                 (A) (A) (A) (A) (A) (A) (A) (A) (A) (A) (A) (A)
                 (A) (A) (A) (A) (A) (A) (A) (A) (A) (A) (A) (A)
                 (A) (A) (A) (A) (A) (A) (A) (A) (A) (A) (A) (A)
                 (A) (A) (A) (A) (A) (A) (A) (A) (A) (A) (A) (A)
                 (A) (A) (A) (A) (A) (A) (A) (A) (A) (A) (A) (A)
                 (A) (A) (A) (A) (A) (A) (A) (A) (A) (A) (A) (A)
                 (A) (A) (A) (A) (A) (A) (A) (A) (A) (A) (A) (A)
                 (A) (A) (A) (A) (A) (A) (A) (A) (A) (A) (A) (A)
                 (A) (A) (A) (A) (A) (A) (A) (A) (A) (A) (A) (A)
                 (A) (A) (A) (A) (A) (A) (A) (A) (A) (A) (A) (A)
                 (A) (A) (A) (A) (A) (A) (A) (A) (A) (A) (A) (A)
                 (A) (A) (A) (A) (A) (A) (A) (A) (A) (A) (A) (A)
                 (A) (A) (A) (A) (A) (A) (A) (A) (A) (A) (A) (A)
                 (A) (A) (A) (A) (A) (A) (A) (A) (A) (A) (A) (A)
                 (A) (A) (A) (A) (A) (A) (A) (A) (A) (A) (A) (A)
                 (A) (A) (A) (A) (A) (A) (A) (A) (A) (A) (A) (A)
                 (A) (A) (A) (A) (A) (A) (A) (A) (A) (A) (A) (A)
                 (A) (A) (A) (A) (A) (A) (A) (A) (A) (A) (A) (A)
                 (A) (A) (A) (A) (A) (A) (A) (A) (A) (A) (A) (A)
                 (A) (A) (A) (A) (A) (A) (A) (A) (A) (A) (A)
 The electronic state of the initial guess is 1-A.
 Requested convergence on RMS density matrix=1.00D-08 within 128 cycles.
 Requested convergence on MAX density matrix=1.00D-06.
 Requested convergence on             energy=1.00D-06.
 No special actions if energy rises.
 Initial convergence to 1.0D-05 achieved.  Increase integral accuracy.
 SCF Done:  E(RHF) =  -492.914269749     A.U. after   14 cycles
             Convg  =    0.9024D-08             -V/T =  2.0017
 ExpMin= 2.97D-02 ExpMax= 1.17D+04 ExpMxC= 4.01D+02 IAcc=3 IRadAn=         5 AccDes= 0.00D+00
 HarFok:  IExCor=  205 AccDes= 0.00D+00 IRadAn=         5 IDoV=-2
 ScaDFX=  1.000000  1.000000  1.000000  1.000000
 Range of M.O.s used for correlation:    11   338
 NBasis=   338 NAE=    39 NBE=    39 NFC=    10 NFV=     0
 NROrb=    328 NOA=    29 NOB=    29 NVA=   299 NVB=   299

 **** Warning!!: The largest alpha MO coefficient is  0.65008268D+02

 Disk-based method using OVN memory for 29 occupieds at a time.
 Estimated scratch disk usage=  1390001895 words.
 Actual    scratch disk usage=  1377200112 words.
 JobTyp=1 Pass  1:  I=   1 to  29 NPSUse=  8 ParTrn=T ParDer=T DoDerP=F.
 Spin components of T(2) and E(2):
     alpha-alpha T2 =       0.6800303792D-01 E2=     -0.2057981718D+00
     alpha-beta  T2 =       0.3774804679D+00 E2=     -0.1191394291D+01
     beta-beta   T2 =       0.6800303792D-01 E2=     -0.2057981718D+00
 ANorm=    0.1230238409D+01
 E2 =    -0.1602990634D+01 EUMP2 =    -0.49451726038338D+03

 **********************************************************************

            Population analysis using the SCF density.

 **********************************************************************

 Orbital symmetries:
       Occupied  (A) (A) (A) (A) (A) (A) (A) (A) (A) (A) (A) (A)
                 (A) (A) (A) (A) (A) (A) (A) (A) (A) (A) (A) (A)
                 (A) (A) (A) (A) (A) (A) (A) (A) (A) (A) (A) (A)
                 (A) (A) (A)
       Virtual   (A) (A) (A) (A) (A) (A) (A) (A) (A) (A) (A) (A)
                 (A) (A) (A) (A) (A) (A) (A) (A) (A) (A) (A) (A)
                 (A) (A) (A) (A) (A) (A) (A) (A) (A) (A) (A) (A)
                 (A) (A) (A) (A) (A) (A) (A) (A) (A) (A) (A) (A)
                 (A) (A) (A) (A) (A) (A) (A) (A) (A) (A) (A) (A)
                 (A) (A) (A) (A) (A) (A) (A) (A) (A) (A) (A) (A)
                 (A) (A) (A) (A) (A) (A) (A) (A) (A) (A) (A) (A)
                 (A) (A) (A) (A) (A) (A) (A) (A) (A) (A) (A) (A)
                 (A) (A) (A) (A) (A) (A) (A) (A) (A) (A) (A) (A)
                 (A) (A) (A) (A) (A) (A) (A) (A) (A) (A) (A) (A)
                 (A) (A) (A) (A) (A) (A) (A) (A) (A) (A) (A) (A)
                 (A) (A) (A) (A) (A) (A) (A) (A) (A) (A) (A) (A)
                 (A) (A) (A) (A) (A) (A) (A) (A) (A) (A) (A) (A)
                 (A) (A) (A) (A) (A) (A) (A) (A) (A) (A) (A) (A)
                 (A) (A) (A) (A) (A) (A) (A) (A) (A) (A) (A) (A)
                 (A) (A) (A) (A) (A) (A) (A) (A) (A) (A) (A) (A)
                 (A) (A) (A) (A) (A) (A) (A) (A) (A) (A) (A) (A)
                 (A) (A) (A) (A) (A) (A) (A) (A) (A) (A) (A) (A)
                 (A) (A) (A) (A) (A) (A) (A) (A) (A) (A) (A) (A)
                 (A) (A) (A) (A) (A) (A) (A) (A) (A) (A) (A) (A)
                 (A) (A) (A) (A) (A) (A) (A) (A) (A) (A) (A) (A)
                 (A) (A) (A) (A) (A) (A) (A) (A) (A) (A) (A) (A)
                 (A) (A) (A) (A) (A) (A) (A) (A) (A) (A) (A) (A)
                 (A) (A) (A) (A) (A) (A) (A) (A) (A) (A) (A) (A)
                 (A) (A) (A) (A) (A) (A) (A) (A) (A) (A) (A)
 The electronic state is 1-A.
 Alpha  occ. eigenvalues --  -20.53622 -20.52289 -15.60747 -15.58256 -11.37016
 Alpha  occ. eigenvalues --  -11.35263 -11.29630 -11.25530 -11.25393 -11.25007
 Alpha  occ. eigenvalues --   -1.39289  -1.37501  -1.24750  -1.21849  -1.06134
 Alpha  occ. eigenvalues --   -0.99819  -0.94493  -0.88320  -0.81182  -0.76918
 Alpha  occ. eigenvalues --   -0.70239  -0.69275  -0.67096  -0.63154  -0.62028
 Alpha  occ. eigenvalues --   -0.61485  -0.59574  -0.58067  -0.57714  -0.56014
 Alpha  occ. eigenvalues --   -0.54926  -0.54148  -0.53426  -0.51189  -0.50654
 Alpha  occ. eigenvalues --   -0.42800  -0.41651  -0.40191  -0.38541
 Alpha virt. eigenvalues --    0.02291   0.03727   0.03921   0.04677   0.05546
 Alpha virt. eigenvalues --    0.06014   0.06080   0.06728   0.07434   0.08274
 Alpha virt. eigenvalues --    0.08490   0.09233   0.11182   0.11653   0.12373
 Alpha virt. eigenvalues --    0.13435   0.14409   0.14572   0.14953   0.15147
 Alpha virt. eigenvalues --    0.15429   0.15900   0.16725   0.16911   0.17353
 Alpha virt. eigenvalues --    0.17811   0.18021   0.18300   0.18374   0.19312
 Alpha virt. eigenvalues --    0.19719   0.20463   0.20671   0.21439   0.22486
 Alpha virt. eigenvalues --    0.22748   0.23750   0.24898   0.25970   0.26126
 Alpha virt. eigenvalues --    0.27551   0.28588   0.28817   0.29442   0.30715
 Alpha virt. eigenvalues --    0.31470   0.32108   0.32648   0.32722   0.34252
 Alpha virt. eigenvalues --    0.34862   0.35158   0.35604   0.36175   0.37570
 Alpha virt. eigenvalues --    0.37829   0.38660   0.39549   0.39794   0.40322
 Alpha virt. eigenvalues --    0.40859   0.41209   0.42233   0.42979   0.43145
 Alpha virt. eigenvalues --    0.43727   0.44169   0.44533   0.44860   0.45854
 Alpha virt. eigenvalues --    0.46324   0.47203   0.47831   0.48544   0.49163
 Alpha virt. eigenvalues --    0.49972   0.50660   0.50862   0.51938   0.52452
 Alpha virt. eigenvalues --    0.52714   0.53426   0.54678   0.55360   0.55709
 Alpha virt. eigenvalues --    0.56725   0.57165   0.57387   0.58458   0.58799
 Alpha virt. eigenvalues --    0.59499   0.60323   0.60648   0.61543   0.61986
 Alpha virt. eigenvalues --    0.62961   0.63678   0.64153   0.64765   0.65183
 Alpha virt. eigenvalues --    0.65450   0.65954   0.66925   0.68344   0.68888
 Alpha virt. eigenvalues --    0.69613   0.69708   0.70398   0.71365   0.72012
 Alpha virt. eigenvalues --    0.72549   0.73281   0.74289   0.74376   0.75573
 Alpha virt. eigenvalues --    0.76374   0.77023   0.77718   0.78243   0.79138
 Alpha virt. eigenvalues --    0.79578   0.80342   0.81658   0.82164   0.83381
 Alpha virt. eigenvalues --    0.83664   0.84891   0.86121   0.87682   0.88168
 Alpha virt. eigenvalues --    0.89855   0.90623   0.91464   0.93112   0.93928
 Alpha virt. eigenvalues --    0.94286   0.95131   0.96479   0.97332   0.98898
 Alpha virt. eigenvalues --    1.00070   1.00316   1.01711   1.03124   1.05211
 Alpha virt. eigenvalues --    1.06651   1.07834   1.09908   1.11321   1.11463
 Alpha virt. eigenvalues --    1.11726   1.13160   1.14648   1.15813   1.16298
 Alpha virt. eigenvalues --    1.17247   1.18061   1.19613   1.20972   1.21648
 Alpha virt. eigenvalues --    1.23443   1.24221   1.26549   1.27591   1.28706
 Alpha virt. eigenvalues --    1.29574   1.32886   1.33892   1.35472   1.38720
 Alpha virt. eigenvalues --    1.39899   1.40832   1.43463   1.46566   1.47410
 Alpha virt. eigenvalues --    1.49298   1.49744   1.51580   1.52798   1.54730
 Alpha virt. eigenvalues --    1.58186   1.59397   1.61473   1.62953   1.66009
 Alpha virt. eigenvalues --    1.68355   1.70131   1.70992   1.72149   1.73810
 Alpha virt. eigenvalues --    1.75068   1.76284   1.77813   1.79245   1.82412
 Alpha virt. eigenvalues --    1.83052   1.84872   1.86330   1.86983   1.87687
 Alpha virt. eigenvalues --    1.89426   1.90832   1.91005   1.92661   1.92896
 Alpha virt. eigenvalues --    1.94910   1.96495   1.97331   2.00666   2.01066
 Alpha virt. eigenvalues --    2.01948   2.05989   2.06954   2.07199   2.09181
 Alpha virt. eigenvalues --    2.10182   2.12313   2.14601   2.16008   2.17675
 Alpha virt. eigenvalues --    2.18080   2.19431   2.20613   2.22464   2.23667
 Alpha virt. eigenvalues --    2.24836   2.27009   2.28625   2.30192   2.31415
 Alpha virt. eigenvalues --    2.32484   2.33868   2.35439   2.37028   2.39469
 Alpha virt. eigenvalues --    2.40238   2.41097   2.41448   2.43485   2.45523
 Alpha virt. eigenvalues --    2.46156   2.48062   2.50270   2.51283   2.53115
 Alpha virt. eigenvalues --    2.54912   2.55718   2.56599   2.57935   2.61413
 Alpha virt. eigenvalues --    2.62845   2.64935   2.66324   2.67312   2.68973
 Alpha virt. eigenvalues --    2.70679   2.72987   2.75129   2.76578   2.77400
 Alpha virt. eigenvalues --    2.81813   2.84188   2.84727   2.85830   2.88190
 Alpha virt. eigenvalues --    2.89164   2.91641   2.93616   2.95036   2.97349
 Alpha virt. eigenvalues --    2.98015   3.00304   3.03287   3.06873   3.08219
 Alpha virt. eigenvalues --    3.10704   3.14214   3.16531   3.18711   3.26830
 Alpha virt. eigenvalues --    3.31431   3.35984   3.41209   3.45145   3.49522
 Alpha virt. eigenvalues --    3.63153   3.69105   3.75657   3.83224   3.84399
 Alpha virt. eigenvalues --    3.89303   3.91229   3.94758   3.99480   4.03236
 Alpha virt. eigenvalues --    4.10170   4.14748   4.22281   4.33224
          Condensed to atoms (all electrons):
              1          2          3          4          5          6
     1  H    0.768718   0.341760  -0.102656  -0.046076  -0.057140   0.027445
     2  C    0.341760   4.616293   0.305061   0.367183   0.120718  -0.047367
     3  H   -0.102656   0.305061   1.072855  -0.071377   0.143010  -0.004222
     4  H   -0.046076   0.367183  -0.071377   0.711455  -0.076242   0.009569
     5  C   -0.057140   0.120718   0.143010  -0.076242   5.400770   0.254915
     6  O    0.027445  -0.047367  -0.004222   0.009569   0.254915   8.657154
     7  N    0.053473  -0.003755  -0.177498   0.045045   0.099731  -0.136074
     8  H   -0.003627  -0.059467   0.007021  -0.007199  -0.122389   0.001482
     9  C    0.011509  -0.008813  -0.048215   0.001886  -0.229768   0.094093
    10  H    0.000753  -0.005669  -0.001759  -0.002492  -0.035544   0.010207
    11  C    0.000092  -0.029140  -0.004097   0.002176   0.001071  -0.004275
    12  H   -0.000711  -0.011669  -0.000143  -0.000591  -0.010594   0.000665
    13  H    0.000292   0.004171   0.000364   0.000113   0.011360   0.001073
    14  H   -0.000156  -0.005104  -0.001046   0.000442  -0.011540  -0.001525
    15  C   -0.001574  -0.030455   0.008241  -0.001878  -0.037978  -0.051176
    16  O    0.000074   0.005082  -0.000034   0.000263   0.027879   0.005182
    17  N   -0.000381  -0.006459  -0.000253  -0.000036   0.060871  -0.008214
    18  H    0.000023   0.008921  -0.001263   0.000899  -0.026191   0.007790
    19  C   -0.000489  -0.000602  -0.000345  -0.000422  -0.011843   0.003678
    20  H   -0.000090  -0.001021  -0.000029  -0.000071  -0.013401  -0.000072
    21  H    0.000082   0.000999  -0.000033   0.000012   0.004422  -0.001678
    22  H   -0.000007  -0.001080   0.000171  -0.000149   0.009721   0.004644
              7          8          9         10         11         12
     1  H    0.053473  -0.003627   0.011509   0.000753   0.000092  -0.000711
     2  C   -0.003755  -0.059467  -0.008813  -0.005669  -0.029140  -0.011669
     3  H   -0.177498   0.007021  -0.048215  -0.001759  -0.004097  -0.000143
     4  H    0.045045  -0.007199   0.001886  -0.002492   0.002176  -0.000591
     5  C    0.099731  -0.122389  -0.229768  -0.035544   0.001071  -0.010594
     6  O   -0.136074   0.001482   0.094093   0.010207  -0.004275   0.000665
     7  N    7.713707   0.354504  -0.735239   0.009108   0.017358  -0.036913
     8  H    0.354504   1.041862  -0.130202   0.011407   0.016938   0.011722
     9  C   -0.735239  -0.130202   7.982518  -0.257245   0.054129  -0.128465
    10  H    0.009108   0.011407  -0.257245   1.266758  -0.015203   0.062991
    11  C    0.017358   0.016938   0.054129  -0.015203   4.312665   0.447944
    12  H   -0.036913   0.011722  -0.128465   0.062991   0.447944   1.044658
    13  H    0.093797   0.002535  -0.074236  -0.069378   0.300609  -0.109947
    14  H   -0.058912  -0.001832   0.034642  -0.015706   0.275660  -0.215670
    15  C    0.166292  -0.026329  -0.740165   0.191662  -0.061314   0.006246
    16  O   -0.034210   0.001221   0.120593   0.030468  -0.020114  -0.002953
    17  N    0.080425   0.003248  -0.241068   0.027700   0.033163  -0.015812
    18  H   -0.021683  -0.001952   0.107902  -0.000371  -0.045031   0.006878
    19  C    0.025647  -0.000616  -0.171066   0.010029   0.024776   0.003255
    20  H    0.003994  -0.000071   0.006841   0.003227  -0.002921   0.000036
    21  H    0.002228  -0.000058  -0.042563  -0.001147   0.005866   0.001288
    22  H   -0.003327   0.000375   0.026267   0.000636  -0.002903  -0.001364
             13         14         15         16         17         18
     1  H    0.000292  -0.000156  -0.001574   0.000074  -0.000381   0.000023
     2  C    0.004171  -0.005104  -0.030455   0.005082  -0.006459   0.008921
     3  H    0.000364  -0.001046   0.008241  -0.000034  -0.000253  -0.001263
     4  H    0.000113   0.000442  -0.001878   0.000263  -0.000036   0.000899
     5  C    0.011360  -0.011540  -0.037978   0.027879   0.060871  -0.026191
     6  O    0.001073  -0.001525  -0.051176   0.005182  -0.008214   0.007790
     7  N    0.093797  -0.058912   0.166292  -0.034210   0.080425  -0.021683
     8  H    0.002535  -0.001832  -0.026329   0.001221   0.003248  -0.001952
     9  C   -0.074236   0.034642  -0.740165   0.120593  -0.241068   0.107902
    10  H   -0.069378  -0.015706   0.191662   0.030468   0.027700  -0.000371
    11  C    0.300609   0.275660  -0.061314  -0.020114   0.033163  -0.045031
    12  H   -0.109947  -0.215670   0.006246  -0.002953  -0.015812   0.006878
    13  H    1.117670  -0.183589  -0.073731   0.005389   0.022057  -0.004119
    14  H   -0.183589   1.186264   0.085653  -0.007059   0.018037  -0.002199
    15  C   -0.073731   0.085653   5.519364  -0.014995   0.035402  -0.044765
    16  O    0.005389  -0.007059  -0.014995   8.836583  -0.047818  -0.004604
    17  N    0.022057   0.018037   0.035402  -0.047818   7.364145   0.261143
    18  H   -0.004119  -0.002199  -0.044765  -0.004604   0.261143   0.910609
    19  C   -0.002442   0.007528  -0.046869   0.016301   0.214055  -0.114510
    20  H   -0.000184   0.000645   0.083477  -0.035064  -0.094545   0.008621
    21  H   -0.000597   0.000264  -0.023102   0.011219  -0.192513   0.006149
    22  H   -0.000452   0.000514  -0.040137   0.006160   0.154652  -0.010864
             19         20         21         22
     1  H   -0.000489  -0.000090   0.000082  -0.000007
     2  C   -0.000602  -0.001021   0.000999  -0.001080
     3  H   -0.000345  -0.000029  -0.000033   0.000171
     4  H   -0.000422  -0.000071   0.000012  -0.000149
     5  C   -0.011843  -0.013401   0.004422   0.009721
     6  O    0.003678  -0.000072  -0.001678   0.004644
     7  N    0.025647   0.003994   0.002228  -0.003327
     8  H   -0.000616  -0.000071  -0.000058   0.000375
     9  C   -0.171066   0.006841  -0.042563   0.026267
    10  H    0.010029   0.003227  -0.001147   0.000636
    11  C    0.024776  -0.002921   0.005866  -0.002903
    12  H    0.003255   0.000036   0.001288  -0.001364
    13  H   -0.002442  -0.000184  -0.000597  -0.000452
    14  H    0.007528   0.000645   0.000264   0.000514
    15  C   -0.046869   0.083477  -0.023102  -0.040137
    16  O    0.016301  -0.035064   0.011219   0.006160
    17  N    0.214055  -0.094545  -0.192513   0.154652
    18  H   -0.114510   0.008621   0.006149  -0.010864
    19  C    4.184457   0.394144   0.509199   0.246179
    20  H    0.394144   1.024404  -0.186864  -0.086041
    21  H    0.509199  -0.186864   1.303386  -0.202033
    22  H    0.246179  -0.086041  -0.202033   0.952128
 Mulliken atomic charges:
              1
     1  H    0.008683
     2  C    0.440412
     3  H   -0.123754
     4  H    0.067491
     5  C    0.498161
     6  O   -0.823294
     7  N   -0.457699
     8  H   -0.098572
     9  C    0.366665
    10  H   -0.220431
    11  C    0.692549
    12  H   -0.050850
    13  H   -0.040754
    14  H   -0.105312
    15  C    1.098131
    16  O   -0.899564
    17  N   -0.667801
    18  H   -0.041384
    19  C    0.709955
    20  H   -0.105017
    21  H   -0.194524
    22  H   -0.053090
 Sum of Mulliken atomic charges =   0.00000
 Mulliken charges with hydrogens summed into heavy atoms:
              1
     2  C    0.392832
     5  C    0.498161
     6  O   -0.823294
     7  N   -0.556271
     9  C    0.146233
    11  C    0.495634
    15  C    1.098131
    16  O   -0.899564
    17  N   -0.709185
    19  C    0.357324
 Sum of Mulliken charges with hydrogens summed into heavy atoms =   0.00000
 Electronic spatial extent (au):  <R**2>=           1659.9589
 Charge=              0.0000 electrons
 Dipole moment (field-independent basis, Debye):
    X=              3.1519    Y=              3.6461    Z=             -4.3556  Tot=              6.4961
 Quadrupole moment (field-independent basis, Debye-Ang):
   XX=            -53.6265   YY=            -60.3573   ZZ=            -64.9025
   XY=              3.8691   XZ=              4.3728   YZ=              3.9243
 Traceless Quadrupole moment (field-independent basis, Debye-Ang):
   XX=              6.0023   YY=             -0.7286   ZZ=             -5.2737
   XY=              3.8691   XZ=              4.3728   YZ=              3.9243
 Octapole moment (field-independent basis, Debye-Ang**2):
  XXX=             27.5219  YYY=             10.2623  ZZZ=            -11.1448  XYY=             -3.7053
  XXY=             -5.4616  XXZ=             -9.6855  XZZ=              7.6366  YZZ=             -0.1161
  YYZ=             -2.5431  XYZ=             -2.6689
 Hexadecapole moment (field-independent basis, Debye-Ang**3):
 XXXX=          -1207.4024 YYYY=           -637.0557 ZZZZ=           -264.1484 XXXY=              7.4952
 XXXZ=              7.6384 YYYX=             16.5373 YYYZ=              6.0142 ZZZX=             22.5650
 ZZZY=              4.4002 XXYY=           -303.4898 XXZZ=           -265.7292 YYZZ=           -152.2447
 XXYZ=              7.5423 YYXZ=             -8.4830 ZZXY=              0.2932
 N-N= 5.639116835763D+02 E-N=-2.283202985362D+03  KE= 4.920547249780D+02
 1\1\GINC-NODE012\SP\RMP2-FC\Aug-CC-pVDZ\C6H12N2O2\MANAGER\13-Feb-2017\
 0\\#SP MP2/aug-cc-pVDZ\\Single Point calculation at MP2\\0,1\H,0,3.402
 1,-1.6175,-0.8134\C,0,3.2479,-0.6525,-0.3257\H,0,3.6182,0.1465,-0.9766
 \H,0,3.8384,-0.6486,0.5978\C,0,1.7723,-0.5153,0.0282\O,0,1.1046,-1.468
 ,0.4045\N,0,1.259,0.7492,-0.1201\H,0,1.9114,1.4843,-0.3607\C,0,-0.0381
 ,1.2115,0.3918\H,0,0.0789,1.5108,1.441\C,0,-0.5104,2.4218,-0.4206\H,0,
 -0.6454,2.1736,-1.478\H,0,-1.4634,2.789,-0.0286\H,0,0.2177,3.2402,-0.3
 517\C,0,-1.1049,0.0915,0.4693\O,0,-1.5637,-0.2531,1.5459\N,0,-1.6467,-
 0.2891,-0.7332\H,0,-1.0469,-0.1735,-1.5412\C,0,-2.556,-1.4275,-0.7735\
 H,0,-3.2915,-1.3104,0.0236\H,0,-3.0678,-1.4444,-1.7397\H,0,-2.0307,-2.
 379,-0.6201\\Version=EM64L-G09RevA.02\State=1-A\HF=-492.9142697\MP2=-4
 94.5172604\RMSD=9.024e-09\PG=C01 [X(C6H12N2O2)]\\@


 IT IS WELL TO REMEMBER THAT MAN IS A PART OF NATURE AND THAT HIS WORKS,
 WHATEVER THEY MAY BE, ARE NO MORE "UNNATURAL" THAN 
 THE FLIGHT OF AN EAGLE OR THE PASSAGE OF A TORNADO.

                                    -- CHARLES MCCARRY IN "THE GREAT SOUTHWEST"
 Job cpu time:  0 days 10 hours 50 minutes 18.7 seconds.
 File lengths (MBytes):  RWF=  10624 Int=      0 D2E=      0 Chk=      7 Scr=      2
 Normal termination of Gaussian 09 at Mon Feb 13 20:49:16 2017.
