 Entering Gaussian System, Link 0=g09
 Initial command:
 /home/steboss/Software/g09/l1.exe /home/steboss/projects/phi_psi_scan/alanine/MP2/270/5470/Gau-8915.inp -scrdir=/home/steboss/projects/phi_psi_scan/alanine/MP2/270/5470/
 Entering Link 1 = /home/steboss/Software/g09/l1.exe PID=      8919.
  
 Copyright (c) 1988,1990,1992,1993,1995,1998,2003,2009, Gaussian, Inc.
                  All Rights Reserved.
  
 This is part of the Gaussian(R) 09 program.  It is based on
 the Gaussian(R) 03 system (copyright 2003, Gaussian, Inc.),
 the Gaussian(R) 98 system (copyright 1998, Gaussian, Inc.),
 the Gaussian(R) 94 system (copyright 1995, Gaussian, Inc.),
 the Gaussian 92(TM) system (copyright 1992, Gaussian, Inc.),
 the Gaussian 90(TM) system (copyright 1990, Gaussian, Inc.),
 the Gaussian 88(TM) system (copyright 1988, Gaussian, Inc.),
 the Gaussian 86(TM) system (copyright 1986, Carnegie Mellon
 University), and the Gaussian 82(TM) system (copyright 1983,
 Carnegie Mellon University). Gaussian is a federally registered
 trademark of Gaussian, Inc.
  
 This software contains proprietary and confidential information,
 including trade secrets, belonging to Gaussian, Inc.
  
 This software is provided under written license and may be
 used, copied, transmitted, or stored only in accord with that
 written license.
  
 The following legend is applicable only to US Government
 contracts under FAR:
  
                    RESTRICTED RIGHTS LEGEND
  
 Use, reproduction and disclosure by the US Government is
 subject to restrictions as set forth in subparagraphs (a)
 and (c) of the Commercial Computer Software - Restricted
 Rights clause in FAR 52.227-19.
  
 Gaussian, Inc.
 340 Quinnipiac St., Bldg. 40, Wallingford CT 06492
  
  
 ---------------------------------------------------------------
 Warning -- This program may not be used in any manner that
 competes with the business of Gaussian, Inc. or will provide
 assistance to any competitor of Gaussian, Inc.  The licensee
 of this program is prohibited from giving any competitor of
 Gaussian, Inc. access to this program.  By using this program,
 the user acknowledges that Gaussian, Inc. is engaged in the
 business of creating and licensing software in the field of
 computational chemistry and represents and warrants to the
 licensee that it is not a competitor of Gaussian, Inc. and that
 it will not use this program in any manner prohibited above.
 ---------------------------------------------------------------
  

 Cite this work as:
 Gaussian 09, Revision A.02,
 M. J. Frisch, G. W. Trucks, H. B. Schlegel, G. E. Scuseria, 
 M. A. Robb, J. R. Cheeseman, G. Scalmani, V. Barone, B. Mennucci, 
 G. A. Petersson, H. Nakatsuji, M. Caricato, X. Li, H. P. Hratchian, 
 A. F. Izmaylov, J. Bloino, G. Zheng, J. L. Sonnenberg, M. Hada, 
 M. Ehara, K. Toyota, R. Fukuda, J. Hasegawa, M. Ishida, T. Nakajima, 
 Y. Honda, O. Kitao, H. Nakai, T. Vreven, J. A. Montgomery, Jr., 
 J. E. Peralta, F. Ogliaro, M. Bearpark, J. J. Heyd, E. Brothers, 
 K. N. Kudin, V. N. Staroverov, R. Kobayashi, J. Normand, 
 K. Raghavachari, A. Rendell, J. C. Burant, S. S. Iyengar, J. Tomasi, 
 M. Cossi, N. Rega, J. M. Millam, M. Klene, J. E. Knox, J. B. Cross, 
 V. Bakken, C. Adamo, J. Jaramillo, R. Gomperts, R. E. Stratmann, 
 O. Yazyev, A. J. Austin, R. Cammi, C. Pomelli, J. W. Ochterski, 
 R. L. Martin, K. Morokuma, V. G. Zakrzewski, G. A. Voth, 
 P. Salvador, J. J. Dannenberg, S. Dapprich, A. D. Daniels, 
 O. Farkas, J. B. Foresman, J. V. Ortiz, J. Cioslowski, 
 and D. J. Fox, Gaussian, Inc., Wallingford CT, 2009.
 
 ******************************************
 Gaussian 09:  EM64L-G09RevA.02 11-Jun-2009
                13-Feb-2017 
 ******************************************
 %chk=structure_135.chk
 %NProcShared=8
 Will use up to    8 processors via shared memory.
 -------------------
 #SP MP2/aug-cc-pVDZ
 -------------------
 1/38=1/1;
 2/12=2,17=6,18=5,40=1/2;
 3/5=16,7=10,11=9,16=1,25=1,30=1/1,2,3;
 4//1;
 5/5=2,38=5/2;
 8/10=1/1;
 9/16=-3/6;
 6/7=2,8=2,9=2,10=2/1;
 99/5=1,9=1/99;
 -------------------------------
 Single Point calculation at MP2
 -------------------------------
 Symbolic Z-matrix:
 Charge =  0 Multiplicity = 1
 H                    -4.0437   -1.0148    0.1339 
 C                    -3.1483   -0.8214    0.7297 
 H                    -2.8847   -1.753     1.2435 
 H                    -3.3694   -0.0578    1.4817 
 C                    -2.0136   -0.4329   -0.2049 
 O                    -1.828    -0.9975   -1.2761 
 N                    -1.23      0.6123    0.2299 
 H                    -1.2477    0.8205    1.2217 
 C                     0.0425    0.8981   -0.4212 
 H                    -0.0721    0.5727   -1.4581 
 C                     0.3586    2.3974   -0.3613 
 H                     0.4699    2.7223    0.6788 
 H                     1.2964    2.6152   -0.884 
 H                    -0.4467    2.9723   -0.8285 
 C                     1.1584    0.1033    0.2831 
 O                     1.2481    0.1088    1.5077 
 N                     2.0391   -0.5287   -0.5404 
 H                     1.8004   -0.6029   -1.5194 
 C                     3.1383   -1.3352   -0.0357 
 H                     3.2798   -1.078     1.0148 
 H                     2.921    -2.4081   -0.11 
 H                     4.0569   -1.1197   -0.5914 
 
                          Input orientation:                          
 ---------------------------------------------------------------------
 Center     Atomic      Atomic             Coordinates (Angstroms)
 Number     Number       Type             X           Y           Z
 ---------------------------------------------------------------------
      1          1           0       -4.043700   -1.014800    0.133900
      2          6           0       -3.148300   -0.821400    0.729700
      3          1           0       -2.884700   -1.753000    1.243500
      4          1           0       -3.369400   -0.057800    1.481700
      5          6           0       -2.013600   -0.432900   -0.204900
      6          8           0       -1.828000   -0.997500   -1.276100
      7          7           0       -1.230000    0.612300    0.229900
      8          1           0       -1.247700    0.820500    1.221700
      9          6           0        0.042500    0.898100   -0.421200
     10          1           0       -0.072100    0.572700   -1.458100
     11          6           0        0.358600    2.397400   -0.361300
     12          1           0        0.469900    2.722300    0.678800
     13          1           0        1.296400    2.615200   -0.884000
     14          1           0       -0.446700    2.972300   -0.828500
     15          6           0        1.158400    0.103300    0.283100
     16          8           0        1.248100    0.108800    1.507700
     17          7           0        2.039100   -0.528700   -0.540400
     18          1           0        1.800400   -0.602900   -1.519400
     19          6           0        3.138300   -1.335200   -0.035700
     20          1           0        3.279800   -1.078000    1.014800
     21          1           0        2.921000   -2.408100   -0.110000
     22          1           0        4.056900   -1.119700   -0.591400
 ---------------------------------------------------------------------
                    Distance matrix (angstroms):
                    1          2          3          4          5
     1  H    0.000000
     2  C    1.092759   0.000000
     3  H    1.766191   1.096063   0.000000
     4  H    1.785243   1.094292   1.779150   0.000000
     5  C    2.138855   1.520511   2.144608   2.196250   0.000000
     6  O    2.626352   2.407787   2.834745   3.296121   1.225027
     7  N    3.251704   2.446461   3.059422   2.567697   1.376780
     8  H    3.516995   2.559332   3.050106   2.310979   2.047633
     9  C    4.545806   3.802954   4.285797   4.021919   2.458840
    10  H    4.563795   4.024051   4.540731   4.462302   2.520152
    11  C    5.591831   4.883575   5.506378   4.829352   3.696267
    12  H    5.885186   5.064758   5.621436   4.807684   4.111446
    13  H    6.536795   5.845477   6.410072   5.874620   4.550625
    14  H    5.455418   4.911088   5.706618   4.802156   3.799926
    15  C    5.322993   4.427436   4.551360   4.686530   3.253804
    16  O    5.581483   4.560580   4.540500   4.620578   3.723590
    17  N    6.139335   5.348640   5.378198   5.793316   4.067692
    18  H    6.087411   5.440204   5.559362   6.002547   4.037748
    19  C    7.191143   6.353831   6.171502   6.803265   5.233053
    20  H    7.376560   6.439534   6.205561   6.743194   5.470275
    21  H    7.106885   6.329227   5.997272   6.901199   5.316079
    22  H    8.133682   7.331384   7.207894   7.783014   6.121442
                    6          7          8          9         10
     6  O    0.000000
     7  N    2.284096   0.000000
     8  H    3.143386   1.013572   0.000000
     9  C    2.796949   1.457693   2.090397   0.000000
    10  H    2.362591   2.047351   2.936796   1.092785   0.000000
    11  C    4.140462   2.461656   2.751854   1.533430   2.172096
    12  H    4.789456   2.746502   2.619491   2.172643   3.079105
    13  H    4.792413   3.411023   3.758639   2.175978   2.524716
    14  H    4.227014   2.702475   3.078175   2.169681   2.508944
    15  C    3.544214   2.442615   2.680422   1.540447   2.183173
    16  O    4.293697   2.833243   2.611002   2.407721   3.279345
    17  N    3.964277   3.547148   3.965904   2.456904   2.551944
    18  H    3.657894   3.704063   4.339425   2.559152   2.211798
    19  C    5.129987   4.790130   5.046295   3.836693   3.996245
    20  H    5.598600   4.879701   4.913793   4.055512   4.480544
    21  H    5.089458   5.144818   5.438322   4.394720   4.434094
    22  H    5.925858   5.623670   5.932157   4.496209   4.545770
                   11         12         13         14         15
    11  C    0.000000
    12  H    1.095334   0.000000
    13  H    1.095500   1.771134   0.000000
    14  H    1.094209   1.781743   1.780168   0.000000
    15  C    2.513529   2.736745   2.773231   3.470326   0.000000
    16  O    3.085784   2.850097   3.464766   4.065687   1.227893
    17  N    3.379085   3.810228   3.248657   4.303395   1.361326
    18  H    3.524455   4.202293   3.318722   4.278885   2.039581
    19  C    4.665303   4.908582   4.440481   5.659975   2.467979
    20  H    4.743993   4.738218   4.602069   5.804265   2.535980
    21  H    5.451777   5.740305   5.335911   6.387985   3.093286
    22  H    5.108851   5.407489   4.653542   6.089589   3.265238
                   16         17         18         19         20
    16  O    0.000000
    17  N    2.286220   0.000000
    18  H    3.158304   1.010408   0.000000
    19  C    2.835503   1.453755   2.127817   0.000000
    20  H    2.404007   2.063907   2.972627   1.090745   0.000000
    21  H    3.427876   2.120174   2.549686   1.097203   1.778505
    22  H    3.715480   2.103188   2.494005   1.095020   1.784797
                   21         22
    21  H    0.000000
    22  H    1.783813   0.000000
 Stoichiometry    C6H12N2O2
 Framework group  C1[X(C6H12N2O2)]
 Deg. of freedom    60
 Full point group                 C1      NOp   1
 Largest Abelian subgroup         C1      NOp   1
 Largest concise Abelian subgroup C1      NOp   1
                         Standard orientation:                         
 ---------------------------------------------------------------------
 Center     Atomic      Atomic             Coordinates (Angstroms)
 Number     Number       Type             X           Y           Z
 ---------------------------------------------------------------------
      1          1           0       -4.043698   -1.014809    0.133894
      2          6           0       -3.148298   -0.821408    0.729694
      3          1           0       -2.884697   -1.753007    1.243494
      4          1           0       -3.369400   -0.057808    1.481694
      5          6           0       -2.013599   -0.432905   -0.204906
      6          8           0       -1.827998   -0.997505   -1.276106
      7          7           0       -1.230001    0.612296    0.229894
      8          1           0       -1.247702    0.820496    1.221694
      9          6           0        0.042498    0.898099   -0.421206
     10          1           0       -0.072101    0.572699   -1.458106
     11          6           0        0.358595    2.397399   -0.361306
     12          1           0        0.469895    2.722300    0.678794
     13          1           0        1.296395    2.615201   -0.884006
     14          1           0       -0.446706    2.972298   -0.828506
     15          6           0        1.158400    0.103301    0.283094
     16          8           0        1.248100    0.108801    1.507694
     17          7           0        2.039101   -0.528697   -0.540406
     18          1           0        1.800401   -0.602898   -1.519406
     19          6           0        3.138303   -1.335195   -0.035706
     20          1           0        3.279802   -1.077995    1.014794
     21          1           0        2.921005   -2.408095   -0.110006
     22          1           0        4.056902   -1.119693   -0.591406
 ---------------------------------------------------------------------
 Rotational constants (GHZ):      1.9121545      0.7993419      0.7078962
 Standard basis: Aug-CC-pVDZ (5D, 7F)
 There are   338 symmetry adapted basis functions of A   symmetry.
 Integral buffers will be    131072 words long.
 Raffenetti 1 integral format.
 Two-electron integral symmetry is turned on.
   338 basis functions,   562 primitive gaussians,   358 cartesian basis functions
    39 alpha electrons       39 beta electrons
       nuclear repulsion energy       553.9644161391 Hartrees.
 NAtoms=   22 NActive=   22 NUniq=   22 SFac= 7.50D-01 NAtFMM=   80 NAOKFM=F Big=F
 One-electron integrals computed using PRISM.
 NBasis=   338 RedAO= T  NBF=   338
 NBsUse=   338 1.00D-06 NBFU=   338
 Harris functional with IExCor=  205 diagonalized for initial guess.
 ExpMin= 2.97D-02 ExpMax= 1.17D+04 ExpMxC= 4.01D+02 IAcc=3 IRadAn=         0 AccDes= 0.00D+00
 HarFok:  IExCor=  205 AccDes= 0.00D+00 IRadAn=         0 IDoV= 1
 ScaDFX=  1.000000  1.000000  1.000000  1.000000
 FoFCou: FMM=F IPFlag=           0 FMFlag=      100000 FMFlg1=           0
         NFxFlg=           0 DoJE=T BraDBF=F KetDBF=T FulRan=T
         Omega=  0.000000  0.000000  1.000000  0.000000  0.000000 ICntrl=     500 IOpCl=  0
         NMat0=    1 NMatS0=    1 NMatT0=    0 NMatD0=    1 NMtDS0=    0 NMtDT0=    0
         I1Cent=           4 NGrid=           0.
 Petite list used in FoFCou.
 Initial guess orbital symmetries:
       Occupied  (A) (A) (A) (A) (A) (A) (A) (A) (A) (A) (A) (A)
                 (A) (A) (A) (A) (A) (A) (A) (A) (A) (A) (A) (A)
                 (A) (A) (A) (A) (A) (A) (A) (A) (A) (A) (A) (A)
                 (A) (A) (A)
       Virtual   (A) (A) (A) (A) (A) (A) (A) (A) (A) (A) (A) (A)
                 (A) (A) (A) (A) (A) (A) (A) (A) (A) (A) (A) (A)
                 (A) (A) (A) (A) (A) (A) (A) (A) (A) (A) (A) (A)
                 (A) (A) (A) (A) (A) (A) (A) (A) (A) (A) (A) (A)
                 (A) (A) (A) (A) (A) (A) (A) (A) (A) (A) (A) (A)
                 (A) (A) (A) (A) (A) (A) (A) (A) (A) (A) (A) (A)
                 (A) (A) (A) (A) (A) (A) (A) (A) (A) (A) (A) (A)
                 (A) (A) (A) (A) (A) (A) (A) (A) (A) (A) (A) (A)
                 (A) (A) (A) (A) (A) (A) (A) (A) (A) (A) (A) (A)
                 (A) (A) (A) (A) (A) (A) (A) (A) (A) (A) (A) (A)
                 (A) (A) (A) (A) (A) (A) (A) (A) (A) (A) (A) (A)
                 (A) (A) (A) (A) (A) (A) (A) (A) (A) (A) (A) (A)
                 (A) (A) (A) (A) (A) (A) (A) (A) (A) (A) (A) (A)
                 (A) (A) (A) (A) (A) (A) (A) (A) (A) (A) (A) (A)
                 (A) (A) (A) (A) (A) (A) (A) (A) (A) (A) (A) (A)
                 (A) (A) (A) (A) (A) (A) (A) (A) (A) (A) (A) (A)
                 (A) (A) (A) (A) (A) (A) (A) (A) (A) (A) (A) (A)
                 (A) (A) (A) (A) (A) (A) (A) (A) (A) (A) (A) (A)
                 (A) (A) (A) (A) (A) (A) (A) (A) (A) (A) (A) (A)
                 (A) (A) (A) (A) (A) (A) (A) (A) (A) (A) (A) (A)
                 (A) (A) (A) (A) (A) (A) (A) (A) (A) (A) (A) (A)
                 (A) (A) (A) (A) (A) (A) (A) (A) (A) (A) (A) (A)
                 (A) (A) (A) (A) (A) (A) (A) (A) (A) (A) (A) (A)
                 (A) (A) (A) (A) (A) (A) (A) (A) (A) (A) (A) (A)
                 (A) (A) (A) (A) (A) (A) (A) (A) (A) (A) (A)
 The electronic state of the initial guess is 1-A.
 Requested convergence on RMS density matrix=1.00D-08 within 128 cycles.
 Requested convergence on MAX density matrix=1.00D-06.
 Requested convergence on             energy=1.00D-06.
 No special actions if energy rises.
 Initial convergence to 1.0D-05 achieved.  Increase integral accuracy.
 SCF Done:  E(RHF) =  -492.928064435     A.U. after   14 cycles
             Convg  =    0.7921D-08             -V/T =  2.0017
 ExpMin= 2.97D-02 ExpMax= 1.17D+04 ExpMxC= 4.01D+02 IAcc=3 IRadAn=         5 AccDes= 0.00D+00
 HarFok:  IExCor=  205 AccDes= 0.00D+00 IRadAn=         5 IDoV=-2
 ScaDFX=  1.000000  1.000000  1.000000  1.000000
 Range of M.O.s used for correlation:    11   338
 NBasis=   338 NAE=    39 NBE=    39 NFC=    10 NFV=     0
 NROrb=    328 NOA=    29 NOB=    29 NVA=   299 NVB=   299

 **** Warning!!: The largest alpha MO coefficient is  0.77591904D+02

 Disk-based method using OVN memory for 29 occupieds at a time.
 Estimated scratch disk usage=  1380093416 words.
 Actual    scratch disk usage=  1367347896 words.
 JobTyp=1 Pass  1:  I=   1 to  29 NPSUse=  8 ParTrn=T ParDer=T DoDerP=F.
 Spin components of T(2) and E(2):
     alpha-alpha T2 =       0.6778085780D-01 E2=     -0.2054620773D+00
     alpha-beta  T2 =       0.3759477339D+00 E2=     -0.1189063335D+01
     beta-beta   T2 =       0.6778085780D-01 E2=     -0.2054620773D+00
 ANorm=    0.1229434606D+01
 E2 =    -0.1599987490D+01 EUMP2 =    -0.49452805192484D+03

 **********************************************************************

            Population analysis using the SCF density.

 **********************************************************************

 Orbital symmetries:
       Occupied  (A) (A) (A) (A) (A) (A) (A) (A) (A) (A) (A) (A)
                 (A) (A) (A) (A) (A) (A) (A) (A) (A) (A) (A) (A)
                 (A) (A) (A) (A) (A) (A) (A) (A) (A) (A) (A) (A)
                 (A) (A) (A)
       Virtual   (A) (A) (A) (A) (A) (A) (A) (A) (A) (A) (A) (A)
                 (A) (A) (A) (A) (A) (A) (A) (A) (A) (A) (A) (A)
                 (A) (A) (A) (A) (A) (A) (A) (A) (A) (A) (A) (A)
                 (A) (A) (A) (A) (A) (A) (A) (A) (A) (A) (A) (A)
                 (A) (A) (A) (A) (A) (A) (A) (A) (A) (A) (A) (A)
                 (A) (A) (A) (A) (A) (A) (A) (A) (A) (A) (A) (A)
                 (A) (A) (A) (A) (A) (A) (A) (A) (A) (A) (A) (A)
                 (A) (A) (A) (A) (A) (A) (A) (A) (A) (A) (A) (A)
                 (A) (A) (A) (A) (A) (A) (A) (A) (A) (A) (A) (A)
                 (A) (A) (A) (A) (A) (A) (A) (A) (A) (A) (A) (A)
                 (A) (A) (A) (A) (A) (A) (A) (A) (A) (A) (A) (A)
                 (A) (A) (A) (A) (A) (A) (A) (A) (A) (A) (A) (A)
                 (A) (A) (A) (A) (A) (A) (A) (A) (A) (A) (A) (A)
                 (A) (A) (A) (A) (A) (A) (A) (A) (A) (A) (A) (A)
                 (A) (A) (A) (A) (A) (A) (A) (A) (A) (A) (A) (A)
                 (A) (A) (A) (A) (A) (A) (A) (A) (A) (A) (A) (A)
                 (A) (A) (A) (A) (A) (A) (A) (A) (A) (A) (A) (A)
                 (A) (A) (A) (A) (A) (A) (A) (A) (A) (A) (A) (A)
                 (A) (A) (A) (A) (A) (A) (A) (A) (A) (A) (A) (A)
                 (A) (A) (A) (A) (A) (A) (A) (A) (A) (A) (A) (A)
                 (A) (A) (A) (A) (A) (A) (A) (A) (A) (A) (A) (A)
                 (A) (A) (A) (A) (A) (A) (A) (A) (A) (A) (A) (A)
                 (A) (A) (A) (A) (A) (A) (A) (A) (A) (A) (A) (A)
                 (A) (A) (A) (A) (A) (A) (A) (A) (A) (A) (A) (A)
                 (A) (A) (A) (A) (A) (A) (A) (A) (A) (A) (A)
 The electronic state is 1-A.
 Alpha  occ. eigenvalues --  -20.53393 -20.53352 -15.60105 -15.59412 -11.36424
 Alpha  occ. eigenvalues --  -11.36111 -11.29042 -11.27057 -11.24605 -11.23991
 Alpha  occ. eigenvalues --   -1.39108  -1.38283  -1.23969  -1.23513  -1.05584
 Alpha  occ. eigenvalues --   -0.99247  -0.96177  -0.87437  -0.80034  -0.78583
 Alpha  occ. eigenvalues --   -0.73073  -0.67604  -0.66232  -0.63928  -0.62354
 Alpha  occ. eigenvalues --   -0.61942  -0.60026  -0.58377  -0.57524  -0.56499
 Alpha  occ. eigenvalues --   -0.54977  -0.53780  -0.52404  -0.51494  -0.50638
 Alpha  occ. eigenvalues --   -0.43657  -0.42801  -0.40097  -0.39047
 Alpha virt. eigenvalues --    0.03169   0.03761   0.04325   0.04953   0.05640
 Alpha virt. eigenvalues --    0.06024   0.06156   0.07135   0.07242   0.07690
 Alpha virt. eigenvalues --    0.09220   0.09503   0.10958   0.11930   0.12670
 Alpha virt. eigenvalues --    0.13441   0.13979   0.14321   0.14843   0.15185
 Alpha virt. eigenvalues --    0.15569   0.15789   0.16699   0.17018   0.17580
 Alpha virt. eigenvalues --    0.17709   0.18131   0.18525   0.18673   0.18973
 Alpha virt. eigenvalues --    0.19820   0.20421   0.20680   0.21008   0.22453
 Alpha virt. eigenvalues --    0.23098   0.24060   0.24712   0.25858   0.26421
 Alpha virt. eigenvalues --    0.26825   0.27883   0.28975   0.29321   0.30696
 Alpha virt. eigenvalues --    0.31325   0.32228   0.32612   0.33198   0.33870
 Alpha virt. eigenvalues --    0.34030   0.34851   0.35613   0.36050   0.36222
 Alpha virt. eigenvalues --    0.37358   0.38300   0.38940   0.39273   0.40199
 Alpha virt. eigenvalues --    0.40924   0.41229   0.41723   0.42467   0.43526
 Alpha virt. eigenvalues --    0.43994   0.44251   0.44513   0.44685   0.46170
 Alpha virt. eigenvalues --    0.46841   0.47234   0.47861   0.48198   0.48663
 Alpha virt. eigenvalues --    0.49442   0.50344   0.51013   0.51347   0.52487
 Alpha virt. eigenvalues --    0.52739   0.53971   0.54625   0.55157   0.55485
 Alpha virt. eigenvalues --    0.56339   0.56785   0.57381   0.58435   0.59052
 Alpha virt. eigenvalues --    0.59824   0.60107   0.61071   0.61301   0.61940
 Alpha virt. eigenvalues --    0.62479   0.63360   0.63583   0.64179   0.65055
 Alpha virt. eigenvalues --    0.65242   0.66167   0.66877   0.67476   0.68221
 Alpha virt. eigenvalues --    0.68733   0.69198   0.70721   0.70927   0.71388
 Alpha virt. eigenvalues --    0.71965   0.72770   0.73423   0.73835   0.74728
 Alpha virt. eigenvalues --    0.75952   0.76346   0.76531   0.77008   0.77830
 Alpha virt. eigenvalues --    0.78804   0.80337   0.81013   0.81592   0.82281
 Alpha virt. eigenvalues --    0.83484   0.84934   0.85243   0.86801   0.87610
 Alpha virt. eigenvalues --    0.89031   0.90043   0.90957   0.92004   0.92943
 Alpha virt. eigenvalues --    0.93352   0.95598   0.97642   0.98119   0.98870
 Alpha virt. eigenvalues --    1.00140   1.00716   1.02304   1.02481   1.03616
 Alpha virt. eigenvalues --    1.05360   1.06499   1.07463   1.09382   1.10852
 Alpha virt. eigenvalues --    1.11067   1.11997   1.14622   1.15055   1.16792
 Alpha virt. eigenvalues --    1.17480   1.17922   1.19794   1.19922   1.21514
 Alpha virt. eigenvalues --    1.22832   1.24524   1.25185   1.26982   1.28555
 Alpha virt. eigenvalues --    1.29251   1.32548   1.34314   1.36726   1.37486
 Alpha virt. eigenvalues --    1.38672   1.39937   1.43329   1.44871   1.47327
 Alpha virt. eigenvalues --    1.47734   1.50180   1.50952   1.52473   1.54311
 Alpha virt. eigenvalues --    1.54888   1.57451   1.58648   1.62761   1.64244
 Alpha virt. eigenvalues --    1.66677   1.67994   1.68569   1.70980   1.72329
 Alpha virt. eigenvalues --    1.74638   1.75911   1.77338   1.77847   1.79496
 Alpha virt. eigenvalues --    1.81049   1.82802   1.83804   1.85189   1.86903
 Alpha virt. eigenvalues --    1.89421   1.89657   1.91988   1.92552   1.94097
 Alpha virt. eigenvalues --    1.94983   1.96209   1.97754   2.00806   2.01276
 Alpha virt. eigenvalues --    2.02935   2.03322   2.05944   2.06324   2.07872
 Alpha virt. eigenvalues --    2.10666   2.13309   2.13688   2.15690   2.17379
 Alpha virt. eigenvalues --    2.18130   2.20175   2.21278   2.22579   2.22975
 Alpha virt. eigenvalues --    2.24870   2.26517   2.28043   2.29645   2.30321
 Alpha virt. eigenvalues --    2.31499   2.32362   2.33614   2.36349   2.37592
 Alpha virt. eigenvalues --    2.38866   2.40202   2.42179   2.43868   2.44590
 Alpha virt. eigenvalues --    2.45793   2.46462   2.49214   2.51289   2.52056
 Alpha virt. eigenvalues --    2.52939   2.54179   2.58051   2.59112   2.61814
 Alpha virt. eigenvalues --    2.63002   2.64344   2.65567   2.66636   2.67879
 Alpha virt. eigenvalues --    2.71556   2.72163   2.73705   2.76344   2.80083
 Alpha virt. eigenvalues --    2.81522   2.81963   2.84588   2.87746   2.88923
 Alpha virt. eigenvalues --    2.90081   2.93904   2.94498   2.95311   2.98012
 Alpha virt. eigenvalues --    3.00492   3.02652   3.03490   3.04822   3.06875
 Alpha virt. eigenvalues --    3.10190   3.11628   3.15307   3.19945   3.24615
 Alpha virt. eigenvalues --    3.30057   3.32802   3.36082   3.41319   3.46068
 Alpha virt. eigenvalues --    3.60851   3.65104   3.76092   3.83125   3.84151
 Alpha virt. eigenvalues --    3.85414   3.88774   3.92907   3.97338   4.02619
 Alpha virt. eigenvalues --    4.03373   4.12182   4.20073   4.31279
          Condensed to atoms (all electrons):
              1          2          3          4          5          6
     1  H    0.766842   0.376095  -0.052636  -0.094314  -0.067769   0.024730
     2  C    0.376095   4.469978   0.338505   0.348602   0.261385  -0.038626
     3  H   -0.052636   0.338505   0.718961  -0.064420  -0.055791   0.016427
     4  H   -0.094314   0.348602  -0.064420   1.058693   0.083318  -0.011368
     5  C   -0.067769   0.261385  -0.055791   0.083318   5.339110   0.147570
     6  O    0.024730  -0.038626   0.016427  -0.011368   0.147570   8.743982
     7  N    0.038842  -0.047277   0.038421  -0.183406   0.153115  -0.105798
     8  H   -0.005754  -0.030124   0.000157   0.010897  -0.131326   0.006358
     9  C    0.007684  -0.036947   0.001348  -0.027468  -0.474826   0.097472
    10  H    0.001064  -0.000922   0.000043  -0.000848   0.042856  -0.023084
    11  C   -0.000230  -0.010144   0.002280  -0.003433   0.019650  -0.026556
    12  H   -0.000425  -0.005082  -0.000563   0.001030  -0.018185  -0.000116
    13  H    0.000107   0.002228   0.000207  -0.000435   0.006747  -0.000288
    14  H    0.000059   0.002289   0.000225   0.000719   0.021516  -0.001366
    15  C   -0.005858  -0.006967  -0.001279   0.001081   0.032298   0.033421
    16  O   -0.000294  -0.001917   0.000082  -0.000422   0.004584  -0.002376
    17  N    0.000042   0.006399   0.000747   0.000171  -0.002677   0.001682
    18  H    0.000032  -0.001805   0.000291  -0.000491   0.003878  -0.004284
    19  C    0.000153   0.000454  -0.000127   0.000180   0.015720  -0.000694
    20  H   -0.000029   0.000199  -0.000057   0.000126  -0.003257   0.000304
    21  H   -0.000086  -0.000459  -0.000062   0.000033  -0.001730   0.000069
    22  H    0.000044   0.000164   0.000005  -0.000011   0.004270  -0.000088
              7          8          9         10         11         12
     1  H    0.038842  -0.005754   0.007684   0.001064  -0.000230  -0.000425
     2  C   -0.047277  -0.030124  -0.036947  -0.000922  -0.010144  -0.005082
     3  H    0.038421   0.000157   0.001348   0.000043   0.002280  -0.000563
     4  H   -0.183406   0.010897  -0.027468  -0.000848  -0.003433   0.001030
     5  C    0.153115  -0.131326  -0.474826   0.042856   0.019650  -0.018185
     6  O   -0.105798   0.006358   0.097472  -0.023084  -0.026556  -0.000116
     7  N    7.675614   0.288379  -0.870604   0.100220  -0.006438  -0.073832
     8  H    0.288379   0.913495   0.089817  -0.007252  -0.064772   0.005917
     9  C   -0.870604   0.089817   9.800257  -0.663558  -0.042752   0.009533
    10  H    0.100220  -0.007252  -0.663558   1.561493   0.040833   0.068853
    11  C   -0.006438  -0.064772  -0.042752   0.040833   4.450155   0.412894
    12  H   -0.073832   0.005917   0.009533   0.068853   0.412894   1.042897
    13  H    0.129161  -0.000060  -0.182445  -0.046922   0.267508  -0.142845
    14  H   -0.060377  -0.006878   0.127305  -0.039947   0.195409  -0.216407
    15  C    0.284041   0.002385  -1.518714   0.219680  -0.091462  -0.054582
    16  O   -0.035955  -0.015889   0.045778  -0.016942   0.015930   0.007200
    17  N    0.003621  -0.016288   0.034773  -0.029437   0.055001  -0.008657
    18  H    0.000929   0.002247  -0.065407   0.024226  -0.006640   0.000943
    19  C    0.014743  -0.001759  -0.116594   0.013537   0.000811  -0.006586
    20  H   -0.004101  -0.001393   0.026301   0.006453  -0.005351   0.000171
    21  H   -0.001562  -0.000696   0.014197  -0.001698   0.011108   0.000353
    22  H    0.004275   0.001030  -0.026923  -0.002148  -0.007965  -0.001418
             13         14         15         16         17         18
     1  H    0.000107   0.000059  -0.005858  -0.000294   0.000042   0.000032
     2  C    0.002228   0.002289  -0.006967  -0.001917   0.006399  -0.001805
     3  H    0.000207   0.000225  -0.001279   0.000082   0.000747   0.000291
     4  H   -0.000435   0.000719   0.001081  -0.000422   0.000171  -0.000491
     5  C    0.006747   0.021516   0.032298   0.004584  -0.002677   0.003878
     6  O   -0.000288  -0.001366   0.033421  -0.002376   0.001682  -0.004284
     7  N    0.129161  -0.060377   0.284041  -0.035955   0.003621   0.000929
     8  H   -0.000060  -0.006878   0.002385  -0.015889  -0.016288   0.002247
     9  C   -0.182445   0.127305  -1.518714   0.045778   0.034773  -0.065407
    10  H   -0.046922  -0.039947   0.219680  -0.016942  -0.029437   0.024226
    11  C    0.267508   0.195409  -0.091462   0.015930   0.055001  -0.006640
    12  H   -0.142845  -0.216407  -0.054582   0.007200  -0.008657   0.000943
    13  H    1.132357  -0.144008   0.021057  -0.005576   0.000882   0.003342
    14  H   -0.144008   1.112630   0.033566   0.001078   0.013222  -0.003883
    15  C    0.021057   0.033566   5.782355   0.140964   0.065910  -0.035241
    16  O   -0.005576   0.001078   0.140964   8.806469  -0.133604   0.011575
    17  N    0.000882   0.013222   0.065910  -0.133604   7.178307   0.267330
    18  H    0.003342  -0.003883  -0.035241   0.011575   0.267330   0.976183
    19  C   -0.000700   0.003629  -0.049127   0.033264   0.217781  -0.091045
    20  H   -0.001320   0.000406   0.010237  -0.000507  -0.052369  -0.000169
    21  H    0.000439   0.000558  -0.080163   0.013837   0.027109  -0.005257
    22  H   -0.000064  -0.000337   0.023682   0.008819  -0.122350   0.016723
             19         20         21         22
     1  H    0.000153  -0.000029  -0.000086   0.000044
     2  C    0.000454   0.000199  -0.000459   0.000164
     3  H   -0.000127  -0.000057  -0.000062   0.000005
     4  H    0.000180   0.000126   0.000033  -0.000011
     5  C    0.015720  -0.003257  -0.001730   0.004270
     6  O   -0.000694   0.000304   0.000069  -0.000088
     7  N    0.014743  -0.004101  -0.001562   0.004275
     8  H   -0.001759  -0.001393  -0.000696   0.001030
     9  C   -0.116594   0.026301   0.014197  -0.026923
    10  H    0.013537   0.006453  -0.001698  -0.002148
    11  C    0.000811  -0.005351   0.011108  -0.007965
    12  H   -0.006586   0.000171   0.000353  -0.001418
    13  H   -0.000700  -0.001320   0.000439  -0.000064
    14  H    0.003629   0.000406   0.000558  -0.000337
    15  C   -0.049127   0.010237  -0.080163   0.023682
    16  O    0.033264  -0.000507   0.013837   0.008819
    17  N    0.217781  -0.052369   0.027109  -0.122350
    18  H   -0.091045  -0.000169  -0.005257   0.016723
    19  C    4.080210   0.438255   0.348551   0.382111
    20  H    0.438255   0.966806  -0.095219  -0.147438
    21  H    0.348551  -0.095219   1.015052  -0.163134
    22  H    0.382111  -0.147438  -0.163134   1.170147
 Mulliken atomic charges:
              1
     1  H    0.011700
     2  C    0.373972
     3  H    0.057235
     4  H   -0.118233
     5  C    0.619543
     6  O   -0.857371
     7  N   -0.342012
     8  H   -0.038490
     9  C   -0.228226
    10  H   -0.246500
    11  C    0.794164
    12  H   -0.021092
    13  H   -0.039373
    14  H   -0.039409
    15  C    1.192717
    16  O   -0.876098
    17  N   -0.507597
    18  H   -0.093478
    19  C    0.717232
    20  H   -0.138048
    21  H   -0.081241
    22  H   -0.139394
 Sum of Mulliken atomic charges =   0.00000
 Mulliken charges with hydrogens summed into heavy atoms:
              1
     2  C    0.324673
     5  C    0.619543
     6  O   -0.857371
     7  N   -0.380502
     9  C   -0.474726
    11  C    0.694289
    15  C    1.192717
    16  O   -0.876098
    17  N   -0.601074
    19  C    0.358548
 Sum of Mulliken charges with hydrogens summed into heavy atoms =   0.00000
 Electronic spatial extent (au):  <R**2>=           1799.7688
 Charge=              0.0000 electrons
 Dipole moment (field-independent basis, Debye):
    X=              0.7106    Y=              0.9756    Z=             -0.3841  Tot=              1.2665
 Quadrupole moment (field-independent basis, Debye-Ang):
   XX=            -54.2265   YY=            -60.0994   ZZ=            -66.3299
   XY=             -4.4254   XZ=            -12.6020   YZ=             -3.0271
 Traceless Quadrupole moment (field-independent basis, Debye-Ang):
   XX=              5.9921   YY=              0.1192   ZZ=             -6.1113
   XY=             -4.4254   XZ=            -12.6020   YZ=             -3.0271
 Octapole moment (field-independent basis, Debye-Ang**2):
  XXX=              1.8853  YYY=             -1.2735  ZZZ=             -6.1502  XYY=              7.4535
  XXY=            -11.5492  XXZ=              6.9150  XZZ=              2.0365  YZZ=              3.6568
  YYZ=              5.0504  XYZ=              7.0097
 Hexadecapole moment (field-independent basis, Debye-Ang**3):
 XXXX=          -1399.2217 YYYY=           -558.7103 ZZZZ=           -299.7970 XXXY=            -16.7031
 XXXZ=            -26.3251 YYYX=             -5.9525 YYYZ=             -3.0217 ZZZX=            -29.6167
 ZZZY=              3.3836 XXYY=           -342.7077 XXZZ=           -310.9983 YYZZ=           -143.0100
 XXYZ=             -9.9891 YYXZ=             -8.9832 ZZXY=            -15.5026
 N-N= 5.539644161391D+02 E-N=-2.263228116575D+03  KE= 4.920807783734D+02
 1\1\GINC-NODE011\SP\RMP2-FC\Aug-CC-pVDZ\C6H12N2O2\MANAGER\13-Feb-2017\
 0\\#SP MP2/aug-cc-pVDZ\\Single Point calculation at MP2\\0,1\H,0,-4.04
 37,-1.0148,0.1339\C,0,-3.1483,-0.8214,0.7297\H,0,-2.8847,-1.753,1.2435
 \H,0,-3.3694,-0.0578,1.4817\C,0,-2.0136,-0.4329,-0.2049\O,0,-1.828,-0.
 9975,-1.2761\N,0,-1.23,0.6123,0.2299\H,0,-1.2477,0.8205,1.2217\C,0,0.0
 425,0.8981,-0.4212\H,0,-0.0721,0.5727,-1.4581\C,0,0.3586,2.3974,-0.361
 3\H,0,0.4699,2.7223,0.6788\H,0,1.2964,2.6152,-0.884\H,0,-0.4467,2.9723
 ,-0.8285\C,0,1.1584,0.1033,0.2831\O,0,1.2481,0.1088,1.5077\N,0,2.0391,
 -0.5287,-0.5404\H,0,1.8004,-0.6029,-1.5194\C,0,3.1383,-1.3352,-0.0357\
 H,0,3.2798,-1.078,1.0148\H,0,2.921,-2.4081,-0.11\H,0,4.0569,-1.1197,-0
 .5914\\Version=EM64L-G09RevA.02\State=1-A\HF=-492.9280644\MP2=-494.528
 0519\RMSD=7.921e-09\PG=C01 [X(C6H12N2O2)]\\@


 Once you get people laughing, they're
 listening and you can tell them almost anything.
                                 -- Herb Gardner
 Job cpu time:  0 days 11 hours 30 minutes 50.1 seconds.
 File lengths (MBytes):  RWF=  10549 Int=      0 D2E=      0 Chk=      7 Scr=      2
 Normal termination of Gaussian 09 at Mon Feb 13 10:52:03 2017.
