 Entering Gaussian System, Link 0=g09
 Initial command:
 /home/steboss/Software/g09/l1.exe /home/steboss/projects/phi_psi_scan/alanine/MP2/240/5435/Gau-6581.inp -scrdir=/home/steboss/projects/phi_psi_scan/alanine/MP2/240/5435/
 Entering Link 1 = /home/steboss/Software/g09/l1.exe PID=      6583.
  
 Copyright (c) 1988,1990,1992,1993,1995,1998,2003,2009, Gaussian, Inc.
                  All Rights Reserved.
  
 This is part of the Gaussian(R) 09 program.  It is based on
 the Gaussian(R) 03 system (copyright 2003, Gaussian, Inc.),
 the Gaussian(R) 98 system (copyright 1998, Gaussian, Inc.),
 the Gaussian(R) 94 system (copyright 1995, Gaussian, Inc.),
 the Gaussian 92(TM) system (copyright 1992, Gaussian, Inc.),
 the Gaussian 90(TM) system (copyright 1990, Gaussian, Inc.),
 the Gaussian 88(TM) system (copyright 1988, Gaussian, Inc.),
 the Gaussian 86(TM) system (copyright 1986, Carnegie Mellon
 University), and the Gaussian 82(TM) system (copyright 1983,
 Carnegie Mellon University). Gaussian is a federally registered
 trademark of Gaussian, Inc.
  
 This software contains proprietary and confidential information,
 including trade secrets, belonging to Gaussian, Inc.
  
 This software is provided under written license and may be
 used, copied, transmitted, or stored only in accord with that
 written license.
  
 The following legend is applicable only to US Government
 contracts under FAR:
  
                    RESTRICTED RIGHTS LEGEND
  
 Use, reproduction and disclosure by the US Government is
 subject to restrictions as set forth in subparagraphs (a)
 and (c) of the Commercial Computer Software - Restricted
 Rights clause in FAR 52.227-19.
  
 Gaussian, Inc.
 340 Quinnipiac St., Bldg. 40, Wallingford CT 06492
  
  
 ---------------------------------------------------------------
 Warning -- This program may not be used in any manner that
 competes with the business of Gaussian, Inc. or will provide
 assistance to any competitor of Gaussian, Inc.  The licensee
 of this program is prohibited from giving any competitor of
 Gaussian, Inc. access to this program.  By using this program,
 the user acknowledges that Gaussian, Inc. is engaged in the
 business of creating and licensing software in the field of
 computational chemistry and represents and warrants to the
 licensee that it is not a competitor of Gaussian, Inc. and that
 it will not use this program in any manner prohibited above.
 ---------------------------------------------------------------
  

 Cite this work as:
 Gaussian 09, Revision A.02,
 M. J. Frisch, G. W. Trucks, H. B. Schlegel, G. E. Scuseria, 
 M. A. Robb, J. R. Cheeseman, G. Scalmani, V. Barone, B. Mennucci, 
 G. A. Petersson, H. Nakatsuji, M. Caricato, X. Li, H. P. Hratchian, 
 A. F. Izmaylov, J. Bloino, G. Zheng, J. L. Sonnenberg, M. Hada, 
 M. Ehara, K. Toyota, R. Fukuda, J. Hasegawa, M. Ishida, T. Nakajima, 
 Y. Honda, O. Kitao, H. Nakai, T. Vreven, J. A. Montgomery, Jr., 
 J. E. Peralta, F. Ogliaro, M. Bearpark, J. J. Heyd, E. Brothers, 
 K. N. Kudin, V. N. Staroverov, R. Kobayashi, J. Normand, 
 K. Raghavachari, A. Rendell, J. C. Burant, S. S. Iyengar, J. Tomasi, 
 M. Cossi, N. Rega, J. M. Millam, M. Klene, J. E. Knox, J. B. Cross, 
 V. Bakken, C. Adamo, J. Jaramillo, R. Gomperts, R. E. Stratmann, 
 O. Yazyev, A. J. Austin, R. Cammi, C. Pomelli, J. W. Ochterski, 
 R. L. Martin, K. Morokuma, V. G. Zakrzewski, G. A. Voth, 
 P. Salvador, J. J. Dannenberg, S. Dapprich, A. D. Daniels, 
 O. Farkas, J. B. Foresman, J. V. Ortiz, J. Cioslowski, 
 and D. J. Fox, Gaussian, Inc., Wallingford CT, 2009.
 
 ******************************************
 Gaussian 09:  EM64L-G09RevA.02 11-Jun-2009
                13-Feb-2017 
 ******************************************
 %chk=structure_300.chk
 %NProcShared=8
 Will use up to    8 processors via shared memory.
 -------------------
 #SP MP2/aug-cc-pVDZ
 -------------------
 1/38=1/1;
 2/12=2,17=6,18=5,40=1/2;
 3/5=16,7=10,11=9,16=1,25=1,30=1/1,2,3;
 4//1;
 5/5=2,38=5/2;
 8/10=1/1;
 9/16=-3/6;
 6/7=2,8=2,9=2,10=2/1;
 99/5=1,9=1/99;
 -------------------------------
 Single Point calculation at MP2
 -------------------------------
 Symbolic Z-matrix:
 Charge =  0 Multiplicity = 1
 H                     4.0105   -1.1512   -0.5912 
 C                     2.9869   -1.464    -0.3693 
 H                     3.0357   -2.1918    0.4481 
 H                     2.5619   -1.9542   -1.2513 
 C                     2.1961   -0.2509    0.0992 
 O                     2.6401    0.5359    0.9227 
 N                     0.9575   -0.101    -0.4822 
 H                     0.601    -0.8709   -1.0319 
 C                    -0.0112    0.8763    0.0195 
 H                     0.4288    1.3002    0.9233 
 C                    -0.2671    2.0002   -0.9972 
 H                    -0.6403    1.6154   -1.955 
 H                    -0.9996    2.716    -0.6076 
 H                     0.6676    2.5327   -1.1963 
 C                    -1.305     0.1726    0.47 
 O                    -1.6949    0.1989    1.627 
 N                    -1.9555   -0.5358   -0.515 
 H                    -1.7546   -0.2957   -1.4769 
 C                    -3.2349   -1.179    -0.2492 
 H                    -3.2119   -1.5772    0.766 
 H                    -4.0769   -0.4779   -0.3227 
 H                    -3.3874   -1.997    -0.9589 
 
                          Input orientation:                          
 ---------------------------------------------------------------------
 Center     Atomic      Atomic             Coordinates (Angstroms)
 Number     Number       Type             X           Y           Z
 ---------------------------------------------------------------------
      1          1           0        4.010500   -1.151200   -0.591200
      2          6           0        2.986900   -1.464000   -0.369300
      3          1           0        3.035700   -2.191800    0.448100
      4          1           0        2.561900   -1.954200   -1.251300
      5          6           0        2.196100   -0.250900    0.099200
      6          8           0        2.640100    0.535900    0.922700
      7          7           0        0.957500   -0.101000   -0.482200
      8          1           0        0.601000   -0.870900   -1.031900
      9          6           0       -0.011200    0.876300    0.019500
     10          1           0        0.428800    1.300200    0.923300
     11          6           0       -0.267100    2.000200   -0.997200
     12          1           0       -0.640300    1.615400   -1.955000
     13          1           0       -0.999600    2.716000   -0.607600
     14          1           0        0.667600    2.532700   -1.196300
     15          6           0       -1.305000    0.172600    0.470000
     16          8           0       -1.694900    0.198900    1.627000
     17          7           0       -1.955500   -0.535800   -0.515000
     18          1           0       -1.754600   -0.295700   -1.476900
     19          6           0       -3.234900   -1.179000   -0.249200
     20          1           0       -3.211900   -1.577200    0.766000
     21          1           0       -4.076900   -0.477900   -0.322700
     22          1           0       -3.387400   -1.997000   -0.958900
 ---------------------------------------------------------------------
                    Distance matrix (angstroms):
                    1          2          3          4          5
     1  H    0.000000
     2  C    1.093088   0.000000
     3  H    1.764434   1.095544   0.000000
     4  H    1.782970   1.094918   1.780141   0.000000
     5  C    2.139916   1.521995   2.143304   2.204289   0.000000
     6  O    2.648810   2.406062   2.796800   3.306507   1.222433
     7  N    3.230419   2.447239   3.091249   2.569040   1.376454
     8  H    3.449272   2.546237   3.140532   2.250956   2.051373
     9  C    4.545083   3.823189   4.345174   4.030820   2.479739
    10  H    4.596917   3.981896   4.383584   4.457591   2.491666
    11  C    5.328604   4.794106   5.529036   4.868787   3.512392
    12  H    5.580678   5.015349   5.812283   4.846785   3.968372
    13  H    6.329029   5.781122   6.440858   5.908418   4.417529
    14  H    5.011212   4.694326   5.534695   4.870695   3.429732
    15  C    5.579707   4.669399   4.942929   4.736989   3.546061
    16  O    6.268554   5.354410   5.429901   5.571427   4.204328
    17  N    5.998140   5.030915   5.346211   4.791753   4.206447
    18  H    5.895144   5.007347   5.499799   4.629653   4.253719
    19  C    7.253520   6.229482   6.390025   5.933635   5.520735
    20  H    7.361150   6.302923   6.285801   6.127674   5.608044
    21  H    8.119819   7.132449   7.356675   6.864068   6.291268
    22  H    7.455166   6.423661   6.578283   5.956635   5.945075
                    6          7          8          9         10
     6  O    0.000000
     7  N    2.282658   0.000000
     8  H    3.155547   1.010944   0.000000
     9  C    2.821530   1.464649   2.129070   0.000000
    10  H    2.339659   2.053854   2.926796   1.090938   0.000000
    11  C    3.779154   2.485943   2.999669   1.536982   2.159305
    12  H    4.495275   2.769140   2.928246   2.200156   3.086574
    13  H    4.510218   3.432412   3.950671   2.180524   2.527542
    14  H    3.516835   2.744150   3.408219   2.163932   2.463491
    15  C    3.987573   2.469909   2.641483   1.540150   2.117316
    16  O    4.404751   3.402042   3.672244   2.424412   2.493623
    17  N    4.933058   2.945453   2.629671   2.461711   3.335339
    18  H    5.075729   2.895310   2.465306   2.579194   3.615950
    19  C    6.231361   4.335042   3.927044   3.832584   4.576449
    20  H    6.223797   4.595766   4.274285   4.101391   4.643153
    21  H    6.906294   5.051008   4.747648   4.298939   5.001549
    22  H    6.803437   4.764474   4.144969   4.540027   5.383083
                   11         12         13         14         15
    11  C    0.000000
    12  H    1.097602   0.000000
    13  H    1.095771   1.776486   0.000000
    14  H    1.094011   1.768521   1.777561   0.000000
    15  C    2.563208   2.898987   2.779096   3.498254   0.000000
    16  O    3.488513   3.993667   3.436957   4.358790   1.221214
    17  N    3.084560   2.903621   3.390652   4.093961   1.376665
    18  H    2.777395   2.263305   3.224290   3.734386   2.052283
    19  C    4.413010   4.177364   4.505113   5.468384   2.463450
    20  H    4.957672   4.920332   5.021216   5.982677   2.604934
    21  H    4.594617   4.342410   4.444316   5.686578   2.955495
    22  H    5.071030   4.646311   5.295033   6.084206   3.329461
                   16         17         18         19         20
    16  O    0.000000
    17  N    2.279443   0.000000
    18  H    3.143627   1.011563   0.000000
    19  C    2.791117   1.456441   2.116307   0.000000
    20  H    2.489406   2.074612   2.965901   1.090744   0.000000
    21  H    3.151716   2.130885   2.599702   1.098138   1.772556
    22  H    3.791228   2.093440   2.414287   1.093643   1.783904
                   21         22
    21  H    0.000000
    22  H    1.785448   0.000000
 Stoichiometry    C6H12N2O2
 Framework group  C1[X(C6H12N2O2)]
 Deg. of freedom    60
 Full point group                 C1      NOp   1
 Largest Abelian subgroup         C1      NOp   1
 Largest concise Abelian subgroup C1      NOp   1
                         Standard orientation:                         
 ---------------------------------------------------------------------
 Center     Atomic      Atomic             Coordinates (Angstroms)
 Number     Number       Type             X           Y           Z
 ---------------------------------------------------------------------
      1          1           0        4.010509   -1.151209   -0.591210
      2          6           0        2.986909   -1.464008   -0.369310
      3          1           0        3.035708   -2.191808    0.448090
      4          1           0        2.561908   -1.954208   -1.251310
      5          6           0        2.196110   -0.250907    0.099190
      6          8           0        2.640111    0.535892    0.922690
      7          7           0        0.957510   -0.101006   -0.482210
      8          1           0        0.601009   -0.870906   -1.031910
      9          6           0       -0.011189    0.876295    0.019490
     10          1           0        0.428812    1.300194    0.923290
     11          6           0       -0.267088    2.000195   -0.997210
     12          1           0       -0.640288    1.615396   -1.955010
     13          1           0       -0.999587    2.715996   -0.607610
     14          1           0        0.667613    2.532694   -1.196310
     15          6           0       -1.304990    0.172596    0.469990
     16          8           0       -1.694890    0.198897    1.626990
     17          7           0       -1.955490   -0.535803   -0.515010
     18          1           0       -1.754590   -0.295703   -1.476910
     19          6           0       -3.234891   -1.179002   -0.249210
     20          1           0       -3.211891   -1.577202    0.765990
     21          1           0       -4.076890   -0.477901   -0.322710
     22          1           0       -3.387392   -1.997002   -0.958910
 ---------------------------------------------------------------------
 Rotational constants (GHZ):      2.1134021      0.7167770      0.6667564
 Standard basis: Aug-CC-pVDZ (5D, 7F)
 There are   338 symmetry adapted basis functions of A   symmetry.
 Integral buffers will be    131072 words long.
 Raffenetti 1 integral format.
 Two-electron integral symmetry is turned on.
   338 basis functions,   562 primitive gaussians,   358 cartesian basis functions
    39 alpha electrons       39 beta electrons
       nuclear repulsion energy       549.2074313251 Hartrees.
 NAtoms=   22 NActive=   22 NUniq=   22 SFac= 7.50D-01 NAtFMM=   80 NAOKFM=F Big=F
 One-electron integrals computed using PRISM.
 NBasis=   338 RedAO= T  NBF=   338
 NBsUse=   338 1.00D-06 NBFU=   338
 Harris functional with IExCor=  205 diagonalized for initial guess.
 ExpMin= 2.97D-02 ExpMax= 1.17D+04 ExpMxC= 4.01D+02 IAcc=3 IRadAn=         0 AccDes= 0.00D+00
 HarFok:  IExCor=  205 AccDes= 0.00D+00 IRadAn=         0 IDoV= 1
 ScaDFX=  1.000000  1.000000  1.000000  1.000000
 FoFCou: FMM=F IPFlag=           0 FMFlag=      100000 FMFlg1=           0
         NFxFlg=           0 DoJE=T BraDBF=F KetDBF=T FulRan=T
         Omega=  0.000000  0.000000  1.000000  0.000000  0.000000 ICntrl=     500 IOpCl=  0
         NMat0=    1 NMatS0=    1 NMatT0=    0 NMatD0=    1 NMtDS0=    0 NMtDT0=    0
         I1Cent=           4 NGrid=           0.
 Petite list used in FoFCou.
 Initial guess orbital symmetries:
       Occupied  (A) (A) (A) (A) (A) (A) (A) (A) (A) (A) (A) (A)
                 (A) (A) (A) (A) (A) (A) (A) (A) (A) (A) (A) (A)
                 (A) (A) (A) (A) (A) (A) (A) (A) (A) (A) (A) (A)
                 (A) (A) (A)
       Virtual   (A) (A) (A) (A) (A) (A) (A) (A) (A) (A) (A) (A)
                 (A) (A) (A) (A) (A) (A) (A) (A) (A) (A) (A) (A)
                 (A) (A) (A) (A) (A) (A) (A) (A) (A) (A) (A) (A)
                 (A) (A) (A) (A) (A) (A) (A) (A) (A) (A) (A) (A)
                 (A) (A) (A) (A) (A) (A) (A) (A) (A) (A) (A) (A)
                 (A) (A) (A) (A) (A) (A) (A) (A) (A) (A) (A) (A)
                 (A) (A) (A) (A) (A) (A) (A) (A) (A) (A) (A) (A)
                 (A) (A) (A) (A) (A) (A) (A) (A) (A) (A) (A) (A)
                 (A) (A) (A) (A) (A) (A) (A) (A) (A) (A) (A) (A)
                 (A) (A) (A) (A) (A) (A) (A) (A) (A) (A) (A) (A)
                 (A) (A) (A) (A) (A) (A) (A) (A) (A) (A) (A) (A)
                 (A) (A) (A) (A) (A) (A) (A) (A) (A) (A) (A) (A)
                 (A) (A) (A) (A) (A) (A) (A) (A) (A) (A) (A) (A)
                 (A) (A) (A) (A) (A) (A) (A) (A) (A) (A) (A) (A)
                 (A) (A) (A) (A) (A) (A) (A) (A) (A) (A) (A) (A)
                 (A) (A) (A) (A) (A) (A) (A) (A) (A) (A) (A) (A)
                 (A) (A) (A) (A) (A) (A) (A) (A) (A) (A) (A) (A)
                 (A) (A) (A) (A) (A) (A) (A) (A) (A) (A) (A) (A)
                 (A) (A) (A) (A) (A) (A) (A) (A) (A) (A) (A) (A)
                 (A) (A) (A) (A) (A) (A) (A) (A) (A) (A) (A) (A)
                 (A) (A) (A) (A) (A) (A) (A) (A) (A) (A) (A) (A)
                 (A) (A) (A) (A) (A) (A) (A) (A) (A) (A) (A) (A)
                 (A) (A) (A) (A) (A) (A) (A) (A) (A) (A) (A) (A)
                 (A) (A) (A) (A) (A) (A) (A) (A) (A) (A) (A) (A)
                 (A) (A) (A) (A) (A) (A) (A) (A) (A) (A) (A)
 The electronic state of the initial guess is 1-A.
 Requested convergence on RMS density matrix=1.00D-08 within 128 cycles.
 Requested convergence on MAX density matrix=1.00D-06.
 Requested convergence on             energy=1.00D-06.
 No special actions if energy rises.
 Initial convergence to 1.0D-05 achieved.  Increase integral accuracy.
 SCF Done:  E(RHF) =  -492.918072138     A.U. after   14 cycles
             Convg  =    0.7995D-08             -V/T =  2.0017
 ExpMin= 2.97D-02 ExpMax= 1.17D+04 ExpMxC= 4.01D+02 IAcc=3 IRadAn=         5 AccDes= 0.00D+00
 HarFok:  IExCor=  205 AccDes= 0.00D+00 IRadAn=         5 IDoV=-2
 ScaDFX=  1.000000  1.000000  1.000000  1.000000
 Range of M.O.s used for correlation:    11   338
 NBasis=   338 NAE=    39 NBE=    39 NFC=    10 NFV=     0
 NROrb=    328 NOA=    29 NOB=    29 NVA=   299 NVB=   299

 **** Warning!!: The largest alpha MO coefficient is  0.67407124D+02

 Disk-based method using OVN memory for 29 occupieds at a time.
 Estimated scratch disk usage=  1378263822 words.
 Actual    scratch disk usage=  1365300141 words.
 JobTyp=1 Pass  1:  I=   1 to  29 NPSUse=  8 ParTrn=T ParDer=T DoDerP=F.
 Spin components of T(2) and E(2):
     alpha-alpha T2 =       0.6788244070D-01 E2=     -0.2054422981D+00
     alpha-beta  T2 =       0.3769667956D+00 E2=     -0.1189879943D+01
     beta-beta   T2 =       0.6788244070D-01 E2=     -0.2054422981D+00
 ANorm=    0.1229931574D+01
 E2 =    -0.1600764539D+01 EUMP2 =    -0.49451883667711D+03

 **********************************************************************

            Population analysis using the SCF density.

 **********************************************************************

 Orbital symmetries:
       Occupied  (A) (A) (A) (A) (A) (A) (A) (A) (A) (A) (A) (A)
                 (A) (A) (A) (A) (A) (A) (A) (A) (A) (A) (A) (A)
                 (A) (A) (A) (A) (A) (A) (A) (A) (A) (A) (A) (A)
                 (A) (A) (A)
       Virtual   (A) (A) (A) (A) (A) (A) (A) (A) (A) (A) (A) (A)
                 (A) (A) (A) (A) (A) (A) (A) (A) (A) (A) (A) (A)
                 (A) (A) (A) (A) (A) (A) (A) (A) (A) (A) (A) (A)
                 (A) (A) (A) (A) (A) (A) (A) (A) (A) (A) (A) (A)
                 (A) (A) (A) (A) (A) (A) (A) (A) (A) (A) (A) (A)
                 (A) (A) (A) (A) (A) (A) (A) (A) (A) (A) (A) (A)
                 (A) (A) (A) (A) (A) (A) (A) (A) (A) (A) (A) (A)
                 (A) (A) (A) (A) (A) (A) (A) (A) (A) (A) (A) (A)
                 (A) (A) (A) (A) (A) (A) (A) (A) (A) (A) (A) (A)
                 (A) (A) (A) (A) (A) (A) (A) (A) (A) (A) (A) (A)
                 (A) (A) (A) (A) (A) (A) (A) (A) (A) (A) (A) (A)
                 (A) (A) (A) (A) (A) (A) (A) (A) (A) (A) (A) (A)
                 (A) (A) (A) (A) (A) (A) (A) (A) (A) (A) (A) (A)
                 (A) (A) (A) (A) (A) (A) (A) (A) (A) (A) (A) (A)
                 (A) (A) (A) (A) (A) (A) (A) (A) (A) (A) (A) (A)
                 (A) (A) (A) (A) (A) (A) (A) (A) (A) (A) (A) (A)
                 (A) (A) (A) (A) (A) (A) (A) (A) (A) (A) (A) (A)
                 (A) (A) (A) (A) (A) (A) (A) (A) (A) (A) (A) (A)
                 (A) (A) (A) (A) (A) (A) (A) (A) (A) (A) (A) (A)
                 (A) (A) (A) (A) (A) (A) (A) (A) (A) (A) (A) (A)
                 (A) (A) (A) (A) (A) (A) (A) (A) (A) (A) (A) (A)
                 (A) (A) (A) (A) (A) (A) (A) (A) (A) (A) (A) (A)
                 (A) (A) (A) (A) (A) (A) (A) (A) (A) (A) (A) (A)
                 (A) (A) (A) (A) (A) (A) (A) (A) (A) (A) (A) (A)
                 (A) (A) (A) (A) (A) (A) (A) (A) (A) (A) (A)
 The electronic state is 1-A.
 Alpha  occ. eigenvalues --  -20.54158 -20.53263 -15.60411 -15.60296 -11.36692
 Alpha  occ. eigenvalues --  -11.36559 -11.29172 -11.27557 -11.25082 -11.24604
 Alpha  occ. eigenvalues --   -1.39476  -1.38632  -1.25098  -1.23070  -1.05948
 Alpha  occ. eigenvalues --   -0.99602  -0.96159  -0.88705  -0.80114  -0.79391
 Alpha  occ. eigenvalues --   -0.73380  -0.67779  -0.65926  -0.64262  -0.63483
 Alpha  occ. eigenvalues --   -0.61903  -0.59653  -0.59081  -0.58074  -0.57019
 Alpha  occ. eigenvalues --   -0.55735  -0.54613  -0.52620  -0.52160  -0.50277
 Alpha  occ. eigenvalues --   -0.44600  -0.42654  -0.40592  -0.39096
 Alpha virt. eigenvalues --    0.02090   0.03676   0.03979   0.04649   0.05644
 Alpha virt. eigenvalues --    0.05895   0.06288   0.06583   0.07459   0.07804
 Alpha virt. eigenvalues --    0.08450   0.09610   0.11145   0.11849   0.12173
 Alpha virt. eigenvalues --    0.13049   0.13361   0.14342   0.14645   0.14963
 Alpha virt. eigenvalues --    0.15751   0.15838   0.16466   0.17031   0.17246
 Alpha virt. eigenvalues --    0.17362   0.18135   0.18277   0.18982   0.19236
 Alpha virt. eigenvalues --    0.19370   0.20017   0.20965   0.21669   0.21997
 Alpha virt. eigenvalues --    0.22299   0.23603   0.24728   0.25093   0.25689
 Alpha virt. eigenvalues --    0.26725   0.27466   0.29271   0.29676   0.30476
 Alpha virt. eigenvalues --    0.30659   0.31309   0.32151   0.32881   0.33666
 Alpha virt. eigenvalues --    0.33812   0.34527   0.35257   0.35608   0.36405
 Alpha virt. eigenvalues --    0.37400   0.37698   0.38132   0.38999   0.39242
 Alpha virt. eigenvalues --    0.40833   0.41641   0.41886   0.42503   0.42828
 Alpha virt. eigenvalues --    0.43144   0.43718   0.44574   0.44741   0.45297
 Alpha virt. eigenvalues --    0.45345   0.45743   0.46543   0.47023   0.48056
 Alpha virt. eigenvalues --    0.48395   0.49111   0.50328   0.51603   0.51845
 Alpha virt. eigenvalues --    0.53339   0.54112   0.54246   0.54752   0.55025
 Alpha virt. eigenvalues --    0.55817   0.56738   0.56928   0.57983   0.58581
 Alpha virt. eigenvalues --    0.58961   0.59850   0.60056   0.60846   0.61728
 Alpha virt. eigenvalues --    0.62634   0.63208   0.63833   0.64077   0.64506
 Alpha virt. eigenvalues --    0.65081   0.66097   0.67010   0.67141   0.67958
 Alpha virt. eigenvalues --    0.68549   0.69573   0.70466   0.70992   0.71092
 Alpha virt. eigenvalues --    0.71685   0.72729   0.73232   0.74409   0.74701
 Alpha virt. eigenvalues --    0.75564   0.76183   0.77501   0.78198   0.78901
 Alpha virt. eigenvalues --    0.79538   0.80222   0.81550   0.82661   0.82955
 Alpha virt. eigenvalues --    0.83889   0.84292   0.85518   0.86943   0.87810
 Alpha virt. eigenvalues --    0.89503   0.90332   0.90593   0.92088   0.93627
 Alpha virt. eigenvalues --    0.94668   0.95500   0.96624   0.97179   0.97843
 Alpha virt. eigenvalues --    0.99032   0.99398   1.01762   1.03183   1.05603
 Alpha virt. eigenvalues --    1.06748   1.07860   1.08641   1.10192   1.10572
 Alpha virt. eigenvalues --    1.11520   1.11876   1.13429   1.14768   1.15147
 Alpha virt. eigenvalues --    1.15277   1.17179   1.18538   1.19442   1.20573
 Alpha virt. eigenvalues --    1.22880   1.23220   1.24791   1.25635   1.28733
 Alpha virt. eigenvalues --    1.29837   1.32210   1.33916   1.35009   1.35695
 Alpha virt. eigenvalues --    1.37697   1.40669   1.42778   1.44289   1.46608
 Alpha virt. eigenvalues --    1.47653   1.47690   1.49698   1.50049   1.54110
 Alpha virt. eigenvalues --    1.54803   1.56688   1.59029   1.61710   1.63189
 Alpha virt. eigenvalues --    1.65017   1.65864   1.67870   1.70304   1.72011
 Alpha virt. eigenvalues --    1.74060   1.74590   1.76914   1.79232   1.80230
 Alpha virt. eigenvalues --    1.83997   1.84184   1.85006   1.86362   1.87336
 Alpha virt. eigenvalues --    1.88990   1.89309   1.89941   1.91912   1.92545
 Alpha virt. eigenvalues --    1.93971   1.95601   1.96506   1.98039   2.00095
 Alpha virt. eigenvalues --    2.01989   2.04047   2.05552   2.07887   2.09043
 Alpha virt. eigenvalues --    2.10675   2.11292   2.12755   2.14976   2.16632
 Alpha virt. eigenvalues --    2.17415   2.19065   2.20171   2.21456   2.22994
 Alpha virt. eigenvalues --    2.23422   2.24734   2.26784   2.27898   2.28968
 Alpha virt. eigenvalues --    2.30169   2.33012   2.34616   2.35819   2.36860
 Alpha virt. eigenvalues --    2.37058   2.40125   2.41693   2.41974   2.42861
 Alpha virt. eigenvalues --    2.44578   2.47124   2.48718   2.49699   2.50082
 Alpha virt. eigenvalues --    2.53580   2.54586   2.56288   2.57905   2.58614
 Alpha virt. eigenvalues --    2.62545   2.63067   2.63596   2.66934   2.68243
 Alpha virt. eigenvalues --    2.68528   2.72600   2.75841   2.76589   2.77619
 Alpha virt. eigenvalues --    2.80535   2.82456   2.84616   2.86403   2.87377
 Alpha virt. eigenvalues --    2.88206   2.91328   2.92012   2.93591   2.96677
 Alpha virt. eigenvalues --    2.99302   3.01251   3.01867   3.03501   3.08313
 Alpha virt. eigenvalues --    3.12509   3.13873   3.15881   3.19906   3.21333
 Alpha virt. eigenvalues --    3.27955   3.29900   3.41041   3.41307   3.51003
 Alpha virt. eigenvalues --    3.59443   3.68028   3.76306   3.81635   3.82411
 Alpha virt. eigenvalues --    3.83966   3.87558   3.90328   3.95352   4.01604
 Alpha virt. eigenvalues --    4.02090   4.15078   4.19597   4.30867
          Condensed to atoms (all electrons):
              1          2          3          4          5          6
     1  H    0.759141   0.382580  -0.049145  -0.098103  -0.078008   0.027136
     2  C    0.382580   4.519153   0.315480   0.379984   0.239654  -0.040970
     3  H   -0.049145   0.315480   0.723024  -0.069313  -0.056360   0.016639
     4  H   -0.098103   0.379984  -0.069313   1.123736   0.113084  -0.015394
     5  C   -0.078008   0.239654  -0.056360   0.113084   5.504969   0.153477
     6  O    0.027136  -0.040970   0.016639  -0.015394   0.153477   8.707608
     7  N    0.047603  -0.091780   0.054836  -0.227731   0.086141  -0.125616
     8  H   -0.003456  -0.077838  -0.004194  -0.005594  -0.166223   0.005963
     9  C   -0.001043   0.055609   0.000373   0.000207  -0.242594   0.118386
    10  H   -0.001098  -0.014111  -0.002695   0.001012   0.022541  -0.017625
    11  C    0.000383  -0.019190   0.003116  -0.015758  -0.082861   0.002588
    12  H   -0.000722  -0.004684   0.000182  -0.000183  -0.014436  -0.000583
    13  H    0.000396   0.002945   0.000228  -0.001124  -0.003971  -0.000412
    14  H    0.000176   0.000676  -0.000192  -0.000281   0.008732   0.003704
    15  C   -0.005040  -0.047710   0.005995  -0.010804  -0.059129   0.003074
    16  O    0.000090   0.000432  -0.000038  -0.000195   0.005288  -0.001836
    17  N   -0.000648   0.001339   0.001740   0.002042  -0.016898  -0.001610
    18  H    0.000448   0.005775  -0.000021   0.000634  -0.005767   0.000696
    19  C   -0.000437  -0.005795   0.000374  -0.001793  -0.006159  -0.000379
    20  H   -0.000122  -0.000862   0.000150   0.000112   0.000226  -0.000265
    21  H    0.000001   0.000048  -0.000008   0.000116  -0.000010   0.000023
    22  H   -0.000012  -0.000217  -0.000009  -0.000472  -0.000675   0.000100
              7          8          9         10         11         12
     1  H    0.047603  -0.003456  -0.001043  -0.001098   0.000383  -0.000722
     2  C   -0.091780  -0.077838   0.055609  -0.014111  -0.019190  -0.004684
     3  H    0.054836  -0.004194   0.000373  -0.002695   0.003116   0.000182
     4  H   -0.227731  -0.005594   0.000207   0.001012  -0.015758  -0.000183
     5  C    0.086141  -0.166223  -0.242594   0.022541  -0.082861  -0.014436
     6  O   -0.125616   0.005963   0.118386  -0.017625   0.002588  -0.000583
     7  N    7.835487   0.334808  -0.682711  -0.031069   0.059815  -0.099542
     8  H    0.334808   1.022919  -0.166241   0.000465   0.021907   0.003358
     9  C   -0.682711  -0.166241   8.446280  -0.386598  -0.111991  -0.049471
    10  H   -0.031069   0.000465  -0.386598   1.389606  -0.024427   0.068821
    11  C    0.059815   0.021907  -0.111991  -0.024427   4.296126   0.353664
    12  H   -0.099542   0.003358  -0.049471   0.068821   0.353664   1.165910
    13  H    0.143946   0.004398  -0.234730  -0.060169   0.396366  -0.139596
    14  H   -0.066054  -0.000224   0.165924  -0.041378   0.256826  -0.216349
    15  C   -0.034525   0.069266  -0.529509   0.151200  -0.003958   0.073912
    16  O   -0.008357  -0.005168   0.033617   0.034805   0.008464  -0.004125
    17  N    0.002072   0.010909  -0.151563   0.034303   0.055388  -0.014177
    18  H   -0.002539  -0.006214   0.051331  -0.005906  -0.020537   0.002730
    19  C   -0.008000   0.020314  -0.105262   0.011372  -0.000806   0.000345
    20  H   -0.003232   0.001786   0.001402   0.003237  -0.007464   0.003454
    21  H   -0.001045  -0.003682   0.042730   0.001199  -0.000737  -0.002161
    22  H   -0.002650   0.002418  -0.028136  -0.001137   0.003607  -0.002160
             13         14         15         16         17         18
     1  H    0.000396   0.000176  -0.005040   0.000090  -0.000648   0.000448
     2  C    0.002945   0.000676  -0.047710   0.000432   0.001339   0.005775
     3  H    0.000228  -0.000192   0.005995  -0.000038   0.001740  -0.000021
     4  H   -0.001124  -0.000281  -0.010804  -0.000195   0.002042   0.000634
     5  C   -0.003971   0.008732  -0.059129   0.005288  -0.016898  -0.005767
     6  O   -0.000412   0.003704   0.003074  -0.001836  -0.001610   0.000696
     7  N    0.143946  -0.066054  -0.034525  -0.008357   0.002072  -0.002539
     8  H    0.004398  -0.000224   0.069266  -0.005168   0.010909  -0.006214
     9  C   -0.234730   0.165924  -0.529509   0.033617  -0.151563   0.051331
    10  H   -0.060169  -0.041378   0.151200   0.034805   0.034303  -0.005906
    11  C    0.396366   0.256826  -0.003958   0.008464   0.055388  -0.020537
    12  H   -0.139596  -0.216349   0.073912  -0.004125  -0.014177   0.002730
    13  H    1.107762  -0.145883  -0.061334   0.004588   0.020284  -0.001571
    14  H   -0.145883   1.093806   0.011391  -0.000003   0.010869  -0.001560
    15  C   -0.061334   0.011391   5.197232   0.222275   0.208205  -0.091095
    16  O    0.004588  -0.000003   0.222275   8.666251  -0.135783   0.005817
    17  N    0.020284   0.010869   0.208205  -0.135783   7.165975   0.283976
    18  H   -0.001571  -0.001560  -0.091095   0.005817   0.283976   0.979049
    19  C   -0.005812   0.004769  -0.022297  -0.016215   0.181100  -0.110710
    20  H   -0.002251  -0.000539   0.040212  -0.023697  -0.051570  -0.002029
    21  H   -0.000089   0.000690  -0.043162   0.004023   0.100087  -0.005573
    22  H    0.000418   0.000623  -0.025418   0.010229  -0.166736   0.016541
             19         20         21         22
     1  H   -0.000437  -0.000122   0.000001  -0.000012
     2  C   -0.005795  -0.000862   0.000048  -0.000217
     3  H    0.000374   0.000150  -0.000008  -0.000009
     4  H   -0.001793   0.000112   0.000116  -0.000472
     5  C   -0.006159   0.000226  -0.000010  -0.000675
     6  O   -0.000379  -0.000265   0.000023   0.000100
     7  N   -0.008000  -0.003232  -0.001045  -0.002650
     8  H    0.020314   0.001786  -0.003682   0.002418
     9  C   -0.105262   0.001402   0.042730  -0.028136
    10  H    0.011372   0.003237   0.001199  -0.001137
    11  C   -0.000806  -0.007464  -0.000737   0.003607
    12  H    0.000345   0.003454  -0.002161  -0.002160
    13  H   -0.005812  -0.002251  -0.000089   0.000418
    14  H    0.004769  -0.000539   0.000690   0.000623
    15  C   -0.022297   0.040212  -0.043162  -0.025418
    16  O   -0.016215  -0.023697   0.004023   0.010229
    17  N    0.181100  -0.051570   0.100087  -0.166736
    18  H   -0.110710  -0.002029  -0.005573   0.016541
    19  C    4.147874   0.426967   0.254672   0.480514
    20  H    0.426967   0.976443  -0.085798  -0.170801
    21  H    0.254672  -0.085798   0.980074  -0.178043
    22  H    0.480514  -0.170801  -0.178043   1.233219
 Mulliken atomic charges:
              1
     1  H    0.019879
     2  C    0.399479
     3  H    0.059838
     4  H   -0.174183
     5  C    0.598978
     6  O   -0.834705
     7  N   -0.179855
     8  H   -0.059675
     9  C   -0.226011
    10  H   -0.132349
    11  C    0.829479
    12  H   -0.124186
    13  H   -0.024390
    14  H   -0.085725
    15  C    0.951220
    16  O   -0.800461
    17  N   -0.539304
    18  H   -0.093475
    19  C    0.755363
    20  H   -0.105360
    21  H   -0.063355
    22  H   -0.171203
 Sum of Mulliken atomic charges =   0.00000
 Mulliken charges with hydrogens summed into heavy atoms:
              1
     2  C    0.305013
     5  C    0.598978
     6  O   -0.834705
     7  N   -0.239530
     9  C   -0.358359
    11  C    0.595178
    15  C    0.951220
    16  O   -0.800461
    17  N   -0.632779
    19  C    0.415446
 Sum of Mulliken charges with hydrogens summed into heavy atoms =   0.00000
 Electronic spatial extent (au):  <R**2>=           1881.1210
 Charge=              0.0000 electrons
 Dipole moment (field-independent basis, Debye):
    X=             -1.7349    Y=             -2.4409    Z=             -6.0262  Tot=              6.7292
 Quadrupole moment (field-independent basis, Debye-Ang):
   XX=            -63.6702   YY=            -57.1039   ZZ=            -66.8803
   XY=             -4.4012   XZ=              1.3038   YZ=             -1.0718
 Traceless Quadrupole moment (field-independent basis, Debye-Ang):
   XX=             -1.1188   YY=              5.4476   ZZ=             -4.3288
   XY=             -4.4012   XZ=              1.3038   YZ=             -1.0718
 Octapole moment (field-independent basis, Debye-Ang**2):
  XXX=            -25.1187  YYY=              0.4302  ZZZ=            -13.2849  XYY=             -0.5282
  XXY=            -27.4104  XXZ=            -28.4307  XZZ=              0.8262  YZZ=             -6.2837
  YYZ=              0.4368  XYZ=             -2.6373
 Hexadecapole moment (field-independent basis, Debye-Ang**3):
 XXXX=          -1638.1713 YYYY=           -484.6494 ZZZZ=           -314.5073 XXXY=            -24.4826
 XXXZ=            -31.4083 YYYX=              1.2741 YYYZ=              3.4008 ZZZX=             22.5936
 ZZZY=              4.5454 XXYY=           -343.2157 XXZZ=           -358.6881 YYZZ=           -128.9659
 XXYZ=            -11.7111 YYXZ=             -0.6167 ZZXY=              3.1029
 N-N= 5.492074313251D+02 E-N=-2.253375905358D+03  KE= 4.920628734578D+02
 1\1\GINC-NODE006\SP\RMP2-FC\Aug-CC-pVDZ\C6H12N2O2\STEBOSS\13-Feb-2017\
 0\\#SP MP2/aug-cc-pVDZ\\Single Point calculation at MP2\\0,1\H,0,4.010
 5,-1.1512,-0.5912\C,0,2.9869,-1.464,-0.3693\H,0,3.0357,-2.1918,0.4481\
 H,0,2.5619,-1.9542,-1.2513\C,0,2.1961,-0.2509,0.0992\O,0,2.6401,0.5359
 ,0.9227\N,0,0.9575,-0.101,-0.4822\H,0,0.601,-0.8709,-1.0319\C,0,-0.011
 2,0.8763,0.0195\H,0,0.4288,1.3002,0.9233\C,0,-0.2671,2.0002,-0.9972\H,
 0,-0.6403,1.6154,-1.955\H,0,-0.9996,2.716,-0.6076\H,0,0.6676,2.5327,-1
 .1963\C,0,-1.305,0.1726,0.47\O,0,-1.6949,0.1989,1.627\N,0,-1.9555,-0.5
 358,-0.515\H,0,-1.7546,-0.2957,-1.4769\C,0,-3.2349,-1.179,-0.2492\H,0,
 -3.2119,-1.5772,0.766\H,0,-4.0769,-0.4779,-0.3227\H,0,-3.3874,-1.997,-
 0.9589\\Version=EM64L-G09RevA.02\State=1-A\HF=-492.9180721\MP2=-494.51
 88367\RMSD=7.995e-09\PG=C01 [X(C6H12N2O2)]\\@


 UNDER MOST GREENE GRASSE LY MOST GREATE SNAKES.
 -- PROVERBS AND REASONS OF THE YEAR 1585
           AS REPRINTED IN PAISLEY MAGAZINE 1828.
 Job cpu time:  2 days  5 hours 55 minutes 56.4 seconds.
 File lengths (MBytes):  RWF=  10533 Int=      0 D2E=      0 Chk=      7 Scr=      2
 Normal termination of Gaussian 09 at Mon Feb 13 14:49:45 2017.
