 Entering Gaussian System, Link 0=g09
 Initial command:
 /home/steboss/Software/g09/l1.exe /home/steboss/projects/phi_psi_scan/alanine/MP2/240/5437/Gau-10987.inp -scrdir=/home/steboss/projects/phi_psi_scan/alanine/MP2/240/5437/
 Entering Link 1 = /home/steboss/Software/g09/l1.exe PID=     10989.
  
 Copyright (c) 1988,1990,1992,1993,1995,1998,2003,2009, Gaussian, Inc.
                  All Rights Reserved.
  
 This is part of the Gaussian(R) 09 program.  It is based on
 the Gaussian(R) 03 system (copyright 2003, Gaussian, Inc.),
 the Gaussian(R) 98 system (copyright 1998, Gaussian, Inc.),
 the Gaussian(R) 94 system (copyright 1995, Gaussian, Inc.),
 the Gaussian 92(TM) system (copyright 1992, Gaussian, Inc.),
 the Gaussian 90(TM) system (copyright 1990, Gaussian, Inc.),
 the Gaussian 88(TM) system (copyright 1988, Gaussian, Inc.),
 the Gaussian 86(TM) system (copyright 1986, Carnegie Mellon
 University), and the Gaussian 82(TM) system (copyright 1983,
 Carnegie Mellon University). Gaussian is a federally registered
 trademark of Gaussian, Inc.
  
 This software contains proprietary and confidential information,
 including trade secrets, belonging to Gaussian, Inc.
  
 This software is provided under written license and may be
 used, copied, transmitted, or stored only in accord with that
 written license.
  
 The following legend is applicable only to US Government
 contracts under FAR:
  
                    RESTRICTED RIGHTS LEGEND
  
 Use, reproduction and disclosure by the US Government is
 subject to restrictions as set forth in subparagraphs (a)
 and (c) of the Commercial Computer Software - Restricted
 Rights clause in FAR 52.227-19.
  
 Gaussian, Inc.
 340 Quinnipiac St., Bldg. 40, Wallingford CT 06492
  
  
 ---------------------------------------------------------------
 Warning -- This program may not be used in any manner that
 competes with the business of Gaussian, Inc. or will provide
 assistance to any competitor of Gaussian, Inc.  The licensee
 of this program is prohibited from giving any competitor of
 Gaussian, Inc. access to this program.  By using this program,
 the user acknowledges that Gaussian, Inc. is engaged in the
 business of creating and licensing software in the field of
 computational chemistry and represents and warrants to the
 licensee that it is not a competitor of Gaussian, Inc. and that
 it will not use this program in any manner prohibited above.
 ---------------------------------------------------------------
  

 Cite this work as:
 Gaussian 09, Revision A.02,
 M. J. Frisch, G. W. Trucks, H. B. Schlegel, G. E. Scuseria, 
 M. A. Robb, J. R. Cheeseman, G. Scalmani, V. Barone, B. Mennucci, 
 G. A. Petersson, H. Nakatsuji, M. Caricato, X. Li, H. P. Hratchian, 
 A. F. Izmaylov, J. Bloino, G. Zheng, J. L. Sonnenberg, M. Hada, 
 M. Ehara, K. Toyota, R. Fukuda, J. Hasegawa, M. Ishida, T. Nakajima, 
 Y. Honda, O. Kitao, H. Nakai, T. Vreven, J. A. Montgomery, Jr., 
 J. E. Peralta, F. Ogliaro, M. Bearpark, J. J. Heyd, E. Brothers, 
 K. N. Kudin, V. N. Staroverov, R. Kobayashi, J. Normand, 
 K. Raghavachari, A. Rendell, J. C. Burant, S. S. Iyengar, J. Tomasi, 
 M. Cossi, N. Rega, J. M. Millam, M. Klene, J. E. Knox, J. B. Cross, 
 V. Bakken, C. Adamo, J. Jaramillo, R. Gomperts, R. E. Stratmann, 
 O. Yazyev, A. J. Austin, R. Cammi, C. Pomelli, J. W. Ochterski, 
 R. L. Martin, K. Morokuma, V. G. Zakrzewski, G. A. Voth, 
 P. Salvador, J. J. Dannenberg, S. Dapprich, A. D. Daniels, 
 O. Farkas, J. B. Foresman, J. V. Ortiz, J. Cioslowski, 
 and D. J. Fox, Gaussian, Inc., Wallingford CT, 2009.
 
 ******************************************
 Gaussian 09:  EM64L-G09RevA.02 11-Jun-2009
                13-Feb-2017 
 ******************************************
 %chk=structure_315.chk
 %NProcShared=8
 Will use up to    8 processors via shared memory.
 -------------------
 #SP MP2/aug-cc-pVDZ
 -------------------
 1/38=1/1;
 2/12=2,17=6,18=5,40=1/2;
 3/5=16,7=10,11=9,16=1,25=1,30=1/1,2,3;
 4//1;
 5/5=2,38=5/2;
 8/10=1/1;
 9/16=-3/6;
 6/7=2,8=2,9=2,10=2/1;
 99/5=1,9=1/99;
 -------------------------------
 Single Point calculation at MP2
 -------------------------------
 Symbolic Z-matrix:
 Charge =  0 Multiplicity = 1
 H                     3.6359   -1.8204    0.3671 
 C                     3.2161   -1.1581   -0.3945 
 H                     2.8242   -1.7628   -1.2186 
 H                     4.0338   -0.5341   -0.7718 
 C                     2.1722   -0.2646    0.2605 
 O                     2.3805    0.309     1.3172 
 N                     0.9728   -0.1702   -0.4228 
 H                     1.0008   -0.4614   -1.393 
 C                    -0.0223    0.8473   -0.0743 
 H                     0.3673    1.3516    0.8119 
 C                    -0.2221    1.8616   -1.2091 
 H                    -0.5748    1.3714   -2.125 
 H                    -0.9705    2.6046   -0.9173 
 H                     0.7175    2.3803   -1.4265 
 C                    -1.3796    0.2578    0.3572 
 O                    -2.0325    0.7794    1.2502 
 N                    -1.8621   -0.7584   -0.4273 
 H                    -1.1751   -1.299    -0.9358 
 C                    -3.1134   -1.4245   -0.0968 
 H                    -3.7898   -0.6804    0.3254 
 H                    -3.5553   -1.8463   -1.0044 
 H                    -2.9793   -2.226     0.6421 
 
                          Input orientation:                          
 ---------------------------------------------------------------------
 Center     Atomic      Atomic             Coordinates (Angstroms)
 Number     Number       Type             X           Y           Z
 ---------------------------------------------------------------------
      1          1           0        3.635900   -1.820400    0.367100
      2          6           0        3.216100   -1.158100   -0.394500
      3          1           0        2.824200   -1.762800   -1.218600
      4          1           0        4.033800   -0.534100   -0.771800
      5          6           0        2.172200   -0.264600    0.260500
      6          8           0        2.380500    0.309000    1.317200
      7          7           0        0.972800   -0.170200   -0.422800
      8          1           0        1.000800   -0.461400   -1.393000
      9          6           0       -0.022300    0.847300   -0.074300
     10          1           0        0.367300    1.351600    0.811900
     11          6           0       -0.222100    1.861600   -1.209100
     12          1           0       -0.574800    1.371400   -2.125000
     13          1           0       -0.970500    2.604600   -0.917300
     14          1           0        0.717500    2.380300   -1.426500
     15          6           0       -1.379600    0.257800    0.357200
     16          8           0       -2.032500    0.779400    1.250200
     17          7           0       -1.862100   -0.758400   -0.427300
     18          1           0       -1.175100   -1.299000   -0.935800
     19          6           0       -3.113400   -1.424500   -0.096800
     20          1           0       -3.789800   -0.680400    0.325400
     21          1           0       -3.555300   -1.846300   -1.004400
     22          1           0       -2.979300   -2.226000    0.642100
 ---------------------------------------------------------------------
                    Distance matrix (angstroms):
                    1          2          3          4          5
     1  H    0.000000
     2  C    1.093118   0.000000
     3  H    1.782307   1.094709   0.000000
     4  H    1.763515   1.095612   1.781142   0.000000
     5  C    2.138760   1.522201   2.203961   2.145653   0.000000
     6  O    2.648219   2.404273   3.304468   2.794305   1.220254
     7  N    3.230976   2.451355   2.568532   3.102248   1.383608
     8  H    3.447983   2.527834   2.246963   3.096815   2.035920
     9  C    4.549053   3.822485   4.027978   4.341281   2.482789
    10  H    4.576372   3.983674   4.456319   4.416695   2.484715
    11  C    5.561088   4.647944   4.734586   4.903396   3.523226
    12  H    5.841930   4.874825   4.711472   5.167328   3.989125
    13  H    6.515307   5.653216   5.793506   5.908945   4.415437
    14  H    5.420327   4.452898   4.652600   4.463206   3.457979
    15  C    5.429020   4.867267   4.923201   5.586291   3.591314
    16  O    6.298379   5.831530   6.012095   6.527922   4.443978
    17  N    5.655698   5.094011   4.857611   5.910214   4.122194
    18  H    5.011500   4.426680   4.036024   5.267315   3.702099
    19  C    6.776798   6.342095   6.052105   7.234010   5.423154
    20  H    7.512813   7.058972   6.877537   7.901517   5.976834
    21  H    7.320863   6.833554   6.383641   7.705220   6.075031
    22  H    6.633326   6.371651   6.112068   7.351545   5.525456
                    6          7          8          9         10
     6  O    0.000000
     7  N    2.288854   0.000000
     8  H    3.137240   1.013346   0.000000
     9  C    2.828336   1.465259   2.120943   0.000000
    10  H    2.322782   2.051095   2.924017   1.091539   0.000000
    11  C    3.945413   2.484807   2.631660   1.535088   2.166087
    12  H    4.659531   2.769311   2.525370   2.187535   3.084368
    13  H    4.635943   3.423516   3.675958   2.167449   2.519891
    14  H    3.818867   2.752752   2.855983   2.173899   2.488232
    15  C    3.881053   2.515029   3.040847   1.541417   2.110642
    16  O    4.438506   3.568262   4.210344   2.408280   2.505705
    17  N    4.709807   2.895282   3.035948   2.467336   3.310278
    18  H    4.505992   2.480087   2.375952   2.584131   3.529750
    19  C    5.931893   4.286791   4.419767   3.836207   4.543978
    20  H    6.327336   4.847934   5.094184   4.085056   4.652654
    21  H    6.728214   4.863256   4.777762   4.539015   5.377016
    22  H    5.967365   4.580330   4.805897   4.324610   4.901814
                   11         12         13         14         15
    11  C    0.000000
    12  H    1.097072   0.000000
    13  H    1.094211   1.770847   0.000000
    14  H    1.095062   1.782083   1.777340   0.000000
    15  C    2.522950   2.837098   2.701700   3.476265   0.000000
    16  O    3.239886   3.723886   3.026096   4.158137   1.223027
    17  N    3.188293   3.012536   3.513520   4.183799   1.371462
    18  H    3.312445   2.984224   3.909002   4.166530   2.034034
    19  C    4.516113   4.286624   4.636689   5.560611   2.458111
    20  H    4.641652   4.533273   4.503774   5.723005   2.586560
    21  H    4.990055   4.526888   5.147746   6.024876   3.318865
    22  H    5.266647   5.136122   5.459094   6.258070   2.968075
                   16         17         18         19         20
    16  O    0.000000
    17  N    2.282076   0.000000
    18  H    3.135838   1.011331   0.000000
    19  C    2.799987   1.455566   2.115816   0.000000
    20  H    2.464625   2.070910   2.968156   1.090621   0.000000
    21  H    3.781064   2.093680   2.443276   1.094042   1.784007
    22  H    3.209150   2.132042   2.569871   1.098343   1.773722
                   21         22
    21  H    0.000000
    22  H    1.785192   0.000000
 Stoichiometry    C6H12N2O2
 Framework group  C1[X(C6H12N2O2)]
 Deg. of freedom    60
 Full point group                 C1      NOp   1
 Largest Abelian subgroup         C1      NOp   1
 Largest concise Abelian subgroup C1      NOp   1
                         Standard orientation:                         
 ---------------------------------------------------------------------
 Center     Atomic      Atomic             Coordinates (Angstroms)
 Number     Number       Type             X           Y           Z
 ---------------------------------------------------------------------
      1          1           0        3.635912   -1.820420    0.367092
      2          6           0        3.216112   -1.158120   -0.394508
      3          1           0        2.824212   -1.762820   -1.218608
      4          1           0        4.033813   -0.534121   -0.771808
      5          6           0        2.172213   -0.264620    0.260492
      6          8           0        2.380513    0.308980    1.317192
      7          7           0        0.972813   -0.170220   -0.422808
      8          1           0        1.000813   -0.461420   -1.393008
      9          6           0       -0.022287    0.847281   -0.074308
     10          1           0        0.367313    1.351581    0.811892
     11          6           0       -0.222087    1.861581   -1.209108
     12          1           0       -0.574787    1.371381   -2.125008
     13          1           0       -0.970486    2.604581   -0.917308
     14          1           0        0.717514    2.380281   -1.426508
     15          6           0       -1.379587    0.257781    0.357192
     16          8           0       -2.032487    0.779381    1.250192
     17          7           0       -1.862087   -0.758419   -0.427308
     18          1           0       -1.175088   -1.299019   -0.935808
     19          6           0       -3.113388   -1.424518   -0.096808
     20          1           0       -3.789787   -0.680418    0.325392
     21          1           0       -3.555288   -1.846318   -1.004408
     22          1           0       -2.979288   -2.226018    0.642092
 ---------------------------------------------------------------------
 Rotational constants (GHZ):      2.1073070      0.7106762      0.6620823
 Standard basis: Aug-CC-pVDZ (5D, 7F)
 There are   338 symmetry adapted basis functions of A   symmetry.
 Integral buffers will be    131072 words long.
 Raffenetti 1 integral format.
 Two-electron integral symmetry is turned on.
   338 basis functions,   562 primitive gaussians,   358 cartesian basis functions
    39 alpha electrons       39 beta electrons
       nuclear repulsion energy       548.5187297912 Hartrees.
 NAtoms=   22 NActive=   22 NUniq=   22 SFac= 7.50D-01 NAtFMM=   80 NAOKFM=F Big=F
 One-electron integrals computed using PRISM.
 NBasis=   338 RedAO= T  NBF=   338
 NBsUse=   338 1.00D-06 NBFU=   338
 Harris functional with IExCor=  205 diagonalized for initial guess.
 ExpMin= 2.97D-02 ExpMax= 1.17D+04 ExpMxC= 4.01D+02 IAcc=3 IRadAn=         0 AccDes= 0.00D+00
 HarFok:  IExCor=  205 AccDes= 0.00D+00 IRadAn=         0 IDoV= 1
 ScaDFX=  1.000000  1.000000  1.000000  1.000000
 FoFCou: FMM=F IPFlag=           0 FMFlag=      100000 FMFlg1=           0
         NFxFlg=           0 DoJE=T BraDBF=F KetDBF=T FulRan=T
         Omega=  0.000000  0.000000  1.000000  0.000000  0.000000 ICntrl=     500 IOpCl=  0
         NMat0=    1 NMatS0=    1 NMatT0=    0 NMatD0=    1 NMtDS0=    0 NMtDT0=    0
         I1Cent=           4 NGrid=           0.
 Petite list used in FoFCou.
 Initial guess orbital symmetries:
       Occupied  (A) (A) (A) (A) (A) (A) (A) (A) (A) (A) (A) (A)
                 (A) (A) (A) (A) (A) (A) (A) (A) (A) (A) (A) (A)
                 (A) (A) (A) (A) (A) (A) (A) (A) (A) (A) (A) (A)
                 (A) (A) (A)
       Virtual   (A) (A) (A) (A) (A) (A) (A) (A) (A) (A) (A) (A)
                 (A) (A) (A) (A) (A) (A) (A) (A) (A) (A) (A) (A)
                 (A) (A) (A) (A) (A) (A) (A) (A) (A) (A) (A) (A)
                 (A) (A) (A) (A) (A) (A) (A) (A) (A) (A) (A) (A)
                 (A) (A) (A) (A) (A) (A) (A) (A) (A) (A) (A) (A)
                 (A) (A) (A) (A) (A) (A) (A) (A) (A) (A) (A) (A)
                 (A) (A) (A) (A) (A) (A) (A) (A) (A) (A) (A) (A)
                 (A) (A) (A) (A) (A) (A) (A) (A) (A) (A) (A) (A)
                 (A) (A) (A) (A) (A) (A) (A) (A) (A) (A) (A) (A)
                 (A) (A) (A) (A) (A) (A) (A) (A) (A) (A) (A) (A)
                 (A) (A) (A) (A) (A) (A) (A) (A) (A) (A) (A) (A)
                 (A) (A) (A) (A) (A) (A) (A) (A) (A) (A) (A) (A)
                 (A) (A) (A) (A) (A) (A) (A) (A) (A) (A) (A) (A)
                 (A) (A) (A) (A) (A) (A) (A) (A) (A) (A) (A) (A)
                 (A) (A) (A) (A) (A) (A) (A) (A) (A) (A) (A) (A)
                 (A) (A) (A) (A) (A) (A) (A) (A) (A) (A) (A) (A)
                 (A) (A) (A) (A) (A) (A) (A) (A) (A) (A) (A) (A)
                 (A) (A) (A) (A) (A) (A) (A) (A) (A) (A) (A) (A)
                 (A) (A) (A) (A) (A) (A) (A) (A) (A) (A) (A) (A)
                 (A) (A) (A) (A) (A) (A) (A) (A) (A) (A) (A) (A)
                 (A) (A) (A) (A) (A) (A) (A) (A) (A) (A) (A) (A)
                 (A) (A) (A) (A) (A) (A) (A) (A) (A) (A) (A) (A)
                 (A) (A) (A) (A) (A) (A) (A) (A) (A) (A) (A) (A)
                 (A) (A) (A) (A) (A) (A) (A) (A) (A) (A) (A) (A)
                 (A) (A) (A) (A) (A) (A) (A) (A) (A) (A) (A)
 The electronic state of the initial guess is 1-A.
 Requested convergence on RMS density matrix=1.00D-08 within 128 cycles.
 Requested convergence on MAX density matrix=1.00D-06.
 Requested convergence on             energy=1.00D-06.
 No special actions if energy rises.
 Initial convergence to 1.0D-05 achieved.  Increase integral accuracy.
 SCF Done:  E(RHF) =  -492.919456125     A.U. after   14 cycles
             Convg  =    0.6300D-08             -V/T =  2.0017
 ExpMin= 2.97D-02 ExpMax= 1.17D+04 ExpMxC= 4.01D+02 IAcc=3 IRadAn=         5 AccDes= 0.00D+00
 HarFok:  IExCor=  205 AccDes= 0.00D+00 IRadAn=         5 IDoV=-2
 ScaDFX=  1.000000  1.000000  1.000000  1.000000
 Range of M.O.s used for correlation:    11   338
 NBasis=   338 NAE=    39 NBE=    39 NFC=    10 NFV=     0
 NROrb=    328 NOA=    29 NOB=    29 NVA=   299 NVB=   299

 **** Warning!!: The largest alpha MO coefficient is  0.55511349D+02

 Disk-based method using OVN memory for 29 occupieds at a time.
 Estimated scratch disk usage=  1377159404 words.
 Actual    scratch disk usage=  1364193889 words.
 JobTyp=1 Pass  1:  I=   1 to  29 NPSUse=  8 ParTrn=T ParDer=T DoDerP=F.
 Spin components of T(2) and E(2):
     alpha-alpha T2 =       0.6789761755D-01 E2=     -0.2054745164D+00
     alpha-beta  T2 =       0.3768836449D+00 E2=     -0.1189787983D+01
     beta-beta   T2 =       0.6789761755D-01 E2=     -0.2054745164D+00
 ANorm=    0.1229910111D+01
 E2 =    -0.1600737016D+01 EUMP2 =    -0.49452019314080D+03

 **********************************************************************

            Population analysis using the SCF density.

 **********************************************************************

 Orbital symmetries:
       Occupied  (A) (A) (A) (A) (A) (A) (A) (A) (A) (A) (A) (A)
                 (A) (A) (A) (A) (A) (A) (A) (A) (A) (A) (A) (A)
                 (A) (A) (A) (A) (A) (A) (A) (A) (A) (A) (A) (A)
                 (A) (A) (A)
       Virtual   (A) (A) (A) (A) (A) (A) (A) (A) (A) (A) (A) (A)
                 (A) (A) (A) (A) (A) (A) (A) (A) (A) (A) (A) (A)
                 (A) (A) (A) (A) (A) (A) (A) (A) (A) (A) (A) (A)
                 (A) (A) (A) (A) (A) (A) (A) (A) (A) (A) (A) (A)
                 (A) (A) (A) (A) (A) (A) (A) (A) (A) (A) (A) (A)
                 (A) (A) (A) (A) (A) (A) (A) (A) (A) (A) (A) (A)
                 (A) (A) (A) (A) (A) (A) (A) (A) (A) (A) (A) (A)
                 (A) (A) (A) (A) (A) (A) (A) (A) (A) (A) (A) (A)
                 (A) (A) (A) (A) (A) (A) (A) (A) (A) (A) (A) (A)
                 (A) (A) (A) (A) (A) (A) (A) (A) (A) (A) (A) (A)
                 (A) (A) (A) (A) (A) (A) (A) (A) (A) (A) (A) (A)
                 (A) (A) (A) (A) (A) (A) (A) (A) (A) (A) (A) (A)
                 (A) (A) (A) (A) (A) (A) (A) (A) (A) (A) (A) (A)
                 (A) (A) (A) (A) (A) (A) (A) (A) (A) (A) (A) (A)
                 (A) (A) (A) (A) (A) (A) (A) (A) (A) (A) (A) (A)
                 (A) (A) (A) (A) (A) (A) (A) (A) (A) (A) (A) (A)
                 (A) (A) (A) (A) (A) (A) (A) (A) (A) (A) (A) (A)
                 (A) (A) (A) (A) (A) (A) (A) (A) (A) (A) (A) (A)
                 (A) (A) (A) (A) (A) (A) (A) (A) (A) (A) (A) (A)
                 (A) (A) (A) (A) (A) (A) (A) (A) (A) (A) (A) (A)
                 (A) (A) (A) (A) (A) (A) (A) (A) (A) (A) (A) (A)
                 (A) (A) (A) (A) (A) (A) (A) (A) (A) (A) (A) (A)
                 (A) (A) (A) (A) (A) (A) (A) (A) (A) (A) (A) (A)
                 (A) (A) (A) (A) (A) (A) (A) (A) (A) (A) (A) (A)
                 (A) (A) (A) (A) (A) (A) (A) (A) (A) (A) (A)
 The electronic state is 1-A.
 Alpha  occ. eigenvalues --  -20.54066 -20.53336 -15.60870 -15.59649 -11.37329
 Alpha  occ. eigenvalues --  -11.35803 -11.29057 -11.26929 -11.25681 -11.24618
 Alpha  occ. eigenvalues --   -1.39564  -1.38533  -1.25229  -1.22756  -1.05998
 Alpha  occ. eigenvalues --   -1.00014  -0.95785  -0.88383  -0.80642  -0.78578
 Alpha  occ. eigenvalues --   -0.72694  -0.68275  -0.66669  -0.63594  -0.62887
 Alpha  occ. eigenvalues --   -0.62277  -0.59400  -0.59130  -0.58430  -0.56956
 Alpha  occ. eigenvalues --   -0.54989  -0.54709  -0.52947  -0.51851  -0.50375
 Alpha  occ. eigenvalues --   -0.44485  -0.43313  -0.39692  -0.39606
 Alpha virt. eigenvalues --    0.02000   0.03631   0.03901   0.04621   0.05515
 Alpha virt. eigenvalues --    0.05748   0.06373   0.06645   0.07439   0.07799
 Alpha virt. eigenvalues --    0.08472   0.09366   0.10911   0.11743   0.12506
 Alpha virt. eigenvalues --    0.13325   0.13493   0.14323   0.14791   0.15116
 Alpha virt. eigenvalues --    0.15494   0.16074   0.16461   0.16731   0.17318
 Alpha virt. eigenvalues --    0.17622   0.17902   0.18006   0.18516   0.18735
 Alpha virt. eigenvalues --    0.19636   0.19713   0.20908   0.21894   0.22290
 Alpha virt. eigenvalues --    0.22749   0.23463   0.24932   0.25538   0.26083
 Alpha virt. eigenvalues --    0.27070   0.27696   0.27981   0.28440   0.29744
 Alpha virt. eigenvalues --    0.31353   0.31566   0.31999   0.32969   0.33428
 Alpha virt. eigenvalues --    0.33915   0.34882   0.35574   0.35864   0.36773
 Alpha virt. eigenvalues --    0.37213   0.38196   0.38252   0.38898   0.40232
 Alpha virt. eigenvalues --    0.40303   0.40751   0.41773   0.41836   0.42597
 Alpha virt. eigenvalues --    0.43133   0.43690   0.44086   0.44702   0.45311
 Alpha virt. eigenvalues --    0.45963   0.46824   0.47192   0.47577   0.48438
 Alpha virt. eigenvalues --    0.49031   0.49982   0.50262   0.50360   0.51850
 Alpha virt. eigenvalues --    0.53069   0.53862   0.54877   0.55090   0.55349
 Alpha virt. eigenvalues --    0.55854   0.56580   0.57492   0.57838   0.58702
 Alpha virt. eigenvalues --    0.58943   0.59674   0.59888   0.61247   0.61430
 Alpha virt. eigenvalues --    0.61754   0.62637   0.62989   0.63939   0.64425
 Alpha virt. eigenvalues --    0.65061   0.65569   0.66830   0.67252   0.67447
 Alpha virt. eigenvalues --    0.68951   0.69413   0.70025   0.70453   0.71813
 Alpha virt. eigenvalues --    0.72164   0.72818   0.73285   0.73773   0.74477
 Alpha virt. eigenvalues --    0.75126   0.76163   0.76803   0.77482   0.79726
 Alpha virt. eigenvalues --    0.79892   0.80508   0.81230   0.81777   0.83149
 Alpha virt. eigenvalues --    0.84306   0.84945   0.86118   0.86719   0.87157
 Alpha virt. eigenvalues --    0.89376   0.90293   0.91671   0.92987   0.94032
 Alpha virt. eigenvalues --    0.94560   0.95057   0.95588   0.97180   0.98615
 Alpha virt. eigenvalues --    0.99817   1.01274   1.01653   1.02204   1.04620
 Alpha virt. eigenvalues --    1.05009   1.07747   1.08762   1.09711   1.10367
 Alpha virt. eigenvalues --    1.12062   1.13665   1.14446   1.15129   1.16304
 Alpha virt. eigenvalues --    1.16935   1.17550   1.19276   1.19954   1.20670
 Alpha virt. eigenvalues --    1.22250   1.25249   1.25409   1.27899   1.28646
 Alpha virt. eigenvalues --    1.30092   1.32261   1.33159   1.34075   1.34962
 Alpha virt. eigenvalues --    1.38069   1.40292   1.41167   1.42574   1.45572
 Alpha virt. eigenvalues --    1.48114   1.49943   1.50169   1.50686   1.53416
 Alpha virt. eigenvalues --    1.55064   1.56359   1.59272   1.60121   1.62710
 Alpha virt. eigenvalues --    1.65504   1.67814   1.69204   1.70306   1.71111
 Alpha virt. eigenvalues --    1.73700   1.75333   1.77008   1.78596   1.79758
 Alpha virt. eigenvalues --    1.82019   1.82537   1.85013   1.85755   1.86829
 Alpha virt. eigenvalues --    1.88556   1.89479   1.90064   1.91339   1.92415
 Alpha virt. eigenvalues --    1.93253   1.95487   1.96499   1.99507   2.00228
 Alpha virt. eigenvalues --    2.02876   2.03901   2.06188   2.07235   2.08941
 Alpha virt. eigenvalues --    2.09995   2.12073   2.12307   2.12799   2.14485
 Alpha virt. eigenvalues --    2.17636   2.18432   2.18873   2.19828   2.22409
 Alpha virt. eigenvalues --    2.24365   2.26008   2.28888   2.29469   2.31257
 Alpha virt. eigenvalues --    2.31805   2.32873   2.34243   2.35083   2.36690
 Alpha virt. eigenvalues --    2.38541   2.39977   2.40512   2.42127   2.45227
 Alpha virt. eigenvalues --    2.46682   2.48289   2.48889   2.49749   2.51438
 Alpha virt. eigenvalues --    2.52621   2.55379   2.56368   2.57365   2.59838
 Alpha virt. eigenvalues --    2.60238   2.62336   2.65298   2.66499   2.68256
 Alpha virt. eigenvalues --    2.71651   2.72904   2.74218   2.76395   2.78733
 Alpha virt. eigenvalues --    2.80159   2.81824   2.85676   2.86515   2.87350
 Alpha virt. eigenvalues --    2.88696   2.91467   2.92551   2.94933   2.96971
 Alpha virt. eigenvalues --    3.00578   3.00731   3.03318   3.04999   3.08648
 Alpha virt. eigenvalues --    3.10662   3.13593   3.15255   3.16857   3.22619
 Alpha virt. eigenvalues --    3.27908   3.29717   3.41421   3.42119   3.50272
 Alpha virt. eigenvalues --    3.56979   3.65348   3.73054   3.81497   3.83166
 Alpha virt. eigenvalues --    3.83625   3.88549   3.89738   3.92830   4.01587
 Alpha virt. eigenvalues --    4.02503   4.06483   4.18871   4.26563
          Condensed to atoms (all electrons):
              1          2          3          4          5          6
     1  H    0.736558   0.390895  -0.095689  -0.049859  -0.085603   0.029490
     2  C    0.390895   4.547123   0.342742   0.326146   0.214250  -0.038404
     3  H   -0.095689   0.342742   1.118686  -0.070702   0.129208  -0.017005
     4  H   -0.049859   0.326146  -0.070702   0.733883  -0.065369   0.015881
     5  C   -0.085603   0.214250   0.129208  -0.065369   5.507760   0.155879
     6  O    0.029490  -0.038404  -0.017005   0.015881   0.155879   8.696475
     7  N    0.058683  -0.038215  -0.226189   0.047056   0.045043  -0.105935
     8  H   -0.006301  -0.070266   0.003224   0.001055  -0.146362   0.013158
     9  C   -0.010188  -0.009168  -0.002880   0.008629  -0.304164   0.086325
    10  H   -0.003145  -0.017483   0.002098  -0.000721   0.037871  -0.019942
    11  C    0.004086  -0.006063  -0.005781  -0.001678   0.013970  -0.006130
    12  H   -0.000146  -0.011225  -0.000752  -0.001036  -0.009671   0.000103
    13  H    0.000171   0.004850  -0.000041   0.000542  -0.000844   0.000495
    14  H    0.000056  -0.000647   0.000017  -0.000024   0.005291  -0.001653
    15  C   -0.005890  -0.022957  -0.019931   0.006706  -0.100056   0.039510
    16  O    0.000086  -0.000484   0.000485  -0.000191   0.013947  -0.005072
    17  N    0.002342  -0.001581  -0.005245   0.000177  -0.006746  -0.006983
    18  H    0.000885   0.006548  -0.000416  -0.000609   0.003817   0.000760
    19  C   -0.000125  -0.001966  -0.001588   0.000100  -0.014169   0.001134
    20  H   -0.000055   0.000151   0.000064   0.000043  -0.000346   0.000038
    21  H   -0.000010  -0.000290  -0.000061  -0.000001  -0.000035   0.000023
    22  H    0.000073  -0.000298  -0.000391  -0.000006   0.000828   0.000077
              7          8          9         10         11         12
     1  H    0.058683  -0.006301  -0.010188  -0.003145   0.004086  -0.000146
     2  C   -0.038215  -0.070266  -0.009168  -0.017483  -0.006063  -0.011225
     3  H   -0.226189   0.003224  -0.002880   0.002098  -0.005781  -0.000752
     4  H    0.047056   0.001055   0.008629  -0.000721  -0.001678  -0.001036
     5  C    0.045043  -0.146362  -0.304164   0.037871   0.013970  -0.009671
     6  O   -0.105935   0.013158   0.086325  -0.019942  -0.006130   0.000103
     7  N    7.744043   0.261278  -0.410241  -0.049266   0.103808  -0.105461
     8  H    0.261278   0.993733  -0.013061   0.005095  -0.040760   0.013732
     9  C   -0.410241  -0.013061   7.477990  -0.356265   0.099583   0.032729
    10  H   -0.049266   0.005095  -0.356265   1.369148  -0.015396   0.068133
    11  C    0.103808  -0.040760   0.099583  -0.015396   4.237572   0.316307
    12  H   -0.105461   0.013732   0.032729   0.068133   0.316307   1.109244
    13  H    0.069886  -0.001905  -0.147834  -0.033774   0.352201  -0.172004
    14  H   -0.042239   0.001163   0.125008  -0.041398   0.198945  -0.209248
    15  C   -0.174148   0.044732  -0.134126   0.098026  -0.196997  -0.004901
    16  O    0.011293  -0.001312  -0.041557   0.028772   0.054411  -0.002179
    17  N    0.034930   0.002621  -0.132620   0.030477   0.095338   0.002637
    18  H    0.029347   0.001167  -0.037178  -0.005927  -0.014987  -0.003949
    19  C   -0.025206   0.005429  -0.044136   0.016344  -0.006214   0.007134
    20  H   -0.003680   0.000378  -0.012516   0.002770  -0.014771  -0.001926
    21  H   -0.005356  -0.000193   0.011708   0.000857   0.002286   0.001701
    22  H    0.012402   0.000394  -0.009391  -0.002152   0.002882  -0.000298
             13         14         15         16         17         18
     1  H    0.000171   0.000056  -0.005890   0.000086   0.002342   0.000885
     2  C    0.004850  -0.000647  -0.022957  -0.000484  -0.001581   0.006548
     3  H   -0.000041   0.000017  -0.019931   0.000485  -0.005245  -0.000416
     4  H    0.000542  -0.000024   0.006706  -0.000191   0.000177  -0.000609
     5  C   -0.000844   0.005291  -0.100056   0.013947  -0.006746   0.003817
     6  O    0.000495  -0.001653   0.039510  -0.005072  -0.006983   0.000760
     7  N    0.069886  -0.042239  -0.174148   0.011293   0.034930   0.029347
     8  H   -0.001905   0.001163   0.044732  -0.001312   0.002621   0.001167
     9  C   -0.147834   0.125008  -0.134126  -0.041557  -0.132620  -0.037178
    10  H   -0.033774  -0.041398   0.098026   0.028772   0.030477  -0.005927
    11  C    0.352201   0.198945  -0.196997   0.054411   0.095338  -0.014987
    12  H   -0.172004  -0.209248  -0.004901  -0.002179   0.002637  -0.003949
    13  H    1.138364  -0.166864   0.004916   0.021531  -0.000600   0.002039
    14  H   -0.166864   1.159051   0.054861  -0.005671   0.001012  -0.001683
    15  C    0.004916   0.054861   5.243883   0.128519   0.160972  -0.024724
    16  O    0.021531  -0.005671   0.128519   8.762990  -0.101933   0.005582
    17  N   -0.000600   0.001012   0.160972  -0.101933   7.126001   0.268243
    18  H    0.002039  -0.001683  -0.024724   0.005582   0.268243   0.975681
    19  C   -0.003919   0.002472  -0.057848  -0.009784   0.201005  -0.128981
    20  H   -0.000462   0.000281   0.057430  -0.023428  -0.063296   0.003260
    21  H   -0.001009   0.000167  -0.047444   0.012575  -0.154188   0.011655
    22  H   -0.000076   0.000334  -0.003441   0.002371   0.113855  -0.015877
             19         20         21         22
     1  H   -0.000125  -0.000055  -0.000010   0.000073
     2  C   -0.001966   0.000151  -0.000290  -0.000298
     3  H   -0.001588   0.000064  -0.000061  -0.000391
     4  H    0.000100   0.000043  -0.000001  -0.000006
     5  C   -0.014169  -0.000346  -0.000035   0.000828
     6  O    0.001134   0.000038   0.000023   0.000077
     7  N   -0.025206  -0.003680  -0.005356   0.012402
     8  H    0.005429   0.000378  -0.000193   0.000394
     9  C   -0.044136  -0.012516   0.011708  -0.009391
    10  H    0.016344   0.002770   0.000857  -0.002152
    11  C   -0.006214  -0.014771   0.002286   0.002882
    12  H    0.007134  -0.001926   0.001701  -0.000298
    13  H   -0.003919  -0.000462  -0.001009  -0.000076
    14  H    0.002472   0.000281   0.000167   0.000334
    15  C   -0.057848   0.057430  -0.047444  -0.003441
    16  O   -0.009784  -0.023428   0.012575   0.002371
    17  N    0.201005  -0.063296  -0.154188   0.113855
    18  H   -0.128981   0.003260   0.011655  -0.015877
    19  C    4.163133   0.450027   0.451423   0.252473
    20  H    0.450027   0.979178  -0.169035  -0.087067
    21  H    0.451423  -0.169035   1.232111  -0.181216
    22  H    0.252473  -0.087067  -0.181216   0.987347
 Mulliken atomic charges:
              1
     1  H    0.033684
     2  C    0.386342
     3  H   -0.149852
     4  H    0.049979
     5  C    0.605499
     6  O   -0.838224
     7  N   -0.231834
     8  H   -0.067000
     9  C   -0.176647
    10  H   -0.114123
    11  C    0.827385
    12  H   -0.028925
    13  H   -0.065664
    14  H   -0.079230
    15  C    0.952906
    16  O   -0.850950
    17  N   -0.566420
    18  H   -0.074652
    19  C    0.743259
    20  H   -0.117040
    21  H   -0.165669
    22  H   -0.072823
 Sum of Mulliken atomic charges =   0.00000
 Mulliken charges with hydrogens summed into heavy atoms:
              1
     2  C    0.320153
     5  C    0.605499
     6  O   -0.838224
     7  N   -0.298834
     9  C   -0.290770
    11  C    0.653567
    15  C    0.952906
    16  O   -0.850950
    17  N   -0.641073
    19  C    0.387726
 Sum of Mulliken charges with hydrogens summed into heavy atoms =   0.00000
 Electronic spatial extent (au):  <R**2>=           1893.7600
 Charge=              0.0000 electrons
 Dipole moment (field-independent basis, Debye):
    X=              0.8608    Y=             -3.2145    Z=             -6.1455  Tot=              6.9887
 Quadrupole moment (field-independent basis, Debye-Ang):
   XX=            -63.2940   YY=            -57.4293   ZZ=            -66.8509
   XY=              1.2746   XZ=             -2.8490   YZ=             -2.3084
 Traceless Quadrupole moment (field-independent basis, Debye-Ang):
   XX=             -0.7693   YY=              5.0954   ZZ=             -4.3262
   XY=              1.2746   XZ=             -2.8490   YZ=             -2.3084
 Octapole moment (field-independent basis, Debye-Ang**2):
  XXX=              3.4229  YYY=             -1.2293  ZZZ=            -10.4312  XYY=              0.7337
  XXY=            -27.2560  XXZ=            -27.8365  XZZ=             -0.4004  YZZ=             -8.4052
  YYZ=             -3.0057  XYZ=              1.0158
 Hexadecapole moment (field-independent basis, Debye-Ang**3):
 XXXX=          -1623.1749 YYYY=           -475.4976 ZZZZ=           -318.6841 XXXY=              1.9768
 XXXZ=            -29.0708 YYYX=              2.5827 YYYZ=              3.0257 ZZZX=             -4.0387
 ZZZY=              5.7176 XXYY=           -345.7859 XXZZ=           -375.0080 YYZZ=           -130.1542
 XXYZ=            -17.8757 YYXZ=              8.3425 ZZXY=              4.5918
 N-N= 5.485187297912D+02 E-N=-2.252039805960D+03  KE= 4.920654445426D+02
 1\1\GINC-NODE004\SP\RMP2-FC\Aug-CC-pVDZ\C6H12N2O2\STEBOSS\13-Feb-2017\
 0\\#SP MP2/aug-cc-pVDZ\\Single Point calculation at MP2\\0,1\H,0,3.635
 9,-1.8204,0.3671\C,0,3.2161,-1.1581,-0.3945\H,0,2.8242,-1.7628,-1.2186
 \H,0,4.0338,-0.5341,-0.7718\C,0,2.1722,-0.2646,0.2605\O,0,2.3805,0.309
 ,1.3172\N,0,0.9728,-0.1702,-0.4228\H,0,1.0008,-0.4614,-1.393\C,0,-0.02
 23,0.8473,-0.0743\H,0,0.3673,1.3516,0.8119\C,0,-0.2221,1.8616,-1.2091\
 H,0,-0.5748,1.3714,-2.125\H,0,-0.9705,2.6046,-0.9173\H,0,0.7175,2.3803
 ,-1.4265\C,0,-1.3796,0.2578,0.3572\O,0,-2.0325,0.7794,1.2502\N,0,-1.86
 21,-0.7584,-0.4273\H,0,-1.1751,-1.299,-0.9358\C,0,-3.1134,-1.4245,-0.0
 968\H,0,-3.7898,-0.6804,0.3254\H,0,-3.5553,-1.8463,-1.0044\H,0,-2.9793
 ,-2.226,0.6421\\Version=EM64L-G09RevA.02\State=1-A\HF=-492.9194561\MP2
 =-494.5201931\RMSD=6.300e-09\PG=C01 [X(C6H12N2O2)]\\@


 ORIGINALITY CONSISTS NOT IN SAYING WHAT NO ONE HAS EVER SAID BEFORE, 
 BUT IN SAYING WHAT YOU THINK YOUR SELF.

                                    -- JAMES F. STEPHEN
 Job cpu time:  0 days 13 hours 26 minutes 17.3 seconds.
 File lengths (MBytes):  RWF=  10524 Int=      0 D2E=      0 Chk=      7 Scr=      2
 Normal termination of Gaussian 09 at Mon Feb 13 09:03:58 2017.
