 Entering Gaussian System, Link 0=g09
 Initial command:
 /home/steboss/Software/g09/l1.exe /home/steboss/projects/phi_psi_scan/alanine/MP2/285/5513/Gau-7869.inp -scrdir=/home/steboss/projects/phi_psi_scan/alanine/MP2/285/5513/
 Entering Link 1 = /home/steboss/Software/g09/l1.exe PID=      7871.
  
 Copyright (c) 1988,1990,1992,1993,1995,1998,2003,2009, Gaussian, Inc.
                  All Rights Reserved.
  
 This is part of the Gaussian(R) 09 program.  It is based on
 the Gaussian(R) 03 system (copyright 2003, Gaussian, Inc.),
 the Gaussian(R) 98 system (copyright 1998, Gaussian, Inc.),
 the Gaussian(R) 94 system (copyright 1995, Gaussian, Inc.),
 the Gaussian 92(TM) system (copyright 1992, Gaussian, Inc.),
 the Gaussian 90(TM) system (copyright 1990, Gaussian, Inc.),
 the Gaussian 88(TM) system (copyright 1988, Gaussian, Inc.),
 the Gaussian 86(TM) system (copyright 1986, Carnegie Mellon
 University), and the Gaussian 82(TM) system (copyright 1983,
 Carnegie Mellon University). Gaussian is a federally registered
 trademark of Gaussian, Inc.
  
 This software contains proprietary and confidential information,
 including trade secrets, belonging to Gaussian, Inc.
  
 This software is provided under written license and may be
 used, copied, transmitted, or stored only in accord with that
 written license.
  
 The following legend is applicable only to US Government
 contracts under FAR:
  
                    RESTRICTED RIGHTS LEGEND
  
 Use, reproduction and disclosure by the US Government is
 subject to restrictions as set forth in subparagraphs (a)
 and (c) of the Commercial Computer Software - Restricted
 Rights clause in FAR 52.227-19.
  
 Gaussian, Inc.
 340 Quinnipiac St., Bldg. 40, Wallingford CT 06492
  
  
 ---------------------------------------------------------------
 Warning -- This program may not be used in any manner that
 competes with the business of Gaussian, Inc. or will provide
 assistance to any competitor of Gaussian, Inc.  The licensee
 of this program is prohibited from giving any competitor of
 Gaussian, Inc. access to this program.  By using this program,
 the user acknowledges that Gaussian, Inc. is engaged in the
 business of creating and licensing software in the field of
 computational chemistry and represents and warrants to the
 licensee that it is not a competitor of Gaussian, Inc. and that
 it will not use this program in any manner prohibited above.
 ---------------------------------------------------------------
  

 Cite this work as:
 Gaussian 09, Revision A.02,
 M. J. Frisch, G. W. Trucks, H. B. Schlegel, G. E. Scuseria, 
 M. A. Robb, J. R. Cheeseman, G. Scalmani, V. Barone, B. Mennucci, 
 G. A. Petersson, H. Nakatsuji, M. Caricato, X. Li, H. P. Hratchian, 
 A. F. Izmaylov, J. Bloino, G. Zheng, J. L. Sonnenberg, M. Hada, 
 M. Ehara, K. Toyota, R. Fukuda, J. Hasegawa, M. Ishida, T. Nakajima, 
 Y. Honda, O. Kitao, H. Nakai, T. Vreven, J. A. Montgomery, Jr., 
 J. E. Peralta, F. Ogliaro, M. Bearpark, J. J. Heyd, E. Brothers, 
 K. N. Kudin, V. N. Staroverov, R. Kobayashi, J. Normand, 
 K. Raghavachari, A. Rendell, J. C. Burant, S. S. Iyengar, J. Tomasi, 
 M. Cossi, N. Rega, J. M. Millam, M. Klene, J. E. Knox, J. B. Cross, 
 V. Bakken, C. Adamo, J. Jaramillo, R. Gomperts, R. E. Stratmann, 
 O. Yazyev, A. J. Austin, R. Cammi, C. Pomelli, J. W. Ochterski, 
 R. L. Martin, K. Morokuma, V. G. Zakrzewski, G. A. Voth, 
 P. Salvador, J. J. Dannenberg, S. Dapprich, A. D. Daniels, 
 O. Farkas, J. B. Foresman, J. V. Ortiz, J. Cioslowski, 
 and D. J. Fox, Gaussian, Inc., Wallingford CT, 2009.
 
 ******************************************
 Gaussian 09:  EM64L-G09RevA.02 11-Jun-2009
                13-Feb-2017 
 ******************************************
 %chk=structure_75.chk
 %NProcShared=8
 Will use up to    8 processors via shared memory.
 -------------------
 #SP MP2/aug-cc-pVDZ
 -------------------
 1/38=1/1;
 2/12=2,17=6,18=5,40=1/2;
 3/5=16,7=10,11=9,16=1,25=1,30=1/1,2,3;
 4//1;
 5/5=2,38=5/2;
 8/10=1/1;
 9/16=-3/6;
 6/7=2,8=2,9=2,10=2/1;
 99/5=1,9=1/99;
 -------------------------------
 Single Point calculation at MP2
 -------------------------------
 Symbolic Z-matrix:
 Charge =  0 Multiplicity = 1
 H                    -3.9338   -0.7606    0.065 
 C                    -3.0937   -0.6016    0.7474 
 H                    -2.9822   -1.5125    1.3445 
 H                    -3.3282    0.2341    1.4134 
 C                    -1.8336   -0.3953   -0.0755 
 O                    -1.4901   -1.2081   -0.9371 
 N                    -1.1336    0.744     0.1792 
 H                    -1.3929    1.3012    0.9824 
 C                     0.1369    1.0809   -0.4782 
 H                     0.0066    0.82     -1.5344 
 C                     0.4158    2.5725   -0.3335 
 H                     0.5946    2.8325    0.7144 
 H                     1.3189    2.8412   -0.8874 
 H                    -0.4236    3.1584   -0.7219 
 C                     1.3137    0.2372    0.0856 
 O                     2.1533    0.7266    0.8355 
 N                     1.3236   -1.0522   -0.3423 
 H                     0.4905   -1.3793   -0.8275 
 C                     2.29     -2.0176    0.1499 
 H                     3.1464   -1.4698    0.5458 
 H                     1.8738   -2.6428    0.9515 
 H                     2.6191   -2.6693   -0.6659 
 
                          Input orientation:                          
 ---------------------------------------------------------------------
 Center     Atomic      Atomic             Coordinates (Angstroms)
 Number     Number       Type             X           Y           Z
 ---------------------------------------------------------------------
      1          1           0       -3.933800   -0.760600    0.065000
      2          6           0       -3.093700   -0.601600    0.747400
      3          1           0       -2.982200   -1.512500    1.344500
      4          1           0       -3.328200    0.234100    1.413400
      5          6           0       -1.833600   -0.395300   -0.075500
      6          8           0       -1.490100   -1.208100   -0.937100
      7          7           0       -1.133600    0.744000    0.179200
      8          1           0       -1.392900    1.301200    0.982400
      9          6           0        0.136900    1.080900   -0.478200
     10          1           0        0.006600    0.820000   -1.534400
     11          6           0        0.415800    2.572500   -0.333500
     12          1           0        0.594600    2.832500    0.714400
     13          1           0        1.318900    2.841200   -0.887400
     14          1           0       -0.423600    3.158400   -0.721900
     15          6           0        1.313700    0.237200    0.085600
     16          8           0        2.153300    0.726600    0.835500
     17          7           0        1.323600   -1.052200   -0.342300
     18          1           0        0.490500   -1.379300   -0.827500
     19          6           0        2.290000   -2.017600    0.149900
     20          1           0        3.146400   -1.469800    0.545800
     21          1           0        1.873800   -2.642800    0.951500
     22          1           0        2.619100   -2.669300   -0.665900
 ---------------------------------------------------------------------
                    Distance matrix (angstroms):
                    1          2          3          4          5
     1  H    0.000000
     2  C    1.093946   0.000000
     3  H    1.762957   1.094851   0.000000
     4  H    1.781674   1.094048   1.781874   0.000000
     5  C    2.136358   1.519071   2.140985   2.201544   0.000000
     6  O    2.678830   2.403521   2.743122   3.314122   1.233284
     7  N    3.180878   2.444480   3.141184   2.568952   1.361204
     8  H    3.398355   2.562927   3.251753   2.251633   2.047311
     9  C    4.500754   3.843134   4.447105   4.037591   2.494835
    10  H    4.536863   4.103586   4.760415   4.489287   2.644178
    11  C    5.494304   4.853849   5.572191   4.747348   3.732854
    12  H    5.817086   5.039612   5.662998   4.756957   4.115676
    13  H    6.439789   5.830650   6.514257   5.803980   4.590465
    14  H    5.319706   4.840029   5.712596   4.641954   3.877463
    15  C    5.341562   4.535057   4.806354   4.828074   3.214266
    16  O    6.313337   5.413214   5.625479   5.533838   4.240749
    17  N    5.281210   4.571983   4.647266   5.135786   3.235832
    18  H    4.555631   3.991443   4.098167   4.712448   2.633477
    19  C    6.350035   5.598776   5.429391   6.183102   4.436974
    20  H    7.131856   6.303433   6.180573   6.751033   5.132345
    21  H    6.169017   5.374403   5.001276   5.962442   4.455424
    22  H    6.864244   6.237699   6.062545   6.937117   5.034500
                    6          7          8          9         10
     6  O    0.000000
     7  N    2.276821   0.000000
     8  H    3.160778   1.011355   0.000000
     9  C    2.845565   1.469642   2.126540   0.000000
    10  H    2.590380   2.059674   2.919664   1.095721   0.000000
    11  C    4.276649   2.450901   2.572779   1.524334   2.163530
    12  H    4.837342   2.763141   2.523264   2.167922   3.074573
    13  H    4.928466   3.398623   3.636153   2.159450   2.495193
    14  H    4.500006   2.673090   2.700625   2.165538   2.512637
    15  C    3.316037   2.500977   3.043358   1.553885   2.161612
    16  O    4.489937   3.351827   3.595453   2.432531   3.198980
    17  N    2.880104   3.088062   3.830495   2.444758   2.580838
    18  H    1.991004   2.856492   3.742728   2.509906   2.360252
    19  C    4.015721   4.398674   5.027051   3.825056   4.012824
    20  H    4.874896   4.832567   5.336132   4.075750   4.407807
    21  H    4.115944   4.594705   5.121271   4.350495   4.653721
    22  H    4.369689   5.142720   5.880298   4.501172   4.444622
                   11         12         13         14         15
    11  C    0.000000
    12  H    1.094378   0.000000
    13  H    1.092975   1.757967   0.000000
    14  H    1.094863   1.790503   1.778851   0.000000
    15  C    2.536828   2.765516   2.779851   3.493376   0.000000
    16  O    2.791561   2.622790   2.852392   3.870344   1.227514
    17  N    3.736660   4.091326   3.931376   4.574490   1.358583
    18  H    3.983257   4.486374   4.301448   4.630060   2.030882
    19  C    4.981498   5.168802   5.062308   5.908861   2.457930
    20  H    4.956767   5.004987   4.896789   5.980986   2.546453
    21  H    5.565640   5.627742   5.810656   6.460049   3.059068
    22  H    5.695743   6.022759   5.666144   6.574439   3.273616
                   16         17         18         19         20
    16  O    0.000000
    17  N    2.289049   0.000000
    18  H    3.156784   1.018071   0.000000
    19  C    2.831849   1.451960   2.144980   0.000000
    20  H    2.427828   2.070196   2.991312   1.090982   0.000000
    21  H    3.382962   2.122886   2.583562   1.098481   1.777648
    22  H    3.742099   2.097153   2.494224   1.094783   1.784674
                   21         22
    21  H    0.000000
    22  H    1.781055   0.000000
 Stoichiometry    C6H12N2O2
 Framework group  C1[X(C6H12N2O2)]
 Deg. of freedom    60
 Full point group                 C1      NOp   1
 Largest Abelian subgroup         C1      NOp   1
 Largest concise Abelian subgroup C1      NOp   1
                         Standard orientation:                         
 ---------------------------------------------------------------------
 Center     Atomic      Atomic             Coordinates (Angstroms)
 Number     Number       Type             X           Y           Z
 ---------------------------------------------------------------------
      1          1           0       -3.933798   -0.760575    0.065005
      2          6           0       -3.093697   -0.601581    0.747405
      3          1           0       -2.982203   -1.512482    1.344505
      4          1           0       -3.328191    0.234120    1.413405
      5          6           0       -1.833595   -0.395291   -0.075495
      6          8           0       -1.490101   -1.208093   -0.937095
      7          7           0       -1.133587    0.744004    0.179205
      8          1           0       -1.392883    1.301206    0.982405
      9          6           0        0.136916    1.080895   -0.478195
     10          1           0        0.006614    0.819996   -1.534395
     11          6           0        0.415826    2.572493   -0.333495
     12          1           0        0.594628    2.832492    0.714405
     13          1           0        1.318928    2.841187   -0.887395
     14          1           0       -0.423569    3.158399   -0.721895
     15          6           0        1.313709    0.237187    0.085605
     16          8           0        2.153313    0.726581    0.835505
     17          7           0        1.323600   -1.052213   -0.342295
     18          1           0        0.490498   -1.379307   -0.827495
     19          6           0        2.289993   -2.017620    0.149905
     20          1           0        3.146397   -1.469827    0.545805
     21          1           0        1.873789   -2.642817    0.951505
     22          1           0        2.619088   -2.669323   -0.665895
 ---------------------------------------------------------------------
 Rotational constants (GHZ):      1.6655063      1.0026311      0.7134003
 Standard basis: Aug-CC-pVDZ (5D, 7F)
 There are   338 symmetry adapted basis functions of A   symmetry.
 Integral buffers will be    131072 words long.
 Raffenetti 1 integral format.
 Two-electron integral symmetry is turned on.
   338 basis functions,   562 primitive gaussians,   358 cartesian basis functions
    39 alpha electrons       39 beta electrons
       nuclear repulsion energy       560.9053399548 Hartrees.
 NAtoms=   22 NActive=   22 NUniq=   22 SFac= 7.50D-01 NAtFMM=   80 NAOKFM=F Big=F
 One-electron integrals computed using PRISM.
 NBasis=   338 RedAO= T  NBF=   338
 NBsUse=   338 1.00D-06 NBFU=   338
 Harris functional with IExCor=  205 diagonalized for initial guess.
 ExpMin= 2.97D-02 ExpMax= 1.17D+04 ExpMxC= 4.01D+02 IAcc=3 IRadAn=         0 AccDes= 0.00D+00
 HarFok:  IExCor=  205 AccDes= 0.00D+00 IRadAn=         0 IDoV= 1
 ScaDFX=  1.000000  1.000000  1.000000  1.000000
 FoFCou: FMM=F IPFlag=           0 FMFlag=      100000 FMFlg1=           0
         NFxFlg=           0 DoJE=T BraDBF=F KetDBF=T FulRan=T
         Omega=  0.000000  0.000000  1.000000  0.000000  0.000000 ICntrl=     500 IOpCl=  0
         NMat0=    1 NMatS0=    1 NMatT0=    0 NMatD0=    1 NMtDS0=    0 NMtDT0=    0
         I1Cent=           4 NGrid=           0.
 Petite list used in FoFCou.
 Initial guess orbital symmetries:
       Occupied  (A) (A) (A) (A) (A) (A) (A) (A) (A) (A) (A) (A)
                 (A) (A) (A) (A) (A) (A) (A) (A) (A) (A) (A) (A)
                 (A) (A) (A) (A) (A) (A) (A) (A) (A) (A) (A) (A)
                 (A) (A) (A)
       Virtual   (A) (A) (A) (A) (A) (A) (A) (A) (A) (A) (A) (A)
                 (A) (A) (A) (A) (A) (A) (A) (A) (A) (A) (A) (A)
                 (A) (A) (A) (A) (A) (A) (A) (A) (A) (A) (A) (A)
                 (A) (A) (A) (A) (A) (A) (A) (A) (A) (A) (A) (A)
                 (A) (A) (A) (A) (A) (A) (A) (A) (A) (A) (A) (A)
                 (A) (A) (A) (A) (A) (A) (A) (A) (A) (A) (A) (A)
                 (A) (A) (A) (A) (A) (A) (A) (A) (A) (A) (A) (A)
                 (A) (A) (A) (A) (A) (A) (A) (A) (A) (A) (A) (A)
                 (A) (A) (A) (A) (A) (A) (A) (A) (A) (A) (A) (A)
                 (A) (A) (A) (A) (A) (A) (A) (A) (A) (A) (A) (A)
                 (A) (A) (A) (A) (A) (A) (A) (A) (A) (A) (A) (A)
                 (A) (A) (A) (A) (A) (A) (A) (A) (A) (A) (A) (A)
                 (A) (A) (A) (A) (A) (A) (A) (A) (A) (A) (A) (A)
                 (A) (A) (A) (A) (A) (A) (A) (A) (A) (A) (A) (A)
                 (A) (A) (A) (A) (A) (A) (A) (A) (A) (A) (A) (A)
                 (A) (A) (A) (A) (A) (A) (A) (A) (A) (A) (A) (A)
                 (A) (A) (A) (A) (A) (A) (A) (A) (A) (A) (A) (A)
                 (A) (A) (A) (A) (A) (A) (A) (A) (A) (A) (A) (A)
                 (A) (A) (A) (A) (A) (A) (A) (A) (A) (A) (A) (A)
                 (A) (A) (A) (A) (A) (A) (A) (A) (A) (A) (A) (A)
                 (A) (A) (A) (A) (A) (A) (A) (A) (A) (A) (A) (A)
                 (A) (A) (A) (A) (A) (A) (A) (A) (A) (A) (A) (A)
                 (A) (A) (A) (A) (A) (A) (A) (A) (A) (A) (A) (A)
                 (A) (A) (A) (A) (A) (A) (A) (A) (A) (A) (A) (A)
                 (A) (A) (A) (A) (A) (A) (A) (A) (A) (A) (A)
 The electronic state of the initial guess is 1-A.
 Requested convergence on RMS density matrix=1.00D-08 within 128 cycles.
 Requested convergence on MAX density matrix=1.00D-06.
 Requested convergence on             energy=1.00D-06.
 No special actions if energy rises.
 Initial convergence to 1.0D-05 achieved.  Increase integral accuracy.
 SCF Done:  E(RHF) =  -492.928313571     A.U. after   14 cycles
             Convg  =    0.8077D-08             -V/T =  2.0017
 ExpMin= 2.97D-02 ExpMax= 1.17D+04 ExpMxC= 4.01D+02 IAcc=3 IRadAn=         5 AccDes= 0.00D+00
 HarFok:  IExCor=  205 AccDes= 0.00D+00 IRadAn=         5 IDoV=-2
 ScaDFX=  1.000000  1.000000  1.000000  1.000000
 Range of M.O.s used for correlation:    11   338
 NBasis=   338 NAE=    39 NBE=    39 NFC=    10 NFV=     0
 NROrb=    328 NOA=    29 NOB=    29 NVA=   299 NVB=   299

 **** Warning!!: The largest alpha MO coefficient is  0.60542949D+02

 Disk-based method using OVN memory for 29 occupieds at a time.
 Estimated scratch disk usage=  1389459671 words.
 Actual    scratch disk usage=  1376319306 words.
 JobTyp=1 Pass  1:  I=   1 to  29 NPSUse=  8 ParTrn=T ParDer=T DoDerP=F.
 Spin components of T(2) and E(2):
     alpha-alpha T2 =       0.6808581895D-01 E2=     -0.2062841684D+00
     alpha-beta  T2 =       0.3766483279D+00 E2=     -0.1190845047D+01
     beta-beta   T2 =       0.6808581895D-01 E2=     -0.2062841684D+00
 ANorm=    0.1229967465D+01
 E2 =    -0.1603413384D+01 EUMP2 =    -0.49453172695471D+03

 **********************************************************************

            Population analysis using the SCF density.

 **********************************************************************

 Orbital symmetries:
       Occupied  (A) (A) (A) (A) (A) (A) (A) (A) (A) (A) (A) (A)
                 (A) (A) (A) (A) (A) (A) (A) (A) (A) (A) (A) (A)
                 (A) (A) (A) (A) (A) (A) (A) (A) (A) (A) (A) (A)
                 (A) (A) (A)
       Virtual   (A) (A) (A) (A) (A) (A) (A) (A) (A) (A) (A) (A)
                 (A) (A) (A) (A) (A) (A) (A) (A) (A) (A) (A) (A)
                 (A) (A) (A) (A) (A) (A) (A) (A) (A) (A) (A) (A)
                 (A) (A) (A) (A) (A) (A) (A) (A) (A) (A) (A) (A)
                 (A) (A) (A) (A) (A) (A) (A) (A) (A) (A) (A) (A)
                 (A) (A) (A) (A) (A) (A) (A) (A) (A) (A) (A) (A)
                 (A) (A) (A) (A) (A) (A) (A) (A) (A) (A) (A) (A)
                 (A) (A) (A) (A) (A) (A) (A) (A) (A) (A) (A) (A)
                 (A) (A) (A) (A) (A) (A) (A) (A) (A) (A) (A) (A)
                 (A) (A) (A) (A) (A) (A) (A) (A) (A) (A) (A) (A)
                 (A) (A) (A) (A) (A) (A) (A) (A) (A) (A) (A) (A)
                 (A) (A) (A) (A) (A) (A) (A) (A) (A) (A) (A) (A)
                 (A) (A) (A) (A) (A) (A) (A) (A) (A) (A) (A) (A)
                 (A) (A) (A) (A) (A) (A) (A) (A) (A) (A) (A) (A)
                 (A) (A) (A) (A) (A) (A) (A) (A) (A) (A) (A) (A)
                 (A) (A) (A) (A) (A) (A) (A) (A) (A) (A) (A) (A)
                 (A) (A) (A) (A) (A) (A) (A) (A) (A) (A) (A) (A)
                 (A) (A) (A) (A) (A) (A) (A) (A) (A) (A) (A) (A)
                 (A) (A) (A) (A) (A) (A) (A) (A) (A) (A) (A) (A)
                 (A) (A) (A) (A) (A) (A) (A) (A) (A) (A) (A) (A)
                 (A) (A) (A) (A) (A) (A) (A) (A) (A) (A) (A) (A)
                 (A) (A) (A) (A) (A) (A) (A) (A) (A) (A) (A) (A)
                 (A) (A) (A) (A) (A) (A) (A) (A) (A) (A) (A) (A)
                 (A) (A) (A) (A) (A) (A) (A) (A) (A) (A) (A) (A)
                 (A) (A) (A) (A) (A) (A) (A) (A) (A) (A) (A)
 The electronic state is 1-A.
 Alpha  occ. eigenvalues --  -20.54497 -20.52528 -15.61395 -15.57845 -11.37940
 Alpha  occ. eigenvalues --  -11.35150 -11.29555 -11.25887 -11.25797 -11.23610
 Alpha  occ. eigenvalues --   -1.39911  -1.37604  -1.25286  -1.22000  -1.06078
 Alpha  occ. eigenvalues --   -1.00070  -0.95518  -0.87138  -0.81441  -0.77520
 Alpha  occ. eigenvalues --   -0.72353  -0.69237  -0.67294  -0.63949  -0.62052
 Alpha  occ. eigenvalues --   -0.61091  -0.60123  -0.59334  -0.57950  -0.54868
 Alpha  occ. eigenvalues --   -0.54251  -0.53432  -0.52460  -0.51915  -0.51158
 Alpha  occ. eigenvalues --   -0.44843  -0.43739  -0.39441  -0.37940
 Alpha virt. eigenvalues --    0.02653   0.04104   0.04230   0.04671   0.05737
 Alpha virt. eigenvalues --    0.06128   0.06394   0.06940   0.07114   0.08169
 Alpha virt. eigenvalues --    0.09243   0.09919   0.11413   0.11841   0.12273
 Alpha virt. eigenvalues --    0.13011   0.13679   0.14767   0.15238   0.15575
 Alpha virt. eigenvalues --    0.15704   0.15943   0.16212   0.16822   0.17489
 Alpha virt. eigenvalues --    0.17642   0.17689   0.18011   0.18593   0.19333
 Alpha virt. eigenvalues --    0.19916   0.20115   0.20735   0.21044   0.22767
 Alpha virt. eigenvalues --    0.23515   0.23918   0.24716   0.25362   0.27118
 Alpha virt. eigenvalues --    0.27363   0.29017   0.29532   0.29723   0.30830
 Alpha virt. eigenvalues --    0.31804   0.32186   0.32290   0.33140   0.33359
 Alpha virt. eigenvalues --    0.34080   0.34466   0.35943   0.36254   0.36478
 Alpha virt. eigenvalues --    0.37510   0.37942   0.39102   0.39218   0.39701
 Alpha virt. eigenvalues --    0.40222   0.40889   0.41704   0.42218   0.42827
 Alpha virt. eigenvalues --    0.43155   0.43952   0.44585   0.45535   0.46309
 Alpha virt. eigenvalues --    0.46421   0.46827   0.47518   0.49028   0.49761
 Alpha virt. eigenvalues --    0.49908   0.50246   0.51318   0.51873   0.52376
 Alpha virt. eigenvalues --    0.53071   0.53415   0.54441   0.55517   0.55974
 Alpha virt. eigenvalues --    0.56291   0.56639   0.57749   0.58569   0.58907
 Alpha virt. eigenvalues --    0.59353   0.59860   0.60644   0.61348   0.61730
 Alpha virt. eigenvalues --    0.63196   0.63634   0.64414   0.65083   0.65715
 Alpha virt. eigenvalues --    0.66211   0.66596   0.67296   0.68127   0.69000
 Alpha virt. eigenvalues --    0.69951   0.70199   0.70294   0.70519   0.71380
 Alpha virt. eigenvalues --    0.72690   0.73168   0.74274   0.74892   0.75246
 Alpha virt. eigenvalues --    0.75784   0.77198   0.77745   0.78584   0.78889
 Alpha virt. eigenvalues --    0.79902   0.81182   0.81369   0.83636   0.84115
 Alpha virt. eigenvalues --    0.85006   0.85938   0.86315   0.86800   0.89111
 Alpha virt. eigenvalues --    0.89516   0.90664   0.91214   0.92297   0.92575
 Alpha virt. eigenvalues --    0.94516   0.95493   0.95984   0.96848   1.00405
 Alpha virt. eigenvalues --    1.00725   1.01194   1.02901   1.04478   1.06238
 Alpha virt. eigenvalues --    1.06797   1.07481   1.09446   1.10158   1.11371
 Alpha virt. eigenvalues --    1.12846   1.13342   1.14030   1.14745   1.15957
 Alpha virt. eigenvalues --    1.17081   1.17545   1.18679   1.20345   1.21717
 Alpha virt. eigenvalues --    1.22669   1.24129   1.25755   1.26865   1.28374
 Alpha virt. eigenvalues --    1.30584   1.32602   1.35970   1.36626   1.40233
 Alpha virt. eigenvalues --    1.41407   1.42902   1.44059   1.45452   1.46791
 Alpha virt. eigenvalues --    1.49200   1.50693   1.50808   1.52206   1.55880
 Alpha virt. eigenvalues --    1.56717   1.58207   1.59312   1.62919   1.63541
 Alpha virt. eigenvalues --    1.65742   1.68853   1.70928   1.71784   1.72976
 Alpha virt. eigenvalues --    1.74221   1.76604   1.77724   1.79404   1.81497
 Alpha virt. eigenvalues --    1.82700   1.83962   1.85575   1.87540   1.87906
 Alpha virt. eigenvalues --    1.89364   1.91205   1.92328   1.92954   1.94117
 Alpha virt. eigenvalues --    1.94677   1.95714   1.98551   1.98865   2.00829
 Alpha virt. eigenvalues --    2.01865   2.04353   2.05629   2.07714   2.09003
 Alpha virt. eigenvalues --    2.11587   2.13605   2.15248   2.15823   2.16855
 Alpha virt. eigenvalues --    2.19465   2.19922   2.20770   2.21537   2.24375
 Alpha virt. eigenvalues --    2.25363   2.27570   2.27666   2.29344   2.29806
 Alpha virt. eigenvalues --    2.31368   2.32148   2.33737   2.35667   2.36559
 Alpha virt. eigenvalues --    2.37546   2.39528   2.41236   2.43093   2.45149
 Alpha virt. eigenvalues --    2.46954   2.48743   2.49558   2.49709   2.52384
 Alpha virt. eigenvalues --    2.53679   2.56088   2.58740   2.60036   2.61538
 Alpha virt. eigenvalues --    2.62755   2.63675   2.65075   2.66255   2.69234
 Alpha virt. eigenvalues --    2.71211   2.73768   2.75644   2.79140   2.81078
 Alpha virt. eigenvalues --    2.82631   2.83868   2.85052   2.87496   2.89759
 Alpha virt. eigenvalues --    2.90508   2.92752   2.93119   2.94719   2.98033
 Alpha virt. eigenvalues --    3.00755   3.01626   3.04004   3.05730   3.09199
 Alpha virt. eigenvalues --    3.12978   3.14521   3.19126   3.21437   3.22727
 Alpha virt. eigenvalues --    3.35959   3.38642   3.45367   3.51143   3.51802
 Alpha virt. eigenvalues --    3.62096   3.66193   3.75664   3.82848   3.86154
 Alpha virt. eigenvalues --    3.88245   3.90665   3.93127   3.97978   4.03701
 Alpha virt. eigenvalues --    4.06342   4.15151   4.21000   4.23465
          Condensed to atoms (all electrons):
              1          2          3          4          5          6
     1  H    0.729305   0.426089  -0.052287  -0.080561  -0.112747   0.013714
     2  C    0.426089   4.504875   0.319291   0.312265   0.230421  -0.044310
     3  H   -0.052287   0.319291   0.734887  -0.068123  -0.073217   0.016537
     4  H   -0.080561   0.312265  -0.068123   1.095425   0.164843  -0.009288
     5  C   -0.112747   0.230421  -0.073217   0.164843   5.659098   0.129057
     6  O    0.013714  -0.044310   0.016537  -0.009288   0.129057   8.810659
     7  N    0.045236  -0.057304   0.060292  -0.218315   0.034669  -0.107366
     8  H   -0.004244  -0.042506  -0.004056   0.008591  -0.096079  -0.009108
     9  C   -0.008571   0.009407   0.014393  -0.028627  -0.338656   0.093497
    10  H   -0.000807  -0.006895   0.000953  -0.003511  -0.015268   0.000421
    11  C    0.002402  -0.019421  -0.000789  -0.007815  -0.041139  -0.003773
    12  H   -0.000008  -0.004398  -0.000523  -0.001162  -0.027808   0.001360
    13  H    0.000040   0.000047   0.000078  -0.000725   0.003847  -0.000322
    14  H    0.000246   0.009380   0.000173   0.002686   0.020845   0.000966
    15  C   -0.002569  -0.028265   0.002885  -0.019647  -0.207595   0.049736
    16  O    0.000207   0.002295   0.000569   0.000453   0.040990  -0.005498
    17  N    0.000248   0.003359   0.000070   0.004820   0.076905  -0.052966
    18  H   -0.003051  -0.014097  -0.002526   0.004425  -0.018002   0.041839
    19  C    0.000062  -0.000203   0.000311  -0.000507  -0.006983  -0.000336
    20  H   -0.000119   0.000349   0.000102  -0.000100  -0.009830   0.001121
    21  H   -0.000113  -0.000717   0.000590   0.000028   0.010985   0.000280
    22  H    0.000132  -0.000723  -0.000314  -0.000140  -0.003124  -0.000656
              7          8          9         10         11         12
     1  H    0.045236  -0.004244  -0.008571  -0.000807   0.002402  -0.000008
     2  C   -0.057304  -0.042506   0.009407  -0.006895  -0.019421  -0.004398
     3  H    0.060292  -0.004056   0.014393   0.000953  -0.000789  -0.000523
     4  H   -0.218315   0.008591  -0.028627  -0.003511  -0.007815  -0.001162
     5  C    0.034669  -0.096079  -0.338656  -0.015268  -0.041139  -0.027808
     6  O   -0.107366  -0.009108   0.093497   0.000421  -0.003773   0.001360
     7  N    7.421891   0.376992  -0.229211   0.085784  -0.069534   0.010935
     8  H    0.376992   0.947146  -0.135449   0.001968   0.006997   0.011890
     9  C   -0.229211  -0.135449   7.474587  -0.362320   0.109667  -0.175991
    10  H    0.085784   0.001968  -0.362320   1.440149  -0.017389   0.059665
    11  C   -0.069534   0.006997   0.109667  -0.017389   4.454533   0.462243
    12  H    0.010935   0.011890  -0.175991   0.059665   0.462243   0.978087
    13  H    0.068630   0.004861  -0.044148  -0.051837   0.212004  -0.135740
    14  H   -0.098024  -0.015751   0.288442  -0.067311   0.177119  -0.211388
    15  C    0.126012  -0.006984  -0.635652   0.116159   0.046126   0.038862
    16  O    0.019220  -0.004073  -0.052591  -0.011492  -0.040595   0.002518
    17  N   -0.017509   0.012036   0.114360  -0.015406  -0.033894  -0.004202
    18  H   -0.006559  -0.001469  -0.026891   0.039960   0.008646   0.000772
    19  C    0.002841   0.002616  -0.013941   0.014076  -0.001453   0.000878
    20  H   -0.001004  -0.000572   0.006955   0.003533  -0.005847  -0.001157
    21  H    0.001104   0.000134  -0.006577  -0.000515   0.002915  -0.000039
    22  H   -0.000858   0.000074   0.003842  -0.001540   0.004137   0.000646
             13         14         15         16         17         18
     1  H    0.000040   0.000246  -0.002569   0.000207   0.000248  -0.003051
     2  C    0.000047   0.009380  -0.028265   0.002295   0.003359  -0.014097
     3  H    0.000078   0.000173   0.002885   0.000569   0.000070  -0.002526
     4  H   -0.000725   0.002686  -0.019647   0.000453   0.004820   0.004425
     5  C    0.003847   0.020845  -0.207595   0.040990   0.076905  -0.018002
     6  O   -0.000322   0.000966   0.049736  -0.005498  -0.052966   0.041839
     7  N    0.068630  -0.098024   0.126012   0.019220  -0.017509  -0.006559
     8  H    0.004861  -0.015751  -0.006984  -0.004073   0.012036  -0.001469
     9  C   -0.044148   0.288442  -0.635652  -0.052591   0.114360  -0.026891
    10  H   -0.051837  -0.067311   0.116159  -0.011492  -0.015406   0.039960
    11  C    0.212004   0.177119   0.046126  -0.040595  -0.033894   0.008646
    12  H   -0.135740  -0.211388   0.038862   0.002518  -0.004202   0.000772
    13  H    1.171555  -0.180574   0.009947   0.015079  -0.008088   0.001585
    14  H   -0.180574   1.157679  -0.086101   0.009069   0.015439  -0.001224
    15  C    0.009947  -0.086101   5.393955   0.245501   0.023545  -0.064497
    16  O    0.015079   0.009069   0.245501   8.755100  -0.161094   0.006347
    17  N   -0.008088   0.015439   0.023545  -0.161094   7.192070   0.224231
    18  H    0.001585  -0.001224  -0.064497   0.006347   0.224231   0.991844
    19  C   -0.000831   0.000310  -0.091896   0.006509   0.231415  -0.136437
    20  H   -0.000602   0.000338   0.032825  -0.011840  -0.058062   0.001960
    21  H    0.000226   0.000077  -0.032461   0.006732   0.061559  -0.011535
    22  H   -0.000036  -0.000053  -0.008686   0.009378  -0.112147   0.012829
             19         20         21         22
     1  H    0.000062  -0.000119  -0.000113   0.000132
     2  C   -0.000203   0.000349  -0.000717  -0.000723
     3  H    0.000311   0.000102   0.000590  -0.000314
     4  H   -0.000507  -0.000100   0.000028  -0.000140
     5  C   -0.006983  -0.009830   0.010985  -0.003124
     6  O   -0.000336   0.001121   0.000280  -0.000656
     7  N    0.002841  -0.001004   0.001104  -0.000858
     8  H    0.002616  -0.000572   0.000134   0.000074
     9  C   -0.013941   0.006955  -0.006577   0.003842
    10  H    0.014076   0.003533  -0.000515  -0.001540
    11  C   -0.001453  -0.005847   0.002915   0.004137
    12  H    0.000878  -0.001157  -0.000039   0.000646
    13  H   -0.000831  -0.000602   0.000226  -0.000036
    14  H    0.000310   0.000338   0.000077  -0.000053
    15  C   -0.091896   0.032825  -0.032461  -0.008686
    16  O    0.006509  -0.011840   0.006732   0.009378
    17  N    0.231415  -0.058062   0.061559  -0.112147
    18  H   -0.136437   0.001960  -0.011535   0.012829
    19  C    4.102297   0.462039   0.287867   0.390436
    20  H    0.462039   0.995182  -0.113258  -0.160795
    21  H    0.287867  -0.113258   1.034550  -0.147673
    22  H    0.390436  -0.160795  -0.147673   1.145615
 Mulliken atomic charges:
              1
     1  H    0.047395
     2  C    0.401062
     3  H    0.050704
     4  H   -0.155015
     5  C    0.578788
     6  O   -0.925565
     7  N   -0.447922
     8  H   -0.053014
     9  C   -0.056522
    10  H   -0.208377
    11  C    0.754860
    12  H   -0.005440
    13  H   -0.064996
    14  H   -0.022342
    15  C    1.098801
    16  O   -0.832784
    17  N   -0.496688
    18  H   -0.048151
    19  C    0.750928
    20  H   -0.141219
    21  H   -0.094158
    22  H   -0.130344
 Sum of Mulliken atomic charges =   0.00000
 Mulliken charges with hydrogens summed into heavy atoms:
              1
     2  C    0.344146
     5  C    0.578788
     6  O   -0.925565
     7  N   -0.500936
     9  C   -0.264900
    11  C    0.662082
    15  C    1.098801
    16  O   -0.832784
    17  N   -0.544839
    19  C    0.385207
 Sum of Mulliken charges with hydrogens summed into heavy atoms =   0.00000
 Electronic spatial extent (au):  <R**2>=           1704.5533
 Charge=              0.0000 electrons
 Dipole moment (field-independent basis, Debye):
    X=             -3.2699    Y=              0.6359    Z=              0.6795  Tot=              3.3998
 Quadrupole moment (field-independent basis, Debye-Ang):
   XX=            -61.9396   YY=            -59.0889   ZZ=            -62.8927
   XY=             -7.6079   XZ=             -9.6523   YZ=             -3.8576
 Traceless Quadrupole moment (field-independent basis, Debye-Ang):
   XX=             -0.6325   YY=              2.2182   ZZ=             -1.5857
   XY=             -7.6079   XZ=             -9.6523   YZ=             -3.8576
 Octapole moment (field-independent basis, Debye-Ang**2):
  XXX=            -34.9907  YYY=             -0.4894  ZZZ=              0.9083  XYY=              7.0601
  XXY=            -12.7964  XXZ=              0.6933  XZZ=             -3.8402  YZZ=              2.1142
  YYZ=              3.6640  XYZ=             -1.0045
 Hexadecapole moment (field-independent basis, Debye-Ang**3):
 XXXX=          -1223.1956 YYYY=           -773.7306 ZZZZ=           -199.3295 XXXY=            -18.4937
 XXXZ=            -27.4463 YYYX=            -13.7833 YYYZ=              1.6162 ZZZX=             -6.1742
 ZZZY=              3.3151 XXYY=           -338.1057 XXZZ=           -253.2408 YYZZ=           -157.9654
 XXYZ=            -14.6483 YYXZ=            -16.6828 ZZXY=             -8.2974
 N-N= 5.609053399548D+02 E-N=-2.277064184538D+03  KE= 4.920809308597D+02
 1\1\GINC-NODE012\SP\RMP2-FC\Aug-CC-pVDZ\C6H12N2O2\MANAGER\13-Feb-2017\
 0\\#SP MP2/aug-cc-pVDZ\\Single Point calculation at MP2\\0,1\H,0,-3.93
 38,-0.7606,0.065\C,0,-3.0937,-0.6016,0.7474\H,0,-2.9822,-1.5125,1.3445
 \H,0,-3.3282,0.2341,1.4134\C,0,-1.8336,-0.3953,-0.0755\O,0,-1.4901,-1.
 2081,-0.9371\N,0,-1.1336,0.744,0.1792\H,0,-1.3929,1.3012,0.9824\C,0,0.
 1369,1.0809,-0.4782\H,0,0.0066,0.82,-1.5344\C,0,0.4158,2.5725,-0.3335\
 H,0,0.5946,2.8325,0.7144\H,0,1.3189,2.8412,-0.8874\H,0,-0.4236,3.1584,
 -0.7219\C,0,1.3137,0.2372,0.0856\O,0,2.1533,0.7266,0.8355\N,0,1.3236,-
 1.0522,-0.3423\H,0,0.4905,-1.3793,-0.8275\C,0,2.29,-2.0176,0.1499\H,0,
 3.1464,-1.4698,0.5458\H,0,1.8738,-2.6428,0.9515\H,0,2.6191,-2.6693,-0.
 6659\\Version=EM64L-G09RevA.02\State=1-A\HF=-492.9283136\MP2=-494.5317
 27\RMSD=8.077e-09\PG=C01 [X(C6H12N2O2)]\\@


 WE HAVE LEFT UNDONE THOSE THINGS WHICH WE OUGHT TO HAVE DONE,
 AND WE HAVE DONE THOSE THINGS WHICH WE OUGHT NOT TO HAVE DONE.
                   BOOK OF COMMON PRAYER                      
 Job cpu time:  0 days 11 hours 16 minutes 27.5 seconds.
 File lengths (MBytes):  RWF=  10617 Int=      0 D2E=      0 Chk=      7 Scr=      2
 Normal termination of Gaussian 09 at Mon Feb 13 14:15:52 2017.
