 Entering Gaussian System, Link 0=g09
 Initial command:
 /home/steboss/Software/g09/l1.exe /home/steboss/projects/phi_psi_scan/alanine/MP2/285/5496/Gau-9339.inp -scrdir=/home/steboss/projects/phi_psi_scan/alanine/MP2/285/5496/
 Entering Link 1 = /home/steboss/Software/g09/l1.exe PID=      9341.
  
 Copyright (c) 1988,1990,1992,1993,1995,1998,2003,2009, Gaussian, Inc.
                  All Rights Reserved.
  
 This is part of the Gaussian(R) 09 program.  It is based on
 the Gaussian(R) 03 system (copyright 2003, Gaussian, Inc.),
 the Gaussian(R) 98 system (copyright 1998, Gaussian, Inc.),
 the Gaussian(R) 94 system (copyright 1995, Gaussian, Inc.),
 the Gaussian 92(TM) system (copyright 1992, Gaussian, Inc.),
 the Gaussian 90(TM) system (copyright 1990, Gaussian, Inc.),
 the Gaussian 88(TM) system (copyright 1988, Gaussian, Inc.),
 the Gaussian 86(TM) system (copyright 1986, Carnegie Mellon
 University), and the Gaussian 82(TM) system (copyright 1983,
 Carnegie Mellon University). Gaussian is a federally registered
 trademark of Gaussian, Inc.
  
 This software contains proprietary and confidential information,
 including trade secrets, belonging to Gaussian, Inc.
  
 This software is provided under written license and may be
 used, copied, transmitted, or stored only in accord with that
 written license.
  
 The following legend is applicable only to US Government
 contracts under FAR:
  
                    RESTRICTED RIGHTS LEGEND
  
 Use, reproduction and disclosure by the US Government is
 subject to restrictions as set forth in subparagraphs (a)
 and (c) of the Commercial Computer Software - Restricted
 Rights clause in FAR 52.227-19.
  
 Gaussian, Inc.
 340 Quinnipiac St., Bldg. 40, Wallingford CT 06492
  
  
 ---------------------------------------------------------------
 Warning -- This program may not be used in any manner that
 competes with the business of Gaussian, Inc. or will provide
 assistance to any competitor of Gaussian, Inc.  The licensee
 of this program is prohibited from giving any competitor of
 Gaussian, Inc. access to this program.  By using this program,
 the user acknowledges that Gaussian, Inc. is engaged in the
 business of creating and licensing software in the field of
 computational chemistry and represents and warrants to the
 licensee that it is not a competitor of Gaussian, Inc. and that
 it will not use this program in any manner prohibited above.
 ---------------------------------------------------------------
  

 Cite this work as:
 Gaussian 09, Revision A.02,
 M. J. Frisch, G. W. Trucks, H. B. Schlegel, G. E. Scuseria, 
 M. A. Robb, J. R. Cheeseman, G. Scalmani, V. Barone, B. Mennucci, 
 G. A. Petersson, H. Nakatsuji, M. Caricato, X. Li, H. P. Hratchian, 
 A. F. Izmaylov, J. Bloino, G. Zheng, J. L. Sonnenberg, M. Hada, 
 M. Ehara, K. Toyota, R. Fukuda, J. Hasegawa, M. Ishida, T. Nakajima, 
 Y. Honda, O. Kitao, H. Nakai, T. Vreven, J. A. Montgomery, Jr., 
 J. E. Peralta, F. Ogliaro, M. Bearpark, J. J. Heyd, E. Brothers, 
 K. N. Kudin, V. N. Staroverov, R. Kobayashi, J. Normand, 
 K. Raghavachari, A. Rendell, J. C. Burant, S. S. Iyengar, J. Tomasi, 
 M. Cossi, N. Rega, J. M. Millam, M. Klene, J. E. Knox, J. B. Cross, 
 V. Bakken, C. Adamo, J. Jaramillo, R. Gomperts, R. E. Stratmann, 
 O. Yazyev, A. J. Austin, R. Cammi, C. Pomelli, J. W. Ochterski, 
 R. L. Martin, K. Morokuma, V. G. Zakrzewski, G. A. Voth, 
 P. Salvador, J. J. Dannenberg, S. Dapprich, A. D. Daniels, 
 O. Farkas, J. B. Foresman, J. V. Ortiz, J. Cioslowski, 
 and D. J. Fox, Gaussian, Inc., Wallingford CT, 2009.
 
 ******************************************
 Gaussian 09:  EM64L-G09RevA.02 11-Jun-2009
                13-Feb-2017 
 ******************************************
 %chk=structure_15.chk
 %NProcShared=8
 Will use up to    8 processors via shared memory.
 -------------------
 #SP MP2/aug-cc-pVDZ
 -------------------
 1/38=1/1;
 2/12=2,17=6,18=5,40=1/2;
 3/5=16,7=10,11=9,16=1,25=1,30=1/1,2,3;
 4//1;
 5/5=2,38=5/2;
 8/10=1/1;
 9/16=-3/6;
 6/7=2,8=2,9=2,10=2/1;
 99/5=1,9=1/99;
 -------------------------------
 Single Point calculation at MP2
 -------------------------------
 Symbolic Z-matrix:
 Charge =  0 Multiplicity = 1
 H                     3.4206   -1.5541   -0.7262 
 C                     3.2598   -0.5029   -0.4727 
 H                     3.3955    0.1099   -1.3693 
 H                     4.0235   -0.2231    0.261 
 C                     1.8896   -0.3551    0.17 
 O                     1.5089   -1.1049    1.0693 
 N                     1.1089    0.6503   -0.3127 
 H                     1.4612    1.2007   -1.0834 
 C                    -0.1425    1.108     0.2994 
 H                     0.0249    1.1312    1.3851 
 C                    -0.4595    2.5228   -0.1878 
 H                    -0.5676    2.5454   -1.2795 
 H                    -1.4056    2.8479    0.2457 
 H                     0.3333    3.2199    0.1033 
 C                    -1.3802    0.1915    0.1094 
 O                    -2.5021    0.6446    0.3102 
 N                    -1.1502   -1.0807   -0.32 
 H                    -0.2401   -1.4633   -0.0856 
 C                    -2.2609   -2.0208   -0.3875 
 H                    -3.1017   -1.5409   -0.8915 
 H                    -1.9486   -2.8989   -0.9588 
 H                    -2.599    -2.3402    0.6072 
 
                          Input orientation:                          
 ---------------------------------------------------------------------
 Center     Atomic      Atomic             Coordinates (Angstroms)
 Number     Number       Type             X           Y           Z
 ---------------------------------------------------------------------
      1          1           0        3.420600   -1.554100   -0.726200
      2          6           0        3.259800   -0.502900   -0.472700
      3          1           0        3.395500    0.109900   -1.369300
      4          1           0        4.023500   -0.223100    0.261000
      5          6           0        1.889600   -0.355100    0.170000
      6          8           0        1.508900   -1.104900    1.069300
      7          7           0        1.108900    0.650300   -0.312700
      8          1           0        1.461200    1.200700   -1.083400
      9          6           0       -0.142500    1.108000    0.299400
     10          1           0        0.024900    1.131200    1.385100
     11          6           0       -0.459500    2.522800   -0.187800
     12          1           0       -0.567600    2.545400   -1.279500
     13          1           0       -1.405600    2.847900    0.245700
     14          1           0        0.333300    3.219900    0.103300
     15          6           0       -1.380200    0.191500    0.109400
     16          8           0       -2.502100    0.644600    0.310200
     17          7           0       -1.150200   -1.080700   -0.320000
     18          1           0       -0.240100   -1.463300   -0.085600
     19          6           0       -2.260900   -2.020800   -0.387500
     20          1           0       -3.101700   -1.540900   -0.891500
     21          1           0       -1.948600   -2.898900   -0.958800
     22          1           0       -2.599000   -2.340200    0.607200
 ---------------------------------------------------------------------
                    Distance matrix (angstroms):
                    1          2          3          4          5
     1  H    0.000000
     2  C    1.093225   0.000000
     3  H    1.784125   1.094454   0.000000
     4  H    1.763410   1.095373   1.778525   0.000000
     5  C    2.141200   1.520643   2.203044   2.139915   0.000000
     6  O    2.660864   2.409527   3.313875   2.784624   1.231208
     7  N    3.220919   2.445780   2.576233   3.096264   1.361367
     8  H    3.399377   2.551503   2.238995   3.224903   2.043294
     9  C    4.564462   3.842757   4.037104   4.373655   2.507356
    10  H    4.816555   4.072626   4.471098   4.368813   2.676315
    11  C    5.653863   4.803043   4.698835   5.276237   3.732104
    12  H    5.746110   4.959037   4.652514   5.578166   4.068388
    13  H    6.604120   5.788775   5.758075   6.237500   4.596007
    14  H    5.745482   4.770264   4.606270   5.049425   3.899634
    15  C    5.176198   4.727645   5.000052   5.421702   3.315726
    16  O    6.402092   5.926987   6.155348   6.583220   4.506227
    17  N    4.613168   4.450311   4.814763   5.276382   3.163381
    18  H    3.717437   3.649865   4.164184   4.453820   2.414345
    19  C    5.710689   5.726204   6.123616   6.568559   4.506885
    20  H    6.524408   6.459220   6.720643   7.337120   5.238891
    21  H    5.539937   5.753654   6.146608   6.656861   4.740980
    22  H    6.215424   6.234372   6.770788   6.961284   4.927403
                    6          7          8          9         10
     6  O    0.000000
     7  N    2.269505   0.000000
     8  H    3.154708   1.010462   0.000000
     9  C    2.866495   1.466342   2.119571   0.000000
    10  H    2.702245   2.070953   2.856795   1.098775   0.000000
    11  C    4.314523   2.445759   2.497826   1.529546   2.155275
    12  H    4.811798   2.708645   2.441865   2.177098   3.074266
    13  H    4.979684   3.385848   3.563470   2.150711   2.508310
    14  H    4.584658   2.716147   2.599535   2.173698   2.469978
    15  C    3.308921   2.565986   3.242655   1.551765   2.117723
    16  O    4.441295   3.664336   4.237820   2.404697   2.788892
    17  N    3.000259   2.846041   3.550630   2.487875   3.029972
    18  H    2.126322   2.517674   3.314653   2.601794   2.994096
    19  C    4.143975   4.300689   4.971556   3.840422   4.278095
    20  H    5.029161   4.781790   5.326655   4.146297   4.700920
    21  H    4.391575   4.728908   5.333759   4.571686   5.062635
    22  H    4.314434   4.851580   5.646355   4.244905   4.420475
                   11         12         13         14         15
    11  C    0.000000
    12  H    1.097272   0.000000
    13  H    1.090283   1.766348   0.000000
    14  H    1.095089   1.782893   1.783938   0.000000
    15  C    2.524079   2.851352   2.660016   3.479558   0.000000
    16  O    2.819194   3.143641   2.461911   3.835945   1.226491
    17  N    3.671479   3.795875   3.977329   4.568929   1.362269
    18  H    3.993441   4.195513   4.478236   4.721952   2.018964
    19  C    4.891751   4.951072   4.983645   5.868193   2.432450
    20  H    4.897966   4.823904   4.840614   5.954332   2.639427
    21  H    5.675094   5.625870   5.896726   6.616256   3.318840
    22  H    5.371988   5.617411   5.335847   6.306109   2.853556
                   16         17         18         19         20
    16  O    0.000000
    17  N    2.280668   0.000000
    18  H    3.117137   1.014696   0.000000
    19  C    2.765740   1.456708   2.117919   0.000000
    20  H    2.565154   2.084886   2.973929   1.091451   0.000000
    21  H    3.804355   2.085991   2.396330   1.093149   1.782788
    22  H    3.001105   2.131915   2.610237   1.098069   1.771352
                   21         22
    21  H    0.000000
    22  H    1.785363   0.000000
 Stoichiometry    C6H12N2O2
 Framework group  C1[X(C6H12N2O2)]
 Deg. of freedom    60
 Full point group                 C1      NOp   1
 Largest Abelian subgroup         C1      NOp   1
 Largest concise Abelian subgroup C1      NOp   1
                         Standard orientation:                         
 ---------------------------------------------------------------------
 Center     Atomic      Atomic             Coordinates (Angstroms)
 Number     Number       Type             X           Y           Z
 ---------------------------------------------------------------------
      1          1           0        3.420603   -1.554112   -0.726199
      2          6           0        3.259805   -0.502912   -0.472699
      3          1           0        3.395507    0.109888   -1.369299
      4          1           0        4.023506   -0.223113    0.261001
      5          6           0        1.889606   -0.355108    0.170001
      6          8           0        1.508904   -1.104907    1.069301
      7          7           0        1.108908    0.650294   -0.312699
      8          1           0        1.461209    1.200693   -1.083399
      9          6           0       -0.142491    1.107996    0.299401
     10          1           0        0.024909    1.131196    1.385101
     11          6           0       -0.459488    2.522797   -0.187799
     12          1           0       -0.567588    2.545398   -1.279499
     13          1           0       -1.405587    2.847900    0.245701
     14          1           0        0.333314    3.219895    0.103301
     15          6           0       -1.380193    0.191499    0.109401
     16          8           0       -2.502092    0.644602    0.310201
     17          7           0       -1.150196   -1.080701   -0.319999
     18          1           0       -0.240097   -1.463303   -0.085599
     19          6           0       -2.260898   -2.020798   -0.387499
     20          1           0       -3.101697   -1.540896   -0.891499
     21          1           0       -1.948601   -2.898899   -0.958799
     22          1           0       -2.598999   -2.340198    0.607201
 ---------------------------------------------------------------------
 Rotational constants (GHZ):      1.8011028      0.9482079      0.6859083
 Standard basis: Aug-CC-pVDZ (5D, 7F)
 There are   338 symmetry adapted basis functions of A   symmetry.
 Integral buffers will be    131072 words long.
 Raffenetti 1 integral format.
 Two-electron integral symmetry is turned on.
   338 basis functions,   562 primitive gaussians,   358 cartesian basis functions
    39 alpha electrons       39 beta electrons
       nuclear repulsion energy       559.3896950815 Hartrees.
 NAtoms=   22 NActive=   22 NUniq=   22 SFac= 7.50D-01 NAtFMM=   80 NAOKFM=F Big=F
 One-electron integrals computed using PRISM.
 NBasis=   338 RedAO= T  NBF=   338
 NBsUse=   338 1.00D-06 NBFU=   338
 Harris functional with IExCor=  205 diagonalized for initial guess.
 ExpMin= 2.97D-02 ExpMax= 1.17D+04 ExpMxC= 4.01D+02 IAcc=3 IRadAn=         0 AccDes= 0.00D+00
 HarFok:  IExCor=  205 AccDes= 0.00D+00 IRadAn=         0 IDoV= 1
 ScaDFX=  1.000000  1.000000  1.000000  1.000000
 FoFCou: FMM=F IPFlag=           0 FMFlag=      100000 FMFlg1=           0
         NFxFlg=           0 DoJE=T BraDBF=F KetDBF=T FulRan=T
         Omega=  0.000000  0.000000  1.000000  0.000000  0.000000 ICntrl=     500 IOpCl=  0
         NMat0=    1 NMatS0=    1 NMatT0=    0 NMatD0=    1 NMtDS0=    0 NMtDT0=    0
         I1Cent=           4 NGrid=           0.
 Petite list used in FoFCou.
 Initial guess orbital symmetries:
       Occupied  (A) (A) (A) (A) (A) (A) (A) (A) (A) (A) (A) (A)
                 (A) (A) (A) (A) (A) (A) (A) (A) (A) (A) (A) (A)
                 (A) (A) (A) (A) (A) (A) (A) (A) (A) (A) (A) (A)
                 (A) (A) (A)
       Virtual   (A) (A) (A) (A) (A) (A) (A) (A) (A) (A) (A) (A)
                 (A) (A) (A) (A) (A) (A) (A) (A) (A) (A) (A) (A)
                 (A) (A) (A) (A) (A) (A) (A) (A) (A) (A) (A) (A)
                 (A) (A) (A) (A) (A) (A) (A) (A) (A) (A) (A) (A)
                 (A) (A) (A) (A) (A) (A) (A) (A) (A) (A) (A) (A)
                 (A) (A) (A) (A) (A) (A) (A) (A) (A) (A) (A) (A)
                 (A) (A) (A) (A) (A) (A) (A) (A) (A) (A) (A) (A)
                 (A) (A) (A) (A) (A) (A) (A) (A) (A) (A) (A) (A)
                 (A) (A) (A) (A) (A) (A) (A) (A) (A) (A) (A) (A)
                 (A) (A) (A) (A) (A) (A) (A) (A) (A) (A) (A) (A)
                 (A) (A) (A) (A) (A) (A) (A) (A) (A) (A) (A) (A)
                 (A) (A) (A) (A) (A) (A) (A) (A) (A) (A) (A) (A)
                 (A) (A) (A) (A) (A) (A) (A) (A) (A) (A) (A) (A)
                 (A) (A) (A) (A) (A) (A) (A) (A) (A) (A) (A) (A)
                 (A) (A) (A) (A) (A) (A) (A) (A) (A) (A) (A) (A)
                 (A) (A) (A) (A) (A) (A) (A) (A) (A) (A) (A) (A)
                 (A) (A) (A) (A) (A) (A) (A) (A) (A) (A) (A) (A)
                 (A) (A) (A) (A) (A) (A) (A) (A) (A) (A) (A) (A)
                 (A) (A) (A) (A) (A) (A) (A) (A) (A) (A) (A) (A)
                 (A) (A) (A) (A) (A) (A) (A) (A) (A) (A) (A) (A)
                 (A) (A) (A) (A) (A) (A) (A) (A) (A) (A) (A) (A)
                 (A) (A) (A) (A) (A) (A) (A) (A) (A) (A) (A) (A)
                 (A) (A) (A) (A) (A) (A) (A) (A) (A) (A) (A) (A)
                 (A) (A) (A) (A) (A) (A) (A) (A) (A) (A) (A) (A)
                 (A) (A) (A) (A) (A) (A) (A) (A) (A) (A) (A)
 The electronic state of the initial guess is 1-A.
 Requested convergence on RMS density matrix=1.00D-08 within 128 cycles.
 Requested convergence on MAX density matrix=1.00D-06.
 Requested convergence on             energy=1.00D-06.
 No special actions if energy rises.
 Initial convergence to 1.0D-05 achieved.  Increase integral accuracy.
 SCF Done:  E(RHF) =  -492.924830222     A.U. after   14 cycles
             Convg  =    0.7283D-08             -V/T =  2.0017
 ExpMin= 2.97D-02 ExpMax= 1.17D+04 ExpMxC= 4.01D+02 IAcc=3 IRadAn=         5 AccDes= 0.00D+00
 HarFok:  IExCor=  205 AccDes= 0.00D+00 IRadAn=         5 IDoV=-2
 ScaDFX=  1.000000  1.000000  1.000000  1.000000
 Range of M.O.s used for correlation:    11   338
 NBasis=   338 NAE=    39 NBE=    39 NFC=    10 NFV=     0
 NROrb=    328 NOA=    29 NOB=    29 NVA=   299 NVB=   299

 **** Warning!!: The largest alpha MO coefficient is  0.58133447D+02

 Disk-based method using OVN memory for 29 occupieds at a time.
 Estimated scratch disk usage=  1388243600 words.
 Actual    scratch disk usage=  1375195712 words.
 JobTyp=1 Pass  1:  I=   1 to  29 NPSUse=  8 ParTrn=T ParDer=T DoDerP=F.
 Spin components of T(2) and E(2):
     alpha-alpha T2 =       0.6803235748D-01 E2=     -0.2061006569D+00
     alpha-beta  T2 =       0.3765183824D+00 E2=     -0.1190492017D+01
     beta-beta   T2 =       0.6803235748D-01 E2=     -0.2061006569D+00
 ANorm=    0.1229871171D+01
 E2 =    -0.1602693331D+01 EUMP2 =    -0.49452752355246D+03

 **********************************************************************

            Population analysis using the SCF density.

 **********************************************************************

 Orbital symmetries:
       Occupied  (A) (A) (A) (A) (A) (A) (A) (A) (A) (A) (A) (A)
                 (A) (A) (A) (A) (A) (A) (A) (A) (A) (A) (A) (A)
                 (A) (A) (A) (A) (A) (A) (A) (A) (A) (A) (A) (A)
                 (A) (A) (A)
       Virtual   (A) (A) (A) (A) (A) (A) (A) (A) (A) (A) (A) (A)
                 (A) (A) (A) (A) (A) (A) (A) (A) (A) (A) (A) (A)
                 (A) (A) (A) (A) (A) (A) (A) (A) (A) (A) (A) (A)
                 (A) (A) (A) (A) (A) (A) (A) (A) (A) (A) (A) (A)
                 (A) (A) (A) (A) (A) (A) (A) (A) (A) (A) (A) (A)
                 (A) (A) (A) (A) (A) (A) (A) (A) (A) (A) (A) (A)
                 (A) (A) (A) (A) (A) (A) (A) (A) (A) (A) (A) (A)
                 (A) (A) (A) (A) (A) (A) (A) (A) (A) (A) (A) (A)
                 (A) (A) (A) (A) (A) (A) (A) (A) (A) (A) (A) (A)
                 (A) (A) (A) (A) (A) (A) (A) (A) (A) (A) (A) (A)
                 (A) (A) (A) (A) (A) (A) (A) (A) (A) (A) (A) (A)
                 (A) (A) (A) (A) (A) (A) (A) (A) (A) (A) (A) (A)
                 (A) (A) (A) (A) (A) (A) (A) (A) (A) (A) (A) (A)
                 (A) (A) (A) (A) (A) (A) (A) (A) (A) (A) (A) (A)
                 (A) (A) (A) (A) (A) (A) (A) (A) (A) (A) (A) (A)
                 (A) (A) (A) (A) (A) (A) (A) (A) (A) (A) (A) (A)
                 (A) (A) (A) (A) (A) (A) (A) (A) (A) (A) (A) (A)
                 (A) (A) (A) (A) (A) (A) (A) (A) (A) (A) (A) (A)
                 (A) (A) (A) (A) (A) (A) (A) (A) (A) (A) (A) (A)
                 (A) (A) (A) (A) (A) (A) (A) (A) (A) (A) (A) (A)
                 (A) (A) (A) (A) (A) (A) (A) (A) (A) (A) (A) (A)
                 (A) (A) (A) (A) (A) (A) (A) (A) (A) (A) (A) (A)
                 (A) (A) (A) (A) (A) (A) (A) (A) (A) (A) (A) (A)
                 (A) (A) (A) (A) (A) (A) (A) (A) (A) (A) (A) (A)
                 (A) (A) (A) (A) (A) (A) (A) (A) (A) (A) (A)
 The electronic state is 1-A.
 Alpha  occ. eigenvalues --  -20.54533 -20.52699 -15.61257 -15.58104 -11.37878
 Alpha  occ. eigenvalues --  -11.35352 -11.29857 -11.26067 -11.25814 -11.24033
 Alpha  occ. eigenvalues --   -1.39984  -1.37930  -1.25405  -1.21961  -1.06210
 Alpha  occ. eigenvalues --   -1.00198  -0.95227  -0.87660  -0.81554  -0.77567
 Alpha  occ. eigenvalues --   -0.72142  -0.69266  -0.67682  -0.63512  -0.62262
 Alpha  occ. eigenvalues --   -0.61983  -0.59485  -0.58897  -0.58261  -0.54988
 Alpha  occ. eigenvalues --   -0.54295  -0.54250  -0.53247  -0.52294  -0.49554
 Alpha  occ. eigenvalues --   -0.44570  -0.44050  -0.40161  -0.38117
 Alpha virt. eigenvalues --    0.02393   0.03913   0.04285   0.04515   0.05872
 Alpha virt. eigenvalues --    0.06151   0.06301   0.06676   0.07229   0.07984
 Alpha virt. eigenvalues --    0.09153   0.09933   0.11337   0.11692   0.12327
 Alpha virt. eigenvalues --    0.13144   0.13646   0.14553   0.14857   0.15207
 Alpha virt. eigenvalues --    0.15966   0.16376   0.16754   0.16937   0.17498
 Alpha virt. eigenvalues --    0.18031   0.18253   0.18517   0.18671   0.18916
 Alpha virt. eigenvalues --    0.19657   0.20265   0.20450   0.21055   0.21867
 Alpha virt. eigenvalues --    0.23260   0.24621   0.25518   0.25923   0.26377
 Alpha virt. eigenvalues --    0.26611   0.27570   0.28898   0.30083   0.30666
 Alpha virt. eigenvalues --    0.31404   0.31928   0.32673   0.33265   0.33908
 Alpha virt. eigenvalues --    0.34157   0.34854   0.35476   0.35792   0.36673
 Alpha virt. eigenvalues --    0.37771   0.37987   0.38455   0.39292   0.40117
 Alpha virt. eigenvalues --    0.40535   0.41288   0.41784   0.42438   0.42611
 Alpha virt. eigenvalues --    0.43338   0.43979   0.44931   0.45393   0.45648
 Alpha virt. eigenvalues --    0.46735   0.46776   0.47592   0.48720   0.49492
 Alpha virt. eigenvalues --    0.50271   0.50642   0.51226   0.51243   0.52127
 Alpha virt. eigenvalues --    0.53194   0.53866   0.54124   0.54738   0.55691
 Alpha virt. eigenvalues --    0.56073   0.56730   0.57570   0.57794   0.58575
 Alpha virt. eigenvalues --    0.59352   0.60188   0.60554   0.61524   0.62111
 Alpha virt. eigenvalues --    0.62596   0.63996   0.64224   0.65058   0.65169
 Alpha virt. eigenvalues --    0.65807   0.66238   0.66642   0.67457   0.67814
 Alpha virt. eigenvalues --    0.68695   0.69686   0.70249   0.70649   0.71420
 Alpha virt. eigenvalues --    0.72137   0.73233   0.73898   0.74869   0.75169
 Alpha virt. eigenvalues --    0.76005   0.77088   0.78026   0.78965   0.79770
 Alpha virt. eigenvalues --    0.81272   0.81798   0.82058   0.83006   0.83707
 Alpha virt. eigenvalues --    0.84891   0.85433   0.86582   0.87798   0.88261
 Alpha virt. eigenvalues --    0.88966   0.90601   0.91877   0.92107   0.92572
 Alpha virt. eigenvalues --    0.93307   0.94363   0.97690   0.98852   1.00217
 Alpha virt. eigenvalues --    1.00875   1.01515   1.02837   1.04576   1.05615
 Alpha virt. eigenvalues --    1.06515   1.06938   1.10096   1.10624   1.10850
 Alpha virt. eigenvalues --    1.12468   1.13162   1.14109   1.16126   1.16810
 Alpha virt. eigenvalues --    1.17741   1.19942   1.20557   1.21265   1.22760
 Alpha virt. eigenvalues --    1.23688   1.26428   1.26567   1.29173   1.30308
 Alpha virt. eigenvalues --    1.32997   1.33931   1.34538   1.35913   1.39070
 Alpha virt. eigenvalues --    1.40421   1.41992   1.42889   1.43478   1.45995
 Alpha virt. eigenvalues --    1.49119   1.50262   1.50826   1.53044   1.55920
 Alpha virt. eigenvalues --    1.56743   1.58342   1.59430   1.62184   1.63754
 Alpha virt. eigenvalues --    1.67744   1.68928   1.69582   1.70956   1.71359
 Alpha virt. eigenvalues --    1.73277   1.74133   1.76978   1.79590   1.82794
 Alpha virt. eigenvalues --    1.84058   1.84665   1.85431   1.86016   1.87779
 Alpha virt. eigenvalues --    1.89144   1.90877   1.91458   1.92339   1.93001
 Alpha virt. eigenvalues --    1.94509   1.96592   1.98088   2.00532   2.01425
 Alpha virt. eigenvalues --    2.02028   2.03628   2.05939   2.07719   2.08603
 Alpha virt. eigenvalues --    2.11614   2.12301   2.13837   2.15208   2.18101
 Alpha virt. eigenvalues --    2.19072   2.20281   2.21463   2.21728   2.22567
 Alpha virt. eigenvalues --    2.26170   2.26982   2.27570   2.29669   2.30454
 Alpha virt. eigenvalues --    2.31310   2.32661   2.34502   2.36427   2.37563
 Alpha virt. eigenvalues --    2.38465   2.40931   2.43532   2.44873   2.45714
 Alpha virt. eigenvalues --    2.46823   2.48406   2.49529   2.50242   2.51763
 Alpha virt. eigenvalues --    2.52565   2.55717   2.56773   2.57214   2.60335
 Alpha virt. eigenvalues --    2.62353   2.64336   2.66367   2.68345   2.69108
 Alpha virt. eigenvalues --    2.69644   2.73084   2.75222   2.76379   2.78783
 Alpha virt. eigenvalues --    2.81209   2.85543   2.86216   2.87600   2.88997
 Alpha virt. eigenvalues --    2.91000   2.92289   2.94522   2.95616   2.98055
 Alpha virt. eigenvalues --    2.98394   3.02779   3.04059   3.07549   3.10304
 Alpha virt. eigenvalues --    3.13755   3.14467   3.17586   3.20598   3.22827
 Alpha virt. eigenvalues --    3.33480   3.36961   3.44589   3.51583   3.53831
 Alpha virt. eigenvalues --    3.60465   3.63359   3.76040   3.84403   3.85571
 Alpha virt. eigenvalues --    3.86776   3.89354   3.93924   3.94831   3.96967
 Alpha virt. eigenvalues --    4.04450   4.06133   4.21303   4.22927
          Condensed to atoms (all electrons):
              1          2          3          4          5          6
     1  H    0.715692   0.332406  -0.081400  -0.040721  -0.065365   0.025418
     2  C    0.332406   4.570225   0.373229   0.388007   0.271503  -0.054931
     3  H   -0.081400   0.373229   1.072046  -0.069577   0.142190  -0.017383
     4  H   -0.040721   0.388007  -0.069577   0.707975  -0.091204   0.009972
     5  C   -0.065365   0.271503   0.142190  -0.091204   5.458756   0.155736
     6  O    0.025418  -0.054931  -0.017383   0.009972   0.155736   8.759072
     7  N    0.065264  -0.084086  -0.222746   0.042831   0.065612  -0.110546
     8  H   -0.001587  -0.064041   0.005571  -0.006160  -0.096149  -0.007606
     9  C    0.003485  -0.104014  -0.046035  -0.003805  -0.258119   0.089187
    10  H    0.000288   0.000287  -0.000740  -0.000537   0.022939   0.004450
    11  C   -0.000735  -0.007006   0.001120   0.002030   0.018389  -0.009781
    12  H   -0.000553  -0.006855   0.000294   0.000076  -0.011329   0.000028
    13  H    0.000151   0.001902   0.000014   0.000027  -0.003714  -0.000839
    14  H   -0.000018   0.002516   0.001036  -0.000209   0.020486   0.001348
    15  C    0.000036  -0.009834  -0.013392   0.002535  -0.200052   0.013829
    16  O    0.000160   0.001462   0.000158  -0.000017   0.010765  -0.000044
    17  N    0.001595   0.009397   0.001562  -0.001109   0.037224  -0.003763
    18  H    0.004200   0.001894  -0.001482  -0.003679   0.026503   0.033159
    19  C   -0.000258   0.004012  -0.000160   0.000303   0.014840  -0.006276
    20  H    0.000301   0.000752  -0.000196  -0.000015  -0.000487  -0.000674
    21  H   -0.000563   0.000125   0.000165   0.000210   0.012078   0.000435
    22  H   -0.000103  -0.000699   0.000053   0.000018  -0.002842   0.000546
              7          8          9         10         11         12
     1  H    0.065264  -0.001587   0.003485   0.000288  -0.000735  -0.000553
     2  C   -0.084086  -0.064041  -0.104014   0.000287  -0.007006  -0.006855
     3  H   -0.222746   0.005571  -0.046035  -0.000740   0.001120   0.000294
     4  H    0.042831  -0.006160  -0.003805  -0.000537   0.002030   0.000076
     5  C    0.065612  -0.096149  -0.258119   0.022939   0.018389  -0.011329
     6  O   -0.110546  -0.007606   0.089187   0.004450  -0.009781   0.000028
     7  N    7.583574   0.366466  -0.332026  -0.074433   0.043606  -0.065057
     8  H    0.366466   0.940935  -0.114370  -0.002202   0.007933   0.008330
     9  C   -0.332026  -0.114370   6.919316   0.117966   0.162506  -0.117357
    10  H   -0.074433  -0.002202   0.117966   1.007133  -0.057115   0.074050
    11  C    0.043606   0.007933   0.162506  -0.057115   4.255144   0.395950
    12  H   -0.065057   0.008330  -0.117357   0.074050   0.395950   1.089383
    13  H    0.038804   0.001337  -0.018362  -0.021521   0.299417  -0.154774
    14  H   -0.028160  -0.005774   0.153944  -0.078314   0.245849  -0.216596
    15  C    0.108977   0.014553  -0.242296  -0.054906  -0.085937  -0.005867
    16  O    0.011690  -0.000708  -0.133941   0.008668  -0.002083   0.023570
    17  N   -0.030714   0.000791  -0.070193   0.032462   0.035392   0.017423
    18  H    0.010947  -0.001943  -0.045759   0.000751   0.002829   0.001379
    19  C   -0.015100   0.002372  -0.021010   0.006885  -0.005252   0.003870
    20  H   -0.000200   0.000197   0.008506   0.001389  -0.004245  -0.000579
    21  H   -0.002649   0.000071  -0.022615  -0.001229   0.001926  -0.000066
    22  H    0.001840  -0.000036   0.007440   0.000652   0.000892   0.000411
             13         14         15         16         17         18
     1  H    0.000151  -0.000018   0.000036   0.000160   0.001595   0.004200
     2  C    0.001902   0.002516  -0.009834   0.001462   0.009397   0.001894
     3  H    0.000014   0.001036  -0.013392   0.000158   0.001562  -0.001482
     4  H    0.000027  -0.000209   0.002535  -0.000017  -0.001109  -0.003679
     5  C   -0.003714   0.020486  -0.200052   0.010765   0.037224   0.026503
     6  O   -0.000839   0.001348   0.013829  -0.000044  -0.003763   0.033159
     7  N    0.038804  -0.028160   0.108977   0.011690  -0.030714   0.010947
     8  H    0.001337  -0.005774   0.014553  -0.000708   0.000791  -0.001943
     9  C   -0.018362   0.153944  -0.242296  -0.133941  -0.070193  -0.045759
    10  H   -0.021521  -0.078314  -0.054906   0.008668   0.032462   0.000751
    11  C    0.299417   0.245849  -0.085937  -0.002083   0.035392   0.002829
    12  H   -0.154774  -0.216596  -0.005867   0.023570   0.017423   0.001379
    13  H    1.124881  -0.190083   0.050063  -0.037527  -0.019243  -0.001920
    14  H   -0.190083   1.171969  -0.043656   0.006967   0.006147   0.000509
    15  C    0.050063  -0.043656   5.378349   0.292806   0.154791  -0.065871
    16  O   -0.037527   0.006967   0.292806   8.791801  -0.139915   0.010927
    17  N   -0.019243   0.006147   0.154791  -0.139915   7.043339   0.290669
    18  H   -0.001920   0.000509  -0.065871   0.010927   0.290669   0.936030
    19  C   -0.000753  -0.000958  -0.115851   0.009241   0.162240  -0.139786
    20  H   -0.000613   0.000245   0.034433  -0.016210  -0.075990   0.005993
    21  H    0.000290   0.000052  -0.028224   0.008787  -0.154558   0.005641
    22  H    0.000271  -0.000216   0.004217   0.001630   0.158622  -0.020238
             19         20         21         22
     1  H   -0.000258   0.000301  -0.000563  -0.000103
     2  C    0.004012   0.000752   0.000125  -0.000699
     3  H   -0.000160  -0.000196   0.000165   0.000053
     4  H    0.000303  -0.000015   0.000210   0.000018
     5  C    0.014840  -0.000487   0.012078  -0.002842
     6  O   -0.006276  -0.000674   0.000435   0.000546
     7  N   -0.015100  -0.000200  -0.002649   0.001840
     8  H    0.002372   0.000197   0.000071  -0.000036
     9  C   -0.021010   0.008506  -0.022615   0.007440
    10  H    0.006885   0.001389  -0.001229   0.000652
    11  C   -0.005252  -0.004245   0.001926   0.000892
    12  H    0.003870  -0.000579  -0.000066   0.000411
    13  H   -0.000753  -0.000613   0.000290   0.000271
    14  H   -0.000958   0.000245   0.000052  -0.000216
    15  C   -0.115851   0.034433  -0.028224   0.004217
    16  O    0.009241  -0.016210   0.008787   0.001630
    17  N    0.162240  -0.075990  -0.154558   0.158622
    18  H   -0.139786   0.005993   0.005641  -0.020238
    19  C    4.196789   0.441811   0.476851   0.220402
    20  H    0.441811   1.039479  -0.208649  -0.102095
    21  H    0.476851  -0.208649   1.268690  -0.165322
    22  H    0.220402  -0.102095  -0.165322   0.934910
 Mulliken atomic charges:
              1
     1  H    0.042306
     2  C    0.373748
     3  H   -0.144324
     4  H    0.063048
     5  C    0.472239
     6  O   -0.881336
     7  N   -0.373893
     8  H   -0.047982
     9  C    0.067551
    10  H    0.013075
    11  C    0.699171
    12  H   -0.035731
    13  H   -0.067805
    14  H   -0.047084
    15  C    0.811298
    16  O   -0.848189
    17  N   -0.456170
    18  H   -0.050756
    19  C    0.765786
    20  H   -0.123156
    21  H   -0.191446
    22  H   -0.040351
 Sum of Mulliken atomic charges =   0.00000
 Mulliken charges with hydrogens summed into heavy atoms:
              1
     2  C    0.334778
     5  C    0.472239
     6  O   -0.881336
     7  N   -0.421875
     9  C    0.080627
    11  C    0.548551
    15  C    0.811298
    16  O   -0.848189
    17  N   -0.506926
    19  C    0.410834
 Sum of Mulliken charges with hydrogens summed into heavy atoms =   0.00000
 Electronic spatial extent (au):  <R**2>=           1737.9904
 Charge=              0.0000 electrons
 Dipole moment (field-independent basis, Debye):
    X=              4.1078    Y=              0.8786    Z=             -2.9145  Tot=              5.1127
 Quadrupole moment (field-independent basis, Debye-Ang):
   XX=            -63.8574   YY=            -57.6700   ZZ=            -62.9888
   XY=              7.7284   XZ=             -3.2901   YZ=              2.1985
 Traceless Quadrupole moment (field-independent basis, Debye-Ang):
   XX=             -2.3519   YY=              3.8354   ZZ=             -1.4834
   XY=              7.7284   XZ=             -3.2901   YZ=              2.1985
 Octapole moment (field-independent basis, Debye-Ang**2):
  XXX=             52.6832  YYY=             -2.7774  ZZZ=             -0.9716  XYY=             -6.1424
  XXY=            -13.8318  XXZ=            -13.8184  XZZ=             -1.8085  YZZ=              6.2759
  YYZ=             -6.1326  XYZ=              4.7092
 Hexadecapole moment (field-independent basis, Debye-Ang**3):
 XXXX=          -1358.7047 YYYY=           -732.2000 ZZZZ=           -168.3953 XXXY=             30.1072
 XXXZ=             10.9326 YYYX=              6.5790 YYYZ=             10.2133 ZZZX=             -8.9037
 ZZZY=             -3.0695 XXYY=           -347.2481 XXZZ=           -256.6772 YYZZ=           -153.1979
 XXYZ=              5.1408 YYXZ=             -9.4002 ZZXY=              9.5555
 N-N= 5.593896950815D+02 E-N=-2.273931134673D+03  KE= 4.920682162786D+02
 1\1\GINC-NODE010\SP\RMP2-FC\Aug-CC-pVDZ\C6H12N2O2\MANAGER\13-Feb-2017\
 0\\#SP MP2/aug-cc-pVDZ\\Single Point calculation at MP2\\0,1\H,0,3.420
 6,-1.5541,-0.7262\C,0,3.2598,-0.5029,-0.4727\H,0,3.3955,0.1099,-1.3693
 \H,0,4.0235,-0.2231,0.261\C,0,1.8896,-0.3551,0.17\O,0,1.5089,-1.1049,1
 .0693\N,0,1.1089,0.6503,-0.3127\H,0,1.4612,1.2007,-1.0834\C,0,-0.1425,
 1.108,0.2994\H,0,0.0249,1.1312,1.3851\C,0,-0.4595,2.5228,-0.1878\H,0,-
 0.5676,2.5454,-1.2795\H,0,-1.4056,2.8479,0.2457\H,0,0.3333,3.2199,0.10
 33\C,0,-1.3802,0.1915,0.1094\O,0,-2.5021,0.6446,0.3102\N,0,-1.1502,-1.
 0807,-0.32\H,0,-0.2401,-1.4633,-0.0856\C,0,-2.2609,-2.0208,-0.3875\H,0
 ,-3.1017,-1.5409,-0.8915\H,0,-1.9486,-2.8989,-0.9588\H,0,-2.599,-2.340
 2,0.6072\\Version=EM64L-G09RevA.02\State=1-A\HF=-492.9248302\MP2=-494.
 5275236\RMSD=7.283e-09\PG=C01 [X(C6H12N2O2)]\\@


 The juvenile sea squirt wanders through the sea searching
 for a suitable rock or hunk of coral to cling to and make
 its home for life.  For this task it has a rudimentary
 nervous system.  When it finds its spot and takes root, it
 doesn't need its brain any more so it eats it.
 It's rather like getting tenure.

                               -- source unknown
 Job cpu time:  0 days  8 hours 50 minutes 13.1 seconds.
 File lengths (MBytes):  RWF=  10608 Int=      0 D2E=      0 Chk=      7 Scr=      2
 Normal termination of Gaussian 09 at Mon Feb 13 12:38:38 2017.
