 Entering Gaussian System, Link 0=g09
 Initial command:
 /home/steboss/Software/g09/l1.exe /tmp/Gau-435.inp -scrdir=/tmp/
 Entering Link 1 = /home/steboss/Software/g09/l1.exe PID=       437.
  
 Copyright (c) 1988,1990,1992,1993,1995,1998,2003,2009, Gaussian, Inc.
                  All Rights Reserved.
  
 This is part of the Gaussian(R) 09 program.  It is based on
 the Gaussian(R) 03 system (copyright 2003, Gaussian, Inc.),
 the Gaussian(R) 98 system (copyright 1998, Gaussian, Inc.),
 the Gaussian(R) 94 system (copyright 1995, Gaussian, Inc.),
 the Gaussian 92(TM) system (copyright 1992, Gaussian, Inc.),
 the Gaussian 90(TM) system (copyright 1990, Gaussian, Inc.),
 the Gaussian 88(TM) system (copyright 1988, Gaussian, Inc.),
 the Gaussian 86(TM) system (copyright 1986, Carnegie Mellon
 University), and the Gaussian 82(TM) system (copyright 1983,
 Carnegie Mellon University). Gaussian is a federally registered
 trademark of Gaussian, Inc.
  
 This software contains proprietary and confidential information,
 including trade secrets, belonging to Gaussian, Inc.
  
 This software is provided under written license and may be
 used, copied, transmitted, or stored only in accord with that
 written license.
  
 The following legend is applicable only to US Government
 contracts under FAR:
  
                    RESTRICTED RIGHTS LEGEND
  
 Use, reproduction and disclosure by the US Government is
 subject to restrictions as set forth in subparagraphs (a)
 and (c) of the Commercial Computer Software - Restricted
 Rights clause in FAR 52.227-19.
  
 Gaussian, Inc.
 340 Quinnipiac St., Bldg. 40, Wallingford CT 06492
  
  
 ---------------------------------------------------------------
 Warning -- This program may not be used in any manner that
 competes with the business of Gaussian, Inc. or will provide
 assistance to any competitor of Gaussian, Inc.  The licensee
 of this program is prohibited from giving any competitor of
 Gaussian, Inc. access to this program.  By using this program,
 the user acknowledges that Gaussian, Inc. is engaged in the
 business of creating and licensing software in the field of
 computational chemistry and represents and warrants to the
 licensee that it is not a competitor of Gaussian, Inc. and that
 it will not use this program in any manner prohibited above.
 ---------------------------------------------------------------
  

 Cite this work as:
 Gaussian 09, Revision A.02,
 M. J. Frisch, G. W. Trucks, H. B. Schlegel, G. E. Scuseria, 
 M. A. Robb, J. R. Cheeseman, G. Scalmani, V. Barone, B. Mennucci, 
 G. A. Petersson, H. Nakatsuji, M. Caricato, X. Li, H. P. Hratchian, 
 A. F. Izmaylov, J. Bloino, G. Zheng, J. L. Sonnenberg, M. Hada, 
 M. Ehara, K. Toyota, R. Fukuda, J. Hasegawa, M. Ishida, T. Nakajima, 
 Y. Honda, O. Kitao, H. Nakai, T. Vreven, J. A. Montgomery, Jr., 
 J. E. Peralta, F. Ogliaro, M. Bearpark, J. J. Heyd, E. Brothers, 
 K. N. Kudin, V. N. Staroverov, R. Kobayashi, J. Normand, 
 K. Raghavachari, A. Rendell, J. C. Burant, S. S. Iyengar, J. Tomasi, 
 M. Cossi, N. Rega, J. M. Millam, M. Klene, J. E. Knox, J. B. Cross, 
 V. Bakken, C. Adamo, J. Jaramillo, R. Gomperts, R. E. Stratmann, 
 O. Yazyev, A. J. Austin, R. Cammi, C. Pomelli, J. W. Ochterski, 
 R. L. Martin, K. Morokuma, V. G. Zakrzewski, G. A. Voth, 
 P. Salvador, J. J. Dannenberg, S. Dapprich, A. D. Daniels, 
 O. Farkas, J. B. Foresman, J. V. Ortiz, J. Cioslowski, 
 and D. J. Fox, Gaussian, Inc., Wallingford CT, 2009.
 
 ******************************************
 Gaussian 09:  EM64L-G09RevA.02 11-Jun-2009
                29-Dec-2016 
 ******************************************
 %chk=structure_30.chk
 ----------------------------------------------------------------------
 # b3lyp/6-31G* Opt=(ModRedundant, maxcycles=1000, calcfc) geom=nocrowd
 ----------------------------------------------------------------------
 1/6=1000,10=4,14=-1,18=120,19=15,26=3,38=1/1,3;
 2/9=110,12=1,17=6,18=5,40=1/2;
 3/5=1,6=6,7=1,11=2,16=1,25=1,30=1,71=2,74=-5/1,2,3;
 4//1;
 5/5=2,38=5/2;
 8/6=4,10=90,11=11/1;
 11/6=1,8=1,9=11,15=111,16=1/1,2,10;
 10/6=1,7=6,13=1/2;
 6/7=2,8=2,9=2,10=2,28=1/1;
 7/10=1,18=20,25=1/1,2,3,16;
 1/6=1000,10=4,14=-1,18=20,19=15/3(2);
 2/9=110,12=1/2;
 99//99;
 2/9=110,12=1/2;
 3/5=1,6=6,7=1,11=2,16=1,25=1,30=1,71=1,74=-5/1,2,3;
 4/5=5,16=3/1;
 5/5=2,38=5/2;
 7//1,2,3,16;
 1/6=1000,14=-1,18=20,19=15/3(-5);
 2/9=110,12=1/2;
 6/7=2,8=2,9=2,10=2,19=2,28=1/1;
 99/9=1/99;
 ------------------
 Phi Psi fixed scan
 ------------------
 Symbolic Z-matrix:
 Charge =  0 Multiplicity = 1
 H                     2.5153    1.       -1.923 
 C                     2.5153    2.09     -1.923 
 H                     1.6255    2.4539   -1.4093 
 H                     2.5153    2.4539   -2.9505 
 C                     3.7515    2.6408   -1.2093 
 O                     4.5856    1.8774   -0.7277 
 N                     3.8623    3.9697   -1.1453 
 H                     3.1502    4.5562   -1.5565 
 C                     4.9863    4.6139   -0.4964 
 H                     5.0214    4.3155    0.5514 
 C                     6.3021    4.2208   -1.1594 
 H                     6.2857    4.5214   -2.2071 
 H                     7.1283    4.7189   -0.652 
 H                     6.4342    3.1409   -1.0938 
 C                     4.8645    6.1294   -0.5667 
 O                     3.9015    6.6527   -1.1227 
 N                     5.846     6.8349    0. 
 H                     6.6176    6.3592    0.4455 
 C                     5.8461    8.2839    0. 
 H                     5.3323    8.6477   -0.8898 
 C                     5.1347    8.8329    1.2322 
 H                     5.6431    8.4846    2.1312 
 H                     5.1499    9.9224    1.2058 
 H                     4.1019    8.4846    1.2414 
 C                     7.266     8.8318    0. 
 O                     7.5178    9.9119    0.5295 
 N                     8.1958    8.0825   -0.5969 
 H                     7.94      7.2011   -1.0185 
 C                     9.5836    8.4938   -0.6638 
 H                     9.6567    9.4425   -1.1954 
 C                     10.1717   8.6708    0.7321 
 H                     10.114    7.7266    1.2737 
 H                     11.2139   8.9796    0.6514 
 H                     9.6082    9.4329    1.2704 
 C                     10.4268   7.4597   -1.396 
 O                     9.9117    6.4362   -1.8403 
 N                     11.7283   7.7297   -1.5211 
 H                     12.1056   8.585    -1.1388 
 C                     12.6364   6.8252   -2.197 
 H                     12.0854   5.9542   -2.5517 
 H                     13.0938   7.3352   -3.0449 
 H                     13.4141   6.505    -1.5037 
 
 The following ModRedundant input section has been read:
 D   15   17   19   25 F                                                       
 D   17   19   25   27 F                                                       

 GradGradGradGradGradGradGradGradGradGradGradGradGradGradGradGradGradGrad
 Berny optimization.
 Initialization pass.
                           ----------------------------
                           !    Initial Parameters    !
                           ! (Angstroms and Degrees)  !
 --------------------------                            --------------------------
 ! Name  Definition              Value          Derivative Info.                !
 --------------------------------------------------------------------------------
 ! R1    R(1,2)                  1.09           calculate D2E/DX2 analytically  !
 ! R2    R(2,3)                  1.09           calculate D2E/DX2 analytically  !
 ! R3    R(2,4)                  1.09           calculate D2E/DX2 analytically  !
 ! R4    R(2,5)                  1.53           calculate D2E/DX2 analytically  !
 ! R5    R(5,6)                  1.229          calculate D2E/DX2 analytically  !
 ! R6    R(5,7)                  1.335          calculate D2E/DX2 analytically  !
 ! R7    R(7,8)                  1.01           calculate D2E/DX2 analytically  !
 ! R8    R(7,9)                  1.4489         calculate D2E/DX2 analytically  !
 ! R9    R(9,10)                 1.09           calculate D2E/DX2 analytically  !
 ! R10   R(9,11)                 1.5249         calculate D2E/DX2 analytically  !
 ! R11   R(9,15)                 1.522          calculate D2E/DX2 analytically  !
 ! R12   R(11,12)                1.0901         calculate D2E/DX2 analytically  !
 ! R13   R(11,13)                1.09           calculate D2E/DX2 analytically  !
 ! R14   R(11,14)                1.0899         calculate D2E/DX2 analytically  !
 ! R15   R(15,16)                1.229          calculate D2E/DX2 analytically  !
 ! R16   R(15,17)                1.335          calculate D2E/DX2 analytically  !
 ! R17   R(17,18)                1.01           calculate D2E/DX2 analytically  !
 ! R18   R(17,19)                1.449          calculate D2E/DX2 analytically  !
 ! R19   R(19,20)                1.09           calculate D2E/DX2 analytically  !
 ! R20   R(19,21)                1.5251         calculate D2E/DX2 analytically  !
 ! R21   R(19,25)                1.5219         calculate D2E/DX2 analytically  !
 ! R22   R(21,22)                1.0899         calculate D2E/DX2 analytically  !
 ! R23   R(21,23)                1.0899         calculate D2E/DX2 analytically  !
 ! R24   R(21,24)                1.09           calculate D2E/DX2 analytically  !
 ! R25   R(25,26)                1.229          calculate D2E/DX2 analytically  !
 ! R26   R(25,27)                1.335          calculate D2E/DX2 analytically  !
 ! R27   R(27,28)                1.01           calculate D2E/DX2 analytically  !
 ! R28   R(27,29)                1.449          calculate D2E/DX2 analytically  !
 ! R29   R(29,30)                1.0899         calculate D2E/DX2 analytically  !
 ! R30   R(29,31)                1.525          calculate D2E/DX2 analytically  !
 ! R31   R(29,35)                1.522          calculate D2E/DX2 analytically  !
 ! R32   R(31,32)                1.09           calculate D2E/DX2 analytically  !
 ! R33   R(31,33)                1.09           calculate D2E/DX2 analytically  !
 ! R34   R(31,34)                1.09           calculate D2E/DX2 analytically  !
 ! R35   R(35,36)                1.2289         calculate D2E/DX2 analytically  !
 ! R36   R(35,37)                1.3351         calculate D2E/DX2 analytically  !
 ! R37   R(37,38)                1.01           calculate D2E/DX2 analytically  !
 ! R38   R(37,39)                1.449          calculate D2E/DX2 analytically  !
 ! R39   R(39,40)                1.09           calculate D2E/DX2 analytically  !
 ! R40   R(39,41)                1.0901         calculate D2E/DX2 analytically  !
 ! R41   R(39,42)                1.09           calculate D2E/DX2 analytically  !
 ! A1    A(1,2,3)              109.5032         calculate D2E/DX2 analytically  !
 ! A2    A(1,2,4)              109.5021         calculate D2E/DX2 analytically  !
 ! A3    A(1,2,5)              111.1            calculate D2E/DX2 analytically  !
 ! A4    A(3,2,4)              109.4387         calculate D2E/DX2 analytically  !
 ! A5    A(3,2,5)              108.6357         calculate D2E/DX2 analytically  !
 ! A6    A(4,2,5)              108.6341         calculate D2E/DX2 analytically  !
 ! A7    A(2,5,6)              120.4994         calculate D2E/DX2 analytically  !
 ! A8    A(2,5,7)              116.5999         calculate D2E/DX2 analytically  !
 ! A9    A(6,5,7)              122.9007         calculate D2E/DX2 analytically  !
 ! A10   A(5,7,8)              119.9983         calculate D2E/DX2 analytically  !
 ! A11   A(5,7,9)              121.8976         calculate D2E/DX2 analytically  !
 ! A12   A(8,7,9)              118.1041         calculate D2E/DX2 analytically  !
 ! A13   A(7,9,10)             109.4973         calculate D2E/DX2 analytically  !
 ! A14   A(7,9,11)             111.1021         calculate D2E/DX2 analytically  !
 ! A15   A(7,9,15)             111.0961         calculate D2E/DX2 analytically  !
 ! A16   A(10,9,11)            108.6373         calculate D2E/DX2 analytically  !
 ! A17   A(10,9,15)            108.6363         calculate D2E/DX2 analytically  !
 ! A18   A(11,9,15)            107.7971         calculate D2E/DX2 analytically  !
 ! A19   A(9,11,12)            109.4995         calculate D2E/DX2 analytically  !
 ! A20   A(9,11,13)            109.5016         calculate D2E/DX2 analytically  !
 ! A21   A(9,11,14)            109.5009         calculate D2E/DX2 analytically  !
 ! A22   A(12,11,13)           109.4378         calculate D2E/DX2 analytically  !
 ! A23   A(12,11,14)           109.4443         calculate D2E/DX2 analytically  !
 ! A24   A(13,11,14)           109.4433         calculate D2E/DX2 analytically  !
 ! A25   A(9,15,16)            120.5033         calculate D2E/DX2 analytically  !
 ! A26   A(9,15,17)            116.6002         calculate D2E/DX2 analytically  !
 ! A27   A(16,15,17)           122.8965         calculate D2E/DX2 analytically  !
 ! A28   A(15,17,18)           120.0            calculate D2E/DX2 analytically  !
 ! A29   A(15,17,19)           121.9052         calculate D2E/DX2 analytically  !
 ! A30   A(18,17,19)           118.0948         calculate D2E/DX2 analytically  !
 ! A31   A(17,19,20)           109.4954         calculate D2E/DX2 analytically  !
 ! A32   A(17,19,21)           111.0974         calculate D2E/DX2 analytically  !
 ! A33   A(17,19,25)           111.1042         calculate D2E/DX2 analytically  !
 ! A34   A(20,19,21)           108.6349         calculate D2E/DX2 analytically  !
 ! A35   A(20,19,25)           108.6399         calculate D2E/DX2 analytically  !
 ! A36   A(21,19,25)           107.7944         calculate D2E/DX2 analytically  !
 ! A37   A(19,21,22)           109.4996         calculate D2E/DX2 analytically  !
 ! A38   A(19,21,23)           109.4977         calculate D2E/DX2 analytically  !
 ! A39   A(19,21,24)           109.4988         calculate D2E/DX2 analytically  !
 ! A40   A(22,21,23)           109.4452         calculate D2E/DX2 analytically  !
 ! A41   A(22,21,24)           109.4447         calculate D2E/DX2 analytically  !
 ! A42   A(23,21,24)           109.4412         calculate D2E/DX2 analytically  !
 ! A43   A(19,25,26)           120.5            calculate D2E/DX2 analytically  !
 ! A44   A(19,25,27)           116.5974         calculate D2E/DX2 analytically  !
 ! A45   A(26,25,27)           122.9027         calculate D2E/DX2 analytically  !
 ! A46   A(25,27,28)           120.0038         calculate D2E/DX2 analytically  !
 ! A47   A(25,27,29)           121.8959         calculate D2E/DX2 analytically  !
 ! A48   A(28,27,29)           118.1003         calculate D2E/DX2 analytically  !
 ! A49   A(27,29,30)           109.5007         calculate D2E/DX2 analytically  !
 ! A50   A(27,29,31)           111.1017         calculate D2E/DX2 analytically  !
 ! A51   A(27,29,35)           111.0978         calculate D2E/DX2 analytically  !
 ! A52   A(30,29,31)           108.6355         calculate D2E/DX2 analytically  !
 ! A53   A(30,29,35)           108.6386         calculate D2E/DX2 analytically  !
 ! A54   A(31,29,35)           107.7917         calculate D2E/DX2 analytically  !
 ! A55   A(29,31,32)           109.5023         calculate D2E/DX2 analytically  !
 ! A56   A(29,31,33)           109.502          calculate D2E/DX2 analytically  !
 ! A57   A(29,31,34)           109.501          calculate D2E/DX2 analytically  !
 ! A58   A(32,31,33)           109.4392         calculate D2E/DX2 analytically  !
 ! A59   A(32,31,34)           109.4443         calculate D2E/DX2 analytically  !
 ! A60   A(33,31,34)           109.4385         calculate D2E/DX2 analytically  !
 ! A61   A(29,35,36)           120.5025         calculate D2E/DX2 analytically  !
 ! A62   A(29,35,37)           116.5992         calculate D2E/DX2 analytically  !
 ! A63   A(36,35,37)           122.8984         calculate D2E/DX2 analytically  !
 ! A64   A(35,37,38)           119.9981         calculate D2E/DX2 analytically  !
 ! A65   A(35,37,39)           121.8981         calculate D2E/DX2 analytically  !
 ! A66   A(38,37,39)           118.1038         calculate D2E/DX2 analytically  !
 ! A67   A(37,39,40)           109.4996         calculate D2E/DX2 analytically  !
 ! A68   A(37,39,41)           109.4967         calculate D2E/DX2 analytically  !
 ! A69   A(37,39,42)           109.5019         calculate D2E/DX2 analytically  !
 ! A70   A(40,39,41)           109.4424         calculate D2E/DX2 analytically  !
 ! A71   A(40,39,42)           109.4467         calculate D2E/DX2 analytically  !
 ! A72   A(41,39,42)           109.4399         calculate D2E/DX2 analytically  !
 ! D1    D(1,2,5,6)             -0.0022         calculate D2E/DX2 analytically  !
 ! D2    D(1,2,5,7)           -179.9987         calculate D2E/DX2 analytically  !
 ! D3    D(3,2,5,6)            120.5139         calculate D2E/DX2 analytically  !
 ! D4    D(3,2,5,7)            -59.4827         calculate D2E/DX2 analytically  !
 ! D5    D(4,2,5,6)           -120.5158         calculate D2E/DX2 analytically  !
 ! D6    D(4,2,5,7)             59.4876         calculate D2E/DX2 analytically  !
 ! D7    D(2,5,7,8)             -0.0058         calculate D2E/DX2 analytically  !
 ! D8    D(2,5,7,9)           -179.9989         calculate D2E/DX2 analytically  !
 ! D9    D(6,5,7,8)            179.9977         calculate D2E/DX2 analytically  !
 ! D10   D(6,5,7,9)              0.0046         calculate D2E/DX2 analytically  !
 ! D11   D(5,7,9,10)           -60.0044         calculate D2E/DX2 analytically  !
 ! D12   D(5,7,9,11)            59.997          calculate D2E/DX2 analytically  !
 ! D13   D(5,7,9,15)           179.9991         calculate D2E/DX2 analytically  !
 ! D14   D(8,7,9,10)           120.0023         calculate D2E/DX2 analytically  !
 ! D15   D(8,7,9,11)          -119.9962         calculate D2E/DX2 analytically  !
 ! D16   D(8,7,9,15)             0.0059         calculate D2E/DX2 analytically  !
 ! D17   D(7,9,11,12)           60.0032         calculate D2E/DX2 analytically  !
 ! D18   D(7,9,11,13)          179.9981         calculate D2E/DX2 analytically  !
 ! D19   D(7,9,11,14)          -59.9993         calculate D2E/DX2 analytically  !
 ! D20   D(10,9,11,12)        -179.4858         calculate D2E/DX2 analytically  !
 ! D21   D(10,9,11,13)         -59.4909         calculate D2E/DX2 analytically  !
 ! D22   D(10,9,11,14)          60.5117         calculate D2E/DX2 analytically  !
 ! D23   D(15,9,11,12)         -61.9399         calculate D2E/DX2 analytically  !
 ! D24   D(15,9,11,13)          58.055          calculate D2E/DX2 analytically  !
 ! D25   D(15,9,11,14)         178.0576         calculate D2E/DX2 analytically  !
 ! D26   D(7,9,15,16)           -0.0028         calculate D2E/DX2 analytically  !
 ! D27   D(7,9,15,17)          179.9973         calculate D2E/DX2 analytically  !
 ! D28   D(10,9,15,16)        -120.5094         calculate D2E/DX2 analytically  !
 ! D29   D(10,9,15,17)          59.4906         calculate D2E/DX2 analytically  !
 ! D30   D(11,9,15,16)         121.944          calculate D2E/DX2 analytically  !
 ! D31   D(11,9,15,17)         -58.056          calculate D2E/DX2 analytically  !
 ! D32   D(9,15,17,18)          -0.0005         calculate D2E/DX2 analytically  !
 ! D33   D(9,15,17,19)         179.9968         calculate D2E/DX2 analytically  !
 ! D34   D(16,15,17,18)        179.9995         calculate D2E/DX2 analytically  !
 ! D35   D(16,15,17,19)         -0.0032         calculate D2E/DX2 analytically  !
 ! D36   D(15,17,19,20)        -29.9927         calculate D2E/DX2 analytically  !
 ! D37   D(15,17,19,21)         90.0016         calculate D2E/DX2 analytically  !
 ! D38   D(15,17,19,25)       -149.9974         frozen, calculate D2E/DX2 analyt!
 ! D39   D(18,17,19,20)        150.0046         calculate D2E/DX2 analytically  !
 ! D40   D(18,17,19,21)        -90.0011         calculate D2E/DX2 analytically  !
 ! D41   D(18,17,19,25)         29.9999         calculate D2E/DX2 analytically  !
 ! D42   D(17,19,21,22)         60.0039         calculate D2E/DX2 analytically  !
 ! D43   D(17,19,21,23)       -179.9943         calculate D2E/DX2 analytically  !
 ! D44   D(17,19,21,24)        -59.998          calculate D2E/DX2 analytically  !
 ! D45   D(20,19,21,22)       -179.4919         calculate D2E/DX2 analytically  !
 ! D46   D(20,19,21,23)        -59.4901         calculate D2E/DX2 analytically  !
 ! D47   D(20,19,21,24)         60.5062         calculate D2E/DX2 analytically  !
 ! D48   D(25,19,21,22)        -61.9445         calculate D2E/DX2 analytically  !
 ! D49   D(25,19,21,23)         58.0573         calculate D2E/DX2 analytically  !
 ! D50   D(25,19,21,24)        178.0536         calculate D2E/DX2 analytically  !
 ! D51   D(17,19,25,26)       -149.9976         calculate D2E/DX2 analytically  !
 ! D52   D(17,19,25,27)         30.0017         frozen, calculate D2E/DX2 analyt!
 ! D53   D(20,19,25,26)         89.4907         calculate D2E/DX2 analytically  !
 ! D54   D(20,19,25,27)        -90.5099         calculate D2E/DX2 analytically  !
 ! D55   D(21,19,25,26)        -28.0535         calculate D2E/DX2 analytically  !
 ! D56   D(21,19,25,27)        151.9459         calculate D2E/DX2 analytically  !
 ! D57   D(19,25,27,28)         -0.0011         calculate D2E/DX2 analytically  !
 ! D58   D(19,25,27,29)       -179.9996         calculate D2E/DX2 analytically  !
 ! D59   D(26,25,27,28)        179.9982         calculate D2E/DX2 analytically  !
 ! D60   D(26,25,27,29)         -0.0002         calculate D2E/DX2 analytically  !
 ! D61   D(25,27,29,30)        -60.0016         calculate D2E/DX2 analytically  !
 ! D62   D(25,27,29,31)         59.9997         calculate D2E/DX2 analytically  !
 ! D63   D(25,27,29,35)        179.9959         calculate D2E/DX2 analytically  !
 ! D64   D(28,27,29,30)        120.0            calculate D2E/DX2 analytically  !
 ! D65   D(28,27,29,31)       -119.9988         calculate D2E/DX2 analytically  !
 ! D66   D(28,27,29,35)         -0.0026         calculate D2E/DX2 analytically  !
 ! D67   D(27,29,31,32)         60.0004         calculate D2E/DX2 analytically  !
 ! D68   D(27,29,31,33)        179.9991         calculate D2E/DX2 analytically  !
 ! D69   D(27,29,31,34)        -60.0039         calculate D2E/DX2 analytically  !
 ! D70   D(30,29,31,32)       -179.4857         calculate D2E/DX2 analytically  !
 ! D71   D(30,29,31,33)        -59.487          calculate D2E/DX2 analytically  !
 ! D72   D(30,29,31,34)         60.51           calculate D2E/DX2 analytically  !
 ! D73   D(35,29,31,32)        -61.941          calculate D2E/DX2 analytically  !
 ! D74   D(35,29,31,33)         58.0577         calculate D2E/DX2 analytically  !
 ! D75   D(35,29,31,34)        178.0547         calculate D2E/DX2 analytically  !
 ! D76   D(27,29,35,36)          0.0048         calculate D2E/DX2 analytically  !
 ! D77   D(27,29,35,37)        179.9987         calculate D2E/DX2 analytically  !
 ! D78   D(30,29,35,36)       -120.5087         calculate D2E/DX2 analytically  !
 ! D79   D(30,29,35,37)         59.4852         calculate D2E/DX2 analytically  !
 ! D80   D(31,29,35,36)        121.9486         calculate D2E/DX2 analytically  !
 ! D81   D(31,29,35,37)        -58.0575         calculate D2E/DX2 analytically  !
 ! D82   D(29,35,37,38)          0.0044         calculate D2E/DX2 analytically  !
 ! D83   D(29,35,37,39)       -179.9996         calculate D2E/DX2 analytically  !
 ! D84   D(36,35,37,38)        179.9981         calculate D2E/DX2 analytically  !
 ! D85   D(36,35,37,39)         -0.0059         calculate D2E/DX2 analytically  !
 ! D86   D(35,37,39,40)          0.0057         calculate D2E/DX2 analytically  !
 ! D87   D(35,37,39,41)        120.0034         calculate D2E/DX2 analytically  !
 ! D88   D(35,37,39,42)       -120.0005         calculate D2E/DX2 analytically  !
 ! D89   D(38,37,39,40)       -179.9982         calculate D2E/DX2 analytically  !
 ! D90   D(38,37,39,41)        -60.0005         calculate D2E/DX2 analytically  !
 ! D91   D(38,37,39,42)         59.9956         calculate D2E/DX2 analytically  !
 --------------------------------------------------------------------------------
 Trust Radius=3.00D-01 FncErr=1.00D-07 GrdErr=1.00D-06
 Number of steps in this run= 252 maximum allowed number of steps= 252.
 GradGradGradGradGradGradGradGradGradGradGradGradGradGradGradGradGradGrad

                          Input orientation:                          
 ---------------------------------------------------------------------
 Center     Atomic      Atomic             Coordinates (Angstroms)
 Number     Number       Type             X           Y           Z
 ---------------------------------------------------------------------
      1          1           0        2.515300    1.000000   -1.923000
      2          6           0        2.515300    2.090000   -1.923000
      3          1           0        1.625500    2.453900   -1.409300
      4          1           0        2.515300    2.453900   -2.950500
      5          6           0        3.751500    2.640800   -1.209300
      6          8           0        4.585600    1.877400   -0.727700
      7          7           0        3.862300    3.969700   -1.145300
      8          1           0        3.150200    4.556200   -1.556500
      9          6           0        4.986300    4.613900   -0.496400
     10          1           0        5.021400    4.315500    0.551400
     11          6           0        6.302100    4.220800   -1.159400
     12          1           0        6.285700    4.521400   -2.207100
     13          1           0        7.128300    4.718900   -0.652000
     14          1           0        6.434200    3.140900   -1.093800
     15          6           0        4.864500    6.129400   -0.566700
     16          8           0        3.901500    6.652700   -1.122700
     17          7           0        5.846000    6.834900    0.000000
     18          1           0        6.617600    6.359200    0.445500
     19          6           0        5.846100    8.283900    0.000000
     20          1           0        5.332300    8.647700   -0.889800
     21          6           0        5.134700    8.832900    1.232200
     22          1           0        5.643100    8.484600    2.131200
     23          1           0        5.149900    9.922400    1.205800
     24          1           0        4.101900    8.484600    1.241400
     25          6           0        7.266000    8.831800    0.000000
     26          8           0        7.517800    9.911900    0.529500
     27          7           0        8.195800    8.082500   -0.596900
     28          1           0        7.940000    7.201100   -1.018500
     29          6           0        9.583600    8.493800   -0.663800
     30          1           0        9.656700    9.442500   -1.195400
     31          6           0       10.171700    8.670800    0.732100
     32          1           0       10.114000    7.726600    1.273700
     33          1           0       11.213900    8.979600    0.651400
     34          1           0        9.608200    9.432900    1.270400
     35          6           0       10.426800    7.459700   -1.396000
     36          8           0        9.911700    6.436200   -1.840300
     37          7           0       11.728300    7.729700   -1.521100
     38          1           0       12.105600    8.585000   -1.138800
     39          6           0       12.636400    6.825200   -2.197000
     40          1           0       12.085400    5.954200   -2.551700
     41          1           0       13.093800    7.335200   -3.044900
     42          1           0       13.414100    6.505000   -1.503700
 ---------------------------------------------------------------------
                    Distance matrix (angstroms):
                    1          2          3          4          5
     1  H    0.000000
     2  C    1.090000   0.000000
     3  H    1.780297   1.089979   0.000000
     4  H    1.780332   1.090036   1.779618   0.000000
     5  C    2.174806   1.530013   2.143550   2.143572   0.000000
     6  O    2.546510   2.400017   3.091783   3.091817   1.229000
     7  N    3.352364   2.439774   2.714889   2.714923   1.335046
     8  H    3.630975   2.572851   2.601162   2.601153   2.037368
     9  C    4.604487   3.809344   4.098044   4.098054   2.434354
    10  H    4.836914   4.166058   4.340741   4.691417   2.741775
    11  C    5.029562   4.411717   5.005494   4.546408   3.000742
    12  H    5.166903   4.495368   5.160281   4.363842   3.309748
    13  H    6.060151   5.459517   5.998711   5.629662   4.003981
    14  H    4.541894   4.141225   4.867762   4.390567   2.731359
    15  C    5.802502   4.865701   4.970955   4.970970   3.717800
    16  O    5.874951   4.835314   4.784583   4.784592   4.015637
    17  N    6.988387   6.107828   6.244350   6.244371   4.841468
    18  H    7.152600   6.376890   6.603992   6.604018   4.977890
    19  C    8.236951   7.290854   7.334064   7.334070   6.139571
    20  H    8.215248   7.211548   7.236947   7.109510   6.219635
    21  C    8.841429   7.891973   7.744911   8.065226   6.798255
    22  H    9.068567   8.192105   8.065085   8.483876   6.991930
    23  H    9.815280   8.836119   8.662484   8.943961   7.798072
    24  H    8.279491   7.309011   7.037621   7.513898   6.346551
    25  C    9.359710   8.468704   8.630120   8.482465   7.220983
    26  O   10.510077   9.603222   9.700511   9.631052   8.371221
    27  N    9.175425   8.362815   8.689648   8.335985   7.052584
    28  H    8.288494   7.507918   7.909585   7.462969   6.194859
    29  C   10.378029   9.620556  10.018359   9.574458   8.280614
    30  H   11.081733  10.275614  10.648308  10.144974   9.007480
    31  C   11.158458  10.439202  10.782995  10.527671   9.019363
    32  H   10.639844   9.986511  10.346714  10.167865   8.515401
    33  H   12.081688  11.391214  11.780011  11.455308   9.966444
    34  H   11.472612  10.696972  10.936669  10.808870   9.304970
    35  C   10.227281   9.576181  10.125270   9.490329   8.235064
    36  O    9.179643   8.579221   9.203564   8.473369   7.263008
    37  N   11.416206  10.809584  11.397944  10.712452   9.466967
    38  H   12.252390  11.609214  12.144795  11.525906  10.253266
    39  C   11.680954  11.177382  11.873022  11.050461   9.870471
    40  H   10.794729  10.339928  11.089034  10.197939   9.068327
    41  H   12.381360  11.860668  12.570767  11.650780  10.615337
    42  H   12.217392  11.766558  12.465609  11.717017  10.410790
                    6          7          8          9         10
     6  O    0.000000
     7  N    2.252836   0.000000
     8  H    3.150119   1.010027   0.000000
     9  C    2.775336   1.448945   2.120944   0.000000
    10  H    2.787535   2.083718   2.828881   1.090027   0.000000
    11  C    2.936709   2.452728   3.194473   1.524935   2.139158
    12  H    3.474147   2.702713   3.202476   2.150230   3.041409
    13  H    3.813814   3.386946   4.082875   2.150209   2.459661
    14  H    2.268873   2.702634   3.605804   2.150123   2.466247
    15  C    4.264178   2.450201   2.528535   1.522011   2.136586
    16  O    4.840197   2.683382   2.268909   2.392854   3.085335
    17  N    5.166717   3.668262   3.857785   2.432763   2.707653
    18  H    5.058849   3.978949   4.391090   2.567954   2.595338
    19  C    6.569753   4.884618   4.856575   3.801916   4.090522
    20  H    6.813281   4.910180   4.684701   4.067680   4.576207
    21  C    7.247186   5.560775   5.477705   4.561802   4.569817
    22  H    7.276449   5.855854   5.936835   4.724192   4.501519
    23  H    8.293303   6.528417   6.358082   5.577134   5.646422
    24  H    6.911325   5.112540   4.915924   4.334101   4.324694
    25  C    7.488509   6.044576   6.135410   4.820179   5.073385
    26  O    8.644741   7.174774   7.218784   5.960685   6.127984
    27  N    7.180106   5.999591   6.230064   4.726751   5.058231
    28  H    6.299075   5.204389   5.497920   3.961128   4.394258
    29  C    8.292215   7.309760   7.595409   6.018041   6.304647
    30  H    9.119514   7.970516   8.144990   6.754007   7.129056
    31  C    8.915482   8.089098   8.453939   6.697464   6.747361
    32  H    8.293488   7.684375   8.158185   6.254236   6.171863
    33  H    9.812111   9.075971   9.458570   7.691540   7.753121
    34  H    9.290021   8.288397   8.572009   6.906975   6.909666
    35  C    8.107300   7.438791   7.836133   6.205393   6.549558
    36  O    7.098442   6.569771   7.023733   5.420923   5.842314
    37  N    9.268067   8.726556   9.146374   7.497519   7.806057
    38  H   10.085202   9.447382   9.828779   8.177209   8.442233
    39  C    9.563208   9.286807   9.774794   8.142845   8.475879
    40  H    8.728933   8.575289   9.098496   7.511184   7.887627
    41  H   10.370461  10.007780  10.431364   8.923670   9.338929
    42  H    9.997963   9.889038  10.447404   8.695903   8.913740
                   11         12         13         14         15
    11  C    0.000000
    12  H    1.090094   0.000000
    13  H    1.090030   1.779696   0.000000
    14  H    1.089926   1.779682   1.779620   0.000000
    15  C    2.461857   2.701182   2.668628   3.416566   0.000000
    16  O    3.417362   3.376799   3.791224   4.329913   1.228962
    17  N    2.895817   3.227524   2.558682   3.897180   1.334999
    18  H    2.692211   3.244064   2.038604   3.572189   2.037331
    19  C    4.249815   4.384170   3.844264   5.290814   2.434452
    20  H    4.539894   4.435155   4.326388   5.619666   2.581679
    21  C    5.324851   5.634059   4.944658   6.284731   3.258521
    22  H    5.426078   5.911069   4.912486   6.291390   3.664949
    23  H    6.279329   6.489124   5.868722   7.275048   4.196434
    24  H    5.365138   5.689296   5.188888   6.280757   3.065575
    25  C    4.851251   4.940833   4.166535   5.854454   3.659415
    26  O    6.059615   6.169647   5.339935   7.046682   4.748575
    27  N    4.337653   4.350018   3.529362   5.269683   3.861745
    28  H    3.403639   3.366047   2.637138   4.331089   3.288064
    29  C    5.410397   5.388681   4.503166   6.225525   5.279178
    30  H    6.206512   6.050157   5.385210   7.078488   5.859785
    31  C    6.193067   6.399798   5.176440   6.919726   6.025941
    32  H    5.721992   6.086473   4.654996   6.338346   5.787518
    33  H    7.074670   7.234205   6.045208   7.744784   7.065571
    34  H    6.633266   6.874216   5.662802   7.433235   6.065537
    35  C    5.249724   5.142003   4.352657   5.889330   5.778981
    36  O    4.289619   4.116901   3.479726   4.848636   5.214443
    37  N    6.472005   6.354973   5.565991   7.019057   7.112214
    38  H    7.261355   7.178116   6.321172   7.861617   7.667516
    39  C    6.926967   6.755663   6.096121   7.297835   7.971477
    40  H    6.195945   5.983994   5.450474   6.478904   7.490815
    41  H    7.705958   7.414149   6.939610   8.108589   8.678526
    42  H    7.477744   7.432599   6.589903   7.759136   8.608990
                   16         17         18         19         20
    16  O    0.000000
    17  N    2.252717   0.000000
    18  H    3.150015   1.010014   0.000000
    19  C    2.775381   1.449000   2.120885   0.000000
    20  H    2.466061   2.083717   2.944869   1.089993   0.000000
    21  C    3.437966   2.452808   2.989495   1.525060   2.139212
    22  H    4.120303   2.702719   2.882457   2.150233   3.041322
    23  H    4.203731   3.386911   3.927925   2.150193   2.459608
    24  H    2.997497   2.702678   3.388145   2.150253   2.466272
    25  C    4.162787   2.450308   2.594734   1.521943   2.136547
    26  O    5.140990   3.541640   3.665937   2.392767   2.896381
    27  N    4.556513   2.726601   2.558725   2.432682   2.933407
    28  H    4.076896   2.357176   2.144955   2.567920   2.984847
    29  C    5.990534   4.142733   3.818929   3.801788   4.260084
    30  H    6.396139   4.769695   4.629840   4.158366   4.407441
    31  C    6.843129   4.755857   4.249384   4.404143   5.104007
    32  H    6.744713   4.542385   3.844543   4.488637   5.328584
    33  H    7.876109   5.817079   5.294796   5.451752   6.089226
    34  H    6.784015   4.745279   4.367125   4.133705   4.854516
    35  C    6.580690   4.829381   4.371753   4.859108   5.255617
    36  O    6.056759   4.480578   4.010225   4.830093   5.173499
    37  N    7.910591   6.141324   5.644913   6.100915   6.492309
    38  H    8.428600   6.598660   6.130443   6.369369   6.778165
    39  C    8.802406   7.136977   6.589834   7.284421   7.640691
    40  H    8.337036   6.798303   6.248525   7.132148   7.457963
    41  H    9.415893   7.877330   7.421363   7.918371   8.161372
    42  H    9.521373   7.723088   7.071991   7.918347   8.383527
                   21         22         23         24         25
    21  C    0.000000
    22  H    1.089947   0.000000
    23  H    1.089926   1.779573   0.000000
    24  H    1.089988   1.779618   1.779562   0.000000
    25  C    2.461861   2.701179   2.668565   3.416599   0.000000
    26  O    2.708726   2.849057   2.462609   3.769928   1.228979
    27  N    3.644042   3.757724   3.989043   4.505668   1.335016
    28  H    3.949447   4.104112   4.487498   4.635249   2.037351
    29  C    4.847939   4.831113   5.019362   5.803353   2.434367
    30  H    5.168495   5.300266   5.129065   6.140958   2.741784
    31  C    5.064360   4.743455   5.197054   6.093975   3.000831
    32  H    5.100887   4.615064   5.428484   6.059782   3.309816
    33  H    6.108643   5.785209   6.161844   7.153577   4.004008
    34  H    4.513719   4.166805   4.485557   5.587437   2.731508
    35  C    6.066254   6.031198   6.378082   6.928972   3.717813
    36  O    6.164751   6.179782   6.641314   6.888149   4.015636
    37  N    7.230026   7.137144   7.451125   8.146365   4.841538
    38  H    7.367262   7.243403   7.461069   8.350727   4.977902
    39  C    8.489156   8.390064   8.787456   9.349540   6.139581
    40  H    8.421226   8.356776   8.829869   9.193846   6.165904
    41  H    9.158819   9.144729   9.373772  10.027350   6.743477
    42  H    9.025117   8.804530   9.344357   9.908151   6.743459
                   26         27         28         29         30
    26  O    0.000000
    27  N    2.252813   0.000000
    28  H    3.150078   1.009973   0.000000
    29  C    2.775338   1.449011   2.120921   0.000000
    30  H    2.787563   2.083754   2.828821   1.089942   0.000000
    31  C    2.936760   2.452859   3.194543   1.525034   2.139159
    32  H    3.474136   2.702832   3.202594   2.150308   3.041363
    33  H    3.813817   3.387030   4.082897   2.150263   2.459638
    34  H    2.268953   2.702825   3.605951   2.150266   2.466296
    35  C    4.264167   2.450266   2.528548   1.521994   2.136537
    36  O    4.840165   2.683405   2.268927   2.392806   3.085249
    37  N    5.166746   3.668402   3.857880   2.432807   2.707636
    38  H    5.058834   3.979032   4.391113   2.567962   2.595308
    39  C    6.569748   4.884675   4.856577   3.801910   4.090486
    40  H    6.783815   4.845605   4.592364   4.033948   4.461656
    41  H    7.106862   5.526442   5.539489   4.396987   4.435653
    42  H    7.106843   5.526432   5.539472   4.396986   4.779332
                   31         32         33         34         35
    31  C    0.000000
    32  H    1.090034   0.000000
    33  H    1.089977   1.779620   0.000000
    34  H    1.089998   1.779692   1.779583   0.000000
    35  C    2.461839   2.701181   2.668608   3.416623   0.000000
    36  O    3.417350   3.376841   3.791197   4.329986   1.228936
    37  N    2.895787   3.227519   2.558635   3.897202   1.335085
    38  H    2.692136   3.243991   2.038542   3.572140   2.037356
    39  C    4.249778   4.384151   3.844259   5.290837   2.434445
    40  H    4.671778   4.654192   4.491370   5.731171   2.520541
    41  H    4.958652   5.261436   4.461021   5.930562   3.138034
    42  H    4.494736   4.482959   3.950820   5.545548   3.137995
                   36         37         38         39         40
    36  O    0.000000
    37  N    2.252791   0.000000
    38  H    3.150022   1.009974   0.000000
    39  C    2.775346   1.449002   2.120951   0.000000
    40  H    2.337389   2.083760   2.986269   1.089979   0.000000
    41  H    3.519236   2.083791   2.484302   1.090068   1.779685
    42  H    3.519210   2.083774   2.484296   1.089959   1.779643
                   41         42
    41  H    0.000000
    42  H    1.779641   0.000000
 Stoichiometry    C12H22N4O4
 Framework group  C1[X(C12H22N4O4)]
 Deg. of freedom   120
 Full point group                 C1      NOp   1
 Largest Abelian subgroup         C1      NOp   1
 Largest concise Abelian subgroup C1      NOp   1
                         Standard orientation:                         
 ---------------------------------------------------------------------
 Center     Atomic      Atomic             Coordinates (Angstroms)
 Number     Number       Type             X           Y           Z
 ---------------------------------------------------------------------
      1          1           0       -6.807735   -2.119258   -0.088930
      2          6           0       -6.184276   -1.319428   -0.488519
      3          1           0       -6.687312   -0.362387   -0.350385
      4          1           0       -6.012188   -1.488704   -1.551492
      5          6           0       -4.831099   -1.267797    0.223650
      6          8           0       -4.567291   -2.065819    1.120314
      7          7           0       -3.977946   -0.324250   -0.181561
      8          1           0       -4.240486    0.309159   -0.923195
      9          6           0       -2.665569   -0.172095    0.413382
     10          1           0       -2.770715    0.035249    1.478329
     11          6           0       -1.835361   -1.439880    0.243379
     12          1           0       -1.713628   -1.655484   -0.818224
     13          1           0       -0.855568   -1.297083    0.699208
     14          1           0       -2.342483   -2.274499    0.727296
     15          6           0       -1.901016    0.974705   -0.232239
     16          8           0       -2.410403    1.633312   -1.136180
     17          7           0       -0.673243    1.212509    0.234926
     18          1           0       -0.297363    0.643414    0.979890
     19          6           0        0.155639    2.275715   -0.296250
     20          1           0       -0.088565    2.437320   -1.346170
     21          6           0       -0.070108    3.579063    0.462783
     22          1           0        0.178859    3.435602    1.514172
     23          1           0        0.564595    4.359254    0.042794
     24          1           0       -1.115403    3.875115    0.374542
     25          6           0        1.632658    1.924744   -0.188808
     26          8           0        2.475390    2.808610   -0.051062
     27          7           0        1.945114    0.628358   -0.252242
     28          1           0        1.216543   -0.061767   -0.366082
     29          6           0        3.315346    0.165767   -0.162216
     30          1           0        3.899237    0.597415   -0.975067
     31          6           0        3.947527    0.576493    1.163445
     32          1           0        3.379182    0.144227    1.987036
     33          1           0        4.975423    0.216111    1.203522
     34          1           0        3.940526    1.663129    1.248705
     35          6           0        3.389183   -1.351127   -0.262451
     36          8           0        2.366037   -2.017647   -0.401036
     37          7           0        4.605828   -1.896348   -0.192017
     38          1           0        5.417662   -1.306498   -0.077781
     39          6           0        4.808957   -3.328655   -0.274737
     40          1           0        3.846761   -3.826187   -0.395963
     41          1           0        5.445760   -3.557034   -1.129473
     42          1           0        5.287474   -3.681659    0.638728
 ---------------------------------------------------------------------
 Rotational constants (GHZ):      0.4639892      0.1531048      0.1204670
 Standard basis: 6-31G(d) (6D, 7F)
 There are   344 symmetry adapted basis functions of A   symmetry.
 Integral buffers will be    131072 words long.
 Raffenetti 2 integral format.
 Two-electron integral symmetry is turned on.
   344 basis functions,   648 primitive gaussians,   344 cartesian basis functions
    77 alpha electrons       77 beta electrons
       nuclear repulsion energy      1625.0800183887 Hartrees.
 NAtoms=   42 NActive=   42 NUniq=   42 SFac= 7.50D-01 NAtFMM=   80 NAOKFM=F Big=F
 One-electron integrals computed using PRISM.
 NBasis=   344 RedAO= T  NBF=   344
 NBsUse=   344 1.00D-06 NBFU=   344
 Harris functional with IExCor=  402 diagonalized for initial guess.
 ExpMin= 1.61D-01 ExpMax= 5.48D+03 ExpMxC= 8.25D+02 IAcc=1 IRadAn=         1 AccDes= 0.00D+00
 HarFok:  IExCor=  402 AccDes= 0.00D+00 IRadAn=         1 IDoV= 1
 ScaDFX=  1.000000  1.000000  1.000000  1.000000
 FoFCou: FMM=F IPFlag=           0 FMFlag=      100000 FMFlg1=           0
         NFxFlg=           0 DoJE=T BraDBF=F KetDBF=T FulRan=T
         Omega=  0.000000  0.000000  1.000000  0.000000  0.000000 ICntrl=     500 IOpCl=  0
         NMat0=    1 NMatS0=    1 NMatT0=    0 NMatD0=    1 NMtDS0=    0 NMtDT0=    0
         I1Cent=           4 NGrid=           0.
 Petite list used in FoFCou.
 Initial guess orbital symmetries:
       Occupied  (A) (A) (A) (A) (A) (A) (A) (A) (A) (A) (A) (A)
                 (A) (A) (A) (A) (A) (A) (A) (A) (A) (A) (A) (A)
                 (A) (A) (A) (A) (A) (A) (A) (A) (A) (A) (A) (A)
                 (A) (A) (A) (A) (A) (A) (A) (A) (A) (A) (A) (A)
                 (A) (A) (A) (A) (A) (A) (A) (A) (A) (A) (A) (A)
                 (A) (A) (A) (A) (A) (A) (A) (A) (A) (A) (A) (A)
                 (A) (A) (A) (A) (A)
       Virtual   (A) (A) (A) (A) (A) (A) (A) (A) (A) (A) (A) (A)
                 (A) (A) (A) (A) (A) (A) (A) (A) (A) (A) (A) (A)
                 (A) (A) (A) (A) (A) (A) (A) (A) (A) (A) (A) (A)
                 (A) (A) (A) (A) (A) (A) (A) (A) (A) (A) (A) (A)
                 (A) (A) (A) (A) (A) (A) (A) (A) (A) (A) (A) (A)
                 (A) (A) (A) (A) (A) (A) (A) (A) (A) (A) (A) (A)
                 (A) (A) (A) (A) (A) (A) (A) (A) (A) (A) (A) (A)
                 (A) (A) (A) (A) (A) (A) (A) (A) (A) (A) (A) (A)
                 (A) (A) (A) (A) (A) (A) (A) (A) (A) (A) (A) (A)
                 (A) (A) (A) (A) (A) (A) (A) (A) (A) (A) (A) (A)
                 (A) (A) (A) (A) (A) (A) (A) (A) (A) (A) (A) (A)
                 (A) (A) (A) (A) (A) (A) (A) (A) (A) (A) (A) (A)
                 (A) (A) (A) (A) (A) (A) (A) (A) (A) (A) (A) (A)
                 (A) (A) (A) (A) (A) (A) (A) (A) (A) (A) (A) (A)
                 (A) (A) (A) (A) (A) (A) (A) (A) (A) (A) (A) (A)
                 (A) (A) (A) (A) (A) (A) (A) (A) (A) (A) (A) (A)
                 (A) (A) (A) (A) (A) (A) (A) (A) (A) (A) (A) (A)
                 (A) (A) (A) (A) (A) (A) (A) (A) (A) (A) (A) (A)
                 (A) (A) (A) (A) (A) (A) (A) (A) (A) (A) (A) (A)
                 (A) (A) (A) (A) (A) (A) (A) (A) (A) (A) (A) (A)
                 (A) (A) (A) (A) (A) (A) (A) (A) (A) (A) (A) (A)
                 (A) (A) (A) (A) (A) (A) (A) (A) (A) (A) (A) (A)
                 (A) (A) (A)
 The electronic state of the initial guess is 1-A.
 Requested convergence on RMS density matrix=1.00D-08 within 128 cycles.
 Requested convergence on MAX density matrix=1.00D-06.
 Requested convergence on             energy=1.00D-06.
 No special actions if energy rises.
 Integral accuracy reduced to 1.0D-05 until final iterations.
 Initial convergence to 1.0D-05 achieved.  Increase integral accuracy.
 SCF Done:  E(RB3LYP) =  -990.489064757     A.U. after   14 cycles
             Convg  =    0.9067D-08             -V/T =  2.0087
 Range of M.O.s used for correlation:     1   344
 NBasis=   344 NAE=    77 NBE=    77 NFC=     0 NFV=     0
 NROrb=    344 NOA=    77 NOB=    77 NVA=   267 NVB=   267
 Symmetrizing basis deriv contribution to polar:
 IMax=3 JMax=2 DiffMx= 0.00D+00
 G2DrvN: will do    43 centers at a time, making    1 passes doing MaxLOS=2.
 Calling FoFCou, ICntrl=  3107 FMM=F I1Cent=   0 AccDes= 0.00D+00.
 FoFDir/FoFCou used for L=0 through L=2.
 End of G2Drv Frequency-dependent properties file   721 does not exist.
 End of G2Drv Frequency-dependent properties file   722 does not exist.
          IDoAtm=111111111111111111111111111111111111111111
          Differentiating once with respect to nuclear coordinates.
          There are   129 degrees of freedom in the 1st order CPHF.  IDoFFX=5.
    123 vectors produced by pass  0 Test12= 2.06D-10 1.00D-07 XBig12= 1.87D-01 8.64D-02.
 AX will form   123 AO Fock derivatives at one time.
    123 vectors produced by pass  1 Test12= 2.06D-10 1.00D-07 XBig12= 3.74D-02 6.42D-02.
    123 vectors produced by pass  2 Test12= 2.06D-10 1.00D-07 XBig12= 5.38D-05 1.26D-03.
    123 vectors produced by pass  3 Test12= 2.06D-10 1.00D-07 XBig12= 1.19D-07 4.28D-05.
     67 vectors produced by pass  4 Test12= 2.06D-10 1.00D-07 XBig12= 1.10D-10 1.03D-06.
 Inverted reduced A of dimension   559 with in-core refinement.
 End of Minotr Frequency-dependent properties file   721 does not exist.
 End of Minotr Frequency-dependent properties file   722 does not exist.

 **********************************************************************

            Population analysis using the SCF density.

 **********************************************************************

 Orbital symmetries:
       Occupied  (A) (A) (A) (A) (A) (A) (A) (A) (A) (A) (A) (A)
                 (A) (A) (A) (A) (A) (A) (A) (A) (A) (A) (A) (A)
                 (A) (A) (A) (A) (A) (A) (A) (A) (A) (A) (A) (A)
                 (A) (A) (A) (A) (A) (A) (A) (A) (A) (A) (A) (A)
                 (A) (A) (A) (A) (A) (A) (A) (A) (A) (A) (A) (A)
                 (A) (A) (A) (A) (A) (A) (A) (A) (A) (A) (A) (A)
                 (A) (A) (A) (A) (A)
       Virtual   (A) (A) (A) (A) (A) (A) (A) (A) (A) (A) (A) (A)
                 (A) (A) (A) (A) (A) (A) (A) (A) (A) (A) (A) (A)
                 (A) (A) (A) (A) (A) (A) (A) (A) (A) (A) (A) (A)
                 (A) (A) (A) (A) (A) (A) (A) (A) (A) (A) (A) (A)
                 (A) (A) (A) (A) (A) (A) (A) (A) (A) (A) (A) (A)
                 (A) (A) (A) (A) (A) (A) (A) (A) (A) (A) (A) (A)
                 (A) (A) (A) (A) (A) (A) (A) (A) (A) (A) (A) (A)
                 (A) (A) (A) (A) (A) (A) (A) (A) (A) (A) (A) (A)
                 (A) (A) (A) (A) (A) (A) (A) (A) (A) (A) (A) (A)
                 (A) (A) (A) (A) (A) (A) (A) (A) (A) (A) (A) (A)
                 (A) (A) (A) (A) (A) (A) (A) (A) (A) (A) (A) (A)
                 (A) (A) (A) (A) (A) (A) (A) (A) (A) (A) (A) (A)
                 (A) (A) (A) (A) (A) (A) (A) (A) (A) (A) (A) (A)
                 (A) (A) (A) (A) (A) (A) (A) (A) (A) (A) (A) (A)
                 (A) (A) (A) (A) (A) (A) (A) (A) (A) (A) (A) (A)
                 (A) (A) (A) (A) (A) (A) (A) (A) (A) (A) (A) (A)
                 (A) (A) (A) (A) (A) (A) (A) (A) (A) (A) (A) (A)
                 (A) (A) (A) (A) (A) (A) (A) (A) (A) (A) (A) (A)
                 (A) (A) (A) (A) (A) (A) (A) (A) (A) (A) (A) (A)
                 (A) (A) (A) (A) (A) (A) (A) (A) (A) (A) (A) (A)
                 (A) (A) (A) (A) (A) (A) (A) (A) (A) (A) (A) (A)
                 (A) (A) (A) (A) (A) (A) (A) (A) (A) (A) (A) (A)
                 (A) (A) (A)
 The electronic state is 1-A.
 Alpha  occ. eigenvalues --  -19.12697 -19.12361 -19.11497 -19.09555 -14.38182
 Alpha  occ. eigenvalues --  -14.37768 -14.36996 -14.35267 -10.30071 -10.29578
 Alpha  occ. eigenvalues --  -10.29007 -10.27532 -10.24759 -10.23823 -10.23636
 Alpha  occ. eigenvalues --  -10.23106 -10.19016 -10.18228 -10.17683 -10.17413
 Alpha  occ. eigenvalues --   -1.05456  -1.05027  -1.03984  -1.02070  -0.95131
 Alpha  occ. eigenvalues --   -0.94446  -0.93244  -0.92018  -0.80629  -0.78918
 Alpha  occ. eigenvalues --   -0.76161  -0.72361  -0.72004  -0.68036  -0.66027
 Alpha  occ. eigenvalues --   -0.63918  -0.61229  -0.60967  -0.58717  -0.57527
 Alpha  occ. eigenvalues --   -0.57199  -0.53428  -0.50608  -0.49970  -0.49243
 Alpha  occ. eigenvalues --   -0.48021  -0.47045  -0.46776  -0.45025  -0.44858
 Alpha  occ. eigenvalues --   -0.44581  -0.43833  -0.43179  -0.42559  -0.41230
 Alpha  occ. eigenvalues --   -0.41172  -0.41032  -0.40667  -0.39825  -0.39286
 Alpha  occ. eigenvalues --   -0.38593  -0.38123  -0.38087  -0.37516  -0.36912
 Alpha  occ. eigenvalues --   -0.36736  -0.36398  -0.35470  -0.34026  -0.27623
 Alpha  occ. eigenvalues --   -0.27457  -0.26786  -0.26345  -0.26038  -0.25216
 Alpha  occ. eigenvalues --   -0.24551  -0.23308
 Alpha virt. eigenvalues --    0.01246   0.01753   0.02255   0.04030   0.05178
 Alpha virt. eigenvalues --    0.06213   0.09838   0.10848   0.11507   0.12131
 Alpha virt. eigenvalues --    0.12768   0.13572   0.14170   0.14437   0.14678
 Alpha virt. eigenvalues --    0.15026   0.15496   0.15879   0.16175   0.16735
 Alpha virt. eigenvalues --    0.17419   0.18053   0.18145   0.18340   0.18876
 Alpha virt. eigenvalues --    0.19561   0.20244   0.20646   0.21687   0.21949
 Alpha virt. eigenvalues --    0.23337   0.23787   0.24659   0.25032   0.25640
 Alpha virt. eigenvalues --    0.28375   0.30197   0.32860   0.33569   0.34625
 Alpha virt. eigenvalues --    0.36887   0.39710   0.41003   0.42875   0.43949
 Alpha virt. eigenvalues --    0.49322   0.50566   0.50719   0.51283   0.51590
 Alpha virt. eigenvalues --    0.52362   0.52549   0.53433   0.54076   0.54709
 Alpha virt. eigenvalues --    0.55043   0.55462   0.56418   0.57238   0.57485
 Alpha virt. eigenvalues --    0.59498   0.61065   0.61343   0.62659   0.63459
 Alpha virt. eigenvalues --    0.63947   0.64275   0.66413   0.67459   0.67834
 Alpha virt. eigenvalues --    0.68684   0.68822   0.70856   0.71970   0.72251
 Alpha virt. eigenvalues --    0.73048   0.73273   0.74590   0.75583   0.76601
 Alpha virt. eigenvalues --    0.77286   0.78399   0.78961   0.81166   0.81419
 Alpha virt. eigenvalues --    0.82660   0.83290   0.84170   0.85330   0.85481
 Alpha virt. eigenvalues --    0.86348   0.86628   0.87530   0.88070   0.88479
 Alpha virt. eigenvalues --    0.88716   0.88994   0.89634   0.89978   0.90559
 Alpha virt. eigenvalues --    0.90872   0.92041   0.92209   0.92725   0.93044
 Alpha virt. eigenvalues --    0.94201   0.94849   0.95937   0.96267   0.96558
 Alpha virt. eigenvalues --    0.97464   0.98890   0.99313   1.00186   1.01302
 Alpha virt. eigenvalues --    1.03875   1.05155   1.05704   1.07027   1.09616
 Alpha virt. eigenvalues --    1.11151   1.12277   1.12833   1.16048   1.18158
 Alpha virt. eigenvalues --    1.19261   1.21459   1.21581   1.25055   1.26702
 Alpha virt. eigenvalues --    1.28156   1.29497   1.31410   1.32401   1.33185
 Alpha virt. eigenvalues --    1.34442   1.34800   1.35941   1.37881   1.39877
 Alpha virt. eigenvalues --    1.41886   1.44357   1.46412   1.47007   1.47785
 Alpha virt. eigenvalues --    1.49242   1.50018   1.51056   1.51976   1.59911
 Alpha virt. eigenvalues --    1.63302   1.65695   1.68235   1.70139   1.70330
 Alpha virt. eigenvalues --    1.70617   1.74067   1.74633   1.75915   1.76825
 Alpha virt. eigenvalues --    1.77426   1.78968   1.80151   1.81540   1.81626
 Alpha virt. eigenvalues --    1.83070   1.83490   1.84048   1.84091   1.84751
 Alpha virt. eigenvalues --    1.85427   1.86126   1.86713   1.87343   1.87915
 Alpha virt. eigenvalues --    1.90908   1.91790   1.92527   1.94044   1.95126
 Alpha virt. eigenvalues --    1.95623   1.97055   1.98213   1.99093   2.01829
 Alpha virt. eigenvalues --    2.03245   2.03924   2.04562   2.05136   2.06283
 Alpha virt. eigenvalues --    2.07752   2.08786   2.11188   2.13804   2.16889
 Alpha virt. eigenvalues --    2.17398   2.18036   2.20671   2.20978   2.24359
 Alpha virt. eigenvalues --    2.24675   2.25379   2.27064   2.27769   2.28554
 Alpha virt. eigenvalues --    2.28991   2.30000   2.31576   2.32952   2.34228
 Alpha virt. eigenvalues --    2.34752   2.37127   2.40397   2.41444   2.43795
 Alpha virt. eigenvalues --    2.44202   2.44573   2.46167   2.48112   2.49671
 Alpha virt. eigenvalues --    2.53298   2.55387   2.56574   2.59422   2.60358
 Alpha virt. eigenvalues --    2.61112   2.65142   2.65675   2.70194   2.71571
 Alpha virt. eigenvalues --    2.72576   2.74657   2.75005   2.81087   2.84104
 Alpha virt. eigenvalues --    2.86658   2.89941   2.93401   2.95979   2.96747
 Alpha virt. eigenvalues --    2.98714   3.00514   3.05309   3.15079   3.15895
 Alpha virt. eigenvalues --    3.23400   3.24706   3.95914   4.01339   4.02547
 Alpha virt. eigenvalues --    4.03950   4.07374   4.08231   4.10166   4.15453
 Alpha virt. eigenvalues --    4.20848   4.22351   4.23426   4.27766   4.29621
 Alpha virt. eigenvalues --    4.40633   4.43914   4.44678   4.47727   4.57753
 Alpha virt. eigenvalues --    4.62795   4.68683
          Condensed to atoms (all electrons):
              1          2          3          4          5          6
     1  H    0.505522   0.360452  -0.021642  -0.021556  -0.018248   0.005043
     2  C    0.360452   5.325402   0.351149   0.351763   0.358081  -0.079299
     3  H   -0.021642   0.351149   0.550098  -0.026614  -0.025126   0.001466
     4  H   -0.021556   0.351763  -0.026614   0.551042  -0.026604   0.001290
     5  C   -0.018248   0.358081  -0.025126  -0.026604   4.336738   0.593247
     6  O    0.005043  -0.079299   0.001466   0.001290   0.593247   8.083958
     7  N    0.004596  -0.135202   0.004207   0.004606   0.227195  -0.107977
     8  H   -0.000145  -0.001162   0.001154   0.000859  -0.015951   0.003094
     9  C   -0.000147   0.007403  -0.000276   0.000007  -0.021545   0.013453
    10  H    0.000002   0.000153  -0.000020  -0.000002  -0.001381   0.005002
    11  C    0.000014  -0.000759   0.000017   0.000031  -0.006052  -0.018476
    12  H    0.000000  -0.000004  -0.000001   0.000002   0.000861  -0.000163
    13  H    0.000000   0.000007   0.000000  -0.000001   0.000314   0.000320
    14  H    0.000000   0.000614  -0.000008  -0.000054   0.003083   0.023529
    15  C    0.000000  -0.000041  -0.000017  -0.000014   0.006617   0.000818
    16  O    0.000000  -0.000048   0.000000  -0.000001   0.000508  -0.000005
    17  N    0.000000   0.000001   0.000000   0.000000  -0.000073  -0.000002
    18  H    0.000000   0.000000   0.000000   0.000000   0.000002   0.000003
    19  C    0.000000   0.000000   0.000000   0.000000   0.000001   0.000000
    20  H    0.000000   0.000000   0.000000   0.000000   0.000000   0.000000
    21  C    0.000000   0.000000   0.000000   0.000000   0.000000   0.000000
    22  H    0.000000   0.000000   0.000000   0.000000   0.000000   0.000000
    23  H    0.000000   0.000000   0.000000   0.000000   0.000000   0.000000
    24  H    0.000000   0.000000   0.000000   0.000000   0.000000   0.000000
    25  C    0.000000   0.000000   0.000000   0.000000   0.000000   0.000000
    26  O    0.000000   0.000000   0.000000   0.000000   0.000000   0.000000
    27  N    0.000000   0.000000   0.000000   0.000000   0.000000   0.000000
    28  H    0.000000   0.000000   0.000000   0.000000   0.000000   0.000000
    29  C    0.000000   0.000000   0.000000   0.000000   0.000000   0.000000
    30  H    0.000000   0.000000   0.000000   0.000000   0.000000   0.000000
    31  C    0.000000   0.000000   0.000000   0.000000   0.000000   0.000000
    32  H    0.000000   0.000000   0.000000   0.000000   0.000000   0.000000
    33  H    0.000000   0.000000   0.000000   0.000000   0.000000   0.000000
    34  H    0.000000   0.000000   0.000000   0.000000   0.000000   0.000000
    35  C    0.000000   0.000000   0.000000   0.000000   0.000000   0.000000
    36  O    0.000000   0.000000   0.000000   0.000000   0.000000   0.000000
    37  N    0.000000   0.000000   0.000000   0.000000   0.000000   0.000000
    38  H    0.000000   0.000000   0.000000   0.000000   0.000000   0.000000
    39  C    0.000000   0.000000   0.000000   0.000000   0.000000   0.000000
    40  H    0.000000   0.000000   0.000000   0.000000   0.000000   0.000000
    41  H    0.000000   0.000000   0.000000   0.000000   0.000000   0.000000
    42  H    0.000000   0.000000   0.000000   0.000000   0.000000   0.000000
              7          8          9         10         11         12
     1  H    0.004596  -0.000145  -0.000147   0.000002   0.000014   0.000000
     2  C   -0.135202  -0.001162   0.007403   0.000153  -0.000759  -0.000004
     3  H    0.004207   0.001154  -0.000276  -0.000020   0.000017  -0.000001
     4  H    0.004606   0.000859   0.000007  -0.000002   0.000031   0.000002
     5  C    0.227195  -0.015951  -0.021545  -0.001381  -0.006052   0.000861
     6  O   -0.107977   0.003094   0.013453   0.005002  -0.018476  -0.000163
     7  N    7.198621   0.291515   0.246788  -0.049314  -0.055016   0.000098
     8  H    0.291515   0.387184  -0.050420   0.004095   0.004412   0.000616
     9  C    0.246788  -0.050420   5.088872   0.371415   0.341959  -0.037903
    10  H   -0.049314   0.004095   0.371415   0.582031  -0.049941   0.006207
    11  C   -0.055016   0.004412   0.341959  -0.049941   5.210204   0.369874
    12  H    0.000098   0.000616  -0.037903   0.006207   0.369874   0.557468
    13  H    0.005196  -0.000122  -0.036154  -0.000308   0.350422  -0.027500
    14  H   -0.010528  -0.000291  -0.020958  -0.005978   0.359765  -0.025144
    15  C   -0.025704  -0.000240   0.315930  -0.036025  -0.045551  -0.002938
    16  O   -0.009289   0.030235  -0.084803   0.001184  -0.000595   0.000936
    17  N    0.003334   0.001286  -0.120581   0.000827   0.003918  -0.000570
    18  H    0.000054  -0.000041   0.000240   0.001098   0.001048  -0.000160
    19  C   -0.000055  -0.000036   0.005990  -0.000265   0.000130  -0.000054
    20  H   -0.000002  -0.000017   0.000957  -0.000017  -0.000112  -0.000004
    21  C    0.000002   0.000003  -0.000558   0.000078   0.000006   0.000002
    22  H    0.000000   0.000000   0.000017  -0.000001  -0.000001   0.000000
    23  H    0.000000   0.000000   0.000006   0.000000   0.000000   0.000000
    24  H    0.000001  -0.000004   0.000050  -0.000025   0.000001   0.000000
    25  C    0.000000   0.000000  -0.000003  -0.000021  -0.000016  -0.000012
    26  O    0.000000   0.000000   0.000000   0.000000   0.000000   0.000000
    27  N    0.000000   0.000000  -0.000026   0.000001  -0.000258  -0.000035
    28  H    0.000002   0.000000  -0.000335   0.000012   0.000684   0.000384
    29  C    0.000000   0.000000  -0.000001   0.000000   0.000016   0.000000
    30  H    0.000000   0.000000   0.000000   0.000000   0.000000   0.000000
    31  C    0.000000   0.000000   0.000000   0.000000   0.000000   0.000000
    32  H    0.000000   0.000000   0.000000   0.000000  -0.000001   0.000000
    33  H    0.000000   0.000000   0.000000   0.000000   0.000000   0.000000
    34  H    0.000000   0.000000   0.000000   0.000000   0.000000   0.000000
    35  C    0.000000   0.000000   0.000000   0.000000  -0.000006   0.000000
    36  O    0.000000   0.000000   0.000003   0.000000  -0.000222   0.000017
    37  N    0.000000   0.000000   0.000000   0.000000   0.000000   0.000000
    38  H    0.000000   0.000000   0.000000   0.000000   0.000000   0.000000
    39  C    0.000000   0.000000   0.000000   0.000000   0.000000   0.000000
    40  H    0.000000   0.000000   0.000000   0.000000   0.000000   0.000000
    41  H    0.000000   0.000000   0.000000   0.000000   0.000000   0.000000
    42  H    0.000000   0.000000   0.000000   0.000000   0.000000   0.000000
             13         14         15         16         17         18
     1  H    0.000000   0.000000   0.000000   0.000000   0.000000   0.000000
     2  C    0.000007   0.000614  -0.000041  -0.000048   0.000001   0.000000
     3  H    0.000000  -0.000008  -0.000017   0.000000   0.000000   0.000000
     4  H   -0.000001  -0.000054  -0.000014  -0.000001   0.000000   0.000000
     5  C    0.000314   0.003083   0.006617   0.000508  -0.000073   0.000002
     6  O    0.000320   0.023529   0.000818  -0.000005  -0.000002   0.000003
     7  N    0.005196  -0.010528  -0.025704  -0.009289   0.003334   0.000054
     8  H   -0.000122  -0.000291  -0.000240   0.030235   0.001286  -0.000041
     9  C   -0.036154  -0.020958   0.315930  -0.084803  -0.120581   0.000240
    10  H   -0.000308  -0.005978  -0.036025   0.001184   0.000827   0.001098
    11  C    0.350422   0.359765  -0.045551  -0.000595   0.003918   0.001048
    12  H   -0.027500  -0.025144  -0.002938   0.000936  -0.000570  -0.000160
    13  H    0.594096  -0.020189  -0.008319  -0.000016   0.002201   0.007273
    14  H   -0.020189   0.479782   0.004005  -0.000087   0.000220  -0.000258
    15  C   -0.008319   0.004005   4.383615   0.586146   0.237075  -0.018629
    16  O   -0.000016  -0.000087   0.586146   8.096320  -0.107788   0.003393
    17  N    0.002201   0.000220   0.237075  -0.107788   7.246074   0.291617
    18  H    0.007273  -0.000258  -0.018629   0.003393   0.291617   0.404538
    19  C    0.000228   0.000006  -0.015921   0.007049   0.198808  -0.037726
    20  H   -0.000010   0.000000  -0.001874   0.013633  -0.043894   0.004921
    21  C   -0.000003   0.000000  -0.004335  -0.002432  -0.064226   0.000120
    22  H   -0.000003   0.000000   0.000138  -0.000012  -0.002267   0.002129
    23  H    0.000000   0.000000   0.000006  -0.000028   0.005068  -0.000052
    24  H    0.000000   0.000000   0.003229   0.003509  -0.005447  -0.000182
    25  C   -0.000039   0.000000   0.003269   0.000651  -0.030786  -0.001869
    26  O    0.000000   0.000000  -0.000065  -0.000001   0.001658  -0.000144
    27  N   -0.000119   0.000000   0.000882   0.000009  -0.003949   0.010685
    28  H    0.002731   0.000006  -0.000199  -0.000107   0.014940  -0.001794
    29  C   -0.000062   0.000000   0.000012   0.000000   0.000737  -0.000408
    30  H    0.000001   0.000000   0.000001   0.000000  -0.000012   0.000035
    31  C   -0.000005   0.000000  -0.000002   0.000000  -0.000024  -0.000068
    32  H    0.000006   0.000000   0.000001   0.000000  -0.000024   0.000172
    33  H    0.000000   0.000000   0.000000   0.000000   0.000000   0.000002
    34  H    0.000000   0.000000   0.000000   0.000000  -0.000018  -0.000020
    35  C    0.000082   0.000000   0.000001   0.000000  -0.000075  -0.000039
    36  O    0.001193   0.000002   0.000000   0.000000  -0.000041  -0.000062
    37  N    0.000001   0.000000   0.000000   0.000000   0.000000   0.000000
    38  H    0.000000   0.000000   0.000000   0.000000   0.000000   0.000000
    39  C    0.000000   0.000000   0.000000   0.000000   0.000000   0.000000
    40  H   -0.000001   0.000000   0.000000   0.000000   0.000000   0.000000
    41  H    0.000000   0.000000   0.000000   0.000000   0.000000   0.000000
    42  H    0.000000   0.000000   0.000000   0.000000   0.000000   0.000000
             19         20         21         22         23         24
     1  H    0.000000   0.000000   0.000000   0.000000   0.000000   0.000000
     2  C    0.000000   0.000000   0.000000   0.000000   0.000000   0.000000
     3  H    0.000000   0.000000   0.000000   0.000000   0.000000   0.000000
     4  H    0.000000   0.000000   0.000000   0.000000   0.000000   0.000000
     5  C    0.000001   0.000000   0.000000   0.000000   0.000000   0.000000
     6  O    0.000000   0.000000   0.000000   0.000000   0.000000   0.000000
     7  N   -0.000055  -0.000002   0.000002   0.000000   0.000000   0.000001
     8  H   -0.000036  -0.000017   0.000003   0.000000   0.000000  -0.000004
     9  C    0.005990   0.000957  -0.000558   0.000017   0.000006   0.000050
    10  H   -0.000265  -0.000017   0.000078  -0.000001   0.000000  -0.000025
    11  C    0.000130  -0.000112   0.000006  -0.000001   0.000000   0.000001
    12  H   -0.000054  -0.000004   0.000002   0.000000   0.000000   0.000000
    13  H    0.000228  -0.000010  -0.000003  -0.000003   0.000000   0.000000
    14  H    0.000006   0.000000   0.000000   0.000000   0.000000   0.000000
    15  C   -0.015921  -0.001874  -0.004335   0.000138   0.000006   0.003229
    16  O    0.007049   0.013633  -0.002432  -0.000012  -0.000028   0.003509
    17  N    0.198808  -0.043894  -0.064226  -0.002267   0.005068  -0.005447
    18  H   -0.037726   0.004921   0.000120   0.002129  -0.000052  -0.000182
    19  C    5.127749   0.373637   0.365982  -0.035229  -0.026858  -0.029829
    20  H    0.373637   0.515574  -0.039368   0.005044  -0.000193  -0.003838
    21  C    0.365982  -0.039368   5.105497   0.376745   0.364979   0.364517
    22  H   -0.035229   0.005044   0.376745   0.571254  -0.022743  -0.030825
    23  H   -0.026858  -0.000193   0.364979  -0.022743   0.520771  -0.025748
    24  H   -0.029829  -0.003838   0.364517  -0.030825  -0.025748   0.558378
    25  C    0.327540  -0.027877  -0.043396  -0.006074  -0.003862   0.005730
    26  O   -0.083805  -0.000181  -0.000618   0.000846   0.009514   0.000735
    27  N   -0.133645  -0.001069   0.004568   0.000186   0.000391  -0.000062
    28  H   -0.004554  -0.000493   0.000555  -0.000031  -0.000045  -0.000010
    29  C    0.007059  -0.000282  -0.000109  -0.000037  -0.000011   0.000002
    30  H   -0.000002   0.000030  -0.000023   0.000001   0.000002   0.000000
    31  C   -0.000743   0.000000   0.000045   0.000011   0.000005   0.000000
    32  H    0.000008   0.000001  -0.000011   0.000006   0.000000   0.000000
    33  H    0.000007   0.000000  -0.000001   0.000000   0.000000   0.000000
    34  H    0.000526  -0.000004  -0.000005   0.000000  -0.000006   0.000000
    35  C    0.000030  -0.000003   0.000000   0.000000   0.000000   0.000000
    36  O   -0.000046   0.000000   0.000000   0.000000   0.000000   0.000000
    37  N    0.000001   0.000000   0.000000   0.000000   0.000000   0.000000
    38  H    0.000000   0.000000   0.000000   0.000000   0.000000   0.000000
    39  C    0.000000   0.000000   0.000000   0.000000   0.000000   0.000000
    40  H    0.000000   0.000000   0.000000   0.000000   0.000000   0.000000
    41  H    0.000000   0.000000   0.000000   0.000000   0.000000   0.000000
    42  H    0.000000   0.000000   0.000000   0.000000   0.000000   0.000000
             25         26         27         28         29         30
     1  H    0.000000   0.000000   0.000000   0.000000   0.000000   0.000000
     2  C    0.000000   0.000000   0.000000   0.000000   0.000000   0.000000
     3  H    0.000000   0.000000   0.000000   0.000000   0.000000   0.000000
     4  H    0.000000   0.000000   0.000000   0.000000   0.000000   0.000000
     5  C    0.000000   0.000000   0.000000   0.000000   0.000000   0.000000
     6  O    0.000000   0.000000   0.000000   0.000000   0.000000   0.000000
     7  N    0.000000   0.000000   0.000000   0.000002   0.000000   0.000000
     8  H    0.000000   0.000000   0.000000   0.000000   0.000000   0.000000
     9  C   -0.000003   0.000000  -0.000026  -0.000335  -0.000001   0.000000
    10  H   -0.000021   0.000000   0.000001   0.000012   0.000000   0.000000
    11  C   -0.000016   0.000000  -0.000258   0.000684   0.000016   0.000000
    12  H   -0.000012   0.000000  -0.000035   0.000384   0.000000   0.000000
    13  H   -0.000039   0.000000  -0.000119   0.002731  -0.000062   0.000001
    14  H    0.000000   0.000000   0.000000   0.000006   0.000000   0.000000
    15  C    0.003269  -0.000065   0.000882  -0.000199   0.000012   0.000001
    16  O    0.000651  -0.000001   0.000009  -0.000107   0.000000   0.000000
    17  N   -0.030786   0.001658  -0.003949   0.014940   0.000737  -0.000012
    18  H   -0.001869  -0.000144   0.010685  -0.001794  -0.000408   0.000035
    19  C    0.327540  -0.083805  -0.133645  -0.004554   0.007059  -0.000002
    20  H   -0.027877  -0.000181  -0.001069  -0.000493  -0.000282   0.000030
    21  C   -0.043396  -0.000618   0.004568   0.000555  -0.000109  -0.000023
    22  H   -0.006074   0.000846   0.000186  -0.000031  -0.000037   0.000001
    23  H   -0.003862   0.009514   0.000391  -0.000045  -0.000011   0.000002
    24  H    0.005730   0.000735  -0.000062  -0.000010   0.000002   0.000000
    25  C    4.380902   0.557994   0.271254  -0.019884  -0.027310  -0.000270
    26  O    0.557994   8.129400  -0.102634   0.003010   0.012007   0.004609
    27  N    0.271254  -0.102634   7.196888   0.278338   0.245553  -0.048157
    28  H   -0.019884   0.003010   0.278338   0.378887  -0.048381   0.003147
    29  C   -0.027310   0.012007   0.245553  -0.048381   5.101618   0.371054
    30  H   -0.000270   0.004609  -0.048157   0.003147   0.371054   0.573950
    31  C   -0.005791  -0.016713  -0.055248   0.004945   0.347924  -0.049175
    32  H    0.000933  -0.000185   0.000129   0.000451  -0.037890   0.006206
    33  H    0.000336   0.000291   0.005156  -0.000141  -0.035829  -0.000195
    34  H    0.002997   0.021118  -0.009551  -0.000290  -0.021966  -0.005988
    35  C    0.005699   0.000645  -0.025472   0.000607   0.307958  -0.033245
    36  O    0.000793  -0.000004  -0.008274   0.031562  -0.090082   0.001261
    37  N   -0.000052  -0.000001   0.003360   0.001225  -0.122670   0.000920
    38  H    0.000000   0.000003   0.000056  -0.000051   0.000939   0.001031
    39  C    0.000001   0.000000  -0.000068  -0.000011   0.005776  -0.000260
    40  H    0.000000   0.000000  -0.000001  -0.000031   0.001188  -0.000034
    41  H    0.000000   0.000000   0.000000   0.000000  -0.000197   0.000020
    42  H    0.000000   0.000000   0.000001   0.000000  -0.000029  -0.000006
             31         32         33         34         35         36
     1  H    0.000000   0.000000   0.000000   0.000000   0.000000   0.000000
     2  C    0.000000   0.000000   0.000000   0.000000   0.000000   0.000000
     3  H    0.000000   0.000000   0.000000   0.000000   0.000000   0.000000
     4  H    0.000000   0.000000   0.000000   0.000000   0.000000   0.000000
     5  C    0.000000   0.000000   0.000000   0.000000   0.000000   0.000000
     6  O    0.000000   0.000000   0.000000   0.000000   0.000000   0.000000
     7  N    0.000000   0.000000   0.000000   0.000000   0.000000   0.000000
     8  H    0.000000   0.000000   0.000000   0.000000   0.000000   0.000000
     9  C    0.000000   0.000000   0.000000   0.000000   0.000000   0.000003
    10  H    0.000000   0.000000   0.000000   0.000000   0.000000   0.000000
    11  C    0.000000  -0.000001   0.000000   0.000000  -0.000006  -0.000222
    12  H    0.000000   0.000000   0.000000   0.000000   0.000000   0.000017
    13  H   -0.000005   0.000006   0.000000   0.000000   0.000082   0.001193
    14  H    0.000000   0.000000   0.000000   0.000000   0.000000   0.000002
    15  C   -0.000002   0.000001   0.000000   0.000000   0.000001   0.000000
    16  O    0.000000   0.000000   0.000000   0.000000   0.000000   0.000000
    17  N   -0.000024  -0.000024   0.000000  -0.000018  -0.000075  -0.000041
    18  H   -0.000068   0.000172   0.000002  -0.000020  -0.000039  -0.000062
    19  C   -0.000743   0.000008   0.000007   0.000526   0.000030  -0.000046
    20  H    0.000000   0.000001   0.000000  -0.000004  -0.000003   0.000000
    21  C    0.000045  -0.000011  -0.000001  -0.000005   0.000000   0.000000
    22  H    0.000011   0.000006   0.000000   0.000000   0.000000   0.000000
    23  H    0.000005   0.000000   0.000000  -0.000006   0.000000   0.000000
    24  H    0.000000   0.000000   0.000000   0.000000   0.000000   0.000000
    25  C   -0.005791   0.000933   0.000336   0.002997   0.005699   0.000793
    26  O   -0.016713  -0.000185   0.000291   0.021118   0.000645  -0.000004
    27  N   -0.055248   0.000129   0.005156  -0.009551  -0.025472  -0.008274
    28  H    0.004945   0.000451  -0.000141  -0.000290   0.000607   0.031562
    29  C    0.347924  -0.037890  -0.035829  -0.021966   0.307958  -0.090082
    30  H   -0.049175   0.006206  -0.000195  -0.005988  -0.033245   0.001261
    31  C    5.194516   0.367795   0.354512   0.362692  -0.045087  -0.000659
    32  H    0.367795   0.564892  -0.026299  -0.026376  -0.002918   0.000996
    33  H    0.354512  -0.026299   0.593680  -0.021312  -0.008038  -0.000025
    34  H    0.362692  -0.026376  -0.021312   0.482845   0.003767  -0.000090
    35  C   -0.045087  -0.002918  -0.008038   0.003767   4.364411   0.596494
    36  O   -0.000659   0.000996  -0.000025  -0.000090   0.596494   8.089992
    37  N    0.002550  -0.000428   0.003565   0.000223   0.274548  -0.101302
    38  H    0.000639  -0.000111   0.006938  -0.000192  -0.021653   0.003583
    39  C    0.000014  -0.000072   0.000070   0.000005  -0.024671  -0.008949
    40  H   -0.000070  -0.000007  -0.000005   0.000001  -0.001406   0.020557
    41  H   -0.000004   0.000001   0.000004   0.000000   0.001312   0.000563
    42  H    0.000010   0.000002   0.000000  -0.000002   0.001371   0.000568
             37         38         39         40         41         42
     1  H    0.000000   0.000000   0.000000   0.000000   0.000000   0.000000
     2  C    0.000000   0.000000   0.000000   0.000000   0.000000   0.000000
     3  H    0.000000   0.000000   0.000000   0.000000   0.000000   0.000000
     4  H    0.000000   0.000000   0.000000   0.000000   0.000000   0.000000
     5  C    0.000000   0.000000   0.000000   0.000000   0.000000   0.000000
     6  O    0.000000   0.000000   0.000000   0.000000   0.000000   0.000000
     7  N    0.000000   0.000000   0.000000   0.000000   0.000000   0.000000
     8  H    0.000000   0.000000   0.000000   0.000000   0.000000   0.000000
     9  C    0.000000   0.000000   0.000000   0.000000   0.000000   0.000000
    10  H    0.000000   0.000000   0.000000   0.000000   0.000000   0.000000
    11  C    0.000000   0.000000   0.000000   0.000000   0.000000   0.000000
    12  H    0.000000   0.000000   0.000000   0.000000   0.000000   0.000000
    13  H    0.000001   0.000000   0.000000  -0.000001   0.000000   0.000000
    14  H    0.000000   0.000000   0.000000   0.000000   0.000000   0.000000
    15  C    0.000000   0.000000   0.000000   0.000000   0.000000   0.000000
    16  O    0.000000   0.000000   0.000000   0.000000   0.000000   0.000000
    17  N    0.000000   0.000000   0.000000   0.000000   0.000000   0.000000
    18  H    0.000000   0.000000   0.000000   0.000000   0.000000   0.000000
    19  C    0.000001   0.000000   0.000000   0.000000   0.000000   0.000000
    20  H    0.000000   0.000000   0.000000   0.000000   0.000000   0.000000
    21  C    0.000000   0.000000   0.000000   0.000000   0.000000   0.000000
    22  H    0.000000   0.000000   0.000000   0.000000   0.000000   0.000000
    23  H    0.000000   0.000000   0.000000   0.000000   0.000000   0.000000
    24  H    0.000000   0.000000   0.000000   0.000000   0.000000   0.000000
    25  C   -0.000052   0.000000   0.000001   0.000000   0.000000   0.000000
    26  O   -0.000001   0.000003   0.000000   0.000000   0.000000   0.000000
    27  N    0.003360   0.000056  -0.000068  -0.000001   0.000000   0.000001
    28  H    0.001225  -0.000051  -0.000011  -0.000031   0.000000   0.000000
    29  C   -0.122670   0.000939   0.005776   0.001188  -0.000197  -0.000029
    30  H    0.000920   0.001031  -0.000260  -0.000034   0.000020  -0.000006
    31  C    0.002550   0.000639   0.000014  -0.000070  -0.000004   0.000010
    32  H   -0.000428  -0.000111  -0.000072  -0.000007   0.000001   0.000002
    33  H    0.003565   0.006938   0.000070  -0.000005   0.000004   0.000000
    34  H    0.000223  -0.000192   0.000005   0.000001   0.000000  -0.000002
    35  C    0.274548  -0.021653  -0.024671  -0.001406   0.001312   0.001371
    36  O   -0.101302   0.003583  -0.008949   0.020557   0.000563   0.000568
    37  N    7.082159   0.303359   0.264822  -0.036380  -0.042982  -0.044064
[...]
    35  C    0.000012   0.000000   0.000000   0.000000  -0.000096  -0.000008
    36  O    0.000774   0.000001   0.000001   0.000000  -0.000066  -0.000006
    37  N    0.000001   0.000000   0.000000   0.000000   0.000000   0.000000
    38  H    0.000000   0.000000   0.000000   0.000000   0.000000   0.000000
    39  C    0.000000   0.000000   0.000000   0.000000   0.000000   0.000000
    40  H    0.000000   0.000000   0.000000   0.000000   0.000000   0.000000
    41  H    0.000000   0.000000   0.000000   0.000000   0.000000   0.000000
    42  H    0.000000   0.000000   0.000000   0.000000   0.000000   0.000000
             19         20         21         22         23         24
     1  H    0.000000   0.000000   0.000000   0.000000   0.000000   0.000000
     2  C    0.000000   0.000000   0.000000   0.000000   0.000000   0.000000
     3  H    0.000000   0.000000   0.000000   0.000000   0.000000   0.000000
     4  H    0.000000   0.000000   0.000000   0.000000   0.000000   0.000000
     5  C    0.000002   0.000000   0.000000   0.000000   0.000000   0.000000
     6  O    0.000000   0.000000   0.000000   0.000000   0.000000   0.000000
     7  N   -0.000068   0.000000   0.000005   0.000000   0.000000   0.000002
     8  H   -0.000041  -0.000027   0.000006   0.000000   0.000000  -0.000006
     9  C    0.005413   0.000869  -0.000400   0.000001   0.000005   0.000031
    10  H   -0.000185  -0.000020   0.000061  -0.000001   0.000000  -0.000021
    11  C   -0.000124  -0.000046  -0.000004   0.000000   0.000000   0.000001
    12  H   -0.000012  -0.000006   0.000001   0.000000   0.000000   0.000000
    13  H   -0.000032  -0.000005   0.000002   0.000000   0.000000   0.000000
    14  H    0.000005   0.000000   0.000000   0.000000   0.000000   0.000000
    15  C   -0.016154  -0.003208  -0.003738  -0.000031   0.000009   0.003275
    16  O    0.004505   0.014774  -0.002034  -0.000003  -0.000028   0.003097
    17  N    0.205260  -0.045718  -0.058025  -0.002823   0.004668  -0.004561
    18  H   -0.034949   0.005241  -0.000324   0.002969  -0.000069  -0.000217
    19  C    5.118011   0.371404   0.360002  -0.034121  -0.027100  -0.028203
    20  H    0.371404   0.519364  -0.037297   0.004628  -0.000388  -0.004069
    21  C    0.360002  -0.037297   5.106427   0.375315   0.365055   0.366039
    22  H   -0.034121   0.004628   0.375315   0.570775  -0.024519  -0.031073
    23  H   -0.027100  -0.000388   0.365055  -0.024519   0.520874  -0.025374
    24  H   -0.028203  -0.004069   0.366039  -0.031073  -0.025374   0.553982
    25  C    0.325436  -0.027957  -0.038814  -0.004947  -0.002553   0.004753
    26  O   -0.079697   0.000054   0.002017   0.000920   0.008682   0.000431
    27  N   -0.125106  -0.000974   0.004451   0.000097   0.000322  -0.000053
    28  H   -0.004113  -0.000209   0.000421  -0.000013  -0.000036  -0.000008
    29  C    0.006606  -0.000258  -0.000096  -0.000016  -0.000011   0.000001
    30  H    0.000259   0.000013  -0.000028   0.000000   0.000001   0.000000
    31  C   -0.000352  -0.000002   0.000020   0.000002   0.000001   0.000000
    32  H   -0.000002   0.000001  -0.000002   0.000000   0.000000   0.000000
    33  H    0.000002   0.000000   0.000000   0.000000   0.000000   0.000000
    34  H    0.000226   0.000000  -0.000004  -0.000001  -0.000003   0.000000
    35  C    0.000015  -0.000001   0.000000   0.000000   0.000000   0.000000
    36  O   -0.000061   0.000000   0.000000   0.000000   0.000000   0.000000
    37  N    0.000001   0.000000   0.000000   0.000000   0.000000   0.000000
    38  H    0.000000   0.000000   0.000000   0.000000   0.000000   0.000000
    39  C    0.000000   0.000000   0.000000   0.000000   0.000000   0.000000
    40  H    0.000000   0.000000   0.000000   0.000000   0.000000   0.000000
    41  H    0.000000   0.000000   0.000000   0.000000   0.000000   0.000000
    42  H    0.000000   0.000000   0.000000   0.000000   0.000000   0.000000
             25         26         27         28         29         30
     1  H    0.000000   0.000000   0.000000   0.000000   0.000000   0.000000
     2  C    0.000000   0.000000   0.000000   0.000000   0.000000   0.000000
     3  H    0.000000   0.000000   0.000000   0.000000   0.000000   0.000000
     4  H    0.000000   0.000000   0.000000   0.000000   0.000000   0.000000
     5  C    0.000000   0.000000   0.000000   0.000000   0.000000   0.000000
     6  O    0.000000   0.000000   0.000000   0.000000   0.000000   0.000000
     7  N    0.000000   0.000000   0.000000   0.000002   0.000000   0.000000
     8  H    0.000000   0.000000   0.000000   0.000000   0.000000   0.000000
     9  C   -0.000072   0.000000  -0.000033  -0.000073   0.000000   0.000000
    10  H   -0.000021   0.000000   0.000002  -0.000001   0.000000   0.000000
    11  C    0.000019   0.000000  -0.000062   0.000192   0.000003   0.000000
    12  H   -0.000004   0.000000  -0.000002   0.000043   0.000000   0.000000
    13  H    0.000000   0.000000  -0.000093   0.001640  -0.000013   0.000000
    14  H    0.000000   0.000000   0.000000   0.000000   0.000000   0.000000
    15  C    0.002630  -0.000055   0.000648  -0.000258   0.000012   0.000001
    16  O    0.000423   0.000000   0.000014  -0.000109   0.000000   0.000000
    17  N   -0.031713   0.001386  -0.004475   0.015761   0.000589  -0.000014
    18  H   -0.001115  -0.000022   0.004921  -0.000784  -0.000238   0.000011
    19  C    0.325436  -0.079697  -0.125106  -0.004113   0.006606   0.000259
    20  H   -0.027957   0.000054  -0.000974  -0.000209  -0.000258   0.000013
    21  C   -0.038814   0.002017   0.004451   0.000421  -0.000096  -0.000028
    22  H   -0.004947   0.000920   0.000097  -0.000013  -0.000016   0.000000
    23  H   -0.002553   0.008682   0.000322  -0.000036  -0.000011   0.000001
    24  H    0.004753   0.000431  -0.000053  -0.000008   0.000001   0.000000
    25  C    4.374292   0.567297   0.267727  -0.017304  -0.022933   0.000734
    26  O    0.567297   8.107778  -0.100244   0.002571   0.009334   0.009067
    27  N    0.267727  -0.100244   7.198899   0.275043   0.251491  -0.052903
    28  H   -0.017304   0.002571   0.275043   0.370144  -0.050237   0.003656
    29  C   -0.022933   0.009334   0.251491  -0.050237   5.076929   0.371266
    30  H    0.000734   0.009067  -0.052903   0.003656   0.371266   0.577350
    31  C   -0.005437  -0.006285  -0.053040   0.004087   0.350359  -0.048329
    32  H    0.000519  -0.000022  -0.000264   0.000679  -0.034549   0.005537
    33  H    0.000099   0.000027   0.004811  -0.000123  -0.030009   0.000019
    34  H    0.004052   0.009578  -0.008814  -0.000225  -0.022783  -0.004910
    35  C    0.005557   0.000524  -0.028074  -0.002211   0.305087  -0.035431
    36  O    0.000882  -0.000005  -0.014559   0.038652  -0.082719   0.001983
    37  N   -0.000057  -0.000001   0.002695   0.001629  -0.110743   0.001645
    38  H   -0.000005   0.000001   0.000059  -0.000072   0.001671   0.002153
    39  C    0.000001   0.000000  -0.000092  -0.000017   0.005687  -0.000106
    40  H    0.000000   0.000000   0.000006  -0.000044   0.001085  -0.000033
    41  H    0.000000   0.000000   0.000003   0.000001  -0.000154   0.000004
    42  H    0.000000   0.000000   0.000000   0.000000  -0.000098  -0.000006
             31         32         33         34         35         36
     1  H    0.000000   0.000000   0.000000   0.000000   0.000000   0.000000
     2  C    0.000000   0.000000   0.000000   0.000000   0.000000   0.000000
     3  H    0.000000   0.000000   0.000000   0.000000   0.000000   0.000000
     4  H    0.000000   0.000000   0.000000   0.000000   0.000000   0.000000
     5  C    0.000000   0.000000   0.000000   0.000000   0.000000   0.000000
     6  O    0.000000   0.000000   0.000000   0.000000   0.000000   0.000000
     7  N    0.000000   0.000000   0.000000   0.000000   0.000000   0.000000
     8  H    0.000000   0.000000   0.000000   0.000000   0.000000   0.000000
     9  C    0.000000   0.000000   0.000000   0.000000   0.000000   0.000001
    10  H    0.000000   0.000000   0.000000   0.000000   0.000000   0.000000
    11  C    0.000000   0.000000   0.000000   0.000000   0.000000  -0.000126
    12  H    0.000000   0.000000   0.000000   0.000000   0.000000   0.000003
    13  H   -0.000001   0.000005   0.000000   0.000000   0.000012   0.000774
    14  H    0.000000   0.000000   0.000000   0.000000   0.000000   0.000001
    15  C   -0.000001   0.000000   0.000000   0.000000   0.000000   0.000001
    16  O    0.000000   0.000000   0.000000   0.000000   0.000000   0.000000
    17  N   -0.000020  -0.000010   0.000000  -0.000016  -0.000096  -0.000066
    18  H   -0.000005   0.000049   0.000001  -0.000004  -0.000008  -0.000006
    19  C   -0.000352  -0.000002   0.000002   0.000226   0.000015  -0.000061
    20  H   -0.000002   0.000001   0.000000   0.000000  -0.000001   0.000000
    21  C    0.000020  -0.000002   0.000000  -0.000004   0.000000   0.000000
    22  H    0.000002   0.000000   0.000000  -0.000001   0.000000   0.000000
    23  H    0.000001   0.000000   0.000000  -0.000003   0.000000   0.000000
    24  H    0.000000   0.000000   0.000000   0.000000   0.000000   0.000000
    25  C   -0.005437   0.000519   0.000099   0.004052   0.005557   0.000882
    26  O   -0.006285  -0.000022   0.000027   0.009578   0.000524  -0.000005
    27  N   -0.053040  -0.000264   0.004811  -0.008814  -0.028074  -0.014559
    28  H    0.004087   0.000679  -0.000123  -0.000225  -0.002211   0.038652
    29  C    0.350359  -0.034549  -0.030009  -0.022783   0.305087  -0.082719
    30  H   -0.048329   0.005537   0.000019  -0.004910  -0.035431   0.001983
    31  C    5.146070   0.369869   0.356294   0.369283  -0.035114  -0.001854
    32  H    0.369869   0.557235  -0.027327  -0.027192  -0.004132   0.001679
    33  H    0.356294  -0.027327   0.581422  -0.025332  -0.003329  -0.000019
    34  H    0.369283  -0.027192  -0.025332   0.510519   0.003650  -0.000081
    35  C   -0.035114  -0.004132  -0.003329   0.003650   4.374085   0.574538
    36  O   -0.001854   0.001679  -0.000019  -0.000081   0.574538   8.086607
    37  N    0.000397   0.000008   0.003428   0.000032   0.284910  -0.092178
    38  H    0.000210  -0.000020   0.002080  -0.000082  -0.021924   0.003297
    39  C   -0.000228  -0.000005  -0.000061   0.000005  -0.023043  -0.007476
    40  H   -0.000040  -0.000008  -0.000001   0.000001  -0.001339   0.019409
    41  H   -0.000006   0.000000   0.000004   0.000000   0.000657   0.000423
    42  H    0.000037  -0.000001  -0.000014  -0.000001   0.001580   0.000437
             37         38         39         40         41         42
     1  H    0.000000   0.000000   0.000000   0.000000   0.000000   0.000000
     2  C    0.000000   0.000000   0.000000   0.000000   0.000000   0.000000
     3  H    0.000000   0.000000   0.000000   0.000000   0.000000   0.000000
     4  H    0.000000   0.000000   0.000000   0.000000   0.000000   0.000000
     5  C    0.000000   0.000000   0.000000   0.000000   0.000000   0.000000
     6  O    0.000000   0.000000   0.000000   0.000000   0.000000   0.000000
     7  N    0.000000   0.000000   0.000000   0.000000   0.000000   0.000000
     8  H    0.000000   0.000000   0.000000   0.000000   0.000000   0.000000
     9  C    0.000000   0.000000   0.000000   0.000000   0.000000   0.000000
    10  H    0.000000   0.000000   0.000000   0.000000   0.000000   0.000000
    11  C    0.000000   0.000000   0.000000   0.000000   0.000000   0.000000
    12  H    0.000000   0.000000   0.000000   0.000000   0.000000   0.000000
    13  H    0.000001   0.000000   0.000000   0.000000   0.000000   0.000000
    14  H    0.000000   0.000000   0.000000   0.000000   0.000000   0.000000
    15  C    0.000000   0.000000   0.000000   0.000000   0.000000   0.000000
    16  O    0.000000   0.000000   0.000000   0.000000   0.000000   0.000000
    17  N    0.000000   0.000000   0.000000   0.000000   0.000000   0.000000
    18  H    0.000000   0.000000   0.000000   0.000000   0.000000   0.000000
    19  C    0.000001   0.000000   0.000000   0.000000   0.000000   0.000000
    20  H    0.000000   0.000000   0.000000   0.000000   0.000000   0.000000
    21  C    0.000000   0.000000   0.000000   0.000000   0.000000   0.000000
    22  H    0.000000   0.000000   0.000000   0.000000   0.000000   0.000000
    23  H    0.000000   0.000000   0.000000   0.000000   0.000000   0.000000
    24  H    0.000000   0.000000   0.000000   0.000000   0.000000   0.000000
    25  C   -0.000057  -0.000005   0.000001   0.000000   0.000000   0.000000
    26  O   -0.000001   0.000001   0.000000   0.000000   0.000000   0.000000
    27  N    0.002695   0.000059  -0.000092   0.000006   0.000003   0.000000
    28  H    0.001629  -0.000072  -0.000017  -0.000044   0.000001   0.000000
    29  C   -0.110743   0.001671   0.005687   0.001085  -0.000154  -0.000098
    30  H    0.001645   0.002153  -0.000106  -0.000033   0.000004  -0.000006
    31  C    0.000397   0.000210  -0.000228  -0.000040  -0.000006   0.000037
    32  H    0.000008  -0.000020  -0.000005  -0.000008   0.000000  -0.000001
    33  H    0.003428   0.002080  -0.000061  -0.000001   0.000004  -0.000014
    34  H    0.000032  -0.000082   0.000005   0.000001   0.000000  -0.000001
    35  C    0.284910  -0.021924  -0.023043  -0.001339   0.000657   0.001580
    36  O   -0.092178   0.003297  -0.007476   0.019409   0.000423   0.000437
    37  N    7.050105   0.306192   0.264637  -0.038867  -0.040357  -0.040991
    38  H    0.306192   0.403223  -0.031450   0.003985  -0.001023  -0.000777
    39  C    0.264637  -0.031450   4.964238   0.378320   0.382577   0.381265
    40  H   -0.038867   0.003985   0.378320   0.477044  -0.024237  -0.024145
    41  H   -0.040357  -0.001023   0.382577  -0.024237   0.555998  -0.039169
    42  H   -0.040991  -0.000777   0.381265  -0.024145  -0.039169   0.557894
 Mulliken atomic charges:
              1
     1  H    0.182772
     2  C   -0.533273
     3  H    0.182220
     4  H    0.148163
     5  C    0.596634
     6  O   -0.523972
     7  N   -0.603551
     8  H    0.345869
     9  C   -0.034372
    10  H    0.168392
    11  C   -0.446083
    12  H    0.159748
    13  H    0.149331
    14  H    0.188233
    15  C    0.613009
    16  O   -0.525881
    17  N   -0.630637
    18  H    0.332688
    19  C   -0.046825
    20  H    0.203838
    21  C   -0.439057
    22  H    0.142841
    23  H    0.180463
    24  H    0.161973
    25  C    0.598510
    26  O   -0.533337
    27  N   -0.622402
    28  H    0.361316
    29  C   -0.025265
    30  H    0.168061
    31  C   -0.445914
    32  H    0.157953
    33  H    0.138026
    34  H    0.192102
    35  C    0.604090
    36  O   -0.529536
    37  N   -0.592484
    38  H    0.332481
    39  C   -0.314255
    40  H    0.208865
    41  H    0.165277
    42  H    0.163989
 Sum of Mulliken atomic charges =   0.00000
 Mulliken charges with hydrogens summed into heavy atoms:
              1
     2  C   -0.020118
     5  C    0.596634
     6  O   -0.523972
     7  N   -0.257682
     9  C    0.134020
    11  C    0.051229
    15  C    0.613009
    16  O   -0.525881
    17  N   -0.297948
    19  C    0.157013
    21  C    0.046221
    25  C    0.598510
    26  O   -0.533337
    27  N   -0.261086
    29  C    0.142795
    31  C    0.042168
    35  C    0.604090
    36  O   -0.529536
    37  N   -0.260003
    39  C    0.223876
 Sum of Mulliken charges with hydrogens summed into heavy atoms =   0.00000
 Electronic spatial extent (au):  <R**2>=           8997.7936
 Charge=              0.0000 electrons
 Dipole moment (field-independent basis, Debye):
    X=              4.9270    Y=             -1.1151    Z=             -0.5589  Tot=              5.0824
 Quadrupole moment (field-independent basis, Debye-Ang):
   XX=            -95.9710   YY=           -129.0236   ZZ=           -123.2338
   XY=            -17.8740   XZ=              8.1442   YZ=              6.7591
 Traceless Quadrupole moment (field-independent basis, Debye-Ang):
   XX=             20.1051   YY=            -12.9475   ZZ=             -7.1577
   XY=            -17.8740   XZ=              8.1442   YZ=              6.7591
 Octapole moment (field-independent basis, Debye-Ang**2):
  XXX=            179.6704  YYY=            -35.5370  ZZZ=             -3.0189  XYY=             -2.8347
  XXY=            -44.1294  XXZ=            -78.6559  XZZ=             31.5680  YZZ=              5.3557
  YYZ=            -11.3447  XYZ=            -22.3178
 Hexadecapole moment (field-independent basis, Debye-Ang**3):
 XXXX=          -7420.0254 YYYY=          -2363.1552 ZZZZ=           -548.8838 XXXY=           -434.4556
 XXXZ=            257.1351 YYYX=           -173.6872 YYYZ=              1.4464 ZZZX=             11.6044
 ZZZY=             16.7225 XXYY=          -1858.0894 XXZZ=          -1657.1473 YYZZ=           -479.8512
 XXYZ=            158.0692 YYXZ=             -1.1004 ZZXY=            -30.9361
 N-N= 1.606343128018D+03 E-N=-5.521836523274D+03  KE= 9.813304118564D+02
 1\1\GINC-NODE003\FOpt\RB3LYP\6-31G(d)\C12H22N4O4\MANAGER\29-Dec-2016\0
 \\# b3lyp/6-31G* Opt=(ModRedundant, maxcycles=1000, calcfc) geom=nocro
 wd\\Phi Psi fixed scan\\0,1\H,2.3090891932,1.3251632568,-1.9981602136\
 C,2.1480518972,2.2924637606,-1.51218445\H,1.3856047697,2.1460010437,-0
 .7407538366\H,1.7743992447,3.0054034422,-2.2535600886\C,3.4439769481,2
 .7276542082,-0.8443054356\O,3.9991572251,2.0436134773,0.0111896087\N,3
 .9484364677,3.9225212885,-1.2625832654\H,3.4532157633,4.521655105,-1.9
 122494629\C,5.1416305756,4.4984088298,-0.6747144742\H,5.1238704429,4.2
 883373734,0.4025164269\C,6.4304840809,3.8941794658,-1.268163918\H,6.47
 89437737,4.0825705452,-2.3455775343\H,7.3275243182,4.3175207602,-0.802
 9605097\H,6.4227900411,2.8152059108,-1.0946033546\C,5.0755695597,6.014
 0169664,-0.9149831912\O,4.3349680826,6.5030753977,-1.7630276249\N,5.94
 28827393,6.7604721883,-0.1671444186\H,6.3647979479,6.3183116526,0.6405
 393209\C,5.9238674027,8.2249518154,-0.1952963118\H,5.6469147519,8.4930
 780408,-1.2211376811\C,4.8937134127,8.8215891214,0.7680763633\H,5.0993
 960751,8.5172971522,1.8005823315\H,4.9341803763,9.9121394563,0.7270833
 755\H,3.8912496869,8.4833462666,0.4913059237\C,7.33132094,8.7980786695
 ,0.0685730071\O,7.4901742838,9.9011847288,0.5832834361\N,8.3623589106,
 8.0166130018,-0.3434955986\H,8.2005008756,7.1464894935,-0.8398331651\C
 ,9.742773808,8.4579757124,-0.2902241078\H,9.7881312646,9.503284902,-0.
 6231050806\C,10.3229197336,8.3729926187,1.1350614095\H,10.3129821628,7
 .3372251941,1.4901510305\H,11.3547364947,8.7404314649,1.1671033758\H,9
 .7147713527,8.987952527,1.8028479392\C,10.5256210141,7.5605897574,-1.2
 649271903\O,10.0640121935,6.4919851036,-1.6597103195\N,11.7513007513,8
 .0276537958,-1.6182868719\H,12.0385788999,8.9325660453,-1.2728120275\C
 ,12.6560877091,7.2980164783,-2.4919127494\H,12.1684206551,6.3598649845
 ,-2.7583949708\H,12.8640116886,7.8663359982,-3.4055720089\H,13.6029824
 856,7.0810829991,-1.9846336868\\Version=EM64L-G09RevA.02\State=1-A\HF=
 -990.5070654\RMSD=4.946e-09\RMSF=3.039e-04\Dipole=1.7844973,0.8301629,
 -0.3531902\Quadrupole=19.8723433,-17.5957945,-2.2765488,7.3157548,-0.5
 926148,1.4116923\PG=C01 [X(C12H22N4O4)]\\@


 THESE ARE THE TIMES THAT TRY MENS SOULS.
 THE SUMMER SOLDIER AND THE SUNSHINE PATRIOT WILL IN THIS CRISIS,
 SHRINK FROM THE SERVICE OF HIS COUNTRY.  BUT HE THAT STANDS NOW,
 DESERVES THE LOVE AND THANKS OF MAN AND WOMAN.
 TYRANNY, LIKE HELL, IS NOT EASILY CONQUERED,
 YET WE HAVE THIS CONSOLATION WITH US,
 THAT THE HARDER THE CONFLICT, THE MORE GLORIOUS THE TRIUMPH.
 WHAT WE OBTAIN TOO CHEAP, WE ESTEEM TOO LIGHTLY, 
 'TIS DEARNESS ONLY THAT GIVES EVERYTHING ITS VALUE.

                                              -- TOM PAINE
 Job cpu time:  0 days  5 hours 14 minutes 38.2 seconds.
 File lengths (MBytes):  RWF=    608 Int=      0 D2E=      0 Chk=     11 Scr=      1
 Normal termination of Gaussian 09 at Thu Dec 29 16:02:48 2016.
