 Entering Gaussian System, Link 0=g09
 Initial command:
 /home/steboss/Software/g09/l1.exe /tmp/Gau-25368.inp -scrdir=/tmp/
 Entering Link 1 = /home/steboss/Software/g09/l1.exe PID=     25370.
  
 Copyright (c) 1988,1990,1992,1993,1995,1998,2003,2009, Gaussian, Inc.
                  All Rights Reserved.
  
 This is part of the Gaussian(R) 09 program.  It is based on
 the Gaussian(R) 03 system (copyright 2003, Gaussian, Inc.),
 the Gaussian(R) 98 system (copyright 1998, Gaussian, Inc.),
 the Gaussian(R) 94 system (copyright 1995, Gaussian, Inc.),
 the Gaussian 92(TM) system (copyright 1992, Gaussian, Inc.),
 the Gaussian 90(TM) system (copyright 1990, Gaussian, Inc.),
 the Gaussian 88(TM) system (copyright 1988, Gaussian, Inc.),
 the Gaussian 86(TM) system (copyright 1986, Carnegie Mellon
 University), and the Gaussian 82(TM) system (copyright 1983,
 Carnegie Mellon University). Gaussian is a federally registered
 trademark of Gaussian, Inc.
  
 This software contains proprietary and confidential information,
 including trade secrets, belonging to Gaussian, Inc.
  
 This software is provided under written license and may be
 used, copied, transmitted, or stored only in accord with that
 written license.
  
 The following legend is applicable only to US Government
 contracts under FAR:
  
                    RESTRICTED RIGHTS LEGEND
  
 Use, reproduction and disclosure by the US Government is
 subject to restrictions as set forth in subparagraphs (a)
 and (c) of the Commercial Computer Software - Restricted
 Rights clause in FAR 52.227-19.
  
 Gaussian, Inc.
 340 Quinnipiac St., Bldg. 40, Wallingford CT 06492
  
  
 ---------------------------------------------------------------
 Warning -- This program may not be used in any manner that
 competes with the business of Gaussian, Inc. or will provide
 assistance to any competitor of Gaussian, Inc.  The licensee
 of this program is prohibited from giving any competitor of
 Gaussian, Inc. access to this program.  By using this program,
 the user acknowledges that Gaussian, Inc. is engaged in the
 business of creating and licensing software in the field of
 computational chemistry and represents and warrants to the
 licensee that it is not a competitor of Gaussian, Inc. and that
 it will not use this program in any manner prohibited above.
 ---------------------------------------------------------------
  

 Cite this work as:
 Gaussian 09, Revision A.02,
 M. J. Frisch, G. W. Trucks, H. B. Schlegel, G. E. Scuseria, 
 M. A. Robb, J. R. Cheeseman, G. Scalmani, V. Barone, B. Mennucci, 
 G. A. Petersson, H. Nakatsuji, M. Caricato, X. Li, H. P. Hratchian, 
 A. F. Izmaylov, J. Bloino, G. Zheng, J. L. Sonnenberg, M. Hada, 
 M. Ehara, K. Toyota, R. Fukuda, J. Hasegawa, M. Ishida, T. Nakajima, 
 Y. Honda, O. Kitao, H. Nakai, T. Vreven, J. A. Montgomery, Jr., 
 J. E. Peralta, F. Ogliaro, M. Bearpark, J. J. Heyd, E. Brothers, 
 K. N. Kudin, V. N. Staroverov, R. Kobayashi, J. Normand, 
 K. Raghavachari, A. Rendell, J. C. Burant, S. S. Iyengar, J. Tomasi, 
 M. Cossi, N. Rega, J. M. Millam, M. Klene, J. E. Knox, J. B. Cross, 
 V. Bakken, C. Adamo, J. Jaramillo, R. Gomperts, R. E. Stratmann, 
 O. Yazyev, A. J. Austin, R. Cammi, C. Pomelli, J. W. Ochterski, 
 R. L. Martin, K. Morokuma, V. G. Zakrzewski, G. A. Voth, 
 P. Salvador, J. J. Dannenberg, S. Dapprich, A. D. Daniels, 
 O. Farkas, J. B. Foresman, J. V. Ortiz, J. Cioslowski, 
 and D. J. Fox, Gaussian, Inc., Wallingford CT, 2009.
 
 ******************************************
 Gaussian 09:  EM64L-G09RevA.02 11-Jun-2009
                27-Dec-2016 
 ******************************************
 %chk=structure_0.chk
 -------------------------------------------------------------------
 # HF/6-31G* Opt=(ModRedundant, maxcycles=1000, calcfc) geom=nocrowd
 -------------------------------------------------------------------
 1/6=1000,10=4,18=120,19=15,38=1/1,3;
 2/9=110,12=1,17=6,18=5,40=1/2;
 3/5=1,6=6,7=1,11=9,16=1,25=1,30=1,71=2/1,2,3;
 4//1;
 5/5=2,38=5/2;
 8/6=4,10=90,11=11/1;
 11/6=1,8=1,9=11,15=111,16=1/1,2,10;
 10/6=1,7=6,13=1/2;
 6/7=2,8=2,9=2,10=2,28=1/1;
 7/10=1,18=20,25=1/1,2,3,16;
 1/6=1000,10=4,18=20,19=15/3(2);
 2/9=110,12=1/2;
 99//99;
 2/9=110,12=1/2;
 3/5=1,6=6,7=1,11=9,16=1,25=1,30=1,71=1/1,2,3;
 4/5=5,16=3/1;
 5/5=2,38=5/2;
 7//1,2,3,16;
 1/6=1000,18=20,19=15/3(-5);
 2/9=110,12=1/2;
 6/7=2,8=2,9=2,10=2,19=2,28=1/1;
 99/9=1/99;
 ------------------
 Phi Psi fixed scan
 ------------------
 Symbolic Z-matrix:
 Charge =  0 Multiplicity = 1
 H                     9.1768    1.       -1.923 
 C                     9.1768    2.09     -1.923 
 H                     9.1768    2.4539   -2.9505 
 H                     10.0666   2.4538   -1.4093 
 C                     7.9406    2.6408   -1.2093 
 O                     7.1065    1.8774   -0.7277 
 N                     7.8298    3.9697   -1.1453 
 H                     8.5419    4.5562   -1.5565 
 C                     6.7058    4.6139   -0.4964 
 H                     5.7809    4.3155   -0.9898 
 C                     6.6221    4.2208    0.9747 
 H                     7.5376    4.5213    1.4843 
 H                     5.7696    4.7189    1.4365 
 H                     6.4992    3.1409    1.0563 
 C                     6.8276    6.1294   -0.5667 
 O                     7.7906    6.6527   -1.1227 
 N                     5.846     6.8349    0. 
 H                     5.0745    6.3592    0.4455 
 C                     5.8461    8.2839    0. 
 H                     5.3323    8.6477   -0.8898 
 C                     5.1347    8.8329    1.2322 
 H                     5.6431    8.4846    2.1312 
 H                     5.1499    9.9224    1.2058 
 H                     4.1019    8.4846    1.2414 
 C                     7.266     8.8318    0. 
 O                     7.4667    10.0443   0. 
 N                     8.2534    7.9333    0. 
 H                     8.0383    6.9465    0. 
 C                     9.6477    8.3279    0. 
 H                     9.8579    8.9213   -0.8898 
 C                     9.9822    9.1618    1.2321 
 H                     9.7855    8.5778    2.1312 
 H                     11.0348   9.4439    1.2058 
 H                     9.3659    10.0608   1.2414 
 C                     10.5615   7.1107    0. 
 O                     10.0892   5.9761    0. 
 N                     11.875    7.3494    0. 
 H                     12.2155   8.3003    0. 
 C                     12.8483   6.276     0. 
 H                     12.3316   5.3163    0. 
 H                     13.4733   6.3516   -0.8899 
 H                     13.4733   6.3516    0.8898 
 
 The following ModRedundant input section has been read:
 D   15   17   19   25 F                                                       
 D   17   19   25   27 F                                                       

 GradGradGradGradGradGradGradGradGradGradGradGradGradGradGradGradGradGrad
 Berny optimization.
 Initialization pass.
                           ----------------------------
                           !    Initial Parameters    !
                           ! (Angstroms and Degrees)  !
 --------------------------                            --------------------------
 ! Name  Definition              Value          Derivative Info.                !
 --------------------------------------------------------------------------------
 ! R1    R(1,2)                  1.09           calculate D2E/DX2 analytically  !
 ! R2    R(2,3)                  1.09           calculate D2E/DX2 analytically  !
 ! R3    R(2,4)                  1.0899         calculate D2E/DX2 analytically  !
 ! R4    R(2,5)                  1.53           calculate D2E/DX2 analytically  !
 ! R5    R(5,6)                  1.229          calculate D2E/DX2 analytically  !
 ! R6    R(5,7)                  1.335          calculate D2E/DX2 analytically  !
 ! R7    R(7,8)                  1.01           calculate D2E/DX2 analytically  !
 ! R8    R(7,9)                  1.4489         calculate D2E/DX2 analytically  !
 ! R9    R(9,10)                 1.0899         calculate D2E/DX2 analytically  !
 ! R10   R(9,11)                 1.525          calculate D2E/DX2 analytically  !
 ! R11   R(9,15)                 1.522          calculate D2E/DX2 analytically  !
 ! R12   R(11,12)                1.09           calculate D2E/DX2 analytically  !
 ! R13   R(11,13)                1.09           calculate D2E/DX2 analytically  !
 ! R14   R(11,14)                1.0899         calculate D2E/DX2 analytically  !
 ! R15   R(15,16)                1.229          calculate D2E/DX2 analytically  !
 ! R16   R(15,17)                1.3351         calculate D2E/DX2 analytically  !
 ! R17   R(16,28)                1.1866         calculate D2E/DX2 analytically  !
 ! R18   R(17,18)                1.0099         calculate D2E/DX2 analytically  !
 ! R19   R(17,19)                1.449          calculate D2E/DX2 analytically  !
 ! R20   R(19,20)                1.09           calculate D2E/DX2 analytically  !
 ! R21   R(19,21)                1.5251         calculate D2E/DX2 analytically  !
 ! R22   R(19,25)                1.5219         calculate D2E/DX2 analytically  !
 ! R23   R(21,22)                1.0899         calculate D2E/DX2 analytically  !
 ! R24   R(21,23)                1.0899         calculate D2E/DX2 analytically  !
 ! R25   R(21,24)                1.09           calculate D2E/DX2 analytically  !
 ! R26   R(25,26)                1.229          calculate D2E/DX2 analytically  !
 ! R27   R(25,27)                1.335          calculate D2E/DX2 analytically  !
 ! R28   R(27,28)                1.01           calculate D2E/DX2 analytically  !
 ! R29   R(27,29)                1.4491         calculate D2E/DX2 analytically  !
 ! R30   R(29,30)                1.09           calculate D2E/DX2 analytically  !
 ! R31   R(29,31)                1.5249         calculate D2E/DX2 analytically  !
 ! R32   R(29,35)                1.522          calculate D2E/DX2 analytically  !
 ! R33   R(31,32)                1.09           calculate D2E/DX2 analytically  !
 ! R34   R(31,33)                1.0901         calculate D2E/DX2 analytically  !
 ! R35   R(31,34)                1.09           calculate D2E/DX2 analytically  !
 ! R36   R(35,36)                1.229          calculate D2E/DX2 analytically  !
 ! R37   R(35,37)                1.335          calculate D2E/DX2 analytically  !
 ! R38   R(37,38)                1.01           calculate D2E/DX2 analytically  !
 ! R39   R(37,39)                1.449          calculate D2E/DX2 analytically  !
 ! R40   R(39,40)                1.09           calculate D2E/DX2 analytically  !
 ! R41   R(39,41)                1.0901         calculate D2E/DX2 analytically  !
 ! R42   R(39,42)                1.09           calculate D2E/DX2 analytically  !
 ! A1    A(1,2,3)              109.5021         calculate D2E/DX2 analytically  !
 ! A2    A(1,2,4)              109.4982         calculate D2E/DX2 analytically  !
 ! A3    A(1,2,5)              111.1            calculate D2E/DX2 analytically  !
 ! A4    A(3,2,4)              109.4412         calculate D2E/DX2 analytically  !
 ! A5    A(3,2,5)              108.6341         calculate D2E/DX2 analytically  !
 ! A6    A(4,2,5)              108.6383         calculate D2E/DX2 analytically  !
 ! A7    A(2,5,6)              120.4994         calculate D2E/DX2 analytically  !
 ! A8    A(2,5,7)              116.5999         calculate D2E/DX2 analytically  !
 ! A9    A(6,5,7)              122.9007         calculate D2E/DX2 analytically  !
 ! A10   A(5,7,8)              119.9983         calculate D2E/DX2 analytically  !
 ! A11   A(5,7,9)              121.8976         calculate D2E/DX2 analytically  !
 ! A12   A(8,7,9)              118.1041         calculate D2E/DX2 analytically  !
 ! A13   A(7,9,10)             109.5012         calculate D2E/DX2 analytically  !
 ! A14   A(7,9,11)             111.0992         calculate D2E/DX2 analytically  !
 ! A15   A(7,9,15)             111.0961         calculate D2E/DX2 analytically  !
 ! A16   A(10,9,11)            108.6353         calculate D2E/DX2 analytically  !
 ! A17   A(10,9,15)            108.6394         calculate D2E/DX2 analytically  !
 ! A18   A(11,9,15)            107.7951         calculate D2E/DX2 analytically  !
 ! A19   A(9,11,12)            109.5013         calculate D2E/DX2 analytically  !
 ! A20   A(9,11,13)            109.5009         calculate D2E/DX2 analytically  !
 ! A21   A(9,11,14)            109.4999         calculate D2E/DX2 analytically  !
 ! A22   A(12,11,13)           109.441          calculate D2E/DX2 analytically  !
 ! A23   A(12,11,14)           109.442          calculate D2E/DX2 analytically  !
 ! A24   A(13,11,14)           109.4422         calculate D2E/DX2 analytically  !
 ! A25   A(9,15,16)            120.5033         calculate D2E/DX2 analytically  !
 ! A26   A(9,15,17)            116.5982         calculate D2E/DX2 analytically  !
 ! A27   A(16,15,17)           122.8984         calculate D2E/DX2 analytically  !
 ! A28   A(15,16,28)            80.8486         calculate D2E/DX2 analytically  !
 ! A29   A(15,17,18)           119.9997         calculate D2E/DX2 analytically  !
 ! A30   A(15,17,19)           121.8964         calculate D2E/DX2 analytically  !
 ! A31   A(18,17,19)           118.1039         calculate D2E/DX2 analytically  !
 ! A32   A(17,19,20)           109.4954         calculate D2E/DX2 analytically  !
 ! A33   A(17,19,21)           111.0974         calculate D2E/DX2 analytically  !
 ! A34   A(17,19,25)           111.1042         calculate D2E/DX2 analytically  !
 ! A35   A(20,19,21)           108.6349         calculate D2E/DX2 analytically  !
 ! A36   A(20,19,25)           108.6399         calculate D2E/DX2 analytically  !
 ! A37   A(21,19,25)           107.7944         calculate D2E/DX2 analytically  !
 ! A38   A(19,21,22)           109.4996         calculate D2E/DX2 analytically  !
 ! A39   A(19,21,23)           109.4977         calculate D2E/DX2 analytically  !
 ! A40   A(19,21,24)           109.4988         calculate D2E/DX2 analytically  !
 ! A41   A(22,21,23)           109.4452         calculate D2E/DX2 analytically  !
 ! A42   A(22,21,24)           109.4447         calculate D2E/DX2 analytically  !
 ! A43   A(23,21,24)           109.4412         calculate D2E/DX2 analytically  !
 ! A44   A(19,25,26)           120.4989         calculate D2E/DX2 analytically  !
 ! A45   A(19,25,27)           116.5987         calculate D2E/DX2 analytically  !
 ! A46   A(26,25,27)           122.9024         calculate D2E/DX2 analytically  !
 ! A47   A(25,27,28)           120.0043         calculate D2E/DX2 analytically  !
 ! A48   A(25,27,29)           121.8969         calculate D2E/DX2 analytically  !
 ! A49   A(28,27,29)           118.0988         calculate D2E/DX2 analytically  !
 ! A50   A(16,28,27)           106.6404         calculate D2E/DX2 analytically  !
 ! A51   A(27,29,30)           109.5003         calculate D2E/DX2 analytically  !
 ! A52   A(27,29,31)           111.0991         calculate D2E/DX2 analytically  !
 ! A53   A(27,29,35)           111.095          calculate D2E/DX2 analytically  !
 ! A54   A(30,29,31)           108.6373         calculate D2E/DX2 analytically  !
 ! A55   A(30,29,35)           108.6385         calculate D2E/DX2 analytically  !
 ! A56   A(31,29,35)           107.796          calculate D2E/DX2 analytically  !
 ! A57   A(29,31,32)           109.5052         calculate D2E/DX2 analytically  !
 ! A58   A(29,31,33)           109.5023         calculate D2E/DX2 analytically  !
 ! A59   A(29,31,34)           109.5052         calculate D2E/DX2 analytically  !
 ! A60   A(32,31,33)           109.4394         calculate D2E/DX2 analytically  !
 ! A61   A(32,31,34)           109.4399         calculate D2E/DX2 analytically  !
 ! A62   A(33,31,34)           109.4352         calculate D2E/DX2 analytically  !
 ! A63   A(29,35,36)           120.5025         calculate D2E/DX2 analytically  !
 ! A64   A(29,35,37)           116.5971         calculate D2E/DX2 analytically  !
 ! A65   A(36,35,37)           122.9004         calculate D2E/DX2 analytically  !
 ! A66   A(35,37,38)           120.0014         calculate D2E/DX2 analytically  !
 ! A67   A(35,37,39)           121.9002         calculate D2E/DX2 analytically  !
 ! A68   A(38,37,39)           118.0985         calculate D2E/DX2 analytically  !
 ! A69   A(37,39,40)           109.5021         calculate D2E/DX2 analytically  !
 ! A70   A(37,39,41)           109.497          calculate D2E/DX2 analytically  !
 ! A71   A(37,39,42)           109.4985         calculate D2E/DX2 analytically  !
 ! A72   A(40,39,41)           109.4429         calculate D2E/DX2 analytically  !
 ! A73   A(40,39,42)           109.4444         calculate D2E/DX2 analytically  !
 ! A74   A(41,39,42)           109.4423         calculate D2E/DX2 analytically  !
 ! D1    D(1,2,5,6)              0.0022         calculate D2E/DX2 analytically  !
 ! D2    D(1,2,5,7)            179.9987         calculate D2E/DX2 analytically  !
 ! D3    D(3,2,5,6)            120.5158         calculate D2E/DX2 analytically  !
 ! D4    D(3,2,5,7)            -59.4876         calculate D2E/DX2 analytically  !
 ! D5    D(4,2,5,6)           -120.5094         calculate D2E/DX2 analytically  !
 ! D6    D(4,2,5,7)             59.4871         calculate D2E/DX2 analytically  !
 ! D7    D(2,5,7,8)              0.0058         calculate D2E/DX2 analytically  !
 ! D8    D(2,5,7,9)            179.9989         calculate D2E/DX2 analytically  !
 ! D9    D(6,5,7,8)           -179.9977         calculate D2E/DX2 analytically  !
 ! D10   D(6,5,7,9)             -0.0046         calculate D2E/DX2 analytically  !
 ! D11   D(5,7,9,10)           -59.9963         calculate D2E/DX2 analytically  !
 ! D12   D(5,7,9,11)            60.0033         calculate D2E/DX2 analytically  !
 ! D13   D(5,7,9,15)          -179.9991         calculate D2E/DX2 analytically  !
 ! D14   D(8,7,9,10)           119.9969         calculate D2E/DX2 analytically  !
 ! D15   D(8,7,9,11)          -120.0035         calculate D2E/DX2 analytically  !
 ! D16   D(8,7,9,15)            -0.0059         calculate D2E/DX2 analytically  !
 ! D17   D(7,9,11,12)           59.9963         calculate D2E/DX2 analytically  !
 ! D18   D(7,9,11,13)          179.996          calculate D2E/DX2 analytically  !
 ! D19   D(7,9,11,14)          -60.0039         calculate D2E/DX2 analytically  !
 ! D20   D(10,9,11,12)        -179.4909         calculate D2E/DX2 analytically  !
 ! D21   D(10,9,11,13)         -59.4913         calculate D2E/DX2 analytically  !
 ! D22   D(10,9,11,14)          60.5089         calculate D2E/DX2 analytically  !
 ! D23   D(15,9,11,12)         -61.9436         calculate D2E/DX2 analytically  !
 ! D24   D(15,9,11,13)          58.056          calculate D2E/DX2 analytically  !
 ! D25   D(15,9,11,14)         178.0562         calculate D2E/DX2 analytically  !
 ! D26   D(7,9,15,16)            0.0028         calculate D2E/DX2 analytically  !
 ! D27   D(7,9,15,17)         -179.9997         calculate D2E/DX2 analytically  !
 ! D28   D(10,9,15,16)        -120.5108         calculate D2E/DX2 analytically  !
 ! D29   D(10,9,15,17)          59.4868         calculate D2E/DX2 analytically  !
 ! D30   D(11,9,15,16)         121.9446         calculate D2E/DX2 analytically  !
 ! D31   D(11,9,15,17)         -58.0579         calculate D2E/DX2 analytically  !
 ! D32   D(9,15,16,28)        -110.6702         calculate D2E/DX2 analytically  !
 ! D33   D(17,15,16,28)         69.3324         calculate D2E/DX2 analytically  !
 ! D34   D(9,15,17,18)           0.0061         calculate D2E/DX2 analytically  !
 ! D35   D(9,15,17,19)         179.9983         calculate D2E/DX2 analytically  !
 ! D36   D(16,15,17,18)       -179.9964         calculate D2E/DX2 analytically  !
 ! D37   D(16,15,17,19)         -0.0042         calculate D2E/DX2 analytically  !
 ! D38   D(15,16,28,27)       -131.6359         calculate D2E/DX2 analytically  !
 ! D39   D(15,17,19,20)         90.0072         calculate D2E/DX2 analytically  !
 ! D40   D(15,17,19,21)       -149.9985         calculate D2E/DX2 analytically  !
 ! D41   D(15,17,19,25)        -29.9976         frozen, calculate D2E/DX2 analyt!
 ! D42   D(18,17,19,20)        -90.0004         calculate D2E/DX2 analytically  !
 ! D43   D(18,17,19,21)         29.9939         calculate D2E/DX2 analytically  !
 ! D44   D(18,17,19,25)        149.9948         calculate D2E/DX2 analytically  !
 ! D45   D(17,19,21,22)         60.0039         calculate D2E/DX2 analytically  !
 ! D46   D(17,19,21,23)       -179.9943         calculate D2E/DX2 analytically  !
 ! D47   D(17,19,21,24)        -59.998          calculate D2E/DX2 analytically  !
 ! D48   D(20,19,21,22)       -179.4919         calculate D2E/DX2 analytically  !
 ! D49   D(20,19,21,23)        -59.4901         calculate D2E/DX2 analytically  !
 ! D50   D(20,19,21,24)         60.5062         calculate D2E/DX2 analytically  !
 ! D51   D(25,19,21,22)        -61.9445         calculate D2E/DX2 analytically  !
 ! D52   D(25,19,21,23)         58.0573         calculate D2E/DX2 analytically  !
 ! D53   D(25,19,21,24)        178.0536         calculate D2E/DX2 analytically  !
 ! D54   D(17,19,25,26)        180.0            calculate D2E/DX2 analytically  !
 ! D55   D(17,19,25,27)          0.0            frozen, calculate D2E/DX2 analyt!
 ! D56   D(20,19,25,26)         59.4883         calculate D2E/DX2 analytically  !
 ! D57   D(20,19,25,27)       -120.5117         calculate D2E/DX2 analytically  !
 ! D58   D(21,19,25,26)        -58.0558         calculate D2E/DX2 analytically  !
 ! D59   D(21,19,25,27)        121.9442         calculate D2E/DX2 analytically  !
 ! D60   D(19,25,27,28)          0.0            calculate D2E/DX2 analytically  !
 ! D61   D(19,25,27,29)        180.0            calculate D2E/DX2 analytically  !
 ! D62   D(26,25,27,28)        180.0            calculate D2E/DX2 analytically  !
 ! D63   D(26,25,27,29)          0.0            calculate D2E/DX2 analytically  !
 ! D64   D(25,27,28,16)         80.919          calculate D2E/DX2 analytically  !
 ! D65   D(29,27,28,16)        -99.081          calculate D2E/DX2 analytically  !
 ! D66   D(25,27,29,30)        -59.9996         calculate D2E/DX2 analytically  !
 ! D67   D(25,27,29,31)         60.002          calculate D2E/DX2 analytically  !
 ! D68   D(25,27,29,35)        180.0            calculate D2E/DX2 analytically  !
 ! D69   D(28,27,29,30)        120.0004         calculate D2E/DX2 analytically  !
 ! D70   D(28,27,29,31)       -119.998          calculate D2E/DX2 analytically  !
 ! D71   D(28,27,29,35)          0.0            calculate D2E/DX2 analytically  !
 ! D72   D(27,29,31,32)         59.9983         calculate D2E/DX2 analytically  !
 ! D73   D(27,29,31,33)        179.9992         calculate D2E/DX2 analytically  !
 ! D74   D(27,29,31,34)        -60.005          calculate D2E/DX2 analytically  !
 ! D75   D(30,29,31,32)       -179.4887         calculate D2E/DX2 analytically  !
 ! D76   D(30,29,31,33)        -59.4878         calculate D2E/DX2 analytically  !
 ! D77   D(30,29,31,34)         60.5079         calculate D2E/DX2 analytically  !
 ! D78   D(35,29,31,32)        -61.9409         calculate D2E/DX2 analytically  !
 ! D79   D(35,29,31,33)         58.0601         calculate D2E/DX2 analytically  !
 ! D80   D(35,29,31,34)        178.0558         calculate D2E/DX2 analytically  !
 ! D81   D(27,29,35,36)          0.0            calculate D2E/DX2 analytically  !
 ! D82   D(27,29,35,37)        180.0            calculate D2E/DX2 analytically  !
 ! D83   D(30,29,35,36)       -120.5111         calculate D2E/DX2 analytically  !
 ! D84   D(30,29,35,37)         59.4889         calculate D2E/DX2 analytically  !
 ! D85   D(31,29,35,36)        121.9417         calculate D2E/DX2 analytically  !
 ! D86   D(31,29,35,37)        -58.0583         calculate D2E/DX2 analytically  !
 ! D87   D(29,35,37,38)          0.0            calculate D2E/DX2 analytically  !
 ! D88   D(29,35,37,39)        180.0            calculate D2E/DX2 analytically  !
 ! D89   D(36,35,37,38)        180.0            calculate D2E/DX2 analytically  !
 ! D90   D(36,35,37,39)          0.0            calculate D2E/DX2 analytically  !
 ! D91   D(35,37,39,40)          0.0            calculate D2E/DX2 analytically  !
 ! D92   D(35,37,39,41)        120.0            calculate D2E/DX2 analytically  !
 ! D93   D(35,37,39,42)       -120.0028         calculate D2E/DX2 analytically  !
 ! D94   D(38,37,39,40)        180.0            calculate D2E/DX2 analytically  !
 ! D95   D(38,37,39,41)        -60.0            calculate D2E/DX2 analytically  !
 ! D96   D(38,37,39,42)         59.9972         calculate D2E/DX2 analytically  !
 --------------------------------------------------------------------------------
 Trust Radius=3.00D-01 FncErr=1.00D-07 GrdErr=1.00D-07
 Number of steps in this run= 252 maximum allowed number of steps= 252.
 GradGradGradGradGradGradGradGradGradGradGradGradGradGradGradGradGradGrad

                          Input orientation:                          
 ---------------------------------------------------------------------
 Center     Atomic      Atomic             Coordinates (Angstroms)
 Number     Number       Type             X           Y           Z
 ---------------------------------------------------------------------
      1          1           0        9.176800    1.000000   -1.923000
      2          6           0        9.176800    2.090000   -1.923000
      3          1           0        9.176800    2.453900   -2.950500
      4          1           0       10.066600    2.453800   -1.409300
      5          6           0        7.940600    2.640800   -1.209300
      6          8           0        7.106500    1.877400   -0.727700
      7          7           0        7.829800    3.969700   -1.145300
      8          1           0        8.541900    4.556200   -1.556500
      9          6           0        6.705800    4.613900   -0.496400
     10          1           0        5.780900    4.315500   -0.989800
     11          6           0        6.622100    4.220800    0.974700
     12          1           0        7.537600    4.521300    1.484300
     13          1           0        5.769600    4.718900    1.436500
     14          1           0        6.499200    3.140900    1.056300
     15          6           0        6.827600    6.129400   -0.566700
     16          8           0        7.790600    6.652700   -1.122700
     17          7           0        5.846000    6.834900    0.000000
     18          1           0        5.074500    6.359200    0.445500
     19          6           0        5.846100    8.283900    0.000000
     20          1           0        5.332300    8.647700   -0.889800
     21          6           0        5.134700    8.832900    1.232200
     22          1           0        5.643100    8.484600    2.131200
     23          1           0        5.149900    9.922400    1.205800
     24          1           0        4.101900    8.484600    1.241400
     25          6           0        7.266000    8.831800    0.000000
     26          8           0        7.466700   10.044300    0.000000
     27          7           0        8.253400    7.933300    0.000000
     28          1           0        8.038300    6.946500    0.000000
     29          6           0        9.647700    8.327900    0.000000
     30          1           0        9.857900    8.921300   -0.889800
     31          6           0        9.982200    9.161800    1.232100
     32          1           0        9.785500    8.577800    2.131200
     33          1           0       11.034800    9.443900    1.205800
     34          1           0        9.365900   10.060800    1.241400
     35          6           0       10.561500    7.110700    0.000000
     36          8           0       10.089200    5.976100    0.000000
     37          7           0       11.875000    7.349400    0.000000
     38          1           0       12.215500    8.300300    0.000000
     39          6           0       12.848300    6.276000    0.000000
     40          1           0       12.331600    5.316300    0.000000
     41          1           0       13.473300    6.351600   -0.889900
     42          1           0       13.473300    6.351600    0.889800
 ---------------------------------------------------------------------
                    Distance matrix (angstroms):
                    1          2          3          4          5
     1  H    0.000000
     2  C    1.090000   0.000000
     3  H    1.780332   1.090036   0.000000
     4  H    1.780215   1.089946   1.779618   0.000000
     5  C    2.174806   1.530013   2.143572   2.143559   0.000000
     6  O    2.546510   2.400017   3.091817   3.091764   1.229000
     7  N    3.352364   2.439774   2.714923   2.714944   1.335046
     8  H    3.630975   2.572851   2.601153   2.601243   2.037368
     9  C    4.604487   3.809344   4.098054   4.098097   2.434354
    10  H    4.836894   4.166035   4.340741   4.691389   2.741734
    11  C    5.029583   4.411742   5.005559   4.546463   3.000783
    12  H    5.166839   4.495319   5.160288   4.363865   3.309708
    13  H    6.060154   5.459521   5.998750   5.629695   4.003998
    14  H    4.541940   4.141275   4.867849   4.390630   2.731424
    15  C    5.802502   4.865701   4.970970   4.971029   3.717800
    16  O    5.874951   4.835314   4.784592   4.784671   4.015637
    17  N    6.988434   6.107883   6.244425   6.244488   4.841511
    18  H    7.152600   6.376890   6.604018   6.604051   4.977890
    19  C    8.236910   7.290809   7.334024   7.334086   6.139537
    20  H    8.621775   7.671448   7.575607   7.813314   6.556535
    21  C    9.362061   8.471160   8.632798   8.484932   7.223303
    22  H    9.216442   8.355506   8.641762   8.274844   7.112485
    23  H   10.276893   9.346219   9.448240   9.316259   8.163480
    24  H    9.580568   8.755509   8.927260   8.886754   7.408883
    25  C    8.287712   7.266426   7.282459   7.106924   6.343971
    26  O    9.403283   8.360219   8.321302   8.146244   7.516568
    27  N    7.254050   6.220511   6.291418   5.941274   5.437905
    28  H    6.352556   5.345999   5.494096   5.126839   4.473366
    29  C    7.590639   6.544545   6.590226   6.055300   6.059678
    30  H    8.017381   6.942482   6.821851   6.491686   6.574405
    31  C    8.787395   7.785479   7.945989   7.209811   7.256170
    32  H    8.615690   7.674542   7.980999   7.079374   7.057660
    33  H    9.194618   8.204962   8.341888   7.525799   7.854231
    34  H    9.599338   8.578044   8.687503   8.086015   7.943161
    35  C    6.554081   5.551824   5.684068   4.890580   5.320858
    36  O    5.412206   4.430821   4.684423   3.793842   4.147664
    37  N    7.161920   6.216068   6.320732   5.405861   6.254025
    38  H    8.137936   7.176312   7.219386   6.386350   7.194937
    39  C    6.709249   5.890708   6.065790   4.932869   6.225962
    40  H    5.681649   4.905069   5.181848   3.912832   5.282195
    41  H    6.940233   6.139091   6.156139   5.202713   6.669544
    42  H    7.416966   6.673304   6.957002   5.664301   6.984771
                    6          7          8          9         10
     6  O    0.000000
     7  N    2.252836   0.000000
     8  H    3.150119   1.010027   0.000000
     9  C    2.775336   1.448945   2.120944   0.000000
    10  H    2.787516   2.083686   2.828817   1.089920   0.000000
    11  C    2.936721   2.452752   3.194542   1.525014   2.139123
    12  H    3.474046   2.702673   3.202546   2.150265   3.041302
    13  H    3.813815   3.386948   4.082912   2.150255   2.459632
    14  H    2.268899   2.702674   3.605887   2.150184   2.466205
    15  C    4.264178   2.450201   2.528535   1.522011   2.136546
    16  O    4.840197   2.683382   2.268909   2.392854   3.085297
    17  N    5.166741   3.668316   3.857855   2.432799   2.707641
    18  H    5.058849   3.978949   4.391090   2.567954   2.595341
    19  C    6.569733   4.884578   4.856519   3.801894   4.090496
    20  H    7.000787   5.309093   5.242747   4.279347   4.356512
    21  C    7.490540   6.047048   6.138080   4.822486   5.075605
    22  H    7.346424   5.991780   6.118374   4.797492   5.209705
    23  H    8.502278   6.938600   6.923299   5.787787   6.054432
    24  H    7.520643   6.322808   6.555469   4.978209   5.017837
    25  C    6.994188   5.026888   4.725608   4.283797   4.856150
    26  O    8.207164   6.192279   5.804997   5.505872   6.053162
    27  N    6.206356   4.147442   3.729709   3.695930   4.492375
    28  H    5.205149   3.196330   2.896522   2.731848   3.605235
    29  C    6.971097   4.859051   4.227435   4.763925   5.659611
    30  H    7.563928   5.356941   4.607650   5.352027   6.151855
    31  C    8.072977   6.102685   5.573357   5.865655   6.787812
    32  H    7.761811   5.982876   5.596333   5.665804   6.629077
    33  H    8.741961   6.765099   6.142838   6.705716   7.663198
    34  H    8.714946   6.719929   6.229594   6.305934   7.130144
    35  C    6.313003   4.317381   3.609286   4.620265   5.625565
    36  O    5.121073   3.231446   2.613990   3.680951   4.722155
    37  N    7.294582   5.394231   4.618897   5.869412   6.879121
    38  H    8.239240   6.268985   5.471409   6.647763   7.632982
    39  C    7.269491   5.640574   4.891368   6.382734   7.400771
    40  H    6.297400   4.836450   4.166806   5.691169   6.700222
    41  H    7.783374   6.130886   5.290229   6.998107   7.957933
    42  H    7.948013   6.454779   5.790212   7.123216   8.176284
                   11         12         13         14         15
    11  C    0.000000
    12  H    1.090015   0.000000
    13  H    1.090009   1.779650   0.000000
    14  H    1.089930   1.779596   1.779593   0.000000
    15  C    2.461889   2.701238   2.668648   3.416593   0.000000
    16  O    3.417399   3.376881   3.791244   4.329953   1.228962
    17  N    2.895840   3.227600   2.558676   3.897188   1.335072
    18  H    2.692187   3.244047   2.038585   3.572156   2.037331
    19  C    4.249823   4.384231   3.844296   5.290818   2.434412
    20  H    4.973669   5.246606   4.586761   5.955989   2.946549
    21  C    4.852848   4.942406   4.167713   5.855909   3.662085
    22  H    4.525033   4.440198   3.831332   5.517558   3.772091
    23  H    5.893134   5.911899   5.245347   6.916047   4.510353
    24  H    4.960093   5.250789   4.123079   5.859730   4.030587
    25  C    4.756676   4.566982   4.606375   5.838672   2.795766
    26  O    5.964607   5.719415   5.770924   7.050444   4.006999
    27  N    4.170592   3.789098   4.308731   5.211534   2.368145
    28  H    3.222593   2.887117   3.488944   4.238772   1.566715
    29  C    5.193512   4.598464   5.488905   6.159041   3.620430
    30  H    6.003454   5.511818   6.307617   6.962844   4.133016
    31  C    5.980803   5.251087   6.125940   6.957976   4.731029
    32  H    5.507090   4.682598   5.612590   6.443218   4.692814
    33  H    6.841499   6.044829   7.078219   7.766713   5.641649
    34  H    6.457954   5.838471   6.442619   7.492479   5.016782
    35  C    4.982011   4.248777   5.544957   5.777315   3.902065
    36  O    4.006482   3.290935   4.722608   4.694915   3.314013
    37  N    6.191214   5.386496   6.801395   6.908435   5.223581
    38  H    6.991315   6.194089   7.512628   7.772468   5.836388
    39  C    6.628684   5.786679   7.388916   7.159308   6.049088
    40  H    5.894790   5.081103   6.743906   6.313876   5.592521
    41  H    7.413230   6.649764   8.211263   7.920502   6.657264
    42  H    7.175406   6.239869   7.893769   7.679478   6.807062
                   16         17         18         19         20
    16  O    0.000000
    17  N    2.252803   0.000000
    18  H    3.150015   1.009937   0.000000
    19  C    2.775311   1.449000   2.120921   0.000000
    20  H    3.174509   2.083717   2.662089   1.089993   0.000000
    21  C    4.165649   2.452808   2.596481   1.525060   2.139212
    22  H    4.307607   2.702719   2.771681   2.150233   3.041322
    23  H    4.804805   3.386911   3.644192   2.150193   2.459608
    24  H    4.748824   2.702678   2.469156   2.150253   2.466272
    25  C    2.506818   2.450308   3.333901   1.521943   2.136547
    26  O    3.587244   3.595402   4.416000   2.392771   2.701462
    27  N    1.764816   2.646140   3.575146   2.432697   3.136070
    28  H    1.186646   2.195139   3.054096   2.567952   3.317870
    29  C    2.741454   4.084357   4.998841   3.801855   4.417770
    30  H    3.078070   4.608704   5.588229   4.158433   4.533863
    31  C    4.079678   4.903130   5.706034   4.404101   5.136957
    32  H    4.274752   4.806181   5.473325   4.488570   5.381665
    33  H    4.872119   5.931651   6.754155   5.451803   6.127314
    34  H    4.436855   4.933275   5.722885   4.133696   4.775855
    35  C    3.024584   4.723559   5.556113   4.859156   5.522558
    36  O    2.646092   4.329236   5.049005   4.830097   5.527865
    37  N    4.292804   6.050913   6.886637   6.100895   6.729357
    38  H    4.853327   6.535895   7.413516   6.369421   6.949163
    39  C    5.194486   7.024569   7.786999   7.284399   7.931391
    40  H    4.864885   6.661017   7.345176   7.132206   7.802575
    41  H    5.695431   7.694232   8.504304   7.918326   8.458602
    42  H    6.036050   7.694220   8.410547   7.918315   8.643780
                   21         22         23         24         25
    21  C    0.000000
    22  H    1.089947   0.000000
    23  H    1.089926   1.779573   0.000000
    24  H    1.089988   1.779618   1.779562   0.000000
    25  C    2.461861   2.701179   2.668565   3.416599   0.000000
    26  O    2.902418   3.209392   2.614646   3.910961   1.228998
    27  N    3.471871   3.414617   3.878426   4.368061   1.335013
    28  H    3.675284   3.555945   4.318887   4.404778   2.037352
    29  C    4.705370   4.539096   4.922051   5.685202   2.434422
    30  H    5.178737   5.204007   5.249667   6.153394   2.741842
    31  C    4.858645   4.482719   4.891863   5.919173   3.000785
    32  H    4.743756   4.143448   4.914581   5.753585   3.309745
    33  H    5.931711   5.554012   5.904321   6.999045   4.004057
    34  H    4.405778   4.139492   4.218421   5.494916   2.731500
    35  C    5.825328   5.533559   6.216512   6.719755   3.717863
    36  O    5.850358   5.531943   6.436142   6.609191   4.015654
    37  N    7.010758   6.683358   7.300771   7.953039   4.841528
    38  H    7.206921   6.911760   7.349004   8.210088   4.977956
    39  C    8.219226   7.831656   8.603229   9.105960   6.139559
    40  H    8.104330   7.701699   8.616666   8.905457   6.165958
    41  H    8.955021   8.659605   9.296320   9.844555   6.743433
    42  H    8.706683   8.209921   9.062530   9.617507   6.743420
                   26         27         28         29         30
    26  O    0.000000
    27  N    2.252824   0.000000
    28  H    3.150094   1.009971   0.000000
    29  C    2.775390   1.449062   2.120951   0.000000
    30  H    2.787599   2.083821   2.828873   1.089978   0.000000
    31  C    2.936770   2.452760   3.194428   1.524910   2.139100
    32  H    3.474114   2.702725   3.202477   2.150221   3.041328
    33  H    3.813892   3.387042   4.082888   2.150222   2.459623
    34  H    2.268988   2.702774   3.605892   2.150216   2.466280
    35  C    4.264246   2.450305   2.528537   1.522040   2.136602
    36  O    4.840223   2.683429   2.268891   2.392882   3.085360
    37  N    5.166778   3.668368   3.857797   2.432761   2.707638
    38  H    5.058917   3.979061   4.391102   2.567948   2.595316
    39  C    6.569757   4.884644   4.856508   3.801859   4.090458
    40  H    6.783895   4.845658   4.592382   4.033987   4.461722
    41  H    7.106842   5.526396   5.539409   4.396919   4.435592
    42  H    7.106829   5.526380   5.539393   4.396899   4.779273
                   31         32         33         34         35
    31  C    0.000000
    32  H    1.090013   0.000000
    33  H    1.090064   1.779675   0.000000
    34  H    1.090006   1.779634   1.779624   0.000000
    35  C    2.461843   2.701217   2.668668   3.416668   0.000000
    36  O    3.417339   3.376846   3.791273   4.330013   1.228977
    37  N    2.895782   3.227536   2.558675   3.897223   1.335013
    38  H    2.692189   3.244059   2.038585   3.572206   2.037367
    39  C    4.249758   4.384181   3.844259   5.290831   2.434374
    40  H    4.671790   4.654248   4.491406   5.731207   2.520541
    41  H    4.958617   5.261452   4.461004   5.930543   3.137951
    42  H    4.494683   4.482958   3.950754   5.545496   3.137922
                   36         37         38         39         40
    36  O    0.000000
    37  N    2.252784   0.000000
    38  H    3.150088   1.010025   0.000000
    39  C    2.775351   1.448965   2.120902   0.000000
    40  H    2.337455   2.083742   2.986258   1.089955   0.000000
    41  H    3.519241   2.083768   2.484233   1.090074   1.779676
    42  H    3.519215   2.083725   2.484197   1.089993   1.779626
                   41         42
    41  H    0.000000
    42  H    1.779700   0.000000
 Stoichiometry    C12H22N4O4
 Framework group  C1[X(C12H22N4O4)]
 Deg. of freedom   120
 Full point group                 C1      NOp   1
 Largest Abelian subgroup         C1      NOp   1
 Largest concise Abelian subgroup C1      NOp   1
                         Standard orientation:                         
 ---------------------------------------------------------------------
 Center     Atomic      Atomic             Coordinates (Angstroms)
 Number     Number       Type             X           Y           Z
 ---------------------------------------------------------------------
      1          1           0        5.576187    1.104827   -0.443661
      2          6           0        4.515999    1.079166   -0.695539
      3          1           0        4.398185    1.118837   -1.778463
      4          1           0        4.014078    1.935057   -0.244420
      5          6           0        3.857947   -0.201801   -0.178789
      6          8           0        4.517927   -1.039387    0.432207
      7          7           0        2.554422   -0.346737   -0.428117
      8          1           0        2.054441    0.369878   -0.934710
      9          6           0        1.816632   -1.514815    0.008574
     10          1           0        2.251460   -2.408250   -0.439336
     11          6           0        1.863725   -1.658209    1.526101
     12          1           0        1.423448   -0.774971    1.988896
     13          1           0        1.301878   -2.542939    1.825601
     14          1           0        2.899483   -1.759348    1.850021
     15          6           0        0.354628   -1.425561   -0.405064
     16          8           0       -0.059069   -0.450107   -1.027713
     17          7           0       -0.428699   -2.449020   -0.056713
     18          1           0       -0.042366   -3.229171    0.455228
     19          6           0       -1.838072   -2.483032   -0.391544
     20          1           0       -1.970102   -2.962914   -1.361269
     21          6           0       -2.631235   -3.264223    0.650781
     22          1           0       -2.516214   -2.790530    1.625650
     23          1           0       -3.685383   -3.273453    0.373968
     24          1           0       -2.259735   -4.287830    0.698637
     25          6           0       -2.418885   -1.077990   -0.460998
     26          8           0       -3.604994   -0.906111   -0.733104
     27          7           0       -1.578268   -0.070800   -0.213627
     28          1           0       -0.611201   -0.262372    0.005745
     29          6           0       -2.009110    1.312286   -0.248687
     30          1           0       -2.388883    1.549999   -1.242324
     31          6           0       -3.114640    1.568849    0.769807
     32          1           0       -2.746603    1.343959    1.770856
     33          1           0       -3.418489    2.614590    0.721423
     34          1           0       -3.970400    0.931799    0.546299
     35          6           0       -0.856027    2.253480    0.069367
     36          8           0        0.263474    1.808542    0.312539
     37          7           0       -1.132507    3.559548    0.067080
     38          1           0       -2.068886    3.877192   -0.138948
     39          6           0       -0.121298    4.556774    0.354300
     40          1           0        0.829585    4.063380    0.555268
     41          1           0       -0.011402    5.220910   -0.503085
     42          1           0       -0.420402    5.137359    1.226964
 ---------------------------------------------------------------------
 Rotational constants (GHZ):      0.3835599      0.2750812      0.1729477
 Standard basis: 6-31G(d) (6D, 7F)
 There are   344 symmetry adapted basis functions of A   symmetry.
 Integral buffers will be    131072 words long.
 Raffenetti 1 integral format.
 Two-electron integral symmetry is turned on.
   344 basis functions,   648 primitive gaussians,   344 cartesian basis functions
    77 alpha electrons       77 beta electrons
       nuclear repulsion energy      1753.5229942344 Hartrees.
 NAtoms=   42 NActive=   42 NUniq=   42 SFac= 7.50D-01 NAtFMM=   80 NAOKFM=F Big=F
 One-electron integrals computed using PRISM.
 NBasis=   344 RedAO= T  NBF=   344
 NBsUse=   344 1.00D-06 NBFU=   344
 Harris functional with IExCor=  205 diagonalized for initial guess.
 ExpMin= 1.61D-01 ExpMax= 5.48D+03 ExpMxC= 8.25D+02 IAcc=1 IRadAn=         1 AccDes= 0.00D+00
 HarFok:  IExCor=  205 AccDes= 0.00D+00 IRadAn=         1 IDoV= 1
 ScaDFX=  1.000000  1.000000  1.000000  1.000000
 FoFCou: FMM=F IPFlag=           0 FMFlag=      100000 FMFlg1=           0
         NFxFlg=           0 DoJE=T BraDBF=F KetDBF=T FulRan=T
         Omega=  0.000000  0.000000  1.000000  0.000000  0.000000 ICntrl=     500 IOpCl=  0
         NMat0=    1 NMatS0=    1 NMatT0=    0 NMatD0=    1 NMtDS0=    0 NMtDT0=    0
         I1Cent=           4 NGrid=           0.
 Petite list used in FoFCou.
 Initial guess orbital symmetries:
       Occupied  (A) (A) (A) (A) (A) (A) (A) (A) (A) (A) (A) (A)
                 (A) (A) (A) (A) (A) (A) (A) (A) (A) (A) (A) (A)
                 (A) (A) (A) (A) (A) (A) (A) (A) (A) (A) (A) (A)
                 (A) (A) (A) (A) (A) (A) (A) (A) (A) (A) (A) (A)
                 (A) (A) (A) (A) (A) (A) (A) (A) (A) (A) (A) (A)
                 (A) (A) (A) (A) (A) (A) (A) (A) (A) (A) (A) (A)
                 (A) (A) (A) (A) (A)
       Virtual   (A) (A) (A) (A) (A) (A) (A) (A) (A) (A) (A) (A)
                 (A) (A) (A) (A) (A) (A) (A) (A) (A) (A) (A) (A)
                 (A) (A) (A) (A) (A) (A) (A) (A) (A) (A) (A) (A)
                 (A) (A) (A) (A) (A) (A) (A) (A) (A) (A) (A) (A)
                 (A) (A) (A) (A) (A) (A) (A) (A) (A) (A) (A) (A)
                 (A) (A) (A) (A) (A) (A) (A) (A) (A) (A) (A) (A)
                 (A) (A) (A) (A) (A) (A) (A) (A) (A) (A) (A) (A)
                 (A) (A) (A) (A) (A) (A) (A) (A) (A) (A) (A) (A)
                 (A) (A) (A) (A) (A) (A) (A) (A) (A) (A) (A) (A)
                 (A) (A) (A) (A) (A) (A) (A) (A) (A) (A) (A) (A)
                 (A) (A) (A) (A) (A) (A) (A) (A) (A) (A) (A) (A)
                 (A) (A) (A) (A) (A) (A) (A) (A) (A) (A) (A) (A)
                 (A) (A) (A) (A) (A) (A) (A) (A) (A) (A) (A) (A)
                 (A) (A) (A) (A) (A) (A) (A) (A) (A) (A) (A) (A)
                 (A) (A) (A) (A) (A) (A) (A) (A) (A) (A) (A) (A)
                 (A) (A) (A) (A) (A) (A) (A) (A) (A) (A) (A) (A)
                 (A) (A) (A) (A) (A) (A) (A) (A) (A) (A) (A) (A)
                 (A) (A) (A) (A) (A) (A) (A) (A) (A) (A) (A) (A)
                 (A) (A) (A) (A) (A) (A) (A) (A) (A) (A) (A) (A)
                 (A) (A) (A) (A) (A) (A) (A) (A) (A) (A) (A) (A)
                 (A) (A) (A) (A) (A) (A) (A) (A) (A) (A) (A) (A)
                 (A) (A) (A) (A) (A) (A) (A) (A) (A) (A) (A) (A)
                 (A) (A) (A)
 The electronic state of the initial guess is 1-A.
 Requested convergence on RMS density matrix=1.00D-08 within 128 cycles.
 Requested convergence on MAX density matrix=1.00D-06.
 Requested convergence on             energy=1.00D-06.
 No special actions if energy rises.
 Integral accuracy reduced to 1.0D-05 until final iterations.
 Initial convergence to 1.0D-05 achieved.  Increase integral accuracy.
 SCF Done:  E(RHF) =  -984.311515216     A.U. after   17 cycles
             Convg  =    0.7107D-08             -V/T =  2.0007
 Range of M.O.s used for correlation:     1   344
 NBasis=   344 NAE=    77 NBE=    77 NFC=     0 NFV=     0
 NROrb=    344 NOA=    77 NOB=    77 NVA=   267 NVB=   267
 Symmetrizing basis deriv contribution to polar:
 IMax=3 JMax=2 DiffMx= 0.00D+00
 G2DrvN: will do    43 centers at a time, making    1 passes doing MaxLOS=2.
 Calling FoFCou, ICntrl=  3107 FMM=F I1Cent=   0 AccDes= 0.00D+00.
 FoFDir/FoFCou used for L=0 through L=2.
 End of G2Drv Frequency-dependent properties file   721 does not exist.
 End of G2Drv Frequency-dependent properties file   722 does not exist.
          IDoAtm=111111111111111111111111111111111111111111
          Differentiating once with respect to nuclear coordinates.
          There are   129 degrees of freedom in the 1st order CPHF.  IDoFFX=5.
    123 vectors produced by pass  0 Test12= 2.06D-10 1.00D-07 XBig12= 9.90D-02 6.02D-02.
 AX will form   123 AO Fock derivatives at one time.
    123 vectors produced by pass  1 Test12= 2.06D-10 1.00D-07 XBig12= 9.19D-03 4.55D-02.
    123 vectors produced by pass  2 Test12= 2.06D-10 1.00D-07 XBig12= 1.46D-04 2.51D-03.
    123 vectors produced by pass  3 Test12= 2.06D-10 1.00D-07 XBig12= 1.49D-06 1.51D-04.
    123 vectors produced by pass  4 Test12= 2.06D-10 1.00D-07 XBig12= 9.26D-09 1.08D-05.
     41 vectors produced by pass  5 Test12= 2.06D-10 1.00D-07 XBig12= 5.37D-11 7.36D-07.
 Inverted reduced A of dimension   656 with in-core refinement.
 End of Minotr Frequency-dependent properties file   721 does not exist.
 End of Minotr Frequency-dependent properties file   722 does not exist.

 **********************************************************************

            Population analysis using the SCF density.

 **********************************************************************

 Orbital symmetries:
       Occupied  (A) (A) (A) (A) (A) (A) (A) (A) (A) (A) (A) (A)
                 (A) (A) (A) (A) (A) (A) (A) (A) (A) (A) (A) (A)
                 (A) (A) (A) (A) (A) (A) (A) (A) (A) (A) (A) (A)
                 (A) (A) (A) (A) (A) (A) (A) (A) (A) (A) (A) (A)
                 (A) (A) (A) (A) (A) (A) (A) (A) (A) (A) (A) (A)
                 (A) (A) (A) (A) (A) (A) (A) (A) (A) (A) (A) (A)
                 (A) (A) (A) (A) (A)
       Virtual   (A) (A) (A) (A) (A) (A) (A) (A) (A) (A) (A) (A)
                 (A) (A) (A) (A) (A) (A) (A) (A) (A) (A) (A) (A)
                 (A) (A) (A) (A) (A) (A) (A) (A) (A) (A) (A) (A)
                 (A) (A) (A) (A) (A) (A) (A) (A) (A) (A) (A) (A)
                 (A) (A) (A) (A) (A) (A) (A) (A) (A) (A) (A) (A)
                 (A) (A) (A) (A) (A) (A) (A) (A) (A) (A) (A) (A)
                 (A) (A) (A) (A) (A) (A) (A) (A) (A) (A) (A) (A)
                 (A) (A) (A) (A) (A) (A) (A) (A) (A) (A) (A) (A)
                 (A) (A) (A) (A) (A) (A) (A) (A) (A) (A) (A) (A)
                 (A) (A) (A) (A) (A) (A) (A) (A) (A) (A) (A) (A)
                 (A) (A) (A) (A) (A) (A) (A) (A) (A) (A) (A) (A)
                 (A) (A) (A) (A) (A) (A) (A) (A) (A) (A) (A) (A)
                 (A) (A) (A) (A) (A) (A) (A) (A) (A) (A) (A) (A)
                 (A) (A) (A) (A) (A) (A) (A) (A) (A) (A) (A) (A)
                 (A) (A) (A) (A) (A) (A) (A) (A) (A) (A) (A) (A)
                 (A) (A) (A) (A) (A) (A) (A) (A) (A) (A) (A) (A)
                 (A) (A) (A) (A) (A) (A) (A) (A) (A) (A) (A) (A)
                 (A) (A) (A) (A) (A) (A) (A) (A) (A) (A) (A) (A)
                 (A) (A) (A) (A) (A) (A) (A) (A) (A) (A) (A) (A)
                 (A) (A) (A) (A) (A) (A) (A) (A) (A) (A) (A) (A)
                 (A) (A) (A) (A) (A) (A) (A) (A) (A) (A) (A) (A)
                 (A) (A) (A) (A) (A) (A) (A) (A) (A) (A) (A) (A)
                 (A) (A) (A)
 The electronic state is 1-A.
 Alpha  occ. eigenvalues --  -20.54914 -20.52375 -20.51013 -20.49116 -15.62509
 Alpha  occ. eigenvalues --  -15.59776 -15.58240 -15.52772 -11.37707 -11.35175
 Alpha  occ. eigenvalues --  -11.34329 -11.32437 -11.29065 -11.29039 -11.26858
 Alpha  occ. eigenvalues --  -11.26629 -11.23664 -11.22891 -11.22190 -11.21031
 Alpha  occ. eigenvalues --   -1.48553  -1.38269  -1.36775  -1.35053  -1.28353
 Alpha  occ. eigenvalues --   -1.24107  -1.23642  -1.20631  -1.08331  -1.04375
 Alpha  occ. eigenvalues --   -1.03350  -0.98120  -0.95785  -0.91159  -0.90575
 Alpha  occ. eigenvalues --   -0.86916  -0.83910  -0.81542  -0.79637  -0.77949
 Alpha  occ. eigenvalues --   -0.74338  -0.73088  -0.71402  -0.68414  -0.67357
 Alpha  occ. eigenvalues --   -0.66437  -0.65433  -0.63855  -0.63030  -0.62679
 Alpha  occ. eigenvalues --   -0.60939  -0.59996  -0.59070  -0.58080  -0.57786
 Alpha  occ. eigenvalues --   -0.56667  -0.56050  -0.55701  -0.55451  -0.55356
 Alpha  occ. eigenvalues --   -0.54938  -0.54564  -0.54124  -0.53252  -0.52807
 Alpha  occ. eigenvalues --   -0.51703  -0.50734  -0.48914  -0.48165  -0.44257
 Alpha  occ. eigenvalues --   -0.41836  -0.41049  -0.40424  -0.39312  -0.39218
 Alpha  occ. eigenvalues --   -0.38247  -0.28851
 Alpha virt. eigenvalues --    0.14875   0.19081   0.19474   0.20765   0.21193
 Alpha virt. eigenvalues --    0.22011   0.24312   0.26320   0.26764   0.27548
 Alpha virt. eigenvalues --    0.28185   0.28861   0.29599   0.30031   0.30561
 Alpha virt. eigenvalues --    0.31067   0.31367   0.31708   0.32042   0.32492
 Alpha virt. eigenvalues --    0.33598   0.34528   0.34976   0.35245   0.36089
 Alpha virt. eigenvalues --    0.36610   0.37490   0.37702   0.39883   0.40531
 Alpha virt. eigenvalues --    0.40844   0.42595   0.43988   0.44497   0.47031
 Alpha virt. eigenvalues --    0.47432   0.49658   0.52635   0.54138   0.54968
 Alpha virt. eigenvalues --    0.56780   0.60755   0.61408   0.61645   0.69222
 Alpha virt. eigenvalues --    0.71818   0.72055   0.72313   0.73336   0.73938
 Alpha virt. eigenvalues --    0.74717   0.74830   0.75683   0.76570   0.77064
 Alpha virt. eigenvalues --    0.77669   0.78726   0.79017   0.80172   0.81991
 Alpha virt. eigenvalues --    0.82611   0.83566   0.84066   0.85872   0.87715
 Alpha virt. eigenvalues --    0.88373   0.90182   0.91398   0.92649   0.93480
 Alpha virt. eigenvalues --    0.94010   0.94878   0.96570   0.97742   0.98663
 Alpha virt. eigenvalues --    0.98903   0.99611   1.00716   1.00964   1.02476
 Alpha virt. eigenvalues --    1.03409   1.04589   1.05613   1.07359   1.08104
 Alpha virt. eigenvalues --    1.09645   1.10844   1.11747   1.12764   1.13090
 Alpha virt. eigenvalues --    1.13569   1.14531   1.14691   1.15376   1.15737
 Alpha virt. eigenvalues --    1.16113   1.17027   1.17085   1.18324   1.18602
 Alpha virt. eigenvalues --    1.19331   1.19527   1.20020   1.20195   1.21108
 Alpha virt. eigenvalues --    1.22219   1.22635   1.22910   1.24388   1.24917
 Alpha virt. eigenvalues --    1.26154   1.26391   1.27929   1.29466   1.30692
 Alpha virt. eigenvalues --    1.31569   1.33600   1.34998   1.37823   1.38544
 Alpha virt. eigenvalues --    1.39911   1.41298   1.44115   1.45754   1.46429
 Alpha virt. eigenvalues --    1.48966   1.50441   1.52658   1.53987   1.55232
 Alpha virt. eigenvalues --    1.56891   1.58013   1.60204   1.60604   1.63083
 Alpha virt. eigenvalues --    1.63877   1.64693   1.69329   1.70563   1.71518
 Alpha virt. eigenvalues --    1.72773   1.73623   1.74267   1.75374   1.77597
 Alpha virt. eigenvalues --    1.80350   1.80600   1.83942   1.85923   1.88838
 Alpha virt. eigenvalues --    1.92781   1.93896   1.96141   1.98523   2.00340
 Alpha virt. eigenvalues --    2.01550   2.01973   2.03583   2.04124   2.06411
 Alpha virt. eigenvalues --    2.08603   2.09257   2.10121   2.11657   2.12435
 Alpha virt. eigenvalues --    2.13659   2.14634   2.14898   2.16047   2.16386
 Alpha virt. eigenvalues --    2.18039   2.19274   2.19713   2.21807   2.22443
 Alpha virt. eigenvalues --    2.23775   2.25275   2.25617   2.28403   2.29508
 Alpha virt. eigenvalues --    2.30469   2.31443   2.32419   2.33905   2.35031
 Alpha virt. eigenvalues --    2.36845   2.37053   2.37290   2.40190   2.42148
 Alpha virt. eigenvalues --    2.43853   2.46242   2.46833   2.49217   2.49886
 Alpha virt. eigenvalues --    2.50975   2.52263   2.54759   2.57138   2.59038
 Alpha virt. eigenvalues --    2.59259   2.60479   2.61657   2.61888   2.62567
 Alpha virt. eigenvalues --    2.64143   2.64498   2.65386   2.67062   2.69363
 Alpha virt. eigenvalues --    2.73502   2.74631   2.75686   2.77250   2.77703
 Alpha virt. eigenvalues --    2.80493   2.81465   2.85298   2.87339   2.89256
 Alpha virt. eigenvalues --    2.91364   2.91705   2.93868   2.97376   2.99163
 Alpha virt. eigenvalues --    3.00889   3.01475   3.06195   3.07574   3.08799
 Alpha virt. eigenvalues --    3.10820   3.14422   3.16715   3.19243   3.19963
 Alpha virt. eigenvalues --    3.24677   3.28748   3.31409   3.34557   3.37146
 Alpha virt. eigenvalues --    3.40563   3.41974   3.43045   3.54589   3.59038
 Alpha virt. eigenvalues --    3.63960   3.67336   4.39848   4.43212   4.44725
 Alpha virt. eigenvalues --    4.48081   4.52351   4.54841   4.63297   4.63842
 Alpha virt. eigenvalues --    4.64462   4.66507   4.70199   4.73583   4.79727
 Alpha virt. eigenvalues --    4.82747   4.87085   4.88979   4.97573   5.04545
 Alpha virt. eigenvalues --    5.11249   5.26885
          Condensed to atoms (all electrons):
              1          2          3          4          5          6
     1  H    0.463328   0.385262  -0.019377  -0.018793  -0.031023   0.003534
     2  C    0.385262   5.244892   0.374035   0.375050   0.379295  -0.067468
     3  H   -0.019377   0.374035   0.514919  -0.023135  -0.034260   0.001316
     4  H   -0.018793   0.375050  -0.023135   0.502049  -0.034412   0.001152
     5  C   -0.031023   0.379295  -0.034260  -0.034412   4.177205   0.585612
     6  O    0.003534  -0.067468   0.001316   0.001152   0.585612   8.217026
     7  N    0.003854  -0.118963   0.003361   0.003505   0.253534  -0.107944
     8  H    0.000003  -0.001356   0.000666   0.000477  -0.016720   0.001925
     9  C   -0.000080   0.004568  -0.000248  -0.000096  -0.029598   0.014778
    10  H    0.000002   0.000017  -0.000005  -0.000002  -0.001420   0.003162
    11  C    0.000006  -0.000518   0.000009   0.000031  -0.003925  -0.016144
    12  H    0.000000  -0.000035   0.000000   0.000001   0.000105  -0.000023
    13  H    0.000000   0.000007   0.000000  -0.000001   0.000295   0.000270
    14  H    0.000001   0.000300  -0.000005  -0.000026   0.000201   0.011737
    15  C    0.000000   0.000025  -0.000011  -0.000006   0.003980   0.000607
    16  O    0.000000  -0.000029   0.000000  -0.000001   0.000100  -0.000003
    17  N    0.000000   0.000000   0.000000   0.000000  -0.000083  -0.000002
    18  H    0.000000   0.000000   0.000000   0.000000   0.000000   0.000001
    19  C    0.000000   0.000000   0.000000   0.000000   0.000001   0.000000
    20  H    0.000000   0.000000   0.000000   0.000000   0.000000   0.000000
    21  C    0.000000   0.000000   0.000000   0.000000   0.000000   0.000000
    22  H    0.000000   0.000000   0.000000   0.000000   0.000000   0.000000
    23  H    0.000000   0.000000   0.000000   0.000000   0.000000   0.000000
    24  H    0.000000   0.000000   0.000000   0.000000   0.000000   0.000000
    25  C    0.000000   0.000000   0.000000   0.000000   0.000000   0.000000
    26  O    0.000000   0.000000   0.000000   0.000000   0.000000   0.000000
    27  N    0.000000   0.000000   0.000000   0.000000   0.000006   0.000000
    28  H    0.000000  -0.000002   0.000000  -0.000002   0.000005   0.000000
    29  C    0.000000   0.000000   0.000000   0.000000   0.000000   0.000000
    30  H    0.000000   0.000000   0.000000   0.000000   0.000000   0.000000
    31  C    0.000000   0.000000   0.000000   0.000000   0.000000   0.000000
    32  H    0.000000   0.000000   0.000000   0.000000   0.000000   0.000000
    33  H    0.000000   0.000000   0.000000   0.000000   0.000000   0.000000
    34  H    0.000000   0.000000   0.000000   0.000000   0.000000   0.000000
    35  C    0.000000   0.000001   0.000000   0.000001  -0.000001   0.000000
    36  O    0.000000  -0.000086  -0.000001   0.000225   0.000029   0.000000
    37  N    0.000000   0.000000   0.000000  -0.000001   0.000000   0.000000
    38  H    0.000000   0.000000   0.000000   0.000000   0.000000   0.000000
    39  C    0.000000  -0.000002   0.000000  -0.000002   0.000000   0.000000
    40  H    0.000000   0.000001   0.000000   0.000069   0.000000   0.000000
    41  H    0.000000   0.000000   0.000000   0.000000   0.000000   0.000000
    42  H    0.000000   0.000000   0.000000   0.000000   0.000000   0.000000
              7          8          9         10         11         12
     1  H    0.003854   0.000003  -0.000080   0.000002   0.000006   0.000000
     2  C   -0.118963  -0.001356   0.004568   0.000017  -0.000518  -0.000035
     3  H    0.003361   0.000666  -0.000248  -0.000005   0.000009   0.000000
     4  H    0.003505   0.000477  -0.000096  -0.000002   0.000031   0.000001
     5  C    0.253534  -0.016720  -0.029598  -0.001420  -0.003925   0.000105
     6  O   -0.107944   0.001925   0.014778   0.003162  -0.016144  -0.000023
     7  N    7.401415   0.307950   0.210763  -0.042267  -0.063046   0.000816
     8  H    0.307950   0.272958  -0.022365   0.001668   0.003386   0.000045
     9  C    0.210763  -0.022365   4.965892   0.409179   0.328689  -0.039131
    10  H   -0.042267   0.001668   0.409179   0.499736  -0.048018   0.004185
    11  C   -0.063046   0.003386   0.328689  -0.048018   5.237158   0.385998
    12  H    0.000816   0.000045  -0.039131   0.004185   0.385998   0.502381
    13  H    0.004921  -0.000082  -0.043088   0.000137   0.375597  -0.024803
    14  H   -0.005646  -0.000170  -0.026302  -0.003673   0.385897  -0.018121
    15  C   -0.040235  -0.005824   0.396900  -0.039000  -0.070595  -0.004371
    16  O   -0.004130   0.011768  -0.065047   0.001133  -0.000635   0.000242
    17  N    0.002682   0.000489  -0.109966   0.001239   0.003158   0.000300
    18  H    0.000063  -0.000010   0.000288   0.000665   0.000508   0.000014
    19  C   -0.000052  -0.000015   0.003567  -0.000214   0.000157  -0.000054
    20  H    0.000000   0.000000  -0.000166   0.000018  -0.000007   0.000001
    21  C    0.000000   0.000000  -0.000117  -0.000004   0.000013  -0.000002
    22  H    0.000000   0.000000  -0.000030   0.000001   0.000008   0.000005
    23  H    0.000000   0.000000   0.000001   0.000000   0.000000   0.000000
    24  H    0.000000   0.000000   0.000007   0.000000  -0.000006   0.000000
    25  C   -0.000002   0.000000   0.000318   0.000008  -0.000153   0.000008
    26  O    0.000000   0.000000  -0.000002   0.000000   0.000000   0.000000
    27  N   -0.000193   0.000692  -0.003265  -0.000164   0.001346  -0.000192
    28  H    0.000452   0.000287  -0.011060   0.000502   0.000784   0.001762
    29  C    0.000001  -0.000039   0.000110   0.000001  -0.000023  -0.000015
    30  H    0.000001  -0.000012   0.000004   0.000000   0.000000   0.000000
    31  C    0.000000   0.000002  -0.000001   0.000000   0.000001  -0.000003
    32  H    0.000000   0.000000   0.000000   0.000000  -0.000001   0.000004
    33  H    0.000000   0.000000   0.000000   0.000000   0.000000   0.000000
    34  H    0.000000   0.000000   0.000000   0.000000   0.000000   0.000000
    35  C    0.000138   0.000112  -0.000054   0.000001  -0.000010   0.000039
    36  O   -0.001952   0.005385   0.001339   0.000002  -0.000575   0.001397
    37  N    0.000001  -0.000015   0.000001   0.000000   0.000000   0.000001
    38  H    0.000000   0.000000   0.000000   0.000000   0.000000   0.000000
    39  C   -0.000001   0.000004   0.000000   0.000000   0.000000   0.000000
    40  H   -0.000001   0.000011   0.000000   0.000000   0.000000   0.000000
    41  H    0.000000   0.000001   0.000000   0.000000   0.000000   0.000000
    42  H    0.000000   0.000000   0.000000   0.000000   0.000000   0.000000
             13         14         15         16         17         18
     1  H    0.000000   0.000001   0.000000   0.000000   0.000000   0.000000
     2  C    0.000007   0.000300   0.000025  -0.000029   0.000000   0.000000
     3  H    0.000000  -0.000005  -0.000011   0.000000   0.000000   0.000000
     4  H   -0.000001  -0.000026  -0.000006  -0.000001   0.000000   0.000000
     5  C    0.000295   0.000201   0.003980   0.000100  -0.000083   0.000000
     6  O    0.000270   0.011737   0.000607  -0.000003  -0.000002   0.000001
     7  N    0.004921  -0.005646  -0.040235  -0.004130   0.002682   0.000063
     8  H   -0.000082  -0.000170  -0.005824   0.011768   0.000489  -0.000010
     9  C   -0.043088  -0.026302   0.396900  -0.065047  -0.109966   0.000288
    10  H    0.000137  -0.003673  -0.039000   0.001133   0.001239   0.000665
    11  C    0.375597   0.385897  -0.070595  -0.000635   0.003158   0.000508
    12  H   -0.024803  -0.018121  -0.004371   0.000242   0.000300   0.000014
    13  H    0.577684  -0.020053  -0.007826   0.000045   0.000998   0.003297
    14  H   -0.020053   0.421381   0.004496  -0.000065  -0.000016  -0.000084
    15  C   -0.007826   0.004496   4.360223   0.476915   0.282806  -0.021997
    16  O    0.000045  -0.000065   0.476915   8.997265  -0.106582   0.002360
    17  N    0.000998  -0.000016   0.282806  -0.106582   7.449567   0.318888
    18  H    0.003297  -0.000084  -0.021997   0.002360   0.318888   0.296691
    19  C    0.000257  -0.000002  -0.025891   0.012661   0.095349  -0.015594
    20  H    0.000003   0.000000  -0.000715   0.000947  -0.045891   0.000323
    21  C    0.000020   0.000000   0.001533  -0.000139  -0.053330  -0.003027
    22  H    0.000059   0.000000   0.000049  -0.000001   0.000994   0.000146
    23  H    0.000000   0.000000  -0.000021  -0.000003   0.004002  -0.000057
    24  H   -0.000019   0.000000  -0.000096   0.000006  -0.003654   0.003265
    25  C   -0.000043   0.000001  -0.010382  -0.003839  -0.036440   0.002294
    26  O    0.000000   0.000000  -0.000163  -0.000424   0.002779  -0.000048
    27  N    0.000018  -0.000001  -0.006172  -0.700351   0.016002  -0.000589
    28  H    0.000153  -0.000035  -0.012856  -0.022162   0.002859  -0.000173
    29  C    0.000000   0.000000   0.002098   0.024354  -0.000402   0.000020
    30  H    0.000000   0.000000  -0.000241   0.001166  -0.000028   0.000000
    31  C    0.000000   0.000000  -0.000104  -0.000673   0.000042  -0.000001
    32  H    0.000000   0.000000  -0.000023   0.000005  -0.000005   0.000000
    33  H    0.000000   0.000000   0.000002   0.000023   0.000000   0.000000
    34  H    0.000000   0.000000   0.000001  -0.000037  -0.000005   0.000000
    35  C    0.000000   0.000000   0.000295   0.003536  -0.000007   0.000000
    36  O    0.000002   0.000005  -0.001328  -0.013569  -0.000009   0.000001
    37  N    0.000000   0.000000  -0.000006  -0.000079   0.000000   0.000000
    38  H    0.000000   0.000000   0.000000   0.000001   0.000000   0.000000
    39  C    0.000000   0.000000   0.000000   0.000001   0.000000   0.000000
    40  H    0.000000   0.000000   0.000000   0.000002   0.000000   0.000000
    41  H    0.000000   0.000000   0.000000   0.000000   0.000000   0.000000
    42  H    0.000000   0.000000   0.000000   0.000000   0.000000   0.000000
             19         20         21         22         23         24
     1  H    0.000000   0.000000   0.000000   0.000000   0.000000   0.000000
     2  C    0.000000   0.000000   0.000000   0.000000   0.000000   0.000000
     3  H    0.000000   0.000000   0.000000   0.000000   0.000000   0.000000
     4  H    0.000000   0.000000   0.000000   0.000000   0.000000   0.000000
     5  C    0.000001   0.000000   0.000000   0.000000   0.000000   0.000000
     6  O    0.000000   0.000000   0.000000   0.000000   0.000000   0.000000
     7  N   -0.000052   0.000000   0.000000   0.000000   0.000000   0.000000
     8  H   -0.000015   0.000000   0.000000   0.000000   0.000000   0.000000
     9  C    0.003567  -0.000166  -0.000117  -0.000030   0.000001   0.000007
    10  H   -0.000214   0.000018  -0.000004   0.000001   0.000000   0.000000
    11  C    0.000157  -0.000007   0.000013   0.000008   0.000000  -0.000006
    12  H   -0.000054   0.000001  -0.000002   0.000005   0.000000   0.000000
    13  H    0.000257   0.000003   0.000020   0.000059   0.000000  -0.000019
    14  H   -0.000002   0.000000   0.000000   0.000000   0.000000   0.000000
    15  C   -0.025891  -0.000715   0.001533   0.000049  -0.000021  -0.000096
    16  O    0.012661   0.000947  -0.000139  -0.000001  -0.000003   0.000006
    17  N    0.095349  -0.045891  -0.053330   0.000994   0.004002  -0.003654
    18  H   -0.015594   0.000323  -0.003027   0.000146  -0.000057   0.003265
    19  C    5.088839   0.409720   0.350903  -0.040355  -0.032607  -0.042790
    20  H    0.409720   0.484022  -0.037777   0.004238   0.000175  -0.003919
    21  C    0.350903  -0.037777   5.137323   0.387749   0.389467   0.386641
    22  H   -0.040355   0.004238   0.387749   0.517051  -0.016961  -0.027674
    23  H   -0.032607   0.000175   0.389467  -0.016961   0.447761  -0.021430
    24  H   -0.042790  -0.003919   0.386641  -0.027674  -0.021430   0.542992
    25  C    0.386441  -0.037811  -0.049956  -0.006880  -0.005741   0.006399
    26  O   -0.071127   0.002108  -0.000850   0.000166   0.007511   0.000094
    27  N   -0.111453   0.001365   0.000287   0.001335   0.000425  -0.000094
    28  H   -0.003784   0.000533  -0.000531   0.000175  -0.000023  -0.000003
    29  C    0.005164  -0.000082  -0.000198  -0.000061  -0.000012   0.000003
    30  H   -0.000025   0.000028  -0.000014   0.000002  -0.000001   0.000000
    31  C   -0.000630  -0.000003   0.000051   0.000018   0.000010   0.000000
    32  H   -0.000020   0.000001  -0.000012   0.000033  -0.000001   0.000000
    33  H    0.000010   0.000000  -0.000001   0.000000   0.000000   0.000000
    34  H    0.000240  -0.000003   0.000014  -0.000006   0.000001   0.000000
    35  C    0.000068  -0.000002   0.000000  -0.000002   0.000000   0.000000
    36  O   -0.000029   0.000000   0.000000   0.000000   0.000000   0.000000
    37  N    0.000000   0.000000   0.000000   0.000000   0.000000   0.000000
    38  H    0.000000   0.000000   0.000000   0.000000   0.000000   0.000000
    39  C    0.000000   0.000000   0.000000   0.000000   0.000000   0.000000
    40  H    0.000000   0.000000   0.000000   0.000000   0.000000   0.000000
    41  H    0.000000   0.000000   0.000000   0.000000   0.000000   0.000000
    42  H    0.000000   0.000000   0.000000   0.000000   0.000000   0.000000
             25         26         27         28         29         30
     1  H    0.000000   0.000000   0.000000   0.000000   0.000000   0.000000
     2  C    0.000000   0.000000   0.000000  -0.000002   0.000000   0.000000
     3  H    0.000000   0.000000   0.000000   0.000000   0.000000   0.000000
     4  H    0.000000   0.000000   0.000000  -0.000002   0.000000   0.000000
     5  C    0.000000   0.000000   0.000006   0.000005   0.000000   0.000000
     6  O    0.000000   0.000000   0.000000   0.000000   0.000000   0.000000
     7  N   -0.000002   0.000000  -0.000193   0.000452   0.000001   0.000001
     8  H    0.000000   0.000000   0.000692   0.000287  -0.000039  -0.000012
     9  C    0.000318  -0.000002  -0.003265  -0.011060   0.000110   0.000004
    10  H    0.000008   0.000000  -0.000164   0.000502   0.000001   0.000000
    11  C   -0.000153   0.000000   0.001346   0.000784  -0.000023   0.000000
    12  H    0.000008   0.000000  -0.000192   0.001762  -0.000015   0.000000
    13  H   -0.000043   0.000000   0.000018   0.000153   0.000000   0.000000
    14  H    0.000001   0.000000  -0.000001  -0.000035   0.000000   0.000000
    15  C   -0.010382  -0.000163  -0.006172  -0.012856   0.002098  -0.000241
    16  O   -0.003839  -0.000424  -0.700351  -0.022162   0.024354   0.001166
    17  N   -0.036440   0.002779   0.016002   0.002859  -0.000402  -0.000028
    18  H    0.002294  -0.000048  -0.000589  -0.000173   0.000020   0.000000
    19  C    0.386441  -0.071127  -0.111453  -0.003784   0.005164  -0.000025
    20  H   -0.037811   0.002108   0.001365   0.000533  -0.000082   0.000028
    21  C   -0.049956  -0.000850   0.000287  -0.000531  -0.000198  -0.000014
    22  H   -0.006880   0.000166   0.001335   0.000175  -0.000061   0.000002
    23  H   -0.005741   0.007511   0.000425  -0.000023  -0.000012  -0.000001
    24  H    0.006399   0.000094  -0.000094  -0.000003   0.000003   0.000000
    25  C    4.120916   0.548686   0.337350  -0.015021  -0.031960  -0.002413
    26  O    0.548686   8.305422  -0.110789   0.001667   0.012110   0.003475
    27  N    0.337350  -0.110789   8.100874   0.275150   0.184285  -0.045343
    28  H   -0.015021   0.001667   0.275150   0.288229  -0.030174   0.004856
    29  C   -0.031960   0.012110   0.184285  -0.030174   4.988641   0.402352
    30  H   -0.002413   0.003475  -0.045343   0.004856   0.402352   0.511997
    31  C   -0.005086  -0.015870  -0.055503   0.000302   0.342576  -0.044919
    32  H    0.000006  -0.000028   0.000717   0.000875  -0.042071   0.004655
    33  H    0.000405   0.000160   0.005804  -0.000018  -0.047085   0.000739
    34  H    0.000024   0.012360  -0.007311  -0.000295  -0.024612  -0.004408
    35  C    0.003547   0.000451  -0.039695  -0.006510   0.388353  -0.038967
    36  O    0.000282  -0.000002  -0.003643   0.022777  -0.076220   0.001093
    37  N   -0.000090  -0.000001   0.002627   0.000695  -0.112241   0.001968
    38  H    0.000001   0.000001   0.000040  -0.000020   0.000992   0.000454
    39  C    0.000001   0.000000  -0.000055  -0.000011   0.003698  -0.000230
    40  H    0.000000   0.000000  -0.000005  -0.000012   0.000594  -0.000020
    41  H    0.000000   0.000000   0.000000   0.000000  -0.000106   0.000012
    42  H    0.000000   0.000000   0.000001   0.000000  -0.000002  -0.000002
             31         32         33         34         35         36
     1  H    0.000000   0.000000   0.000000   0.000000   0.000000   0.000000
     2  C    0.000000   0.000000   0.000000   0.000000   0.000001  -0.000086
     3  H    0.000000   0.000000   0.000000   0.000000   0.000000  -0.000001
     4  H    0.000000   0.000000   0.000000   0.000000   0.000001   0.000225
     5  C    0.000000   0.000000   0.000000   0.000000  -0.000001   0.000029
     6  O    0.000000   0.000000   0.000000   0.000000   0.000000   0.000000
     7  N    0.000000   0.000000   0.000000   0.000000   0.000138  -0.001952
     8  H    0.000002   0.000000   0.000000   0.000000   0.000112   0.005385
     9  C   -0.000001   0.000000   0.000000   0.000000  -0.000054   0.001339
    10  H    0.000000   0.000000   0.000000   0.000000   0.000001   0.000002
    11  C    0.000001  -0.000001   0.000000   0.000000  -0.000010  -0.000575
    12  H   -0.000003   0.000004   0.000000   0.000000   0.000039   0.001397
    13  H    0.000000   0.000000   0.000000   0.000000   0.000000   0.000002
    14  H    0.000000   0.000000   0.000000   0.000000   0.000000   0.000005
    15  C   -0.000104  -0.000023   0.000002   0.000001   0.000295  -0.001328
    16  O   -0.000673   0.000005   0.000023  -0.000037   0.003536  -0.013569
    17  N    0.000042  -0.000005   0.000000  -0.000005  -0.000007  -0.000009
    18  H   -0.000001   0.000000   0.000000   0.000000   0.000000   0.000001
    19  C   -0.000630  -0.000020   0.000010   0.000240   0.000068  -0.000029
    20  H   -0.000003   0.000001   0.000000  -0.000003  -0.000002   0.000000
    21  C    0.000051  -0.000012  -0.000001   0.000014   0.000000   0.000000
    22  H    0.000018   0.000033   0.000000  -0.000006  -0.000002   0.000000
    23  H    0.000010  -0.000001   0.000000   0.000001   0.000000   0.000000
    24  H    0.000000   0.000000   0.000000   0.000000   0.000000   0.000000
    25  C   -0.005086   0.000006   0.000405   0.000024   0.003547   0.000282
    26  O   -0.015870  -0.000028   0.000160   0.012360   0.000451  -0.000002
    27  N   -0.055503   0.000717   0.005804  -0.007311  -0.039695  -0.003643
    28  H    0.000302   0.000875  -0.000018  -0.000295  -0.006510   0.022777
    29  C    0.342576  -0.042071  -0.047085  -0.024612   0.388353  -0.076220
    30  H   -0.044919   0.004655   0.000739  -0.004408  -0.038967   0.001093
    31  C    5.191589   0.385455   0.373370   0.388995  -0.063815   0.000292
    32  H    0.385455   0.535727  -0.025341  -0.020926  -0.002992   0.000616
    33  H    0.373370  -0.025341   0.593151  -0.022416  -0.006326   0.000014
    34  H    0.388995  -0.020926  -0.022416   0.430658   0.003895  -0.000064
    35  C   -0.063815  -0.002992  -0.006326   0.003895   4.152715   0.572309
    36  O    0.000292   0.000616   0.000014  -0.000064   0.572309   8.250234
    37  N    0.001863   0.000247  -0.000057   0.000087   0.288400  -0.095458
    38  H    0.000235  -0.000013   0.002637  -0.000086  -0.020894   0.002301
    39  C   -0.000093  -0.000047   0.000191   0.000003  -0.025277  -0.004918
    40  H   -0.000051  -0.000002  -0.000008   0.000000  -0.001871   0.010858
    41  H   -0.000006   0.000001   0.000003   0.000000   0.000764   0.000369
    42  H    0.000019   0.000001  -0.000003  -0.000001   0.000868   0.000366
             37         38         39         40         41         42
     1  H    0.000000   0.000000   0.000000   0.000000   0.000000   0.000000
     2  C    0.000000   0.000000  -0.000002   0.000001   0.000000   0.000000
     3  H    0.000000   0.000000   0.000000   0.000000   0.000000   0.000000
     4  H   -0.000001   0.000000  -0.000002   0.000069   0.000000   0.000000
     5  C    0.000000   0.000000   0.000000   0.000000   0.000000   0.000000
     6  O    0.000000   0.000000   0.000000   0.000000   0.000000   0.000000
     7  N    0.000001   0.000000  -0.000001  -0.000001   0.000000   0.000000
     8  H   -0.000015   0.000000   0.000004   0.000011   0.000001   0.000000
     9  C    0.000001   0.000000   0.000000   0.000000   0.000000   0.000000
    10  H    0.000000   0.000000   0.000000   0.000000   0.000000   0.000000
    11  C    0.000000   0.000000   0.000000   0.000000   0.000000   0.000000
    12  H    0.000001   0.000000   0.000000   0.000000   0.000000   0.000000
    13  H    0.000000   0.000000   0.000000   0.000000   0.000000   0.000000
    14  H    0.000000   0.000000   0.000000   0.000000   0.000000   0.000000
    15  C   -0.000006   0.000000   0.000000   0.000000   0.000000   0.000000
    16  O   -0.000079   0.000001   0.000001   0.000002   0.000000   0.000000
    17  N    0.000000   0.000000   0.000000   0.000000   0.000000   0.000000
    18  H    0.000000   0.000000   0.000000   0.000000   0.000000   0.000000
    19  C    0.000000   0.000000   0.000000   0.000000   0.000000   0.000000
    20  H    0.000000   0.000000   0.000000   0.000000   0.000000   0.000000
    21  C    0.000000   0.000000   0.000000   0.000000   0.000000   0.000000
    22  H    0.000000   0.000000   0.000000   0.000000   0.000000   0.000000
    23  H    0.000000   0.000000   0.000000   0.000000   0.000000   0.000000
    24  H    0.000000   0.000000   0.000000   0.000000   0.000000   0.000000
    25  C   -0.000090   0.000001   0.000001   0.000000   0.000000   0.000000
    26  O   -0.000001   0.000001   0.000000   0.000000   0.000000   0.000000
    27  N    0.002627   0.000040  -0.000055  -0.000005   0.000000   0.000001
    28  H    0.000695  -0.000020  -0.000011  -0.000012   0.000000   0.000000
    29  C   -0.112241   0.000992   0.003698   0.000594  -0.000106  -0.000002
[...]
    28  H    0.000006   0.000002   0.001812   0.021484  -0.001694  -0.000121
    29  C    0.000000   0.000000   0.000131   0.000453  -0.000162   0.000006
    30  H    0.000000   0.000000   0.000000  -0.000005  -0.000010   0.000000
    31  C    0.000000   0.000000  -0.000008  -0.000007   0.000008   0.000000
    32  H    0.000000   0.000000   0.000000  -0.000001   0.000000   0.000000
    33  H    0.000000   0.000000   0.000000   0.000000   0.000000   0.000000
    34  H    0.000000   0.000000   0.000000   0.000000  -0.000003   0.000000
    35  C    0.000000   0.000000  -0.000014   0.000080  -0.000006   0.000000
    36  O    0.000000   0.000000  -0.000117  -0.000217   0.000007   0.000000
    37  N    0.000000   0.000000  -0.000001  -0.000002   0.000000   0.000000
    38  H    0.000000   0.000000   0.000000   0.000000   0.000000   0.000000
    39  C    0.000000   0.000000   0.000000   0.000000   0.000000   0.000000
    40  H    0.000000   0.000000   0.000000   0.000000   0.000000   0.000000
    41  H    0.000000   0.000000   0.000000   0.000000   0.000000   0.000000
    42  H    0.000000   0.000000   0.000000   0.000000   0.000000   0.000000
             19         20         21         22         23         24
     1  H    0.000000   0.000000   0.000000   0.000000   0.000000   0.000000
     2  C    0.000000   0.000000   0.000000   0.000000   0.000000   0.000000
     3  H    0.000000   0.000000   0.000000   0.000000   0.000000   0.000000
     4  H    0.000000   0.000000   0.000000   0.000000   0.000000   0.000000
     5  C    0.000000   0.000000   0.000000   0.000000   0.000000   0.000000
     6  O    0.000000   0.000000   0.000000   0.000000   0.000000   0.000000
     7  N   -0.000089   0.000004   0.000001   0.000000   0.000000   0.000000
     8  H   -0.000010   0.000001   0.000000   0.000000   0.000000   0.000000
     9  C    0.003390  -0.000166  -0.000090  -0.000025   0.000002  -0.000019
    10  H    0.000233  -0.000004  -0.000030  -0.000001   0.000000  -0.000002
    11  C   -0.000232  -0.000003  -0.000010  -0.000005   0.000000   0.000003
    12  H    0.000034   0.000000  -0.000002   0.000000   0.000000   0.000000
    13  H   -0.000084   0.000005   0.000014   0.000148   0.000000  -0.000008
    14  H   -0.000001   0.000000   0.000000   0.000000   0.000000   0.000000
    15  C   -0.019257  -0.001378   0.002384  -0.000173  -0.000016  -0.000018
    16  O    0.006761   0.000246   0.000128  -0.000004   0.000001  -0.000002
    17  N    0.116829  -0.044544  -0.055547   0.000200   0.003965  -0.004050
    18  H   -0.027142   0.001748  -0.004987   0.001126   0.000139   0.002462
    19  C    5.019244   0.412298   0.347097  -0.038597  -0.031388  -0.040361
    20  H    0.412298   0.491441  -0.039077   0.004256   0.000145  -0.004549
    21  C    0.347097  -0.039077   5.164975   0.384891   0.391364   0.389816
    22  H   -0.038597   0.004256   0.384891   0.525946  -0.017498  -0.029768
    23  H   -0.031388   0.000145   0.391364  -0.017498   0.438471  -0.021155
    24  H   -0.040361  -0.004549   0.389816  -0.029768  -0.021155   0.530748
    25  C    0.383154  -0.048078  -0.042334  -0.006942  -0.006189   0.005829
    26  O   -0.075557   0.002981  -0.005285   0.000514   0.008314   0.000164
    27  N   -0.089156   0.001688  -0.000142   0.000843   0.000372  -0.000073
    28  H    0.000145  -0.000115   0.000001  -0.000013  -0.000012   0.000001
    29  C    0.004364  -0.000136  -0.000118  -0.000054  -0.000012   0.000003
    30  H    0.000201   0.000021  -0.000019   0.000001  -0.000002   0.000000
    31  C   -0.000349  -0.000003   0.000034   0.000012   0.000003   0.000000
    32  H    0.000000   0.000000  -0.000004   0.000004   0.000000   0.000000
    33  H    0.000004   0.000000  -0.000001   0.000000   0.000000   0.000000
    34  H    0.000055   0.000000   0.000014   0.000008   0.000002   0.000000
    35  C    0.000026  -0.000001   0.000000   0.000000   0.000000   0.000000
    36  O   -0.000019   0.000000   0.000000   0.000000   0.000000   0.000000
    37  N    0.000000   0.000000   0.000000   0.000000   0.000000   0.000000
    38  H    0.000000   0.000000   0.000000   0.000000   0.000000   0.000000
    39  C    0.000000   0.000000   0.000000   0.000000   0.000000   0.000000
    40  H    0.000000   0.000000   0.000000   0.000000   0.000000   0.000000
    41  H    0.000000   0.000000   0.000000   0.000000   0.000000   0.000000
    42  H    0.000000   0.000000   0.000000   0.000000   0.000000   0.000000
             25         26         27         28         29         30
     1  H    0.000000   0.000000   0.000000   0.000000   0.000000   0.000000
     2  C    0.000000   0.000000   0.000000   0.000000   0.000000   0.000000
     3  H    0.000000   0.000000   0.000000   0.000000   0.000000   0.000000
     4  H    0.000000   0.000000   0.000000   0.000000   0.000000   0.000000
     5  C    0.000000   0.000000   0.000000   0.000000   0.000000   0.000000
     6  O    0.000000   0.000000   0.000000   0.000000   0.000000   0.000000
     7  N   -0.000001   0.000000   0.000005  -0.000028   0.000000   0.000000
     8  H   -0.000002   0.000000   0.000003   0.000009   0.000000   0.000000
     9  C    0.000103   0.000000  -0.000417   0.000395   0.000003   0.000000
    10  H   -0.000006   0.000000  -0.000002   0.000002   0.000000   0.000000
    11  C    0.000011   0.000000   0.000080  -0.000096   0.000000   0.000000
    12  H   -0.000014   0.000000   0.000013   0.000203  -0.000002   0.000000
    13  H   -0.000013   0.000000   0.000025   0.000006   0.000000   0.000000
    14  H    0.000000   0.000000   0.000000   0.000002   0.000000   0.000000
    15  C   -0.002736  -0.000008   0.004657   0.001812   0.000131   0.000000
    16  O    0.001136   0.000009  -0.020125   0.021484   0.000453  -0.000005
    17  N   -0.032524   0.002895   0.004570  -0.001694  -0.000162  -0.000010
    18  H    0.001499  -0.000048  -0.000151  -0.000121   0.000006   0.000000
    19  C    0.383154  -0.075557  -0.089156   0.000145   0.004364   0.000201
    20  H   -0.048078   0.002981   0.001688  -0.000115  -0.000136   0.000021
    21  C   -0.042334  -0.005285  -0.000142   0.000001  -0.000118  -0.000019
    22  H   -0.006942   0.000514   0.000843  -0.000013  -0.000054   0.000001
    23  H   -0.006189   0.008314   0.000372  -0.000012  -0.000012  -0.000002
    24  H    0.005829   0.000164  -0.000073   0.000001   0.000003   0.000000
    25  C    4.145728   0.546549   0.318692  -0.008963  -0.035364  -0.001584
    26  O    0.546549   8.248126  -0.103274   0.001527   0.008116   0.006459
    27  N    0.318692  -0.103274   7.432952   0.272460   0.193859  -0.045802
    28  H   -0.008963   0.001527   0.272460   0.232352  -0.026212   0.002285
    29  C   -0.035364   0.008116   0.193859  -0.026212   5.042056   0.413826
    30  H   -0.001584   0.006459  -0.045802   0.002285   0.413826   0.498565
    31  C   -0.002234  -0.005179  -0.061039   0.002104   0.335030  -0.041549
    32  H    0.000188  -0.000002   0.000486   0.000235  -0.039015   0.004081
    33  H    0.000058   0.000024   0.004489  -0.000019  -0.037545   0.000424
    34  H    0.002112   0.005446  -0.005400  -0.000174  -0.029591  -0.003831
    35  C    0.003525   0.000542  -0.032578  -0.005299   0.371030  -0.048133
    36  O    0.000340  -0.000004  -0.006237   0.019741  -0.076946   0.001951
    37  N   -0.000123  -0.000002   0.002269   0.000992  -0.112029   0.004586
    38  H   -0.000010  -0.000002  -0.000011  -0.000038   0.000597   0.001902
    39  C    0.000002   0.000000  -0.000077  -0.000029   0.004602  -0.000056
    40  H    0.000000   0.000000  -0.000005  -0.000004   0.000111  -0.000002
    41  H    0.000000   0.000000   0.000010   0.000004  -0.000166  -0.000004
    42  H    0.000000   0.000000   0.000000   0.000000  -0.000001  -0.000014
             31         32         33         34         35         36
     1  H    0.000000   0.000000   0.000000   0.000000   0.000000   0.000000
     2  C    0.000000   0.000000   0.000000   0.000000   0.000000   0.000000
     3  H    0.000000   0.000000   0.000000   0.000000   0.000000   0.000000
     4  H    0.000000   0.000000   0.000000   0.000000   0.000000   0.000000
     5  C    0.000000   0.000000   0.000000   0.000000   0.000000   0.000000
     6  O    0.000000   0.000000   0.000000   0.000000   0.000000   0.000000
     7  N    0.000000   0.000000   0.000000   0.000000   0.000000  -0.000001
     8  H    0.000000   0.000000   0.000000   0.000000   0.000001   0.000002
     9  C    0.000000   0.000000   0.000000   0.000000  -0.000001   0.000003
    10  H    0.000000   0.000000   0.000000   0.000000   0.000000   0.000000
    11  C    0.000000   0.000000   0.000000   0.000000   0.000000  -0.000022
    12  H    0.000000   0.000002   0.000000   0.000000   0.000003   0.000152
    13  H    0.000000   0.000000   0.000000   0.000000   0.000000   0.000000
    14  H    0.000000   0.000000   0.000000   0.000000   0.000000   0.000000
    15  C   -0.000008   0.000000   0.000000   0.000000  -0.000014  -0.000117
    16  O   -0.000007  -0.000001   0.000000   0.000000   0.000080  -0.000217
    17  N    0.000008   0.000000   0.000000  -0.000003  -0.000006   0.000007
    18  H    0.000000   0.000000   0.000000   0.000000   0.000000   0.000000
    19  C   -0.000349   0.000000   0.000004   0.000055   0.000026  -0.000019
    20  H   -0.000003   0.000000   0.000000   0.000000  -0.000001   0.000000
    21  C    0.000034  -0.000004  -0.000001   0.000014   0.000000   0.000000
    22  H    0.000012   0.000004   0.000000   0.000008   0.000000   0.000000
    23  H    0.000003   0.000000   0.000000   0.000002   0.000000   0.000000
    24  H    0.000000   0.000000   0.000000   0.000000   0.000000   0.000000
    25  C   -0.002234   0.000188   0.000058   0.002112   0.003525   0.000340
    26  O   -0.005179  -0.000002   0.000024   0.005446   0.000542  -0.000004
    27  N   -0.061039   0.000486   0.004489  -0.005400  -0.032578  -0.006237
    28  H    0.002104   0.000235  -0.000019  -0.000174  -0.005299   0.019741
    29  C    0.335030  -0.039015  -0.037545  -0.029591   0.371030  -0.076946
    30  H   -0.041549   0.004081   0.000424  -0.003831  -0.048133   0.001951
    31  C    5.149521   0.388730   0.381862   0.391826  -0.049160  -0.000877
    32  H    0.388730   0.513430  -0.024139  -0.023213  -0.004429   0.002194
    33  H    0.381862  -0.024139   0.537875  -0.023024  -0.003404   0.000018
    34  H    0.391826  -0.023213  -0.023024   0.473018   0.004265  -0.000068
    35  C   -0.049160  -0.004429  -0.003404   0.004265   4.181123   0.593610
    36  O   -0.000877   0.002194   0.000018  -0.000068   0.593610   8.175552
    37  N    0.000264   0.000504   0.002537  -0.000064   0.277519  -0.103602
    38  H    0.000209   0.000005   0.000287  -0.000031  -0.021271   0.002531
    39  C   -0.000281  -0.000007  -0.000030   0.000003  -0.029253   0.008522
    40  H    0.000017   0.000002  -0.000014   0.000000  -0.002868   0.003312
    41  H   -0.000007   0.000000   0.000004   0.000000  -0.003716   0.001215
    42  H    0.000006   0.000000  -0.000006   0.000000   0.004570   0.000361
             37         38         39         40         41         42
     1  H    0.000000   0.000000   0.000000   0.000000   0.000000   0.000000
     2  C    0.000000   0.000000   0.000000   0.000000   0.000000   0.000000
     3  H    0.000000   0.000000   0.000000   0.000000   0.000000   0.000000
     4  H    0.000000   0.000000   0.000000   0.000000   0.000000   0.000000
     5  C    0.000000   0.000000   0.000000   0.000000   0.000000   0.000000
     6  O    0.000000   0.000000   0.000000   0.000000   0.000000   0.000000
     7  N    0.000000   0.000000   0.000000   0.000000   0.000000   0.000000
     8  H    0.000000   0.000000   0.000000   0.000000   0.000000   0.000000
     9  C    0.000000   0.000000   0.000000   0.000000   0.000000   0.000000
    10  H    0.000000   0.000000   0.000000   0.000000   0.000000   0.000000
    11  C    0.000000   0.000000   0.000000   0.000000   0.000000   0.000000
    12  H    0.000000   0.000000   0.000000   0.000000   0.000000   0.000000
    13  H    0.000000   0.000000   0.000000   0.000000   0.000000   0.000000
    14  H    0.000000   0.000000   0.000000   0.000000   0.000000   0.000000
    15  C   -0.000001   0.000000   0.000000   0.000000   0.000000   0.000000
    16  O   -0.000002   0.000000   0.000000   0.000000   0.000000   0.000000
    17  N    0.000000   0.000000   0.000000   0.000000   0.000000   0.000000
    18  H    0.000000   0.000000   0.000000   0.000000   0.000000   0.000000
    19  C    0.000000   0.000000   0.000000   0.000000   0.000000   0.000000
    20  H    0.000000   0.000000   0.000000   0.000000   0.000000   0.000000
    21  C    0.000000   0.000000   0.000000   0.000000   0.000000   0.000000
    22  H    0.000000   0.000000   0.000000   0.000000   0.000000   0.000000
    23  H    0.000000   0.000000   0.000000   0.000000   0.000000   0.000000
    24  H    0.000000   0.000000   0.000000   0.000000   0.000000   0.000000
    25  C   -0.000123  -0.000010   0.000002   0.000000   0.000000   0.000000
    26  O   -0.000002  -0.000002   0.000000   0.000000   0.000000   0.000000
    27  N    0.002269  -0.000011  -0.000077  -0.000005   0.000010   0.000000
    28  H    0.000992  -0.000038  -0.000029  -0.000004   0.000004   0.000000
    29  C   -0.112029   0.000597   0.004602   0.000111  -0.000166  -0.000001
    30  H    0.004586   0.001902  -0.000056  -0.000002  -0.000004  -0.000014
    31  C    0.000264   0.000209  -0.000281   0.000017  -0.000007   0.000006
    32  H    0.000504   0.000005  -0.000007   0.000002   0.000000   0.000000
    33  H    0.002537   0.000287  -0.000030  -0.000014   0.000004  -0.000006
    34  H   -0.000064  -0.000031   0.000003   0.000000   0.000000   0.000000
    35  C    0.277519  -0.021271  -0.029253  -0.002868  -0.003716   0.004570
    36  O   -0.103602   0.002531   0.008522   0.003312   0.001215   0.000361
    37  N    7.326138   0.327888   0.196828  -0.040600  -0.045770  -0.037551
    38  H    0.327888   0.322692  -0.022532   0.002561   0.001306  -0.004555
    39  C    0.196828  -0.022532   4.906717   0.404239   0.406337   0.397287
    40  H   -0.040600   0.002561   0.404239   0.489382  -0.032919  -0.024941
    41  H   -0.045770   0.001306   0.406337  -0.032919   0.521447  -0.031388
    42  H   -0.037551  -0.004555   0.397287  -0.024941  -0.031388   0.526204
 Mulliken atomic charges:
              1
     1  H    0.208649
     2  C   -0.576923
     3  H    0.175637
     4  H    0.202873
     5  C    0.756308
     6  O   -0.622569
     7  N   -0.820586
     8  H    0.421514
     9  C   -0.041970
    10  H    0.220902
    11  C   -0.494796
    12  H    0.192979
    13  H    0.154824
    14  H    0.213244
    15  C    0.796972
    16  O   -0.646420
    17  N   -0.851759
    18  H    0.397618
    19  C    0.028403
    20  H    0.223220
    21  C   -0.533074
    22  H    0.175128
    23  H    0.233492
    24  H    0.170977
    25  C    0.778190
    26  O   -0.642305
    27  N   -0.872985
    28  H    0.487060
    29  C   -0.016834
    30  H    0.206708
    31  C   -0.488932
    32  H    0.180948
    33  H    0.160598
    34  H    0.208651
    35  C    0.763838
    36  O   -0.621402
    37  N   -0.799783
    38  H    0.388471
    39  C   -0.272273
    40  H    0.201729
    41  H    0.183647
    42  H    0.170030
 Sum of Mulliken atomic charges =   0.00000
 Mulliken charges with hydrogens summed into heavy atoms:
              1
     2  C    0.010236
     5  C    0.756308
     6  O   -0.622569
     7  N   -0.399072
     9  C    0.178931
    11  C    0.066251
    15  C    0.796972
    16  O   -0.646420
    17  N   -0.454141
    19  C    0.251623
    21  C    0.046524
    25  C    0.778190
    26  O   -0.642305
    27  N   -0.385926
    29  C    0.189873
    31  C    0.061265
    35  C    0.763838
    36  O   -0.621402
    37  N   -0.411311
    39  C    0.283134
 Sum of Mulliken charges with hydrogens summed into heavy atoms =   0.00000
 Electronic spatial extent (au):  <R**2>=           7820.4590
 Charge=              0.0000 electrons
 Dipole moment (field-independent basis, Debye):
    X=              2.9381    Y=             -0.9034    Z=             -0.3386  Tot=              3.0924
 Quadrupole moment (field-independent basis, Debye-Ang):
   XX=           -126.6171   YY=           -109.3945   ZZ=           -120.8717
   XY=            -12.0123   XZ=              4.7578   YZ=              7.8805
 Traceless Quadrupole moment (field-independent basis, Debye-Ang):
   XX=             -7.6560   YY=              9.5666   ZZ=             -1.9106
   XY=            -12.0123   XZ=              4.7578   YZ=              7.8805
 Octapole moment (field-independent basis, Debye-Ang**2):
  XXX=            226.5867  YYY=            -23.6310  ZZZ=             -2.6329  XYY=            -30.5316
  XXY=           -110.3904  XXZ=            -51.3259  XZZ=             -2.0950  YZZ=             -3.4316
  YYZ=             -3.9814  XYZ=             12.4640
 Hexadecapole moment (field-independent basis, Debye-Ang**3):
 XXXX=          -7240.9815 YYYY=          -2755.9264 ZZZZ=           -558.8774 XXXY=           -140.9803
 XXXZ=            176.1817 YYYX=           -154.4577 YYYZ=             33.9323 ZZZX=            -15.2988
 ZZZY=             -8.8837 XXYY=          -1431.3370 XXZZ=          -1203.0407 YYZZ=           -583.3844
 XXYZ=            109.0726 YYXZ=              2.0534 ZZXY=             -3.3791
 N-N= 1.655544639599D+03 E-N=-5.619150639678D+03  KE= 9.830874452952D+02
 1\1\GINC-NODE007\FOpt\RHF\6-31G(d)\C12H22N4O4\MANAGER\27-Dec-2016\0\\#
  HF/6-31G* Opt=(ModRedundant, maxcycles=1000, calcfc) geom=nocrowd\\Ph
 i Psi fixed scan\\0,1\H,7.0373586658,0.6144304927,-2.9512657773\C,7.68
 16138638,1.2142846143,-2.3230775328\H,8.3628987343,1.7872820439,-2.940
 2782586\H,8.2610974463,0.5419526819,-1.6990642108\C,6.8200290825,2.079
 6952855,-1.4299446685\O,5.8011767635,1.6680092086,-0.9389007909\N,7.27
 98227521,3.3277495275,-1.2041745226\H,8.127923285,3.6494973947,-1.6139
 953428\C,6.5865291662,4.2548494454,-0.3463072512\H,5.5234107017,4.1309
 180681,-0.5073065142\C,6.9018370593,4.0180086782,1.138236028\H,7.96227
 08251,4.1482487338,1.324357297\H,6.3525483363,4.7037809582,1.776016376
 5\H,6.6187961443,3.0075867186,1.4017034108\C,7.0153289246,5.663272911,
 -0.7481750365\O,8.0713244719,5.853378439,-1.29715632\N,6.130470832,6.6
 329726165,-0.4453244109\H,5.314520119,6.3094282544,0.0239243906\C,6.27
 98006665,8.0924832645,-0.3818997846\H,6.0754385797,8.4902247712,-1.369
 7679382\C,5.1990063045,8.6147691997,0.5698357111\H,5.371661005,8.25649
 64008,1.5804140445\H,5.2066872741,9.692930664,0.5776333421\H,4.2195835
 311,8.2768559592,0.2453937479\C,7.6150413149,8.7710275599,-0.012355842
 9\O,7.5835672247,9.9775656752,0.0258799805\N,8.7201671121,8.0744380125
 ,0.2734127396\H,8.8037695552,7.1160989394,0.0139433336\C,9.9462302753,
 8.7651627509,0.6156502558\H,10.0581548103,9.6232731877,-0.0359986152\C
 ,9.9425535508,9.2451231931,2.0727764872\H,9.8471971507,8.3983965669,2.
 7431096137\H,10.8604860284,9.7730935691,2.3099495028\H,9.1099712803,9.
 9174695582,2.2290810972\C,11.1030827003,7.7948949435,0.4018709277\O,10
 .9608440414,6.6063553075,0.5147541162\N,12.2937490291,8.366486765,0.13
 78696194\H,12.326714414,9.3384670152,-0.0640748348\C,13.4852581516,7.5
 719064509,-0.0753530084\H,13.5960395957,6.8523358681,0.722952632\H,13.
 445674488,7.0360950657,-1.0169492329\H,14.3441647425,8.2295032396,-0.0
 788947597\\Version=EM64L-G09RevA.02\State=1-A\HF=-984.5499922\RMSD=8.0
 48e-09\RMSF=2.275e-03\Dipole=0.9127569,0.7994626,0.0894277\Quadrupole=
 11.6140402,-12.6233923,1.009352,-0.9788103,-3.3640572,3.0333548\PG=C01
  [X(C12H22N4O4)]\\@


 Any fool can criticize, condemn, and complain -- and most do.
 -- Dale Carnegie
 Job cpu time:  0 days  3 hours 33 minutes 47.7 seconds.
 File lengths (MBytes):  RWF=    553 Int=      0 D2E=      0 Chk=     11 Scr=      1
 Normal termination of Gaussian 09 at Tue Dec 27 12:31:18 2016.
