 Entering Gaussian System, Link 0=g09
 Initial command:
 /home/steboss/Software/g09/l1.exe /home/steboss/projects/phi_psi_scan/alanine/MP2/345/5627/Gau-22117.inp -scrdir=/home/steboss/projects/phi_psi_scan/alanine/MP2/345/5627/
 Entering Link 1 = /home/steboss/Software/g09/l1.exe PID=     22119.
  
 Copyright (c) 1988,1990,1992,1993,1995,1998,2003,2009, Gaussian, Inc.
                  All Rights Reserved.
  
 This is part of the Gaussian(R) 09 program.  It is based on
 the Gaussian(R) 03 system (copyright 2003, Gaussian, Inc.),
 the Gaussian(R) 98 system (copyright 1998, Gaussian, Inc.),
 the Gaussian(R) 94 system (copyright 1995, Gaussian, Inc.),
 the Gaussian 92(TM) system (copyright 1992, Gaussian, Inc.),
 the Gaussian 90(TM) system (copyright 1990, Gaussian, Inc.),
 the Gaussian 88(TM) system (copyright 1988, Gaussian, Inc.),
 the Gaussian 86(TM) system (copyright 1986, Carnegie Mellon
 University), and the Gaussian 82(TM) system (copyright 1983,
 Carnegie Mellon University). Gaussian is a federally registered
 trademark of Gaussian, Inc.
  
 This software contains proprietary and confidential information,
 including trade secrets, belonging to Gaussian, Inc.
  
 This software is provided under written license and may be
 used, copied, transmitted, or stored only in accord with that
 written license.
  
 The following legend is applicable only to US Government
 contracts under FAR:
  
                    RESTRICTED RIGHTS LEGEND
  
 Use, reproduction and disclosure by the US Government is
 subject to restrictions as set forth in subparagraphs (a)
 and (c) of the Commercial Computer Software - Restricted
 Rights clause in FAR 52.227-19.
  
 Gaussian, Inc.
 340 Quinnipiac St., Bldg. 40, Wallingford CT 06492
  
  
 ---------------------------------------------------------------
 Warning -- This program may not be used in any manner that
 competes with the business of Gaussian, Inc. or will provide
 assistance to any competitor of Gaussian, Inc.  The licensee
 of this program is prohibited from giving any competitor of
 Gaussian, Inc. access to this program.  By using this program,
 the user acknowledges that Gaussian, Inc. is engaged in the
 business of creating and licensing software in the field of
 computational chemistry and represents and warrants to the
 licensee that it is not a competitor of Gaussian, Inc. and that
 it will not use this program in any manner prohibited above.
 ---------------------------------------------------------------
  

 Cite this work as:
 Gaussian 09, Revision A.02,
 M. J. Frisch, G. W. Trucks, H. B. Schlegel, G. E. Scuseria, 
 M. A. Robb, J. R. Cheeseman, G. Scalmani, V. Barone, B. Mennucci, 
 G. A. Petersson, H. Nakatsuji, M. Caricato, X. Li, H. P. Hratchian, 
 A. F. Izmaylov, J. Bloino, G. Zheng, J. L. Sonnenberg, M. Hada, 
 M. Ehara, K. Toyota, R. Fukuda, J. Hasegawa, M. Ishida, T. Nakajima, 
 Y. Honda, O. Kitao, H. Nakai, T. Vreven, J. A. Montgomery, Jr., 
 J. E. Peralta, F. Ogliaro, M. Bearpark, J. J. Heyd, E. Brothers, 
 K. N. Kudin, V. N. Staroverov, R. Kobayashi, J. Normand, 
 K. Raghavachari, A. Rendell, J. C. Burant, S. S. Iyengar, J. Tomasi, 
 M. Cossi, N. Rega, J. M. Millam, M. Klene, J. E. Knox, J. B. Cross, 
 V. Bakken, C. Adamo, J. Jaramillo, R. Gomperts, R. E. Stratmann, 
 O. Yazyev, A. J. Austin, R. Cammi, C. Pomelli, J. W. Ochterski, 
 R. L. Martin, K. Morokuma, V. G. Zakrzewski, G. A. Voth, 
 P. Salvador, J. J. Dannenberg, S. Dapprich, A. D. Daniels, 
 O. Farkas, J. B. Foresman, J. V. Ortiz, J. Cioslowski, 
 and D. J. Fox, Gaussian, Inc., Wallingford CT, 2009.
 
 ******************************************
 Gaussian 09:  EM64L-G09RevA.02 11-Jun-2009
                13-Feb-2017 
 ******************************************
 %chk=structure_30.chk
 %NProcShared=8
 Will use up to    8 processors via shared memory.
 -------------------
 #SP MP2/aug-cc-pVDZ
 -------------------
 1/38=1/1;
 2/12=2,17=6,18=5,40=1/2;
 3/5=16,7=10,11=9,16=1,25=1,30=1/1,2,3;
 4//1;
 5/5=2,38=5/2;
 8/10=1/1;
 9/16=-3/6;
 6/7=2,8=2,9=2,10=2/1;
 99/5=1,9=1/99;
 -------------------------------
 Single Point calculation at MP2
 -------------------------------
 Symbolic Z-matrix:
 Charge =  0 Multiplicity = 1
 H                    -3.8849   -1.0663   -0.4925 
 C                    -3.3702   -0.4234    0.2273 
 H                    -3.5817   -0.8184    1.2259 
 H                    -3.7763    0.5901    0.1552 
 C                    -1.8695   -0.5248   -0.0219 
 O                    -1.3373   -1.6368   -0.0196 
 N                    -1.2544    0.6679   -0.2492 
 H                    -1.8876    1.4547   -0.2093 
 C                     0.1436    1.1454   -0.4345 
 H                     0.273     1.3163   -1.5145 
 C                     0.2485    2.5028    0.2725 
 H                     0.0942    2.3889    1.3507 
 H                     1.2421    2.9191    0.1101 
 H                    -0.5004    3.2032   -0.1183 
 C                     1.3852    0.2773   -0.0624 
 O                     2.4373    0.8757    0.163 
 N                     1.3062   -1.0626   -0.1396 
 H                     0.3806   -1.497    -0.1836 
 C                     2.482    -1.8736    0.1297 
 H                     3.3077   -1.577    -0.5242 
 H                     2.8224   -1.7642    1.1668 
 H                     2.2311   -2.9205   -0.0563 
 
                          Input orientation:                          
 ---------------------------------------------------------------------
 Center     Atomic      Atomic             Coordinates (Angstroms)
 Number     Number       Type             X           Y           Z
 ---------------------------------------------------------------------
      1          1           0       -3.884900   -1.066300   -0.492500
      2          6           0       -3.370200   -0.423400    0.227300
      3          1           0       -3.581700   -0.818400    1.225900
      4          1           0       -3.776300    0.590100    0.155200
      5          6           0       -1.869500   -0.524800   -0.021900
      6          8           0       -1.337300   -1.636800   -0.019600
      7          7           0       -1.254400    0.667900   -0.249200
      8          1           0       -1.887600    1.454700   -0.209300
      9          6           0        0.143600    1.145400   -0.434500
     10          1           0        0.273000    1.316300   -1.514500
     11          6           0        0.248500    2.502800    0.272500
     12          1           0        0.094200    2.388900    1.350700
     13          1           0        1.242100    2.919100    0.110100
     14          1           0       -0.500400    3.203200   -0.118300
     15          6           0        1.385200    0.277300   -0.062400
     16          8           0        2.437300    0.875700    0.163000
     17          7           0        1.306200   -1.062600   -0.139600
     18          1           0        0.380600   -1.497000   -0.183600
     19          6           0        2.482000   -1.873600    0.129700
     20          1           0        3.307700   -1.577000   -0.524200
     21          1           0        2.822400   -1.764200    1.166800
     22          1           0        2.231100   -2.920500   -0.056300
 ---------------------------------------------------------------------
                    Distance matrix (angstroms):
                    1          2          3          4          5
     1  H    0.000000
     2  C    1.093777   0.000000
     3  H    1.762465   1.094513   0.000000
     4  H    1.781845   1.094211   1.779927   0.000000
     5  C    2.139281   1.524626   2.138886   2.215909   0.000000
     6  O    2.653181   2.380332   2.694138   3.307319   1.232796
     7  N    3.160091   2.427879   3.130708   2.555303   1.361083
     8  H    3.228754   2.432279   3.177540   2.108929   1.988433
     9  C    4.596063   3.904600   4.526732   4.002714   2.648090
    10  H    4.899939   4.396968   5.188974   4.439831   3.194966
    11  C    5.514408   4.653996   5.158466   4.457712   3.706610
    12  H    5.582923   4.601427   4.880019   4.432344   3.772240
    13  H    6.521708   5.697311   6.203464   5.532686   4.643267
    14  H    5.461089   4.637609   5.241617   4.199359   3.972620
    15  C    5.455658   4.815468   5.246939   5.175546   3.352324
    16  O    6.646146   5.951374   6.342562   6.220165   4.532562
    17  N    5.203083   4.734122   5.080924   5.352582   3.223066
    18  H    4.298303   3.923003   4.259931   4.663753   2.456475
    19  C    6.447967   6.029996   6.251685   6.725830   4.558267
    20  H    7.210778   6.818350   7.148577   7.439151   5.306866
    21  H    6.944654   6.405365   6.473834   7.078764   4.996303
    22  H    6.405762   6.139259   6.312805   6.961171   4.749261
                    6          7          8          9         10
     6  O    0.000000
     7  N    2.317592   0.000000
     8  H    3.145821   1.010737   0.000000
     9  C    3.178969   1.488874   2.066919   0.000000
    10  H    3.680841   2.086710   2.528022   1.101068   0.000000
    11  C    4.442564   2.428526   2.427667   1.534076   2.145169
    12  H    4.487001   2.709288   2.689584   2.176160   3.064606
    13  H    5.237017   3.380756   3.470087   2.156224   2.479405
    14  H    4.912814   2.648282   2.233799   2.179280   2.471419
    15  C    3.328305   2.674874   3.481245   1.560009   2.103593
    16  O    4.538018   3.720449   4.379339   2.385541   2.773505
    17  N    2.707803   3.092461   4.067188   2.512741   2.935476
    18  H    1.731364   2.713728   3.722623   2.664845   3.114086
    19  C    3.829545   4.534697   5.503263   3.860155   4.214088
    20  H    4.672710   5.091950   6.023413   4.175049   4.308281
    21  H    4.327457   4.953833   5.868481   4.266838   4.814384
    22  H    3.792455   5.006250   6.010780   4.586091   4.889885
                   11         12         13         14         15
    11  C    0.000000
    12  H    1.095124   0.000000
    13  H    1.089459   1.771405   0.000000
    14  H    1.097331   1.781739   1.780221   0.000000
    15  C    2.521328   2.849980   2.651290   3.481308   0.000000
    16  O    2.729522   3.031588   2.367865   3.758519   1.231179
    17  N    3.741742   3.950037   3.990037   4.632635   1.344445
    18  H    4.027887   4.187639   4.508922   4.782500   2.042560
    19  C    4.915464   5.036004   4.950526   5.893226   2.422033
    20  H    5.161221   5.437848   4.988382   6.125087   2.710663
    21  H    5.062808   4.972437   5.054430   6.112900   2.782840
    22  H    5.783684   5.893702   5.925094   6.705568   3.307795
                   16         17         18         19         20
    16  O    0.000000
    17  N    2.264500   0.000000
    18  H    3.159090   1.023413   0.000000
    19  C    2.749865   1.453530   2.157746   0.000000
    20  H    2.691761   2.102029   2.947935   1.094229   0.000000
    21  H    2.850437   2.120798   2.803099   1.097004   1.769192
    22  H    3.808116   2.077058   2.338142   1.092496   1.784094
                   21         22
    21  H    0.000000
    22  H    1.783995   0.000000
 Stoichiometry    C6H12N2O2
 Framework group  C1[X(C6H12N2O2)]
 Deg. of freedom    60
 Full point group                 C1      NOp   1
 Largest Abelian subgroup         C1      NOp   1
 Largest concise Abelian subgroup C1      NOp   1
                         Standard orientation:                         
 ---------------------------------------------------------------------
 Center     Atomic      Atomic             Coordinates (Angstroms)
 Number     Number       Type             X           Y           Z
 ---------------------------------------------------------------------
      1          1           0       -3.884912   -1.066267   -0.492497
      2          6           0       -3.370208   -0.423370    0.227303
      3          1           0       -3.581710   -0.818369    1.225903
      4          1           0       -3.776301    0.590132    0.155203
      5          6           0       -1.869509   -0.524780   -0.021897
      6          8           0       -1.337316   -1.636784   -0.019597
      7          7           0       -1.254401    0.667916   -0.249197
      8          1           0       -1.887596    1.454720   -0.209297
      9          6           0        0.143602    1.145407   -0.434497
     10          1           0        0.273003    1.316306   -1.514497
     11          6           0        0.248511    2.502806    0.272503
     12          1           0        0.094210    2.388907    1.350703
     13          1           0        1.242114    2.919100    0.110103
     14          1           0       -0.500384    3.203211   -0.118297
     15          6           0        1.385197    0.277299   -0.062397
     16          8           0        2.437301    0.875692    0.163003
     17          7           0        1.306188   -1.062601   -0.139597
     18          1           0        0.380585   -1.496995   -0.183597
     19          6           0        2.481983   -1.873608    0.129703
     20          1           0        3.307685   -1.577014   -0.524197
     21          1           0        2.822383   -1.764211    1.166803
     22          1           0        2.231076   -2.920507   -0.056297
 ---------------------------------------------------------------------
 Rotational constants (GHZ):      1.8280563      0.9503814      0.6465528
 Standard basis: Aug-CC-pVDZ (5D, 7F)
 There are   338 symmetry adapted basis functions of A   symmetry.
 Integral buffers will be    131072 words long.
 Raffenetti 1 integral format.
 Two-electron integral symmetry is turned on.
   338 basis functions,   562 primitive gaussians,   358 cartesian basis functions
    39 alpha electrons       39 beta electrons
       nuclear repulsion energy       556.5980591210 Hartrees.
 NAtoms=   22 NActive=   22 NUniq=   22 SFac= 7.50D-01 NAtFMM=   80 NAOKFM=F Big=F
 One-electron integrals computed using PRISM.
 NBasis=   338 RedAO= T  NBF=   338
 NBsUse=   338 1.00D-06 NBFU=   338
 Harris functional with IExCor=  205 diagonalized for initial guess.
 ExpMin= 2.97D-02 ExpMax= 1.17D+04 ExpMxC= 4.01D+02 IAcc=3 IRadAn=         0 AccDes= 0.00D+00
 HarFok:  IExCor=  205 AccDes= 0.00D+00 IRadAn=         0 IDoV= 1
 ScaDFX=  1.000000  1.000000  1.000000  1.000000
 FoFCou: FMM=F IPFlag=           0 FMFlag=      100000 FMFlg1=           0
         NFxFlg=           0 DoJE=T BraDBF=F KetDBF=T FulRan=T
         Omega=  0.000000  0.000000  1.000000  0.000000  0.000000 ICntrl=     500 IOpCl=  0
         NMat0=    1 NMatS0=    1 NMatT0=    0 NMatD0=    1 NMtDS0=    0 NMtDT0=    0
         I1Cent=           4 NGrid=           0.
 Petite list used in FoFCou.
 Initial guess orbital symmetries:
       Occupied  (A) (A) (A) (A) (A) (A) (A) (A) (A) (A) (A) (A)
                 (A) (A) (A) (A) (A) (A) (A) (A) (A) (A) (A) (A)
                 (A) (A) (A) (A) (A) (A) (A) (A) (A) (A) (A) (A)
                 (A) (A) (A)
       Virtual   (A) (A) (A) (A) (A) (A) (A) (A) (A) (A) (A) (A)
                 (A) (A) (A) (A) (A) (A) (A) (A) (A) (A) (A) (A)
                 (A) (A) (A) (A) (A) (A) (A) (A) (A) (A) (A) (A)
                 (A) (A) (A) (A) (A) (A) (A) (A) (A) (A) (A) (A)
                 (A) (A) (A) (A) (A) (A) (A) (A) (A) (A) (A) (A)
                 (A) (A) (A) (A) (A) (A) (A) (A) (A) (A) (A) (A)
                 (A) (A) (A) (A) (A) (A) (A) (A) (A) (A) (A) (A)
                 (A) (A) (A) (A) (A) (A) (A) (A) (A) (A) (A) (A)
                 (A) (A) (A) (A) (A) (A) (A) (A) (A) (A) (A) (A)
                 (A) (A) (A) (A) (A) (A) (A) (A) (A) (A) (A) (A)
                 (A) (A) (A) (A) (A) (A) (A) (A) (A) (A) (A) (A)
                 (A) (A) (A) (A) (A) (A) (A) (A) (A) (A) (A) (A)
                 (A) (A) (A) (A) (A) (A) (A) (A) (A) (A) (A) (A)
                 (A) (A) (A) (A) (A) (A) (A) (A) (A) (A) (A) (A)
                 (A) (A) (A) (A) (A) (A) (A) (A) (A) (A) (A) (A)
                 (A) (A) (A) (A) (A) (A) (A) (A) (A) (A) (A) (A)
                 (A) (A) (A) (A) (A) (A) (A) (A) (A) (A) (A) (A)
                 (A) (A) (A) (A) (A) (A) (A) (A) (A) (A) (A) (A)
                 (A) (A) (A) (A) (A) (A) (A) (A) (A) (A) (A) (A)
                 (A) (A) (A) (A) (A) (A) (A) (A) (A) (A) (A) (A)
                 (A) (A) (A) (A) (A) (A) (A) (A) (A) (A) (A) (A)
                 (A) (A) (A) (A) (A) (A) (A) (A) (A) (A) (A) (A)
                 (A) (A) (A) (A) (A) (A) (A) (A) (A) (A) (A) (A)
                 (A) (A) (A) (A) (A) (A) (A) (A) (A) (A) (A) (A)
                 (A) (A) (A) (A) (A) (A) (A) (A) (A) (A) (A)
 The electronic state of the initial guess is 1-A.
 Requested convergence on RMS density matrix=1.00D-08 within 128 cycles.
 Requested convergence on MAX density matrix=1.00D-06.
 Requested convergence on             energy=1.00D-06.
 No special actions if energy rises.
 Initial convergence to 1.0D-05 achieved.  Increase integral accuracy.
 SCF Done:  E(RHF) =  -492.910919692     A.U. after   14 cycles
             Convg  =    0.6194D-08             -V/T =  2.0017
 ExpMin= 2.97D-02 ExpMax= 1.17D+04 ExpMxC= 4.01D+02 IAcc=3 IRadAn=         5 AccDes= 0.00D+00
 HarFok:  IExCor=  205 AccDes= 0.00D+00 IRadAn=         5 IDoV=-2
 ScaDFX=  1.000000  1.000000  1.000000  1.000000
 Range of M.O.s used for correlation:    11   338
 NBasis=   338 NAE=    39 NBE=    39 NFC=    10 NFV=     0
 NROrb=    328 NOA=    29 NOB=    29 NVA=   299 NVB=   299

 **** Warning!!: The largest alpha MO coefficient is  0.87645467D+02

 Disk-based method using OVN memory for 29 occupieds at a time.
 Estimated scratch disk usage=  1383486320 words.
 Actual    scratch disk usage=  1370675323 words.
 JobTyp=1 Pass  1:  I=   1 to  29 NPSUse=  8 ParTrn=T ParDer=T DoDerP=F.
 Spin components of T(2) and E(2):
     alpha-alpha T2 =       0.6827714820D-01 E2=     -0.2065925191D+00
     alpha-beta  T2 =       0.3776065160D+00 E2=     -0.1191962742D+01
     beta-beta   T2 =       0.6827714820D-01 E2=     -0.2065925191D+00
 ANorm=    0.1230512419D+01
 E2 =    -0.1605147780D+01 EUMP2 =    -0.49451606747228D+03

 **********************************************************************

            Population analysis using the SCF density.

 **********************************************************************

 Orbital symmetries:
       Occupied  (A) (A) (A) (A) (A) (A) (A) (A) (A) (A) (A) (A)
                 (A) (A) (A) (A) (A) (A) (A) (A) (A) (A) (A) (A)
                 (A) (A) (A) (A) (A) (A) (A) (A) (A) (A) (A) (A)
                 (A) (A) (A)
       Virtual   (A) (A) (A) (A) (A) (A) (A) (A) (A) (A) (A) (A)
                 (A) (A) (A) (A) (A) (A) (A) (A) (A) (A) (A) (A)
                 (A) (A) (A) (A) (A) (A) (A) (A) (A) (A) (A) (A)
                 (A) (A) (A) (A) (A) (A) (A) (A) (A) (A) (A) (A)
                 (A) (A) (A) (A) (A) (A) (A) (A) (A) (A) (A) (A)
                 (A) (A) (A) (A) (A) (A) (A) (A) (A) (A) (A) (A)
                 (A) (A) (A) (A) (A) (A) (A) (A) (A) (A) (A) (A)
                 (A) (A) (A) (A) (A) (A) (A) (A) (A) (A) (A) (A)
                 (A) (A) (A) (A) (A) (A) (A) (A) (A) (A) (A) (A)
                 (A) (A) (A) (A) (A) (A) (A) (A) (A) (A) (A) (A)
                 (A) (A) (A) (A) (A) (A) (A) (A) (A) (A) (A) (A)
                 (A) (A) (A) (A) (A) (A) (A) (A) (A) (A) (A) (A)
                 (A) (A) (A) (A) (A) (A) (A) (A) (A) (A) (A) (A)
                 (A) (A) (A) (A) (A) (A) (A) (A) (A) (A) (A) (A)
                 (A) (A) (A) (A) (A) (A) (A) (A) (A) (A) (A) (A)
                 (A) (A) (A) (A) (A) (A) (A) (A) (A) (A) (A) (A)
                 (A) (A) (A) (A) (A) (A) (A) (A) (A) (A) (A) (A)
                 (A) (A) (A) (A) (A) (A) (A) (A) (A) (A) (A) (A)
                 (A) (A) (A) (A) (A) (A) (A) (A) (A) (A) (A) (A)
                 (A) (A) (A) (A) (A) (A) (A) (A) (A) (A) (A) (A)
                 (A) (A) (A) (A) (A) (A) (A) (A) (A) (A) (A) (A)
                 (A) (A) (A) (A) (A) (A) (A) (A) (A) (A) (A) (A)
                 (A) (A) (A) (A) (A) (A) (A) (A) (A) (A) (A) (A)
                 (A) (A) (A) (A) (A) (A) (A) (A) (A) (A) (A) (A)
                 (A) (A) (A) (A) (A) (A) (A) (A) (A) (A) (A)
 The electronic state is 1-A.
 Alpha  occ. eigenvalues --  -20.54819 -20.51933 -15.61924 -15.57042 -11.38635
 Alpha  occ. eigenvalues --  -11.35395 -11.30758 -11.26051 -11.25411 -11.23785
 Alpha  occ. eigenvalues --   -1.40212  -1.37404  -1.25636  -1.21570  -1.06411
 Alpha  occ. eigenvalues --   -1.00056  -0.95029  -0.87735  -0.82228  -0.77018
 Alpha  occ. eigenvalues --   -0.71278  -0.70237  -0.67223  -0.63174  -0.62576
 Alpha  occ. eigenvalues --   -0.60816  -0.60217  -0.59516  -0.58064  -0.55802
 Alpha  occ. eigenvalues --   -0.54027  -0.53540  -0.52912  -0.52186  -0.50105
 Alpha  occ. eigenvalues --   -0.44032  -0.42613  -0.40409  -0.37593
 Alpha virt. eigenvalues --    0.02378   0.04051   0.04383   0.04505   0.05602
 Alpha virt. eigenvalues --    0.06272   0.06466   0.06701   0.07226   0.08013
 Alpha virt. eigenvalues --    0.09268   0.09520   0.11605   0.12062   0.12566
 Alpha virt. eigenvalues --    0.12973   0.14049   0.14242   0.14891   0.15353
 Alpha virt. eigenvalues --    0.15712   0.16087   0.16254   0.16624   0.17054
 Alpha virt. eigenvalues --    0.17693   0.18105   0.18577   0.19178   0.19590
 Alpha virt. eigenvalues --    0.19819   0.20269   0.20448   0.21903   0.22253
 Alpha virt. eigenvalues --    0.23828   0.24473   0.25146   0.25512   0.26574
 Alpha virt. eigenvalues --    0.27184   0.29115   0.29653   0.30104   0.30476
 Alpha virt. eigenvalues --    0.31679   0.32119   0.32455   0.32939   0.33698
 Alpha virt. eigenvalues --    0.34127   0.34678   0.35221   0.35607   0.36298
 Alpha virt. eigenvalues --    0.37333   0.38346   0.38692   0.39030   0.40185
 Alpha virt. eigenvalues --    0.40425   0.40859   0.41336   0.42497   0.43283
 Alpha virt. eigenvalues --    0.43346   0.43908   0.44454   0.44914   0.45848
 Alpha virt. eigenvalues --    0.46398   0.47153   0.47675   0.47830   0.49163
 Alpha virt. eigenvalues --    0.49426   0.50457   0.50622   0.51289   0.51896
 Alpha virt. eigenvalues --    0.52250   0.53705   0.55087   0.55631   0.56115
 Alpha virt. eigenvalues --    0.56714   0.57457   0.58202   0.58704   0.59284
 Alpha virt. eigenvalues --    0.60411   0.60523   0.61116   0.61543   0.62054
 Alpha virt. eigenvalues --    0.62942   0.63435   0.64337   0.65287   0.65735
 Alpha virt. eigenvalues --    0.66063   0.67016   0.67238   0.67365   0.67669
 Alpha virt. eigenvalues --    0.69516   0.70423   0.70975   0.71654   0.71759
 Alpha virt. eigenvalues --    0.72610   0.73263   0.74344   0.75010   0.75700
 Alpha virt. eigenvalues --    0.76039   0.76814   0.77542   0.78707   0.79151
 Alpha virt. eigenvalues --    0.79685   0.81722   0.82714   0.83337   0.83667
 Alpha virt. eigenvalues --    0.84732   0.85942   0.86222   0.87263   0.88916
 Alpha virt. eigenvalues --    0.90014   0.90577   0.91574   0.92515   0.93236
 Alpha virt. eigenvalues --    0.93943   0.96163   0.98118   0.98884   1.00793
 Alpha virt. eigenvalues --    1.01316   1.02207   1.03357   1.04428   1.06124
 Alpha virt. eigenvalues --    1.06598   1.07180   1.07974   1.09458   1.09795
 Alpha virt. eigenvalues --    1.12647   1.14010   1.14595   1.15590   1.16971
 Alpha virt. eigenvalues --    1.17406   1.18338   1.19390   1.20965   1.22432
 Alpha virt. eigenvalues --    1.23463   1.24206   1.25963   1.29454   1.29509
 Alpha virt. eigenvalues --    1.31535   1.33653   1.35677   1.37220   1.37990
 Alpha virt. eigenvalues --    1.39444   1.40368   1.41927   1.44036   1.45360
 Alpha virt. eigenvalues --    1.47682   1.48673   1.51707   1.52983   1.53888
 Alpha virt. eigenvalues --    1.54477   1.56261   1.57673   1.64325   1.65282
 Alpha virt. eigenvalues --    1.67094   1.69413   1.71404   1.72764   1.73535
 Alpha virt. eigenvalues --    1.74987   1.75701   1.76658   1.80075   1.80842
 Alpha virt. eigenvalues --    1.81658   1.84484   1.85678   1.86774   1.87966
 Alpha virt. eigenvalues --    1.88148   1.89974   1.91054   1.92520   1.92792
 Alpha virt. eigenvalues --    1.95916   1.96405   1.98155   1.99464   2.00611
 Alpha virt. eigenvalues --    2.01511   2.04619   2.06503   2.07260   2.08719
 Alpha virt. eigenvalues --    2.10445   2.11395   2.14575   2.15264   2.15822
 Alpha virt. eigenvalues --    2.17497   2.18314   2.20045   2.21046   2.21737
 Alpha virt. eigenvalues --    2.25002   2.25463   2.26868   2.27777   2.28621
 Alpha virt. eigenvalues --    2.29240   2.31835   2.32568   2.33997   2.36234
 Alpha virt. eigenvalues --    2.38078   2.38842   2.41005   2.43501   2.44800
 Alpha virt. eigenvalues --    2.45744   2.48593   2.50426   2.51708   2.53432
 Alpha virt. eigenvalues --    2.54863   2.57279   2.57955   2.58466   2.60920
 Alpha virt. eigenvalues --    2.62940   2.65413   2.66032   2.67185   2.68741
 Alpha virt. eigenvalues --    2.70747   2.72627   2.75868   2.78345   2.81166
 Alpha virt. eigenvalues --    2.81937   2.83531   2.86760   2.87286   2.88603
 Alpha virt. eigenvalues --    2.90345   2.92038   2.94772   2.96413   2.98376
 Alpha virt. eigenvalues --    3.00008   3.01750   3.05424   3.07605   3.10916
 Alpha virt. eigenvalues --    3.13266   3.15249   3.17152   3.23106   3.24857
 Alpha virt. eigenvalues --    3.31419   3.39141   3.41704   3.46050   3.52428
 Alpha virt. eigenvalues --    3.64471   3.67399   3.73613   3.81492   3.84042
 Alpha virt. eigenvalues --    3.85836   3.87552   3.93038   3.96772   3.99448
 Alpha virt. eigenvalues --    4.06290   4.15509   4.22009   4.32469
          Condensed to atoms (all electrons):
              1          2          3          4          5          6
     1  H    0.740159   0.456590  -0.046058  -0.081788  -0.177758   0.017217
     2  C    0.456590   4.603695   0.336861   0.130014  -0.070151  -0.020219
     3  H   -0.046058   0.336861   0.740310  -0.070969  -0.089745   0.017602
     4  H   -0.081788   0.130014  -0.070969   1.136704   0.354725  -0.003411
     5  C   -0.177758  -0.070151  -0.089745   0.354725   6.035376   0.117305
     6  O    0.017217  -0.020219   0.017602  -0.003411   0.117305   8.879479
     7  N    0.060793   0.102649   0.049625  -0.197323  -0.063933  -0.066434
     8  H   -0.003678  -0.013903  -0.000110  -0.011179  -0.231419  -0.008200
     9  C   -0.000965   0.045869   0.029179  -0.068078  -0.438899   0.060998
    10  H   -0.001881  -0.006067   0.000987  -0.004580  -0.043607   0.007632
    11  C    0.000973   0.001578  -0.002490   0.005912   0.022886  -0.000054
    12  H   -0.000607  -0.008945  -0.000412  -0.001902  -0.015982   0.001900
    13  H    0.000022   0.003567   0.000100   0.001358  -0.003900   0.001492
    14  H   -0.000011   0.000018  -0.000210   0.000173  -0.005865  -0.001132
    15  C    0.004187   0.003188  -0.005291   0.003880  -0.036381   0.013285
    16  O    0.000029  -0.002976   0.000102  -0.000590   0.013278  -0.007708
    17  N   -0.000999  -0.026316  -0.000025   0.000414   0.088188  -0.116175
    18  H   -0.005394  -0.014175  -0.001970   0.007251  -0.026547   0.031576
    19  C   -0.000111   0.007258  -0.000038   0.000307   0.009079   0.010350
    20  H   -0.000004  -0.000393   0.000029  -0.000067  -0.005946  -0.002405
    21  H   -0.000008   0.000814   0.000115  -0.000091   0.001033   0.000709
    22  H    0.000287   0.003761  -0.000035   0.000093   0.008821   0.006956
              7          8          9         10         11         12
     1  H    0.060793  -0.003678  -0.000965  -0.001881   0.000973  -0.000607
     2  C    0.102649  -0.013903   0.045869  -0.006067   0.001578  -0.008945
     3  H    0.049625  -0.000110   0.029179   0.000987  -0.002490  -0.000412
     4  H   -0.197323  -0.011179  -0.068078  -0.004580   0.005912  -0.001902
     5  C   -0.063933  -0.231419  -0.438899  -0.043607   0.022886  -0.015982
     6  O   -0.066434  -0.008200   0.060998   0.007632  -0.000054   0.001900
     7  N    7.735665   0.424615  -0.609169  -0.130135   0.084295  -0.079570
     8  H    0.424615   1.005184  -0.155269   0.009221  -0.038632   0.003331
     9  C   -0.609169  -0.155269   7.714162   0.270677   0.012307  -0.043711
    10  H   -0.130135   0.009221   0.270677   0.985663  -0.078969   0.078419
    11  C    0.084295  -0.038632   0.012307  -0.078969   4.302793   0.304637
    12  H   -0.079570   0.003331  -0.043711   0.078419   0.304637   1.119220
    13  H    0.078205  -0.006266  -0.105198  -0.062561   0.361538  -0.146326
    14  H   -0.049704   0.019055   0.141804  -0.033464   0.287067  -0.183541
    15  C    0.254954   0.044302  -1.041457  -0.029328   0.127958  -0.006160
    16  O   -0.025382   0.000280   0.024862   0.005873  -0.046200   0.022820
    17  N   -0.086556   0.000226   0.095435   0.027719  -0.049666   0.006280
    18  H    0.027683  -0.010684  -0.025451   0.006491   0.015430  -0.000061
    19  C    0.001350   0.001381  -0.067404   0.005005   0.006332   0.001857
    20  H    0.000932   0.000408  -0.005547  -0.000450   0.002690   0.000592
    21  H   -0.002793   0.000730   0.050567   0.003084  -0.009349  -0.000701
    22  H    0.000868  -0.000226  -0.030411  -0.002224   0.002734  -0.000231
             13         14         15         16         17         18
     1  H    0.000022  -0.000011   0.004187   0.000029  -0.000999  -0.005394
     2  C    0.003567   0.000018   0.003188  -0.002976  -0.026316  -0.014175
     3  H    0.000100  -0.000210  -0.005291   0.000102  -0.000025  -0.001970
     4  H    0.001358   0.000173   0.003880  -0.000590   0.000414   0.007251
     5  C   -0.003900  -0.005865  -0.036381   0.013278   0.088188  -0.026547
     6  O    0.001492  -0.001132   0.013285  -0.007708  -0.116175   0.031576
     7  N    0.078205  -0.049704   0.254954  -0.025382  -0.086556   0.027683
     8  H   -0.006266   0.019055   0.044302   0.000280   0.000226  -0.010684
     9  C   -0.105198   0.141804  -1.041457   0.024862   0.095435  -0.025451
    10  H   -0.062561  -0.033464  -0.029328   0.005873   0.027719   0.006491
    11  C    0.361538   0.287067   0.127958  -0.046200  -0.049666   0.015430
    12  H   -0.146326  -0.183541  -0.006160   0.022820   0.006280  -0.000061
    13  H    1.074249  -0.184014   0.118331  -0.060569  -0.012917   0.001822
    14  H   -0.184014   1.131558  -0.059265   0.013476   0.000208  -0.000283
    15  C    0.118331  -0.059265   5.682865   0.258244   0.116889  -0.032187
    16  O   -0.060569   0.013476   0.258244   8.791715  -0.180140  -0.004283
    17  N   -0.012917   0.000208   0.116889  -0.180140   7.100838   0.179044
    18  H    0.001822  -0.000283  -0.032187  -0.004283   0.179044   1.036987
    19  C    0.002438  -0.000975  -0.096541   0.017606   0.219297  -0.182856
    20  H    0.000168  -0.000558   0.047653   0.005337  -0.039254   0.001313
    21  H   -0.000404  -0.000058  -0.050939  -0.001172   0.118214  -0.026374
    22  H    0.000573   0.000211  -0.003715   0.004536  -0.154964   0.025748
             19         20         21         22
     1  H   -0.000111  -0.000004  -0.000008   0.000287
     2  C    0.007258  -0.000393   0.000814   0.003761
     3  H   -0.000038   0.000029   0.000115  -0.000035
     4  H    0.000307  -0.000067  -0.000091   0.000093
     5  C    0.009079  -0.005946   0.001033   0.008821
     6  O    0.010350  -0.002405   0.000709   0.006956
     7  N    0.001350   0.000932  -0.002793   0.000868
     8  H    0.001381   0.000408   0.000730  -0.000226
     9  C   -0.067404  -0.005547   0.050567  -0.030411
    10  H    0.005005  -0.000450   0.003084  -0.002224
    11  C    0.006332   0.002690  -0.009349   0.002734
    12  H    0.001857   0.000592  -0.000701  -0.000231
    13  H    0.002438   0.000168  -0.000404   0.000573
    14  H   -0.000975  -0.000558  -0.000058   0.000211
    15  C   -0.096541   0.047653  -0.050939  -0.003715
    16  O    0.017606   0.005337  -0.001172   0.004536
    17  N    0.219297  -0.039254   0.118214  -0.154964
    18  H   -0.182856   0.001313  -0.026374   0.025748
    19  C    4.197781   0.380894   0.299881   0.466903
    20  H    0.380894   0.973439  -0.079030  -0.197582
    21  H    0.299881  -0.079030   0.909898  -0.164095
    22  H    0.466903  -0.197582  -0.164095   1.251583
 Mulliken atomic charges:
              1
     1  H    0.039006
     2  C    0.467280
     3  H    0.042439
     4  H   -0.200854
     5  C    0.559441
     6  O   -0.940762
     7  N   -0.510635
     8  H   -0.029169
     9  C    0.145700
    10  H   -0.007507
    11  C    0.686232
    12  H   -0.050906
    13  H   -0.061707
    14  H   -0.074493
    15  C    0.685528
    16  O   -0.829138
    17  N   -0.285737
    18  H   -0.003080
    19  C    0.720206
    20  H   -0.082220
    21  H   -0.050033
    22  H   -0.219592
 Sum of Mulliken atomic charges =   0.00000
 Mulliken charges with hydrogens summed into heavy atoms:
              1
     2  C    0.347871
     5  C    0.559441
     6  O   -0.940762
     7  N   -0.539804
     9  C    0.138193
    11  C    0.499126
    15  C    0.685528
    16  O   -0.829138
    17  N   -0.288817
    19  C    0.368361
 Sum of Mulliken charges with hydrogens summed into heavy atoms =   0.00000
 Electronic spatial extent (au):  <R**2>=           1779.7741
 Charge=              0.0000 electrons
 Dipole moment (field-independent basis, Debye):
    X=             -4.6419    Y=              1.4483    Z=             -0.4355  Tot=              4.8820
 Quadrupole moment (field-independent basis, Debye-Ang):
   XX=            -61.3384   YY=            -61.5685   ZZ=            -60.8823
   XY=            -10.4946   XZ=             -1.3693   YZ=             -1.4220
 Traceless Quadrupole moment (field-independent basis, Debye-Ang):
   XX=             -0.0753   YY=             -0.3054   ZZ=              0.3808
   XY=            -10.4946   XZ=             -1.3693   YZ=             -1.4220
 Octapole moment (field-independent basis, Debye-Ang**2):
  XXX=            -55.3296  YYY=              6.4092  ZZZ=              1.1070  XYY=              5.7616
  XXY=            -16.0829  XXZ=             -1.5429  XZZ=             -0.5002  YZZ=             -0.4642
  YYZ=             -2.0388  XYZ=             -1.1667
 Hexadecapole moment (field-independent basis, Debye-Ang**3):
 XXXX=          -1415.5368 YYYY=           -784.7491 ZZZZ=           -103.1885 XXXY=            -37.2420
 XXXZ=            -10.0104 YYYX=            -29.4208 YYYZ=             -1.6553 ZZZX=             -1.1907
 ZZZY=             -2.9128 XXYY=           -368.0911 XXZZ=           -254.4221 YYZZ=           -151.8997
 XXYZ=             -5.2691 YYXZ=              2.6960 ZZXY=              6.6930
 N-N= 5.565980591210D+02 E-N=-2.268364045387D+03  KE= 4.920535261957D+02
 1\1\GINC-NODE011\SP\RMP2-FC\Aug-CC-pVDZ\C6H12N2O2\MANAGER\13-Feb-2017\
 0\\#SP MP2/aug-cc-pVDZ\\Single Point calculation at MP2\\0,1\H,0,-3.88
 49,-1.0663,-0.4925\C,0,-3.3702,-0.4234,0.2273\H,0,-3.5817,-0.8184,1.22
 59\H,0,-3.7763,0.5901,0.1552\C,0,-1.8695,-0.5248,-0.0219\O,0,-1.3373,-
 1.6368,-0.0196\N,0,-1.2544,0.6679,-0.2492\H,0,-1.8876,1.4547,-0.2093\C
 ,0,0.1436,1.1454,-0.4345\H,0,0.273,1.3163,-1.5145\C,0,0.2485,2.5028,0.
 2725\H,0,0.0942,2.3889,1.3507\H,0,1.2421,2.9191,0.1101\H,0,-0.5004,3.2
 032,-0.1183\C,0,1.3852,0.2773,-0.0624\O,0,2.4373,0.8757,0.163\N,0,1.30
 62,-1.0626,-0.1396\H,0,0.3806,-1.497,-0.1836\C,0,2.482,-1.8736,0.1297\
 H,0,3.3077,-1.577,-0.5242\H,0,2.8224,-1.7642,1.1668\H,0,2.2311,-2.9205
 ,-0.0563\\Version=EM64L-G09RevA.02\State=1-A\HF=-492.9109197\MP2=-494.
 5160675\RMSD=6.194e-09\PG=C01 [X(C6H12N2O2)]\\@


 THE PROBLEM WITH THE LADDER OF SUCCESS IS YOU CAN'T
 CLIMB IT WHILE YOU'RE TWIDDLING YOUR THUMBS.
 Job cpu time:  0 days 12 hours 37 minutes 41.6 seconds.
 File lengths (MBytes):  RWF=  10574 Int=      0 D2E=      0 Chk=      7 Scr=      2
 Normal termination of Gaussian 09 at Mon Feb 13 22:52:15 2017.
