 Entering Gaussian System, Link 0=g09
 Initial command:
 /home/steboss/Software/g09/l1.exe /home/steboss/projects/phi_psi_scan/alanine/MP2/270/5487/Gau-20488.inp -scrdir=/home/steboss/projects/phi_psi_scan/alanine/MP2/270/5487/
 Entering Link 1 = /home/steboss/Software/g09/l1.exe PID=     20490.
  
 Copyright (c) 1988,1990,1992,1993,1995,1998,2003,2009, Gaussian, Inc.
                  All Rights Reserved.
  
 This is part of the Gaussian(R) 09 program.  It is based on
 the Gaussian(R) 03 system (copyright 2003, Gaussian, Inc.),
 the Gaussian(R) 98 system (copyright 1998, Gaussian, Inc.),
 the Gaussian(R) 94 system (copyright 1995, Gaussian, Inc.),
 the Gaussian 92(TM) system (copyright 1992, Gaussian, Inc.),
 the Gaussian 90(TM) system (copyright 1990, Gaussian, Inc.),
 the Gaussian 88(TM) system (copyright 1988, Gaussian, Inc.),
 the Gaussian 86(TM) system (copyright 1986, Carnegie Mellon
 University), and the Gaussian 82(TM) system (copyright 1983,
 Carnegie Mellon University). Gaussian is a federally registered
 trademark of Gaussian, Inc.
  
 This software contains proprietary and confidential information,
 including trade secrets, belonging to Gaussian, Inc.
  
 This software is provided under written license and may be
 used, copied, transmitted, or stored only in accord with that
 written license.
  
 The following legend is applicable only to US Government
 contracts under FAR:
  
                    RESTRICTED RIGHTS LEGEND
  
 Use, reproduction and disclosure by the US Government is
 subject to restrictions as set forth in subparagraphs (a)
 and (c) of the Commercial Computer Software - Restricted
 Rights clause in FAR 52.227-19.
  
 Gaussian, Inc.
 340 Quinnipiac St., Bldg. 40, Wallingford CT 06492
  
  
 ---------------------------------------------------------------
 Warning -- This program may not be used in any manner that
 competes with the business of Gaussian, Inc. or will provide
 assistance to any competitor of Gaussian, Inc.  The licensee
 of this program is prohibited from giving any competitor of
 Gaussian, Inc. access to this program.  By using this program,
 the user acknowledges that Gaussian, Inc. is engaged in the
 business of creating and licensing software in the field of
 computational chemistry and represents and warrants to the
 licensee that it is not a competitor of Gaussian, Inc. and that
 it will not use this program in any manner prohibited above.
 ---------------------------------------------------------------
  

 Cite this work as:
 Gaussian 09, Revision A.02,
 M. J. Frisch, G. W. Trucks, H. B. Schlegel, G. E. Scuseria, 
 M. A. Robb, J. R. Cheeseman, G. Scalmani, V. Barone, B. Mennucci, 
 G. A. Petersson, H. Nakatsuji, M. Caricato, X. Li, H. P. Hratchian, 
 A. F. Izmaylov, J. Bloino, G. Zheng, J. L. Sonnenberg, M. Hada, 
 M. Ehara, K. Toyota, R. Fukuda, J. Hasegawa, M. Ishida, T. Nakajima, 
 Y. Honda, O. Kitao, H. Nakai, T. Vreven, J. A. Montgomery, Jr., 
 J. E. Peralta, F. Ogliaro, M. Bearpark, J. J. Heyd, E. Brothers, 
 K. N. Kudin, V. N. Staroverov, R. Kobayashi, J. Normand, 
 K. Raghavachari, A. Rendell, J. C. Burant, S. S. Iyengar, J. Tomasi, 
 M. Cossi, N. Rega, J. M. Millam, M. Klene, J. E. Knox, J. B. Cross, 
 V. Bakken, C. Adamo, J. Jaramillo, R. Gomperts, R. E. Stratmann, 
 O. Yazyev, A. J. Austin, R. Cammi, C. Pomelli, J. W. Ochterski, 
 R. L. Martin, K. Morokuma, V. G. Zakrzewski, G. A. Voth, 
 P. Salvador, J. J. Dannenberg, S. Dapprich, A. D. Daniels, 
 O. Farkas, J. B. Foresman, J. V. Ortiz, J. Cioslowski, 
 and D. J. Fox, Gaussian, Inc., Wallingford CT, 2009.
 
 ******************************************
 Gaussian 09:  EM64L-G09RevA.02 11-Jun-2009
                13-Feb-2017 
 ******************************************
 %chk=structure_45.chk
 %NProcShared=8
 Will use up to    8 processors via shared memory.
 -------------------
 #SP MP2/aug-cc-pVDZ
 -------------------
 1/38=1/1;
 2/12=2,17=6,18=5,40=1/2;
 3/5=16,7=10,11=9,16=1,25=1,30=1/1,2,3;
 4//1;
 5/5=2,38=5/2;
 8/10=1/1;
 9/16=-3/6;
 6/7=2,8=2,9=2,10=2/1;
 99/5=1,9=1/99;
 -------------------------------
 Single Point calculation at MP2
 -------------------------------
 Symbolic Z-matrix:
 Charge =  0 Multiplicity = 1
 H                     3.3509   -1.5702   -0.8961 
 C                     3.2173   -0.5185   -0.628 
 H                     3.2953    0.0959   -1.5302 
 H                     4.032    -0.2494    0.0526 
 C                     1.8977   -0.3615    0.1076 
 O                     1.6018   -1.0746    1.0691 
 N                     1.0539    0.5955   -0.3636 
 H                     1.3328    1.1377   -1.1697 
 C                    -0.1385    1.0502    0.361 
 H                     0.0681    0.866     1.423 
 C                    -0.3661    2.5401    0.1228 
 H                    -0.5286    2.7483   -0.941 
 H                    -1.2634    2.8664    0.6513 
 H                     0.4928    3.1206    0.4749 
 C                    -1.4075    0.2289    0.0075 
 O                    -2.4802    0.774    -0.2295 
 N                    -1.2067   -1.1165   -0.0223 
 H                    -0.3364   -1.4608    0.3757 
 C                    -2.3004   -2.0483   -0.2333 
 H                    -3.1122   -1.5107   -0.7253 
 H                    -1.973    -2.8772   -0.8696 
 H                    -2.6777   -2.4596    0.7126 
 
                          Input orientation:                          
 ---------------------------------------------------------------------
 Center     Atomic      Atomic             Coordinates (Angstroms)
 Number     Number       Type             X           Y           Z
 ---------------------------------------------------------------------
      1          1           0        3.350900   -1.570200   -0.896100
      2          6           0        3.217300   -0.518500   -0.628000
      3          1           0        3.295300    0.095900   -1.530200
      4          1           0        4.032000   -0.249400    0.052600
      5          6           0        1.897700   -0.361500    0.107600
      6          8           0        1.601800   -1.074600    1.069100
      7          7           0        1.053900    0.595500   -0.363600
      8          1           0        1.332800    1.137700   -1.169700
      9          6           0       -0.138500    1.050200    0.361000
     10          1           0        0.068100    0.866000    1.423000
     11          6           0       -0.366100    2.540100    0.122800
     12          1           0       -0.528600    2.748300   -0.941000
     13          1           0       -1.263400    2.866400    0.651300
     14          1           0        0.492800    3.120600    0.474900
     15          6           0       -1.407500    0.228900    0.007500
     16          8           0       -2.480200    0.774000   -0.229500
     17          7           0       -1.206700   -1.116500   -0.022300
     18          1           0       -0.336400   -1.460800    0.375700
     19          6           0       -2.300400   -2.048300   -0.233300
     20          1           0       -3.112200   -1.510700   -0.725300
     21          1           0       -1.973000   -2.877200   -0.869600
     22          1           0       -2.677700   -2.459600    0.712600
 ---------------------------------------------------------------------
                    Distance matrix (angstroms):
                    1          2          3          4          5
     1  H    0.000000
     2  C    1.093526   0.000000
     3  H    1.783554   1.094320   0.000000
     4  H    1.763077   1.095156   1.779667   0.000000
     5  C    2.140131   1.518914   2.201111   2.137949   0.000000
     6  O    2.677122   2.408160   3.315776   2.760453   1.233106
     7  N    3.201566   2.447693   2.575739   3.123485   1.360102
     8  H    3.388260   2.566667   2.250936   3.271658   2.048953
     9  C    4.541223   3.834102   4.034639   4.379171   2.490626
    10  H    4.700008   4.005109   4.441764   4.339887   2.566022
    11  C    5.634608   4.770691   4.702379   5.208601   3.680259
    12  H    5.805341   4.980132   4.690905   5.547298   4.081342
    13  H    6.585562   5.759412   5.763363   6.173161   4.550550
    14  H    5.661447   4.677856   4.585111   4.905219   3.772754
    15  C    5.166781   4.727710   4.949600   5.460674   3.359009
    16  O    6.319917   5.855840   5.958862   6.598157   4.535307
    17  N    4.662734   4.505136   4.900171   5.310504   3.197530
    18  H    3.902003   3.811053   4.386914   4.544755   2.504304
    19  C    5.710085   5.739433   6.131183   6.589163   4.537130
    20  H    6.465630   6.407535   6.654704   7.296273   5.207061
    21  H    5.482049   5.706229   6.085286   6.619351   4.718685
    22  H    6.302616   6.349496   6.872951   7.095115   5.069747
                    6          7          8          9         10
     6  O    0.000000
     7  N    2.267611   0.000000
     8  H    3.158933   1.010724   0.000000
     9  C    2.836340   1.467520   2.124952   0.000000
    10  H    2.498682   2.058376   2.897478   1.097478   0.000000
    11  C    4.223052   2.456513   2.554123   1.525891   2.163715
    12  H    4.815981   2.733541   2.472073   2.175069   3.080195
    13  H    4.890338   3.399542   3.611745   2.155982   2.523889
    14  H    4.379801   2.719199   2.709650   2.167503   2.482435
    15  C    3.447027   2.516069   3.117846   1.552371   2.141712
    16  O    4.665448   3.541145   3.944011   2.430748   3.038594
    17  N    3.013400   2.856176   3.584272   2.445927   2.764835
    18  H    2.094415   2.589955   3.453504   2.518829   2.583497
    19  C    4.227470   4.272936   4.922152   3.824618   4.104420
    20  H    5.062791   4.682232   5.193220   4.071996   4.514222
    21  H    4.448272   4.634415   5.209395   4.506022   4.840832
    22  H    4.512143   4.941324   5.706814   4.346246   4.370778
                   11         12         13         14         15
    11  C    0.000000
    12  H    1.096095   0.000000
    13  H    1.091298   1.757640   0.000000
    14  H    1.094835   1.785116   1.783248   0.000000
    15  C    2.537608   2.831871   2.718759   3.491637   0.000000
    16  O    2.777165   2.865804   2.575762   3.852459   1.226372
    17  N    3.754782   4.029951   4.039857   4.592224   1.360628
    18  H    4.008995   4.414427   4.433954   4.656892   2.034186
    19  C    4.992168   5.162120   5.100212   5.917858   2.457823
    20  H    4.966822   4.986040   4.946928   5.990446   2.543463
    21  H    5.737083   5.808411   5.983779   6.622798   3.276729
    22  H    5.539707   5.871562   5.510924   6.422399   3.055913
                   16         17         18         19         20
    16  O    0.000000
    17  N    2.288826   0.000000
    18  H    3.155388   1.017039   0.000000
    19  C    2.828024   1.452223   2.138535   0.000000
    20  H    2.421796   2.068945   2.986596   1.090916   0.000000
    21  H    3.741422   2.098856   2.497082   1.095054   1.784915
    22  H    3.373830   2.123167   2.567643   1.098294   1.776727
                   21         22
    21  H    0.000000
    22  H    1.781670   0.000000
 Stoichiometry    C6H12N2O2
 Framework group  C1[X(C6H12N2O2)]
 Deg. of freedom    60
 Full point group                 C1      NOp   1
 Largest Abelian subgroup         C1      NOp   1
 Largest concise Abelian subgroup C1      NOp   1
                         Standard orientation:                         
 ---------------------------------------------------------------------
 Center     Atomic      Atomic             Coordinates (Angstroms)
 Number     Number       Type             X           Y           Z
 ---------------------------------------------------------------------
      1          1           0        3.350904   -1.570233   -0.896091
      2          6           0        3.217312   -0.518532   -0.627991
      3          1           0        3.295316    0.095868   -1.530191
      4          1           0        4.032014   -0.249438    0.052609
      5          6           0        1.897713   -0.361522    0.107609
      6          8           0        1.601807   -1.074620    1.069109
      7          7           0        1.053920    0.595484   -0.363591
      8          1           0        1.332824    1.137682   -1.169691
      9          6           0       -0.138477    1.050193    0.361009
     10          1           0        0.068122    0.865992    1.423009
     11          6           0       -0.366066    2.540095    0.122809
     12          1           0       -0.528564    2.748296   -0.940991
     13          1           0       -1.263363    2.866402    0.651309
     14          1           0        0.492839    3.120589    0.474909
     15          6           0       -1.407483    0.228903    0.007509
     16          8           0       -2.480179    0.774011   -0.229491
     17          7           0       -1.206693   -1.116499   -0.022291
     18          1           0       -0.336396   -1.460805    0.375709
     19          6           0       -2.300400   -2.048291   -0.233291
     20          1           0       -3.112196   -1.510684   -0.725291
     21          1           0       -1.973006   -2.877193   -0.869591
     22          1           0       -2.677703   -2.459588    0.712609
 ---------------------------------------------------------------------
 Rotational constants (GHZ):      1.7799387      0.9462606      0.6813383
 Standard basis: Aug-CC-pVDZ (5D, 7F)
 There are   338 symmetry adapted basis functions of A   symmetry.
 Integral buffers will be    131072 words long.
 Raffenetti 1 integral format.
 Two-electron integral symmetry is turned on.
   338 basis functions,   562 primitive gaussians,   358 cartesian basis functions
    39 alpha electrons       39 beta electrons
       nuclear repulsion energy       558.8515428762 Hartrees.
 NAtoms=   22 NActive=   22 NUniq=   22 SFac= 7.50D-01 NAtFMM=   80 NAOKFM=F Big=F
 One-electron integrals computed using PRISM.
 NBasis=   338 RedAO= T  NBF=   338
 NBsUse=   338 1.00D-06 NBFU=   338
 Harris functional with IExCor=  205 diagonalized for initial guess.
 ExpMin= 2.97D-02 ExpMax= 1.17D+04 ExpMxC= 4.01D+02 IAcc=3 IRadAn=         0 AccDes= 0.00D+00
 HarFok:  IExCor=  205 AccDes= 0.00D+00 IRadAn=         0 IDoV= 1
 ScaDFX=  1.000000  1.000000  1.000000  1.000000
 FoFCou: FMM=F IPFlag=           0 FMFlag=      100000 FMFlg1=           0
         NFxFlg=           0 DoJE=T BraDBF=F KetDBF=T FulRan=T
         Omega=  0.000000  0.000000  1.000000  0.000000  0.000000 ICntrl=     500 IOpCl=  0
         NMat0=    1 NMatS0=    1 NMatT0=    0 NMatD0=    1 NMtDS0=    0 NMtDT0=    0
         I1Cent=           4 NGrid=           0.
 Petite list used in FoFCou.
 Initial guess orbital symmetries:
       Occupied  (A) (A) (A) (A) (A) (A) (A) (A) (A) (A) (A) (A)
                 (A) (A) (A) (A) (A) (A) (A) (A) (A) (A) (A) (A)
                 (A) (A) (A) (A) (A) (A) (A) (A) (A) (A) (A) (A)
                 (A) (A) (A)
       Virtual   (A) (A) (A) (A) (A) (A) (A) (A) (A) (A) (A) (A)
                 (A) (A) (A) (A) (A) (A) (A) (A) (A) (A) (A) (A)
                 (A) (A) (A) (A) (A) (A) (A) (A) (A) (A) (A) (A)
                 (A) (A) (A) (A) (A) (A) (A) (A) (A) (A) (A) (A)
                 (A) (A) (A) (A) (A) (A) (A) (A) (A) (A) (A) (A)
                 (A) (A) (A) (A) (A) (A) (A) (A) (A) (A) (A) (A)
                 (A) (A) (A) (A) (A) (A) (A) (A) (A) (A) (A) (A)
                 (A) (A) (A) (A) (A) (A) (A) (A) (A) (A) (A) (A)
                 (A) (A) (A) (A) (A) (A) (A) (A) (A) (A) (A) (A)
                 (A) (A) (A) (A) (A) (A) (A) (A) (A) (A) (A) (A)
                 (A) (A) (A) (A) (A) (A) (A) (A) (A) (A) (A) (A)
                 (A) (A) (A) (A) (A) (A) (A) (A) (A) (A) (A) (A)
                 (A) (A) (A) (A) (A) (A) (A) (A) (A) (A) (A) (A)
                 (A) (A) (A) (A) (A) (A) (A) (A) (A) (A) (A) (A)
                 (A) (A) (A) (A) (A) (A) (A) (A) (A) (A) (A) (A)
                 (A) (A) (A) (A) (A) (A) (A) (A) (A) (A) (A) (A)
                 (A) (A) (A) (A) (A) (A) (A) (A) (A) (A) (A) (A)
                 (A) (A) (A) (A) (A) (A) (A) (A) (A) (A) (A) (A)
                 (A) (A) (A) (A) (A) (A) (A) (A) (A) (A) (A) (A)
                 (A) (A) (A) (A) (A) (A) (A) (A) (A) (A) (A) (A)
                 (A) (A) (A) (A) (A) (A) (A) (A) (A) (A) (A) (A)
                 (A) (A) (A) (A) (A) (A) (A) (A) (A) (A) (A) (A)
                 (A) (A) (A) (A) (A) (A) (A) (A) (A) (A) (A) (A)
                 (A) (A) (A) (A) (A) (A) (A) (A) (A) (A) (A) (A)
                 (A) (A) (A) (A) (A) (A) (A) (A) (A) (A) (A)
 The electronic state of the initial guess is 1-A.
 Requested convergence on RMS density matrix=1.00D-08 within 128 cycles.
 Requested convergence on MAX density matrix=1.00D-06.
 Requested convergence on             energy=1.00D-06.
 No special actions if energy rises.
 Initial convergence to 1.0D-05 achieved.  Increase integral accuracy.
 SCF Done:  E(RHF) =  -492.927219085     A.U. after   14 cycles
             Convg  =    0.7911D-08             -V/T =  2.0017
 ExpMin= 2.97D-02 ExpMax= 1.17D+04 ExpMxC= 4.01D+02 IAcc=3 IRadAn=         5 AccDes= 0.00D+00
 HarFok:  IExCor=  205 AccDes= 0.00D+00 IRadAn=         5 IDoV=-2
 ScaDFX=  1.000000  1.000000  1.000000  1.000000
 Range of M.O.s used for correlation:    11   338
 NBasis=   338 NAE=    39 NBE=    39 NFC=    10 NFV=     0
 NROrb=    328 NOA=    29 NOB=    29 NVA=   299 NVB=   299

 **** Warning!!: The largest alpha MO coefficient is  0.75061756D+02

 Disk-based method using OVN memory for 29 occupieds at a time.
 Estimated scratch disk usage=  1386502140 words.
 Actual    scratch disk usage=  1373182641 words.
 JobTyp=1 Pass  1:  I=   1 to  29 NPSUse=  8 ParTrn=T ParDer=T DoDerP=F.
 Spin components of T(2) and E(2):
     alpha-alpha T2 =       0.6804189016D-01 E2=     -0.2061977295D+00
     alpha-beta  T2 =       0.3763945979D+00 E2=     -0.1190449237D+01
     beta-beta   T2 =       0.6804189016D-01 E2=     -0.2061977295D+00
 ANorm=    0.1229828597D+01
 E2 =    -0.1602844696D+01 EUMP2 =    -0.49453006378043D+03

 **********************************************************************

            Population analysis using the SCF density.

 **********************************************************************

 Orbital symmetries:
       Occupied  (A) (A) (A) (A) (A) (A) (A) (A) (A) (A) (A) (A)
                 (A) (A) (A) (A) (A) (A) (A) (A) (A) (A) (A) (A)
                 (A) (A) (A) (A) (A) (A) (A) (A) (A) (A) (A) (A)
                 (A) (A) (A)
       Virtual   (A) (A) (A) (A) (A) (A) (A) (A) (A) (A) (A) (A)
                 (A) (A) (A) (A) (A) (A) (A) (A) (A) (A) (A) (A)
                 (A) (A) (A) (A) (A) (A) (A) (A) (A) (A) (A) (A)
                 (A) (A) (A) (A) (A) (A) (A) (A) (A) (A) (A) (A)
                 (A) (A) (A) (A) (A) (A) (A) (A) (A) (A) (A) (A)
                 (A) (A) (A) (A) (A) (A) (A) (A) (A) (A) (A) (A)
                 (A) (A) (A) (A) (A) (A) (A) (A) (A) (A) (A) (A)
                 (A) (A) (A) (A) (A) (A) (A) (A) (A) (A) (A) (A)
                 (A) (A) (A) (A) (A) (A) (A) (A) (A) (A) (A) (A)
                 (A) (A) (A) (A) (A) (A) (A) (A) (A) (A) (A) (A)
                 (A) (A) (A) (A) (A) (A) (A) (A) (A) (A) (A) (A)
                 (A) (A) (A) (A) (A) (A) (A) (A) (A) (A) (A) (A)
                 (A) (A) (A) (A) (A) (A) (A) (A) (A) (A) (A) (A)
                 (A) (A) (A) (A) (A) (A) (A) (A) (A) (A) (A) (A)
                 (A) (A) (A) (A) (A) (A) (A) (A) (A) (A) (A) (A)
                 (A) (A) (A) (A) (A) (A) (A) (A) (A) (A) (A) (A)
                 (A) (A) (A) (A) (A) (A) (A) (A) (A) (A) (A) (A)
                 (A) (A) (A) (A) (A) (A) (A) (A) (A) (A) (A) (A)
                 (A) (A) (A) (A) (A) (A) (A) (A) (A) (A) (A) (A)
                 (A) (A) (A) (A) (A) (A) (A) (A) (A) (A) (A) (A)
                 (A) (A) (A) (A) (A) (A) (A) (A) (A) (A) (A) (A)
                 (A) (A) (A) (A) (A) (A) (A) (A) (A) (A) (A) (A)
                 (A) (A) (A) (A) (A) (A) (A) (A) (A) (A) (A) (A)
                 (A) (A) (A) (A) (A) (A) (A) (A) (A) (A) (A) (A)
                 (A) (A) (A) (A) (A) (A) (A) (A) (A) (A) (A)
 The electronic state is 1-A.
 Alpha  occ. eigenvalues --  -20.54472 -20.52652 -15.61246 -15.57955 -11.37876
 Alpha  occ. eigenvalues --  -11.35260 -11.29612 -11.26013 -11.25853 -11.23671
 Alpha  occ. eigenvalues --   -1.39902  -1.37773  -1.25383  -1.21935  -1.06077
 Alpha  occ. eigenvalues --   -1.00135  -0.95538  -0.87328  -0.81428  -0.77702
 Alpha  occ. eigenvalues --   -0.72330  -0.69118  -0.67448  -0.63885  -0.62080
 Alpha  occ. eigenvalues --   -0.61479  -0.59801  -0.59233  -0.58198  -0.54677
 Alpha  occ. eigenvalues --   -0.54443  -0.53382  -0.53118  -0.52220  -0.50507
 Alpha  occ. eigenvalues --   -0.44690  -0.43936  -0.39698  -0.37894
 Alpha virt. eigenvalues --    0.02486   0.04006   0.04379   0.04428   0.05867
 Alpha virt. eigenvalues --    0.06015   0.06427   0.06791   0.07098   0.08069
 Alpha virt. eigenvalues --    0.09324   0.10036   0.11095   0.12094   0.12246
 Alpha virt. eigenvalues --    0.12716   0.13573   0.14826   0.14938   0.15275
 Alpha virt. eigenvalues --    0.15902   0.16233   0.16547   0.17022   0.17272
 Alpha virt. eigenvalues --    0.17860   0.18207   0.18344   0.18702   0.19057
 Alpha virt. eigenvalues --    0.19526   0.20053   0.20629   0.20692   0.22017
 Alpha virt. eigenvalues --    0.23232   0.24914   0.25383   0.25522   0.26806
 Alpha virt. eigenvalues --    0.27082   0.28228   0.28769   0.30072   0.31253
 Alpha virt. eigenvalues --    0.31392   0.31692   0.31780   0.33347   0.33790
 Alpha virt. eigenvalues --    0.33909   0.34576   0.35677   0.36477   0.37022
 Alpha virt. eigenvalues --    0.37287   0.38115   0.38419   0.39271   0.39887
 Alpha virt. eigenvalues --    0.40753   0.41295   0.41832   0.42121   0.42453
 Alpha virt. eigenvalues --    0.43505   0.44329   0.44627   0.45590   0.46128
 Alpha virt. eigenvalues --    0.46447   0.46971   0.47703   0.48268   0.48968
 Alpha virt. eigenvalues --    0.50352   0.50974   0.51143   0.51882   0.51993
 Alpha virt. eigenvalues --    0.52263   0.53785   0.54276   0.54423   0.55196
 Alpha virt. eigenvalues --    0.56358   0.56623   0.57395   0.57981   0.58961
 Alpha virt. eigenvalues --    0.59225   0.60374   0.61109   0.61568   0.62134
 Alpha virt. eigenvalues --    0.62214   0.63019   0.64473   0.64650   0.65672
 Alpha virt. eigenvalues --    0.66250   0.66458   0.66870   0.67709   0.68244
 Alpha virt. eigenvalues --    0.68704   0.69764   0.71069   0.71264   0.71482
 Alpha virt. eigenvalues --    0.72362   0.72940   0.73184   0.74118   0.74616
 Alpha virt. eigenvalues --    0.75375   0.77466   0.78532   0.79383   0.79613
 Alpha virt. eigenvalues --    0.81047   0.81663   0.82578   0.83243   0.84094
 Alpha virt. eigenvalues --    0.84430   0.85186   0.86109   0.88616   0.89349
 Alpha virt. eigenvalues --    0.89612   0.90711   0.91966   0.92089   0.93042
 Alpha virt. eigenvalues --    0.93691   0.94526   0.96027   0.98406   0.98857
 Alpha virt. eigenvalues --    1.00945   1.01213   1.02671   1.04033   1.05734
 Alpha virt. eigenvalues --    1.06579   1.08463   1.09535   1.10105   1.12152
 Alpha virt. eigenvalues --    1.12721   1.13210   1.15017   1.16065   1.16332
 Alpha virt. eigenvalues --    1.17057   1.17488   1.18946   1.21013   1.22417
 Alpha virt. eigenvalues --    1.23661   1.24430   1.26855   1.27840   1.28664
 Alpha virt. eigenvalues --    1.31929   1.33014   1.33617   1.37074   1.40901
 Alpha virt. eigenvalues --    1.41807   1.42946   1.44231   1.44454   1.47374
 Alpha virt. eigenvalues --    1.48703   1.51022   1.53119   1.53505   1.56660
 Alpha virt. eigenvalues --    1.58222   1.59166   1.62341   1.64174   1.65190
 Alpha virt. eigenvalues --    1.67159   1.69058   1.69376   1.70857   1.73975
 Alpha virt. eigenvalues --    1.75103   1.75696   1.76478   1.77900   1.79934
 Alpha virt. eigenvalues --    1.82529   1.84426   1.85452   1.86317   1.87797
 Alpha virt. eigenvalues --    1.88146   1.88450   1.90893   1.92519   1.93043
 Alpha virt. eigenvalues --    1.93865   1.95126   1.99197   1.99552   2.00324
 Alpha virt. eigenvalues --    2.03485   2.04270   2.05841   2.09454   2.09690
 Alpha virt. eigenvalues --    2.12695   2.13329   2.14222   2.15016   2.16913
 Alpha virt. eigenvalues --    2.18417   2.18594   2.19869   2.22133   2.23587
 Alpha virt. eigenvalues --    2.25663   2.27052   2.27861   2.29440   2.30338
 Alpha virt. eigenvalues --    2.32785   2.33629   2.34278   2.36053   2.38333
 Alpha virt. eigenvalues --    2.38881   2.39800   2.41965   2.43363   2.43966
 Alpha virt. eigenvalues --    2.45960   2.48205   2.49829   2.50072   2.51524
 Alpha virt. eigenvalues --    2.54760   2.55175   2.57762   2.59413   2.62208
 Alpha virt. eigenvalues --    2.63148   2.63557   2.65973   2.67103   2.68237
 Alpha virt. eigenvalues --    2.72364   2.73023   2.76342   2.77072   2.78579
 Alpha virt. eigenvalues --    2.81873   2.85033   2.85761   2.87712   2.89938
 Alpha virt. eigenvalues --    2.90381   2.92538   2.95200   2.95962   2.98171
 Alpha virt. eigenvalues --    2.99765   3.01498   3.03929   3.08607   3.08746
 Alpha virt. eigenvalues --    3.12341   3.15046   3.15489   3.22635   3.25481
 Alpha virt. eigenvalues --    3.35086   3.41193   3.47075   3.52009   3.53525
 Alpha virt. eigenvalues --    3.60678   3.63318   3.76856   3.83418   3.84291
 Alpha virt. eigenvalues --    3.86856   3.88575   3.96259   3.98059   4.04871
 Alpha virt. eigenvalues --    4.09201   4.11946   4.21323   4.22071
          Condensed to atoms (all electrons):
              1          2          3          4          5          6
     1  H    0.713835   0.326132  -0.077866  -0.040097  -0.050692   0.020180
     2  C    0.326132   4.550285   0.371355   0.403758   0.260952  -0.064305
     3  H   -0.077866   0.371355   1.075938  -0.070417   0.108812  -0.012437
     4  H   -0.040097   0.403758  -0.070417   0.705247  -0.100597   0.010517
     5  C   -0.050692   0.260952   0.108812  -0.100597   5.479550   0.174236
     6  O    0.020180  -0.064305  -0.012437   0.010517   0.174236   8.785828
     7  N    0.054677  -0.096495  -0.201703   0.038496   0.068017  -0.121595
     8  H   -0.001450  -0.072401   0.006369  -0.006109  -0.117757  -0.002616
     9  C    0.006659  -0.061119  -0.041401  -0.003363  -0.271256   0.075493
    10  H    0.000728   0.006308  -0.002652   0.000446   0.040984  -0.006712
    11  C   -0.001109  -0.007308   0.001536   0.003355  -0.000515  -0.009368
    12  H   -0.000475  -0.004538  -0.000556   0.000070  -0.029494   0.001349
    13  H   -0.000043   0.001259   0.000093   0.000043  -0.006790  -0.000008
    14  H    0.000213   0.006015   0.001826   0.000466   0.042558  -0.000341
    15  C   -0.002187  -0.021729  -0.019521  -0.000928  -0.249388   0.066403
    16  O    0.000321   0.001487   0.000374   0.000157   0.022975  -0.004836
    17  N    0.002423  -0.002454   0.004071  -0.001584   0.048720  -0.050123
    18  H    0.001254   0.006592   0.002402  -0.003239   0.035553   0.046603
    19  C   -0.000164  -0.001132  -0.000414   0.000309   0.011326   0.001484
    20  H    0.000008  -0.000301  -0.000261  -0.000013  -0.006305   0.001655
    21  H    0.000154  -0.000400  -0.000120   0.000034   0.013908  -0.000741
    22  H   -0.000239  -0.000429   0.000036   0.000032  -0.007048   0.000269
              7          8          9         10         11         12
     1  H    0.054677  -0.001450   0.006659   0.000728  -0.001109  -0.000475
     2  C   -0.096495  -0.072401  -0.061119   0.006308  -0.007308  -0.004538
     3  H   -0.201703   0.006369  -0.041401  -0.002652   0.001536  -0.000556
     4  H    0.038496  -0.006109  -0.003363   0.000446   0.003355   0.000070
     5  C    0.068017  -0.117757  -0.271256   0.040984  -0.000515  -0.029494
     6  O   -0.121595  -0.002616   0.075493  -0.006712  -0.009368   0.001349
     7  N    7.483934   0.370641  -0.422625   0.077872   0.001685  -0.031463
     8  H    0.370641   0.968099  -0.081413   0.006652  -0.000576   0.009930
     9  C   -0.422625  -0.081413   7.539962  -0.172422   0.062601  -0.098234
    10  H    0.077872   0.006652  -0.172422   1.207236  -0.049833   0.070905
    11  C    0.001685  -0.000576   0.062601  -0.049833   4.355623   0.350718
    12  H   -0.031463   0.009930  -0.098234   0.070905   0.350718   1.061944
    13  H    0.024913  -0.000852  -0.018002  -0.012841   0.293670  -0.133309
    14  H   -0.049330  -0.009240   0.191830  -0.095485   0.225541  -0.219315
    15  C    0.173837  -0.005761  -0.447306   0.007735  -0.024577   0.027126
    16  O    0.013881   0.000024  -0.122922  -0.006015  -0.007405   0.025082
    17  N   -0.105836   0.013549   0.101101   0.016802  -0.009724   0.014450
    18  H    0.069440  -0.004744  -0.165214   0.005769   0.023094  -0.001371
    19  C   -0.018141   0.002746   0.014013   0.010536  -0.004883   0.003963
    20  H   -0.003592   0.000244   0.010043   0.003513  -0.005495   0.000483
    21  H    0.001872   0.000100  -0.028531  -0.002125   0.000949  -0.000620
    22  H   -0.002839  -0.000344   0.028353  -0.000214   0.004791   0.000666
             13         14         15         16         17         18
     1  H   -0.000043   0.000213  -0.002187   0.000321   0.002423   0.001254
     2  C    0.001259   0.006015  -0.021729   0.001487  -0.002454   0.006592
     3  H    0.000093   0.001826  -0.019521   0.000374   0.004071   0.002402
     4  H    0.000043   0.000466  -0.000928   0.000157  -0.001584  -0.003239
     5  C   -0.006790   0.042558  -0.249388   0.022975   0.048720   0.035553
     6  O   -0.000008  -0.000341   0.066403  -0.004836  -0.050123   0.046603
     7  N    0.024913  -0.049330   0.173837   0.013881  -0.105836   0.069440
     8  H   -0.000852  -0.009240  -0.005761   0.000024   0.013549  -0.004744
     9  C   -0.018002   0.191830  -0.447306  -0.122922   0.101101  -0.165214
    10  H   -0.012841  -0.095485   0.007735  -0.006015   0.016802   0.005769
    11  C    0.293670   0.225541  -0.024577  -0.007405  -0.009724   0.023094
    12  H   -0.133309  -0.219315   0.027126   0.025082   0.014450  -0.001371
    13  H    1.090819  -0.174349   0.019483  -0.011500  -0.023807   0.000452
    14  H   -0.174349   1.176562  -0.086611   0.009945   0.011348   0.000934
    15  C    0.019483  -0.086611   5.533517   0.280862   0.002720  -0.027984
    16  O   -0.011500   0.009945   0.280862   8.746773  -0.154168   0.018572
    17  N   -0.023807   0.011348   0.002720  -0.154168   7.229452   0.205782
    18  H    0.000452   0.000934  -0.027984   0.018572   0.205782   1.054342
    19  C   -0.006028  -0.000071  -0.150801   0.000037   0.258598  -0.170620
    20  H   -0.001471   0.000114   0.017179  -0.014487  -0.076249   0.005049
    21  H    0.000458  -0.000038   0.003862   0.008819  -0.110271   0.006481
    22  H    0.000160   0.000019  -0.041824   0.004250   0.105786  -0.019507
             19         20         21         22
     1  H   -0.000164   0.000008   0.000154  -0.000239
     2  C   -0.001132  -0.000301  -0.000400  -0.000429
     3  H   -0.000414  -0.000261  -0.000120   0.000036
     4  H    0.000309  -0.000013   0.000034   0.000032
     5  C    0.011326  -0.006305   0.013908  -0.007048
     6  O    0.001484   0.001655  -0.000741   0.000269
     7  N   -0.018141  -0.003592   0.001872  -0.002839
     8  H    0.002746   0.000244   0.000100  -0.000344
     9  C    0.014013   0.010043  -0.028531   0.028353
    10  H    0.010536   0.003513  -0.002125  -0.000214
    11  C   -0.004883  -0.005495   0.000949   0.004791
    12  H    0.003963   0.000483  -0.000620   0.000666
    13  H   -0.006028  -0.001471   0.000458   0.000160
    14  H   -0.000071   0.000114  -0.000038   0.000019
    15  C   -0.150801   0.017179   0.003862  -0.041824
    16  O    0.000037  -0.014487   0.008819   0.004250
    17  N    0.258598  -0.076249  -0.110271   0.105786
    18  H   -0.170620   0.005049   0.006481  -0.019507
    19  C    4.165332   0.488124   0.386183   0.261056
    20  H    0.488124   1.028699  -0.179940  -0.115084
    21  H    0.386183  -0.179940   1.191432  -0.151864
    22  H    0.261056  -0.115084  -0.151864   1.010738
 Mulliken atomic charges:
              1
     1  H    0.047735
     2  C    0.398467
     3  H   -0.145463
     4  H    0.063417
     5  C    0.532253
     6  O   -0.910935
     7  N   -0.325644
     8  H   -0.075090
     9  C   -0.096246
    10  H   -0.107186
    11  C    0.797230
    12  H   -0.047312
    13  H   -0.042350
    14  H   -0.032591
    15  C    0.945894
    16  O   -0.812226
    17  N   -0.480585
    18  H   -0.089637
    19  C    0.748547
    20  H   -0.151913
    21  H   -0.139602
    22  H   -0.076760
 Sum of Mulliken atomic charges =   0.00000
 Mulliken charges with hydrogens summed into heavy atoms:
              1
     2  C    0.364156
     5  C    0.532253
     6  O   -0.910935
     7  N   -0.400734
     9  C   -0.203432
    11  C    0.674976
    15  C    0.945894
    16  O   -0.812226
    17  N   -0.570223
    19  C    0.380272
 Sum of Mulliken charges with hydrogens summed into heavy atoms =   0.00000
 Electronic spatial extent (au):  <R**2>=           1746.4368
 Charge=              0.0000 electrons
 Dipole moment (field-independent basis, Debye):
    X=              3.7608    Y=              0.5071    Z=             -1.9279  Tot=              4.2565
 Quadrupole moment (field-independent basis, Debye-Ang):
   XX=            -64.5066   YY=            -58.6389   ZZ=            -62.0092
   XY=              8.6520   XZ=             -7.2396   YZ=              2.8484
 Traceless Quadrupole moment (field-independent basis, Debye-Ang):
   XX=             -2.7884   YY=              3.0793   ZZ=             -0.2910
   XY=              8.6520   XZ=             -7.2396   YZ=              2.8484
 Octapole moment (field-independent basis, Debye-Ang**2):
  XXX=             49.1165  YYY=             -3.9658  ZZZ=             -3.3435  XYY=             -5.0071
  XXY=            -15.6537  XXZ=             -7.0325  XZZ=             -2.7207  YZZ=              6.1726
  YYZ=             -4.2877  XYZ=              2.5140
 Hexadecapole moment (field-independent basis, Debye-Ang**3):
 XXXX=          -1358.1498 YYYY=           -747.9328 ZZZZ=           -166.8065 XXXY=             36.8010
 XXXZ=            -16.2411 YYYX=              5.9487 YYYZ=              4.9098 ZZZX=             -8.4648
 ZZZY=             -4.7578 XXYY=           -354.4264 XXZZ=           -257.5031 YYZZ=           -152.8883
 XXYZ=             14.3918 YYXZ=            -11.6047 ZZXY=              8.8527
 N-N= 5.588515428762D+02 E-N=-2.272916820014D+03  KE= 4.920783098316D+02
 1\1\GINC-NODE002\SP\RMP2-FC\Aug-CC-pVDZ\C6H12N2O2\STEBOSS\13-Feb-2017\
 0\\#SP MP2/aug-cc-pVDZ\\Single Point calculation at MP2\\0,1\H,0,3.350
 9,-1.5702,-0.8961\C,0,3.2173,-0.5185,-0.628\H,0,3.2953,0.0959,-1.5302\
 H,0,4.032,-0.2494,0.0526\C,0,1.8977,-0.3615,0.1076\O,0,1.6018,-1.0746,
 1.0691\N,0,1.0539,0.5955,-0.3636\H,0,1.3328,1.1377,-1.1697\C,0,-0.1385
 ,1.0502,0.361\H,0,0.0681,0.866,1.423\C,0,-0.3661,2.5401,0.1228\H,0,-0.
 5286,2.7483,-0.941\H,0,-1.2634,2.8664,0.6513\H,0,0.4928,3.1206,0.4749\
 C,0,-1.4075,0.2289,0.0075\O,0,-2.4802,0.774,-0.2295\N,0,-1.2067,-1.116
 5,-0.0223\H,0,-0.3364,-1.4608,0.3757\C,0,-2.3004,-2.0483,-0.2333\H,0,-
 3.1122,-1.5107,-0.7253\H,0,-1.973,-2.8772,-0.8696\H,0,-2.6777,-2.4596,
 0.7126\\Version=EM64L-G09RevA.02\State=1-A\HF=-492.9272191\MP2=-494.53
 00638\RMSD=7.911e-09\PG=C01 [X(C6H12N2O2)]\\@


 "MATHEMATICS IS THE ART OF GIVING THE SAME NAME
 TO DIFFERENT THINGS."
                    - H. POINCARE
 Job cpu time:  0 days 15 hours 51 minutes 44.5 seconds.
 File lengths (MBytes):  RWF=  10593 Int=      0 D2E=      0 Chk=      7 Scr=      2
 Normal termination of Gaussian 09 at Mon Feb 13 12:52:17 2017.
