 Entering Gaussian System, Link 0=g09
 Initial command:
 /home/steboss/Software/g09/l1.exe /tmp/Gau-19995.inp -scrdir=/tmp/
 Entering Link 1 = /home/steboss/Software/g09/l1.exe PID=     19997.
  
 Copyright (c) 1988,1990,1992,1993,1995,1998,2003,2009, Gaussian, Inc.
                  All Rights Reserved.
  
 This is part of the Gaussian(R) 09 program.  It is based on
 the Gaussian(R) 03 system (copyright 2003, Gaussian, Inc.),
 the Gaussian(R) 98 system (copyright 1998, Gaussian, Inc.),
 the Gaussian(R) 94 system (copyright 1995, Gaussian, Inc.),
 the Gaussian 92(TM) system (copyright 1992, Gaussian, Inc.),
 the Gaussian 90(TM) system (copyright 1990, Gaussian, Inc.),
 the Gaussian 88(TM) system (copyright 1988, Gaussian, Inc.),
 the Gaussian 86(TM) system (copyright 1986, Carnegie Mellon
 University), and the Gaussian 82(TM) system (copyright 1983,
 Carnegie Mellon University). Gaussian is a federally registered
 trademark of Gaussian, Inc.
  
 This software contains proprietary and confidential information,
 including trade secrets, belonging to Gaussian, Inc.
  
 This software is provided under written license and may be
 used, copied, transmitted, or stored only in accord with that
 written license.
  
 The following legend is applicable only to US Government
 contracts under FAR:
  
                    RESTRICTED RIGHTS LEGEND
  
 Use, reproduction and disclosure by the US Government is
 subject to restrictions as set forth in subparagraphs (a)
 and (c) of the Commercial Computer Software - Restricted
 Rights clause in FAR 52.227-19.
  
 Gaussian, Inc.
 340 Quinnipiac St., Bldg. 40, Wallingford CT 06492
  
  
 ---------------------------------------------------------------
 Warning -- This program may not be used in any manner that
 competes with the business of Gaussian, Inc. or will provide
 assistance to any competitor of Gaussian, Inc.  The licensee
 of this program is prohibited from giving any competitor of
 Gaussian, Inc. access to this program.  By using this program,
 the user acknowledges that Gaussian, Inc. is engaged in the
 business of creating and licensing software in the field of
 computational chemistry and represents and warrants to the
 licensee that it is not a competitor of Gaussian, Inc. and that
 it will not use this program in any manner prohibited above.
 ---------------------------------------------------------------
  

 Cite this work as:
 Gaussian 09, Revision A.02,
 M. J. Frisch, G. W. Trucks, H. B. Schlegel, G. E. Scuseria, 
 M. A. Robb, J. R. Cheeseman, G. Scalmani, V. Barone, B. Mennucci, 
 G. A. Petersson, H. Nakatsuji, M. Caricato, X. Li, H. P. Hratchian, 
 A. F. Izmaylov, J. Bloino, G. Zheng, J. L. Sonnenberg, M. Hada, 
 M. Ehara, K. Toyota, R. Fukuda, J. Hasegawa, M. Ishida, T. Nakajima, 
 Y. Honda, O. Kitao, H. Nakai, T. Vreven, J. A. Montgomery, Jr., 
 J. E. Peralta, F. Ogliaro, M. Bearpark, J. J. Heyd, E. Brothers, 
 K. N. Kudin, V. N. Staroverov, R. Kobayashi, J. Normand, 
 K. Raghavachari, A. Rendell, J. C. Burant, S. S. Iyengar, J. Tomasi, 
 M. Cossi, N. Rega, J. M. Millam, M. Klene, J. E. Knox, J. B. Cross, 
 V. Bakken, C. Adamo, J. Jaramillo, R. Gomperts, R. E. Stratmann, 
 O. Yazyev, A. J. Austin, R. Cammi, C. Pomelli, J. W. Ochterski, 
 R. L. Martin, K. Morokuma, V. G. Zakrzewski, G. A. Voth, 
 P. Salvador, J. J. Dannenberg, S. Dapprich, A. D. Daniels, 
 O. Farkas, J. B. Foresman, J. V. Ortiz, J. Cioslowski, 
 and D. J. Fox, Gaussian, Inc., Wallingford CT, 2009.
 
 ******************************************
 Gaussian 09:  EM64L-G09RevA.02 11-Jun-2009
                26-Dec-2016 
 ******************************************
 %chk=structure_30.chk
 -------------------------------------------------------------------
 # HF/6-31G* Opt=(ModRedundant, maxcycles=1000, calcfc) geom=nocrowd
 -------------------------------------------------------------------
 1/6=1000,10=4,18=120,19=15,38=1/1,3;
 2/9=110,12=1,17=6,18=5,40=1/2;
 3/5=1,6=6,7=1,11=9,16=1,25=1,30=1,71=2/1,2,3;
 4//1;
 5/5=2,38=5/2;
 8/6=4,10=90,11=11/1;
 11/6=1,8=1,9=11,15=111,16=1/1,2,10;
 10/6=1,7=6,13=1/2;
 6/7=2,8=2,9=2,10=2,28=1/1;
 7/10=1,18=20,25=1/1,2,3,16;
 1/6=1000,10=4,18=20,19=15/3(2);
 2/9=110,12=1/2;
 99//99;
 2/9=110,12=1/2;
 3/5=1,6=6,7=1,11=9,16=1,25=1,30=1,71=1/1,2,3;
 4/5=5,16=3/1;
 5/5=2,38=5/2;
 7//1,2,3,16;
 1/6=1000,18=20,19=15/3(-5);
 2/9=110,12=1/2;
 6/7=2,8=2,9=2,10=2,19=2,28=1/1;
 99/9=1/99;
 ------------------
 Phi Psi fixed scan
 ------------------
 Symbolic Z-matrix:
 Charge =  0 Multiplicity = 1
 H                     2.5153    1.        1.923 
 C                     2.5153    2.09      1.923 
 H                     2.5153    2.4538    2.9505 
 H                     1.6255    2.4539    1.4093 
 C                     3.7515    2.6408    1.2093 
 O                     4.5856    1.8774    0.7277 
 N                     3.8623    3.9697    1.1453 
 H                     3.1502    4.5562    1.5565 
 C                     4.9863    4.6139    0.4964 
 H                     5.9112    4.3155    0.9898 
 C                     5.07      4.2208   -0.9747 
 H                     4.1545    4.5214   -1.4843 
 H                     5.9225    4.7189   -1.4365 
 H                     5.1929    3.1409   -1.0563 
 C                     4.8645    6.1294    0.5667 
 O                     3.9015    6.6527    1.1227 
 N                     5.846     6.8349    0. 
 H                     6.6176    6.3592   -0.4455 
 C                     5.8461    8.2839    0. 
 H                     5.3323    8.6477   -0.8898 
 C                     5.1347    8.8329    1.2322 
 H                     5.6431    8.4846    2.1312 
 H                     5.1499    9.9224    1.2058 
 H                     4.1019    8.4846    1.2414 
 C                     7.266     8.8318    0. 
 O                     7.5178    9.9119    0.5295 
 N                     8.1958    8.0825   -0.5969 
 H                     7.94      7.2011   -1.0185 
 C                     9.5836    8.4938   -0.6638 
 H                     9.6567    9.4425   -1.1954 
 C                     10.1717   8.6708    0.7321 
 H                     10.114    7.7266    1.2737 
 H                     11.2139   8.9796    0.6514 
 H                     9.6082    9.4329    1.2704 
 C                     10.4268   7.4597   -1.396 
 O                     9.9117    6.4362   -1.8403 
 N                     11.7283   7.7297   -1.5211 
 H                     12.1056   8.585    -1.1388 
 C                     12.6364   6.8252   -2.197 
 H                     12.0854   5.9542   -2.5517 
 H                     13.0938   7.3352   -3.0449 
 H                     13.4141   6.505    -1.5037 
 
 The following ModRedundant input section has been read:
 D   15   17   19   25 F                                                       
 D   17   19   25   27 F                                                       

 GradGradGradGradGradGradGradGradGradGradGradGradGradGradGradGradGradGrad
 Berny optimization.
 Initialization pass.
                           ----------------------------
                           !    Initial Parameters    !
                           ! (Angstroms and Degrees)  !
 --------------------------                            --------------------------
 ! Name  Definition              Value          Derivative Info.                !
 --------------------------------------------------------------------------------
 ! R1    R(1,2)                  1.09           calculate D2E/DX2 analytically  !
 ! R2    R(2,3)                  1.09           calculate D2E/DX2 analytically  !
 ! R3    R(2,4)                  1.09           calculate D2E/DX2 analytically  !
 ! R4    R(2,5)                  1.53           calculate D2E/DX2 analytically  !
 ! R5    R(5,6)                  1.229          calculate D2E/DX2 analytically  !
 ! R6    R(5,7)                  1.335          calculate D2E/DX2 analytically  !
 ! R7    R(7,8)                  1.01           calculate D2E/DX2 analytically  !
 ! R8    R(7,9)                  1.4489         calculate D2E/DX2 analytically  !
 ! R9    R(9,10)                 1.0899         calculate D2E/DX2 analytically  !
 ! R10   R(9,11)                 1.525          calculate D2E/DX2 analytically  !
 ! R11   R(9,15)                 1.522          calculate D2E/DX2 analytically  !
 ! R12   R(11,12)                1.09           calculate D2E/DX2 analytically  !
 ! R13   R(11,13)                1.09           calculate D2E/DX2 analytically  !
 ! R14   R(11,14)                1.0899         calculate D2E/DX2 analytically  !
 ! R15   R(15,16)                1.229          calculate D2E/DX2 analytically  !
 ! R16   R(15,17)                1.335          calculate D2E/DX2 analytically  !
 ! R17   R(17,18)                1.01           calculate D2E/DX2 analytically  !
 ! R18   R(17,19)                1.449          calculate D2E/DX2 analytically  !
 ! R19   R(19,20)                1.09           calculate D2E/DX2 analytically  !
 ! R20   R(19,21)                1.5251         calculate D2E/DX2 analytically  !
 ! R21   R(19,25)                1.5219         calculate D2E/DX2 analytically  !
 ! R22   R(21,22)                1.0899         calculate D2E/DX2 analytically  !
 ! R23   R(21,23)                1.0899         calculate D2E/DX2 analytically  !
 ! R24   R(21,24)                1.09           calculate D2E/DX2 analytically  !
 ! R25   R(25,26)                1.229          calculate D2E/DX2 analytically  !
 ! R26   R(25,27)                1.335          calculate D2E/DX2 analytically  !
 ! R27   R(27,28)                1.01           calculate D2E/DX2 analytically  !
 ! R28   R(27,29)                1.449          calculate D2E/DX2 analytically  !
 ! R29   R(29,30)                1.0899         calculate D2E/DX2 analytically  !
 ! R30   R(29,31)                1.525          calculate D2E/DX2 analytically  !
 ! R31   R(29,35)                1.522          calculate D2E/DX2 analytically  !
 ! R32   R(31,32)                1.09           calculate D2E/DX2 analytically  !
 ! R33   R(31,33)                1.09           calculate D2E/DX2 analytically  !
 ! R34   R(31,34)                1.09           calculate D2E/DX2 analytically  !
 ! R35   R(35,36)                1.2289         calculate D2E/DX2 analytically  !
 ! R36   R(35,37)                1.3351         calculate D2E/DX2 analytically  !
 ! R37   R(37,38)                1.01           calculate D2E/DX2 analytically  !
 ! R38   R(37,39)                1.449          calculate D2E/DX2 analytically  !
 ! R39   R(39,40)                1.09           calculate D2E/DX2 analytically  !
 ! R40   R(39,41)                1.0901         calculate D2E/DX2 analytically  !
 ! R41   R(39,42)                1.09           calculate D2E/DX2 analytically  !
 ! A1    A(1,2,3)              109.4972         calculate D2E/DX2 analytically  !
 ! A2    A(1,2,4)              109.5032         calculate D2E/DX2 analytically  !
 ! A3    A(1,2,5)              111.1            calculate D2E/DX2 analytically  !
 ! A4    A(3,2,4)              109.4412         calculate D2E/DX2 analytically  !
 ! A5    A(3,2,5)              108.6367         calculate D2E/DX2 analytically  !
 ! A6    A(4,2,5)              108.6357         calculate D2E/DX2 analytically  !
 ! A7    A(2,5,6)              120.4994         calculate D2E/DX2 analytically  !
 ! A8    A(2,5,7)              116.5999         calculate D2E/DX2 analytically  !
 ! A9    A(6,5,7)              122.9007         calculate D2E/DX2 analytically  !
 ! A10   A(5,7,8)              119.9983         calculate D2E/DX2 analytically  !
 ! A11   A(5,7,9)              121.8976         calculate D2E/DX2 analytically  !
 ! A12   A(8,7,9)              118.1041         calculate D2E/DX2 analytically  !
 ! A13   A(7,9,10)             109.5012         calculate D2E/DX2 analytically  !
 ! A14   A(7,9,11)             111.0992         calculate D2E/DX2 analytically  !
 ! A15   A(7,9,15)             111.0961         calculate D2E/DX2 analytically  !
 ! A16   A(10,9,11)            108.6353         calculate D2E/DX2 analytically  !
 ! A17   A(10,9,15)            108.6394         calculate D2E/DX2 analytically  !
 ! A18   A(11,9,15)            107.7951         calculate D2E/DX2 analytically  !
 ! A19   A(9,11,12)            109.4993         calculate D2E/DX2 analytically  !
 ! A20   A(9,11,13)            109.5009         calculate D2E/DX2 analytically  !
 ! A21   A(9,11,14)            109.4999         calculate D2E/DX2 analytically  !
 ! A22   A(12,11,13)           109.438          calculate D2E/DX2 analytically  !
 ! A23   A(12,11,14)           109.447          calculate D2E/DX2 analytically  !
 ! A24   A(13,11,14)           109.4422         calculate D2E/DX2 analytically  !
 ! A25   A(9,15,16)            120.5033         calculate D2E/DX2 analytically  !
 ! A26   A(9,15,17)            116.6002         calculate D2E/DX2 analytically  !
 ! A27   A(16,15,17)           122.8965         calculate D2E/DX2 analytically  !
 ! A28   A(15,17,18)           120.0            calculate D2E/DX2 analytically  !
 ! A29   A(15,17,19)           121.9052         calculate D2E/DX2 analytically  !
 ! A30   A(18,17,19)           118.0948         calculate D2E/DX2 analytically  !
 ! A31   A(17,19,20)           109.4954         calculate D2E/DX2 analytically  !
 ! A32   A(17,19,21)           111.0974         calculate D2E/DX2 analytically  !
 ! A33   A(17,19,25)           111.1042         calculate D2E/DX2 analytically  !
 ! A34   A(20,19,21)           108.6349         calculate D2E/DX2 analytically  !
 ! A35   A(20,19,25)           108.6399         calculate D2E/DX2 analytically  !
 ! A36   A(21,19,25)           107.7944         calculate D2E/DX2 analytically  !
 ! A37   A(19,21,22)           109.4996         calculate D2E/DX2 analytically  !
 ! A38   A(19,21,23)           109.4977         calculate D2E/DX2 analytically  !
 ! A39   A(19,21,24)           109.4988         calculate D2E/DX2 analytically  !
 ! A40   A(22,21,23)           109.4452         calculate D2E/DX2 analytically  !
 ! A41   A(22,21,24)           109.4447         calculate D2E/DX2 analytically  !
 ! A42   A(23,21,24)           109.4412         calculate D2E/DX2 analytically  !
 ! A43   A(19,25,26)           120.5            calculate D2E/DX2 analytically  !
 ! A44   A(19,25,27)           116.5974         calculate D2E/DX2 analytically  !
 ! A45   A(26,25,27)           122.9027         calculate D2E/DX2 analytically  !
 ! A46   A(25,27,28)           120.0038         calculate D2E/DX2 analytically  !
 ! A47   A(25,27,29)           121.8959         calculate D2E/DX2 analytically  !
 ! A48   A(28,27,29)           118.1003         calculate D2E/DX2 analytically  !
 ! A49   A(27,29,30)           109.5007         calculate D2E/DX2 analytically  !
 ! A50   A(27,29,31)           111.1017         calculate D2E/DX2 analytically  !
 ! A51   A(27,29,35)           111.0978         calculate D2E/DX2 analytically  !
 ! A52   A(30,29,31)           108.6355         calculate D2E/DX2 analytically  !
 ! A53   A(30,29,35)           108.6386         calculate D2E/DX2 analytically  !
 ! A54   A(31,29,35)           107.7917         calculate D2E/DX2 analytically  !
 ! A55   A(29,31,32)           109.5023         calculate D2E/DX2 analytically  !
 ! A56   A(29,31,33)           109.502          calculate D2E/DX2 analytically  !
 ! A57   A(29,31,34)           109.501          calculate D2E/DX2 analytically  !
 ! A58   A(32,31,33)           109.4392         calculate D2E/DX2 analytically  !
 ! A59   A(32,31,34)           109.4443         calculate D2E/DX2 analytically  !
 ! A60   A(33,31,34)           109.4385         calculate D2E/DX2 analytically  !
 ! A61   A(29,35,36)           120.5025         calculate D2E/DX2 analytically  !
 ! A62   A(29,35,37)           116.5992         calculate D2E/DX2 analytically  !
 ! A63   A(36,35,37)           122.8984         calculate D2E/DX2 analytically  !
 ! A64   A(35,37,38)           119.9981         calculate D2E/DX2 analytically  !
 ! A65   A(35,37,39)           121.8981         calculate D2E/DX2 analytically  !
 ! A66   A(38,37,39)           118.1038         calculate D2E/DX2 analytically  !
 ! A67   A(37,39,40)           109.4996         calculate D2E/DX2 analytically  !
 ! A68   A(37,39,41)           109.4967         calculate D2E/DX2 analytically  !
 ! A69   A(37,39,42)           109.5019         calculate D2E/DX2 analytically  !
 ! A70   A(40,39,41)           109.4424         calculate D2E/DX2 analytically  !
 ! A71   A(40,39,42)           109.4467         calculate D2E/DX2 analytically  !
 ! A72   A(41,39,42)           109.4399         calculate D2E/DX2 analytically  !
 ! D1    D(1,2,5,6)              0.0022         calculate D2E/DX2 analytically  !
 ! D2    D(1,2,5,7)            179.9987         calculate D2E/DX2 analytically  !
 ! D3    D(3,2,5,6)            120.5114         calculate D2E/DX2 analytically  !
 ! D4    D(3,2,5,7)            -59.4921         calculate D2E/DX2 analytically  !
 ! D5    D(4,2,5,6)           -120.5139         calculate D2E/DX2 analytically  !
 ! D6    D(4,2,5,7)             59.4827         calculate D2E/DX2 analytically  !
 ! D7    D(2,5,7,8)              0.0058         calculate D2E/DX2 analytically  !
 ! D8    D(2,5,7,9)            179.9989         calculate D2E/DX2 analytically  !
 ! D9    D(6,5,7,8)           -179.9977         calculate D2E/DX2 analytically  !
 ! D10   D(6,5,7,9)             -0.0046         calculate D2E/DX2 analytically  !
 ! D11   D(5,7,9,10)           -59.9963         calculate D2E/DX2 analytically  !
 ! D12   D(5,7,9,11)            60.0033         calculate D2E/DX2 analytically  !
 ! D13   D(5,7,9,15)          -179.9991         calculate D2E/DX2 analytically  !
 ! D14   D(8,7,9,10)           119.9969         calculate D2E/DX2 analytically  !
 ! D15   D(8,7,9,11)          -120.0035         calculate D2E/DX2 analytically  !
 ! D16   D(8,7,9,15)            -0.0059         calculate D2E/DX2 analytically  !
 ! D17   D(7,9,11,12)           60.0013         calculate D2E/DX2 analytically  !
 ! D18   D(7,9,11,13)          179.996          calculate D2E/DX2 analytically  !
 ! D19   D(7,9,11,14)          -60.0039         calculate D2E/DX2 analytically  !
 ! D20   D(10,9,11,12)        -179.486          calculate D2E/DX2 analytically  !
 ! D21   D(10,9,11,13)         -59.4913         calculate D2E/DX2 analytically  !
 ! D22   D(10,9,11,14)          60.5089         calculate D2E/DX2 analytically  !
 ! D23   D(15,9,11,12)         -61.9387         calculate D2E/DX2 analytically  !
 ! D24   D(15,9,11,13)          58.056          calculate D2E/DX2 analytically  !
 ! D25   D(15,9,11,14)         178.0562         calculate D2E/DX2 analytically  !
 ! D26   D(7,9,15,16)            0.0028         calculate D2E/DX2 analytically  !
 ! D27   D(7,9,15,17)         -179.9973         calculate D2E/DX2 analytically  !
 ! D28   D(10,9,15,16)        -120.5108         calculate D2E/DX2 analytically  !
 ! D29   D(10,9,15,17)          59.4892         calculate D2E/DX2 analytically  !
 ! D30   D(11,9,15,16)         121.9446         calculate D2E/DX2 analytically  !
 ! D31   D(11,9,15,17)         -58.0555         calculate D2E/DX2 analytically  !
 ! D32   D(9,15,17,18)           0.0005         calculate D2E/DX2 analytically  !
 ! D33   D(9,15,17,19)        -179.9968         calculate D2E/DX2 analytically  !
 ! D34   D(16,15,17,18)       -179.9995         calculate D2E/DX2 analytically  !
 ! D35   D(16,15,17,19)          0.0032         calculate D2E/DX2 analytically  !
 ! D36   D(15,17,19,20)        -89.9978         calculate D2E/DX2 analytically  !
 ! D37   D(15,17,19,21)         29.9965         calculate D2E/DX2 analytically  !
 ! D38   D(15,17,19,25)        149.9974         frozen, calculate D2E/DX2 analyt!
 ! D39   D(18,17,19,20)         90.0049         calculate D2E/DX2 analytically  !
 ! D40   D(18,17,19,21)       -150.0008         calculate D2E/DX2 analytically  !
 ! D41   D(18,17,19,25)        -29.9999         calculate D2E/DX2 analytically  !
 ! D42   D(17,19,21,22)         60.0039         calculate D2E/DX2 analytically  !
 ! D43   D(17,19,21,23)       -179.9943         calculate D2E/DX2 analytically  !
 ! D44   D(17,19,21,24)        -59.998          calculate D2E/DX2 analytically  !
 ! D45   D(20,19,21,22)       -179.4919         calculate D2E/DX2 analytically  !
 ! D46   D(20,19,21,23)        -59.4901         calculate D2E/DX2 analytically  !
 ! D47   D(20,19,21,24)         60.5062         calculate D2E/DX2 analytically  !
 ! D48   D(25,19,21,22)        -61.9445         calculate D2E/DX2 analytically  !
 ! D49   D(25,19,21,23)         58.0573         calculate D2E/DX2 analytically  !
 ! D50   D(25,19,21,24)        178.0536         calculate D2E/DX2 analytically  !
 ! D51   D(17,19,25,26)       -149.9976         calculate D2E/DX2 analytically  !
 ! D52   D(17,19,25,27)         30.0017         frozen, calculate D2E/DX2 analyt!
 ! D53   D(20,19,25,26)         89.4907         calculate D2E/DX2 analytically  !
 ! D54   D(20,19,25,27)        -90.5099         calculate D2E/DX2 analytically  !
 ! D55   D(21,19,25,26)        -28.0535         calculate D2E/DX2 analytically  !
 ! D56   D(21,19,25,27)        151.9459         calculate D2E/DX2 analytically  !
 ! D57   D(19,25,27,28)         -0.0011         calculate D2E/DX2 analytically  !
 ! D58   D(19,25,27,29)       -179.9996         calculate D2E/DX2 analytically  !
 ! D59   D(26,25,27,28)        179.9982         calculate D2E/DX2 analytically  !
 ! D60   D(26,25,27,29)         -0.0002         calculate D2E/DX2 analytically  !
 ! D61   D(25,27,29,30)        -60.0016         calculate D2E/DX2 analytically  !
 ! D62   D(25,27,29,31)         59.9997         calculate D2E/DX2 analytically  !
 ! D63   D(25,27,29,35)        179.9959         calculate D2E/DX2 analytically  !
 ! D64   D(28,27,29,30)        120.0            calculate D2E/DX2 analytically  !
 ! D65   D(28,27,29,31)       -119.9988         calculate D2E/DX2 analytically  !
 ! D66   D(28,27,29,35)         -0.0026         calculate D2E/DX2 analytically  !
 ! D67   D(27,29,31,32)         60.0004         calculate D2E/DX2 analytically  !
 ! D68   D(27,29,31,33)        179.9991         calculate D2E/DX2 analytically  !
 ! D69   D(27,29,31,34)        -60.0039         calculate D2E/DX2 analytically  !
 ! D70   D(30,29,31,32)       -179.4857         calculate D2E/DX2 analytically  !
 ! D71   D(30,29,31,33)        -59.487          calculate D2E/DX2 analytically  !
 ! D72   D(30,29,31,34)         60.51           calculate D2E/DX2 analytically  !
 ! D73   D(35,29,31,32)        -61.941          calculate D2E/DX2 analytically  !
 ! D74   D(35,29,31,33)         58.0577         calculate D2E/DX2 analytically  !
 ! D75   D(35,29,31,34)        178.0547         calculate D2E/DX2 analytically  !
 ! D76   D(27,29,35,36)          0.0048         calculate D2E/DX2 analytically  !
 ! D77   D(27,29,35,37)        179.9987         calculate D2E/DX2 analytically  !
 ! D78   D(30,29,35,36)       -120.5087         calculate D2E/DX2 analytically  !
 ! D79   D(30,29,35,37)         59.4852         calculate D2E/DX2 analytically  !
 ! D80   D(31,29,35,36)        121.9486         calculate D2E/DX2 analytically  !
 ! D81   D(31,29,35,37)        -58.0575         calculate D2E/DX2 analytically  !
 ! D82   D(29,35,37,38)          0.0044         calculate D2E/DX2 analytically  !
 ! D83   D(29,35,37,39)       -179.9996         calculate D2E/DX2 analytically  !
 ! D84   D(36,35,37,38)        179.9981         calculate D2E/DX2 analytically  !
 ! D85   D(36,35,37,39)         -0.0059         calculate D2E/DX2 analytically  !
 ! D86   D(35,37,39,40)          0.0057         calculate D2E/DX2 analytically  !
 ! D87   D(35,37,39,41)        120.0034         calculate D2E/DX2 analytically  !
 ! D88   D(35,37,39,42)       -120.0005         calculate D2E/DX2 analytically  !
 ! D89   D(38,37,39,40)       -179.9982         calculate D2E/DX2 analytically  !
 ! D90   D(38,37,39,41)        -60.0005         calculate D2E/DX2 analytically  !
 ! D91   D(38,37,39,42)         59.9956         calculate D2E/DX2 analytically  !
 --------------------------------------------------------------------------------
 Trust Radius=3.00D-01 FncErr=1.00D-07 GrdErr=1.00D-07
 Number of steps in this run= 252 maximum allowed number of steps= 252.
 GradGradGradGradGradGradGradGradGradGradGradGradGradGradGradGradGradGrad

                          Input orientation:                          
 ---------------------------------------------------------------------
 Center     Atomic      Atomic             Coordinates (Angstroms)
 Number     Number       Type             X           Y           Z
 ---------------------------------------------------------------------
      1          1           0        2.515300    1.000000    1.923000
      2          6           0        2.515300    2.090000    1.923000
      3          1           0        2.515300    2.453800    2.950500
      4          1           0        1.625500    2.453900    1.409300
      5          6           0        3.751500    2.640800    1.209300
      6          8           0        4.585600    1.877400    0.727700
      7          7           0        3.862300    3.969700    1.145300
      8          1           0        3.150200    4.556200    1.556500
      9          6           0        4.986300    4.613900    0.496400
     10          1           0        5.911200    4.315500    0.989800
     11          6           0        5.070000    4.220800   -0.974700
     12          1           0        4.154500    4.521400   -1.484300
     13          1           0        5.922500    4.718900   -1.436500
     14          1           0        5.192900    3.140900   -1.056300
     15          6           0        4.864500    6.129400    0.566700
     16          8           0        3.901500    6.652700    1.122700
     17          7           0        5.846000    6.834900    0.000000
     18          1           0        6.617600    6.359200   -0.445500
     19          6           0        5.846100    8.283900    0.000000
     20          1           0        5.332300    8.647700   -0.889800
     21          6           0        5.134700    8.832900    1.232200
     22          1           0        5.643100    8.484600    2.131200
     23          1           0        5.149900    9.922400    1.205800
     24          1           0        4.101900    8.484600    1.241400
     25          6           0        7.266000    8.831800    0.000000
     26          8           0        7.517800    9.911900    0.529500
     27          7           0        8.195800    8.082500   -0.596900
     28          1           0        7.940000    7.201100   -1.018500
     29          6           0        9.583600    8.493800   -0.663800
     30          1           0        9.656700    9.442500   -1.195400
     31          6           0       10.171700    8.670800    0.732100
     32          1           0       10.114000    7.726600    1.273700
     33          1           0       11.213900    8.979600    0.651400
     34          1           0        9.608200    9.432900    1.270400
     35          6           0       10.426800    7.459700   -1.396000
     36          8           0        9.911700    6.436200   -1.840300
     37          7           0       11.728300    7.729700   -1.521100
     38          1           0       12.105600    8.585000   -1.138800
     39          6           0       12.636400    6.825200   -2.197000
     40          1           0       12.085400    5.954200   -2.551700
     41          1           0       13.093800    7.335200   -3.044900
     42          1           0       13.414100    6.505000   -1.503700
 ---------------------------------------------------------------------
                    Distance matrix (angstroms):
                    1          2          3          4          5
     1  H    0.000000
     2  C    1.090000   0.000000
     3  H    1.780250   1.090003   0.000000
     4  H    1.780297   1.089979   1.779618   0.000000
     5  C    2.174806   1.530013   2.143580   2.143550   0.000000
     6  O    2.546510   2.400017   3.091799   3.091783   1.229000
     7  N    3.352364   2.439774   2.714979   2.714889   1.335046
     8  H    3.630975   2.572851   2.601234   2.601162   2.037368
     9  C    4.604487   3.809344   4.098107   4.098044   2.434354
    10  H    4.836894   4.166035   4.340784   4.691349   2.741734
    11  C    5.029583   4.411742   5.005594   4.546424   3.000783
    12  H    5.166907   4.495373   5.160368   4.363865   3.309765
    13  H    6.060154   5.459521   5.998788   5.629655   4.003998
    14  H    4.541940   4.141275   4.867863   4.390614   2.731424
    15  C    5.802502   4.865701   4.971044   4.970955   3.717800
    16  O    5.874951   4.835314   4.784680   4.784583   4.015637
    17  N    6.988387   6.107828   6.244442   6.244350   4.841468
    18  H    7.152600   6.376890   6.604077   6.603992   4.977890
    19  C    8.236951   7.290854   7.334149   7.334064   6.139571
    20  H    8.621754   7.671425   7.813309   7.575578   6.556523
    21  C    8.288111   7.266716   7.106809   7.282684   6.344751
    22  H    8.114537   7.121614   6.842875   7.282279   6.211123
    23  H    9.330847   8.294696   8.109567   8.260829   7.414663
    24  H    7.681218   6.623654   6.465978   6.521510   5.854384
    25  C    9.359710   8.468704   8.482540   8.630120   7.220983
    26  O   10.314495   9.388768   9.301048   9.545418   8.216814
    27  N    9.422302   8.632962   8.748394   8.881150   7.254396
    28  H    8.748339   8.012686   8.229045   8.264565   6.580499
    29  C   10.621179   9.882361   9.975251  10.203406   8.472279
    30  H   11.489117  10.713695  10.818041  10.960163   9.322934
    31  C   10.903205  10.165905  10.109048  10.589900   8.820861
    32  H   10.169021   9.483306   9.399698   9.993717   8.145607
    33  H   11.872516  11.169118  11.114746  11.623106   9.807092
    34  H   11.038520  10.230019  10.091571  10.604208   8.968684
    35  C   10.739428  10.121328  10.321963  10.506694   8.635335
    36  O    9.920758   9.367957   9.670471   9.750883   7.851954
    37  N   11.917636  11.337875  11.519969  11.768087   9.847910
    38  H   12.604789  11.980547  12.094951  12.406277  10.518463
    39  C   12.383215  11.909374  12.167274  12.383601  10.394880
    40  H   11.668498  11.249080  11.580752  11.719690   9.725103
    41  H   13.293587  12.810028  13.102578  13.235894  11.287789
    42  H   12.681922  12.248197  12.451344  12.801096  10.754453
                    6          7          8          9         10
     6  O    0.000000
     7  N    2.252836   0.000000
     8  H    3.150119   1.010027   0.000000
     9  C    2.775336   1.448945   2.120944   0.000000
    10  H    2.787516   2.083686   2.828817   1.089920   0.000000
    11  C    2.936721   2.452752   3.194542   1.525014   2.139123
    12  H    3.474123   2.702693   3.202545   2.150260   3.041309
    13  H    3.813815   3.386948   4.082912   2.150255   2.459632
    14  H    2.268899   2.702674   3.605887   2.150184   2.466205
    15  C    4.264178   2.450201   2.528535   1.522011   2.136546
    16  O    4.840197   2.683382   2.268909   2.392854   3.085297
    17  N    5.166717   3.668262   3.857785   2.432763   2.707643
    18  H    5.058849   3.978949   4.391090   2.567954   2.595341
    19  C    6.569753   4.884618   4.856575   3.801916   4.090494
    20  H    7.000773   5.309069   5.242739   4.279347   4.757728
    21  C    6.995356   5.027650   4.725841   4.285252   4.590056
    22  H    6.836901   4.952532   4.687980   4.252796   4.330827
    23  H    8.078926   6.090666   5.737412   5.358189   5.662470
    24  H    6.644768   4.522274   4.054300   4.039741   4.551732
    25  C    7.488509   6.044576   6.135410   4.820179   4.817899
    26  O    8.555131   7.003687   6.986715   5.871830   5.840611
    27  N    7.300094   6.223312   6.521503   4.850503   4.682660
    28  H    6.530160   5.634857   6.047173   4.208666   4.059062
    29  C    8.407914   7.514892   7.862764   6.126570   5.803370
    30  H    9.308335   8.306954   8.589728   6.927496   6.714909
    31  C    8.795159   7.879061   8.179916   6.588047   6.098107
    32  H    8.066874   7.294829   7.656757   6.048670   5.420307
    33  H    9.715010   8.910054   9.241695   7.606994   7.070146
    34  H    9.088818   7.929538   8.097519   6.721889   6.319361
    35  C    8.354148   7.856906   8.372364   6.424858   5.997389
    36  O    7.466232   7.182804   7.796828   5.748087   5.339554
    37  N    9.503930   9.117085   9.650208   7.696303   7.197224
    38  H   10.248225   9.719573  10.183077   8.314322   7.818578
    39  C    9.891915   9.813750  10.451082   8.406443   7.853827
    40  H    9.144494   9.231762   9.933253   7.841208   7.303992
    41  H   10.789326  10.681992  11.303579   9.256232   8.774231
    42  H   10.214511  10.231414  10.886243   8.865916   8.203960
                   11         12         13         14         15
    11  C    0.000000
    12  H    1.090043   0.000000
    13  H    1.090009   1.779639   0.000000
    14  H    1.089930   1.779674   1.779593   0.000000
    15  C    2.461889   2.701178   2.668648   3.416593   0.000000
    16  O    3.417399   3.376818   3.791244   4.329953   1.228962
    17  N    2.895813   3.227476   2.558679   3.897171   1.334999
    18  H    2.692187   3.243991   2.038585   3.572156   2.037331
    19  C    4.249842   4.384183   3.844294   5.290831   2.434452
    20  H    4.435477   4.332089   4.010322   5.511080   2.946534
    21  C    5.113322   5.189335   4.966647   6.135103   2.797286
    22  H    5.306133   5.567291   5.194906   6.238427   2.932720
    23  H    6.104851   6.115412   5.886856   7.148964   3.857039
    24  H    4.901868   4.810318   4.966511   5.918178   2.565881
    25  C    5.199402   5.519432   4.558999   6.148159   3.659415
    26  O    6.375183   6.665183   5.777317   7.332555   4.620464
    27  N    4.982578   5.459031   4.145676   5.800678   4.033128
    28  H    4.137754   4.661306   3.225887   4.902368   3.622168
    29  C    6.223164   6.777043   5.315128   6.934396   5.419818
    30  H    6.953609   7.387482   6.026174   7.723666   6.086609
    31  C    6.981619   7.637843   6.194840   7.652883   5.886633
    32  H    6.541244   7.307223   5.827531   7.118621   5.532463
    33  H    7.939640   8.618114   7.107166   8.559153   6.960294
    34  H    7.266479   7.839263   6.567609   8.031044   5.823315
    35  C    6.274016   6.926987   5.272793   6.794199   6.046575
    36  O    5.394379   6.077709   4.361868   5.808677   5.600179
    37  N    7.546118   8.225387   6.540595   7.999036   7.350620
    38  H    8.280872   8.936006   7.298361   8.799458   7.834043
    39  C    8.094895   8.818053   7.077522   8.383374   8.277959
    40  H    7.396448   8.129664   6.383649   7.593249   7.867434
    41  H    8.852490   9.500738   7.801251   9.163564   9.067469
    42  H    8.667261   9.469701   7.701866   8.894125   8.804731
                   16         17         18         19         20
    16  O    0.000000
    17  N    2.252717   0.000000
    18  H    3.150015   1.010014   0.000000
    19  C    2.775381   1.449000   2.120885   0.000000
    20  H    3.174487   2.083717   2.662073   1.089993   0.000000
    21  C    2.507199   2.452808   3.336594   1.525060   2.139212
    22  H    2.721415   2.702719   3.479419   2.150233   3.041322
    23  H    3.500906   3.386911   4.192533   2.150193   2.459608
    24  H    1.846648   2.702678   3.700230   2.150253   2.466272
    25  C    4.162787   2.450308   2.594734   1.521943   2.136547
    26  O    4.904273   3.541640   3.792448   2.392767   2.896381
    27  N    4.841732   2.726601   2.341666   2.432682   2.933407
    28  H    4.603799   2.357176   1.669091   2.567920   2.984847
    29  C    6.234380   4.142733   3.660782   3.801788   4.260084
    30  H    6.802860   4.769695   4.393770   4.158366   4.407441
    31  C    6.598538   4.755857   4.400212   4.404143   5.104007
    32  H    6.306443   4.542385   4.129194   4.488637   5.328584
    33  H    7.688158   5.817079   5.403301   5.451752   6.089226
    34  H    6.349626   4.745279   4.619051   4.133705   4.854516
    35  C    7.040926   4.829381   4.077322   4.859108   5.255617
    36  O    6.704383   4.480578   3.578057   4.830093   5.173499
    37  N    8.331171   6.141324   5.399485   6.100915   6.492309
    38  H    8.726707   6.598660   5.962633   6.369369   6.778165
    39  C    9.346050   7.136977   6.285767   7.284421   7.640691
    40  H    8.998074   6.798303   5.873410   7.132148   7.457963
    41  H   10.115981   7.877330   7.046320   7.918371   8.161372
    42  H    9.869618   7.723088   6.879931   7.918347   8.383527
                   21         22         23         24         25
    21  C    0.000000
    22  H    1.089947   0.000000
    23  H    1.089926   1.779573   0.000000
    24  H    1.089988   1.779618   1.779562   0.000000
    25  C    2.461861   2.701179   2.668565   3.416599   0.000000
    26  O    2.708726   2.849057   2.462609   3.769928   1.228979
    27  N    3.644042   3.757724   3.989043   4.505668   1.335016
    28  H    3.949447   4.104112   4.487498   4.635249   2.037351
    29  C    4.847939   4.831113   5.019362   5.803353   2.434367
    30  H    5.168495   5.300266   5.129065   6.140958   2.741784
    31  C    5.064360   4.743455   5.197054   6.093975   3.000831
    32  H    5.100887   4.615064   5.428484   6.059782   3.309816
    33  H    6.108643   5.785209   6.161844   7.153577   4.004008
    34  H    4.513719   4.166805   4.485557   5.587437   2.731508
    35  C    6.066254   6.031198   6.378082   6.928972   3.717813
    36  O    6.164751   6.179782   6.641314   6.888149   4.015636
    37  N    7.230026   7.137144   7.451125   8.146365   4.841538
    38  H    7.367262   7.243403   7.461069   8.350727   4.977902
    39  C    8.489156   8.390064   8.787456   9.349540   6.139581
    40  H    8.421226   8.356776   8.829869   9.193846   6.165904
    41  H    9.158819   9.144729   9.373772  10.027350   6.743477
    42  H    9.025117   8.804530   9.344357   9.908151   6.743459
                   26         27         28         29         30
    26  O    0.000000
    27  N    2.252813   0.000000
    28  H    3.150078   1.009973   0.000000
    29  C    2.775338   1.449011   2.120921   0.000000
    30  H    2.787563   2.083754   2.828821   1.089942   0.000000
    31  C    2.936760   2.452859   3.194543   1.525034   2.139159
    32  H    3.474136   2.702832   3.202594   2.150308   3.041363
    33  H    3.813817   3.387030   4.082897   2.150263   2.459638
    34  H    2.268953   2.702825   3.605951   2.150266   2.466296
    35  C    4.264167   2.450266   2.528548   1.521994   2.136537
    36  O    4.840165   2.683405   2.268927   2.392806   3.085249
    37  N    5.166746   3.668402   3.857880   2.432807   2.707636
    38  H    5.058834   3.979032   4.391113   2.567962   2.595308
    39  C    6.569748   4.884675   4.856577   3.801910   4.090486
    40  H    6.783815   4.845605   4.592364   4.033948   4.461656
    41  H    7.106862   5.526442   5.539489   4.396987   4.435653
    42  H    7.106843   5.526432   5.539472   4.396986   4.779332
                   31         32         33         34         35
    31  C    0.000000
    32  H    1.090034   0.000000
    33  H    1.089977   1.779620   0.000000
    34  H    1.089998   1.779692   1.779583   0.000000
    35  C    2.461839   2.701181   2.668608   3.416623   0.000000
    36  O    3.417350   3.376841   3.791197   4.329986   1.228936
    37  N    2.895787   3.227519   2.558635   3.897202   1.335085
    38  H    2.692136   3.243991   2.038542   3.572140   2.037356
    39  C    4.249778   4.384151   3.844259   5.290837   2.434445
    40  H    4.671778   4.654192   4.491370   5.731171   2.520541
    41  H    4.958652   5.261436   4.461021   5.930562   3.138034
    42  H    4.494736   4.482959   3.950820   5.545548   3.137995
                   36         37         38         39         40
    36  O    0.000000
    37  N    2.252791   0.000000
    38  H    3.150022   1.009974   0.000000
    39  C    2.775346   1.449002   2.120951   0.000000
    40  H    2.337389   2.083760   2.986269   1.089979   0.000000
    41  H    3.519236   2.083791   2.484302   1.090068   1.779685
    42  H    3.519210   2.083774   2.484296   1.089959   1.779643
                   41         42
    41  H    0.000000
    42  H    1.779641   0.000000
 Stoichiometry    C12H22N4O4
 Framework group  C1[X(C12H22N4O4)]
 Deg. of freedom   120
 Full point group                 C1      NOp   1
 Largest Abelian subgroup         C1      NOp   1
 Largest concise Abelian subgroup C1      NOp   1
                         Standard orientation:                         
 ---------------------------------------------------------------------
 Center     Atomic      Atomic             Coordinates (Angstroms)
 Number     Number       Type             X           Y           Z
 ---------------------------------------------------------------------
      1          1           0       -6.909024   -1.958587    0.865609
      2          6           0       -6.332228   -1.046390    0.712964
      3          1           0       -6.394096   -0.423263    1.605149
      4          1           0       -6.734641   -0.499824   -0.139904
      5          6           0       -4.860775   -1.364373    0.439741
      6          8           0       -4.468562   -2.528831    0.414298
      7          7           0       -4.051789   -0.322070    0.236036
      8          1           0       -4.421168    0.617483    0.266931
      9          6           0       -2.638015   -0.491184   -0.032449
     10          1           0       -2.167429   -1.005061    0.805647
     11          6           0       -2.413898   -1.314162   -1.296627
     12          1           0       -2.871681   -0.807707   -2.146410
     13          1           0       -1.344105   -1.425056   -1.473724
     14          1           0       -2.865403   -2.298649   -1.174663
     15          6           0       -1.952312    0.853847   -0.225378
     16          8           0       -2.594613    1.898586   -0.145882
     17          7           0       -0.642103    0.825802   -0.479908
     18          1           0       -0.157310   -0.058499   -0.535710
     19          6           0        0.124748    2.038395   -0.682790
     20          1           0        0.120553    2.298638   -1.741251
     21          6           0       -0.467164    3.200874    0.107204
     22          1           0       -0.461428    2.958891    1.169935
     23          1           0        0.128240    4.097610   -0.063959
     24          1           0       -1.491967    3.378087   -0.219060
     25          6           0        1.567064    1.856474   -0.232301
     26          8           0        2.211892    2.811032    0.195958
     27          7           0        2.072952    0.624891   -0.330016
     28          1           0        1.503311   -0.128111   -0.688546
     29          6           0        3.433494    0.322383    0.066277
     30          1           0        4.126456    0.918487   -0.527388
     31          6           0        3.658869    0.638173    1.541136
     32          1           0        2.978311    0.041990    2.149067
     33          1           0        4.688100    0.401488    1.810793
     34          1           0        3.471549    1.697074    1.719280
     35          6           0        3.751886   -1.150444   -0.147901
     36          8           0        2.902224   -1.912449   -0.603647
     37          7           0        4.982024   -1.550328    0.182715
     38          1           0        5.646192   -0.886160    0.553941
     39          6           0        5.407732   -2.926508    0.026163
     40          1           0        4.587449   -3.516907   -0.382026
     41          1           0        6.258749   -2.968978   -0.653700
     42          1           0        5.697826   -3.330238    0.996141
 ---------------------------------------------------------------------
 Rotational constants (GHZ):      0.5025415      0.1411331      0.1157678
 Standard basis: 6-31G(d) (6D, 7F)
 There are   344 symmetry adapted basis functions of A   symmetry.
 Integral buffers will be    131072 words long.
 Raffenetti 1 integral format.
 Two-electron integral symmetry is turned on.
   344 basis functions,   648 primitive gaussians,   344 cartesian basis functions
    77 alpha electrons       77 beta electrons
       nuclear repulsion energy      1618.7641097314 Hartrees.
 NAtoms=   42 NActive=   42 NUniq=   42 SFac= 7.50D-01 NAtFMM=   80 NAOKFM=F Big=F
 One-electron integrals computed using PRISM.
 NBasis=   344 RedAO= T  NBF=   344
 NBsUse=   344 1.00D-06 NBFU=   344
 Harris functional with IExCor=  205 diagonalized for initial guess.
 ExpMin= 1.61D-01 ExpMax= 5.48D+03 ExpMxC= 8.25D+02 IAcc=1 IRadAn=         1 AccDes= 0.00D+00
 HarFok:  IExCor=  205 AccDes= 0.00D+00 IRadAn=         1 IDoV= 1
 ScaDFX=  1.000000  1.000000  1.000000  1.000000
 FoFCou: FMM=F IPFlag=           0 FMFlag=      100000 FMFlg1=           0
         NFxFlg=           0 DoJE=T BraDBF=F KetDBF=T FulRan=T
         Omega=  0.000000  0.000000  1.000000  0.000000  0.000000 ICntrl=     500 IOpCl=  0
         NMat0=    1 NMatS0=    1 NMatT0=    0 NMatD0=    1 NMtDS0=    0 NMtDT0=    0
         I1Cent=           4 NGrid=           0.
 Petite list used in FoFCou.
 Initial guess orbital symmetries:
       Occupied  (A) (A) (A) (A) (A) (A) (A) (A) (A) (A) (A) (A)
                 (A) (A) (A) (A) (A) (A) (A) (A) (A) (A) (A) (A)
                 (A) (A) (A) (A) (A) (A) (A) (A) (A) (A) (A) (A)
                 (A) (A) (A) (A) (A) (A) (A) (A) (A) (A) (A) (A)
                 (A) (A) (A) (A) (A) (A) (A) (A) (A) (A) (A) (A)
                 (A) (A) (A) (A) (A) (A) (A) (A) (A) (A) (A) (A)
                 (A) (A) (A) (A) (A)
       Virtual   (A) (A) (A) (A) (A) (A) (A) (A) (A) (A) (A) (A)
                 (A) (A) (A) (A) (A) (A) (A) (A) (A) (A) (A) (A)
                 (A) (A) (A) (A) (A) (A) (A) (A) (A) (A) (A) (A)
                 (A) (A) (A) (A) (A) (A) (A) (A) (A) (A) (A) (A)
                 (A) (A) (A) (A) (A) (A) (A) (A) (A) (A) (A) (A)
                 (A) (A) (A) (A) (A) (A) (A) (A) (A) (A) (A) (A)
                 (A) (A) (A) (A) (A) (A) (A) (A) (A) (A) (A) (A)
                 (A) (A) (A) (A) (A) (A) (A) (A) (A) (A) (A) (A)
                 (A) (A) (A) (A) (A) (A) (A) (A) (A) (A) (A) (A)
                 (A) (A) (A) (A) (A) (A) (A) (A) (A) (A) (A) (A)
                 (A) (A) (A) (A) (A) (A) (A) (A) (A) (A) (A) (A)
                 (A) (A) (A) (A) (A) (A) (A) (A) (A) (A) (A) (A)
                 (A) (A) (A) (A) (A) (A) (A) (A) (A) (A) (A) (A)
                 (A) (A) (A) (A) (A) (A) (A) (A) (A) (A) (A) (A)
                 (A) (A) (A) (A) (A) (A) (A) (A) (A) (A) (A) (A)
                 (A) (A) (A) (A) (A) (A) (A) (A) (A) (A) (A) (A)
                 (A) (A) (A) (A) (A) (A) (A) (A) (A) (A) (A) (A)
                 (A) (A) (A) (A) (A) (A) (A) (A) (A) (A) (A) (A)
                 (A) (A) (A) (A) (A) (A) (A) (A) (A) (A) (A) (A)
                 (A) (A) (A) (A) (A) (A) (A) (A) (A) (A) (A) (A)
                 (A) (A) (A) (A) (A) (A) (A) (A) (A) (A) (A) (A)
                 (A) (A) (A) (A) (A) (A) (A) (A) (A) (A) (A) (A)
                 (A) (A) (A)
 The electronic state of the initial guess is 1-A.
 Requested convergence on RMS density matrix=1.00D-08 within 128 cycles.
 Requested convergence on MAX density matrix=1.00D-06.
 Requested convergence on             energy=1.00D-06.
 No special actions if energy rises.
 Integral accuracy reduced to 1.0D-05 until final iterations.
 Initial convergence to 1.0D-05 achieved.  Increase integral accuracy.
 SCF Done:  E(RHF) =  -984.513208470     A.U. after   15 cycles
             Convg  =    0.3613D-08             -V/T =  2.0018
 Range of M.O.s used for correlation:     1   344
 NBasis=   344 NAE=    77 NBE=    77 NFC=     0 NFV=     0
 NROrb=    344 NOA=    77 NOB=    77 NVA=   267 NVB=   267
 Symmetrizing basis deriv contribution to polar:
 IMax=3 JMax=2 DiffMx= 0.00D+00
 G2DrvN: will do    43 centers at a time, making    1 passes doing MaxLOS=2.
 Calling FoFCou, ICntrl=  3107 FMM=F I1Cent=   0 AccDes= 0.00D+00.
 FoFDir/FoFCou used for L=0 through L=2.
 End of G2Drv Frequency-dependent properties file   721 does not exist.
 End of G2Drv Frequency-dependent properties file   722 does not exist.
          IDoAtm=111111111111111111111111111111111111111111
          Differentiating once with respect to nuclear coordinates.
          There are   129 degrees of freedom in the 1st order CPHF.  IDoFFX=5.
    123 vectors produced by pass  0 Test12= 2.06D-10 1.00D-07 XBig12= 1.04D-01 5.75D-02.
 AX will form   123 AO Fock derivatives at one time.
    123 vectors produced by pass  1 Test12= 2.06D-10 1.00D-07 XBig12= 1.31D-02 4.78D-02.
    123 vectors produced by pass  2 Test12= 2.06D-10 1.00D-07 XBig12= 1.48D-04 2.25D-03.
    123 vectors produced by pass  3 Test12= 2.06D-10 1.00D-07 XBig12= 1.87D-06 2.53D-04.
    123 vectors produced by pass  4 Test12= 2.06D-10 1.00D-07 XBig12= 1.03D-08 9.29D-06.
     35 vectors produced by pass  5 Test12= 2.06D-10 1.00D-07 XBig12= 5.06D-11 7.05D-07.
 Inverted reduced A of dimension   650 with in-core refinement.
 End of Minotr Frequency-dependent properties file   721 does not exist.
 End of Minotr Frequency-dependent properties file   722 does not exist.

 **********************************************************************

            Population analysis using the SCF density.

 **********************************************************************

 Orbital symmetries:
       Occupied  (A) (A) (A) (A) (A) (A) (A) (A) (A) (A) (A) (A)
                 (A) (A) (A) (A) (A) (A) (A) (A) (A) (A) (A) (A)
                 (A) (A) (A) (A) (A) (A) (A) (A) (A) (A) (A) (A)
                 (A) (A) (A) (A) (A) (A) (A) (A) (A) (A) (A) (A)
                 (A) (A) (A) (A) (A) (A) (A) (A) (A) (A) (A) (A)
                 (A) (A) (A) (A) (A) (A) (A) (A) (A) (A) (A) (A)
                 (A) (A) (A) (A) (A)
       Virtual   (A) (A) (A) (A) (A) (A) (A) (A) (A) (A) (A) (A)
                 (A) (A) (A) (A) (A) (A) (A) (A) (A) (A) (A) (A)
                 (A) (A) (A) (A) (A) (A) (A) (A) (A) (A) (A) (A)
                 (A) (A) (A) (A) (A) (A) (A) (A) (A) (A) (A) (A)
                 (A) (A) (A) (A) (A) (A) (A) (A) (A) (A) (A) (A)
                 (A) (A) (A) (A) (A) (A) (A) (A) (A) (A) (A) (A)
                 (A) (A) (A) (A) (A) (A) (A) (A) (A) (A) (A) (A)
                 (A) (A) (A) (A) (A) (A) (A) (A) (A) (A) (A) (A)
                 (A) (A) (A) (A) (A) (A) (A) (A) (A) (A) (A) (A)
                 (A) (A) (A) (A) (A) (A) (A) (A) (A) (A) (A) (A)
                 (A) (A) (A) (A) (A) (A) (A) (A) (A) (A) (A) (A)
                 (A) (A) (A) (A) (A) (A) (A) (A) (A) (A) (A) (A)
                 (A) (A) (A) (A) (A) (A) (A) (A) (A) (A) (A) (A)
                 (A) (A) (A) (A) (A) (A) (A) (A) (A) (A) (A) (A)
                 (A) (A) (A) (A) (A) (A) (A) (A) (A) (A) (A) (A)
                 (A) (A) (A) (A) (A) (A) (A) (A) (A) (A) (A) (A)
                 (A) (A) (A) (A) (A) (A) (A) (A) (A) (A) (A) (A)
                 (A) (A) (A) (A) (A) (A) (A) (A) (A) (A) (A) (A)
                 (A) (A) (A) (A) (A) (A) (A) (A) (A) (A) (A) (A)
                 (A) (A) (A) (A) (A) (A) (A) (A) (A) (A) (A) (A)
                 (A) (A) (A) (A) (A) (A) (A) (A) (A) (A) (A) (A)
                 (A) (A) (A) (A) (A) (A) (A) (A) (A) (A) (A) (A)
                 (A) (A) (A)
 The electronic state is 1-A.
 Alpha  occ. eigenvalues --  -20.54233 -20.53498 -20.53011 -20.51365 -15.61213
 Alpha  occ. eigenvalues --  -15.61186 -15.60672 -15.58773 -11.37060 -11.36845
 Alpha  occ. eigenvalues --  -11.36031 -11.34697 -11.29849 -11.28834 -11.28787
 Alpha  occ. eigenvalues --  -11.27447 -11.23305 -11.23220 -11.22293 -11.19493
 Alpha  occ. eigenvalues --   -1.40342  -1.40053  -1.38716  -1.37042  -1.27046
 Alpha  occ. eigenvalues --   -1.25527  -1.24621  -1.23690  -1.08377  -1.06276
 Alpha  occ. eigenvalues --   -1.02644  -0.98363  -0.97025  -0.91860  -0.89996
 Alpha  occ. eigenvalues --   -0.87230  -0.82628  -0.81104  -0.78599  -0.77955
 Alpha  occ. eigenvalues --   -0.77149  -0.73016  -0.69203  -0.68576  -0.68212
 Alpha  occ. eigenvalues --   -0.67723  -0.65511  -0.65011  -0.63869  -0.62788
 Alpha  occ. eigenvalues --   -0.61516  -0.60975  -0.60625  -0.58960  -0.58316
 Alpha  occ. eigenvalues --   -0.57612  -0.57352  -0.56319  -0.56010  -0.55493
 Alpha  occ. eigenvalues --   -0.54973  -0.54501  -0.53899  -0.52880  -0.52280
 Alpha  occ. eigenvalues --   -0.51697  -0.51096  -0.50376  -0.49237  -0.43711
 Alpha  occ. eigenvalues --   -0.43505  -0.41425  -0.40888  -0.40752  -0.40263
 Alpha  occ. eigenvalues --   -0.39742  -0.38546
 Alpha virt. eigenvalues --    0.17013   0.17996   0.18278   0.19388   0.20087
 Alpha virt. eigenvalues --    0.21021   0.23850   0.25422   0.26922   0.27650
 Alpha virt. eigenvalues --    0.27889   0.28866   0.29353   0.29484   0.30228
 Alpha virt. eigenvalues --    0.30519   0.30977   0.31088   0.31748   0.32979
 Alpha virt. eigenvalues --    0.33111   0.34053   0.34732   0.35299   0.35694
 Alpha virt. eigenvalues --    0.36397   0.36602   0.37706   0.38948   0.39633
 Alpha virt. eigenvalues --    0.41188   0.42015   0.43031   0.44463   0.45686
 Alpha virt. eigenvalues --    0.47727   0.49277   0.51988   0.52937   0.54232
 Alpha virt. eigenvalues --    0.57381   0.58532   0.61032   0.62098   0.64997
 Alpha virt. eigenvalues --    0.70382   0.71634   0.72026   0.72345   0.73503
 Alpha virt. eigenvalues --    0.73637   0.74543   0.75689   0.76392   0.76831
 Alpha virt. eigenvalues --    0.77108   0.77769   0.78708   0.80434   0.81944
 Alpha virt. eigenvalues --    0.82712   0.83299   0.84175   0.86633   0.88452
 Alpha virt. eigenvalues --    0.88726   0.89830   0.91088   0.91497   0.92245
 Alpha virt. eigenvalues --    0.92703   0.93488   0.94650   0.96309   0.97220
 Alpha virt. eigenvalues --    0.98661   0.99118   0.99224   1.00079   1.01618
 Alpha virt. eigenvalues --    1.02680   1.03854   1.04209   1.05406   1.06939
 Alpha virt. eigenvalues --    1.08321   1.09256   1.10079   1.11415   1.12187
 Alpha virt. eigenvalues --    1.12595   1.13359   1.13804   1.14487   1.14702
 Alpha virt. eigenvalues --    1.15306   1.15641   1.15984   1.16264   1.17029
 Alpha virt. eigenvalues --    1.17814   1.18543   1.19402   1.19743   1.20459
 Alpha virt. eigenvalues --    1.20758   1.21149   1.21556   1.22314   1.22763
 Alpha virt. eigenvalues --    1.24350   1.25346   1.27149   1.27416   1.28912
 Alpha virt. eigenvalues --    1.29965   1.30770   1.33841   1.35028   1.36140
 Alpha virt. eigenvalues --    1.37494   1.39016   1.40521   1.41111   1.44070
 Alpha virt. eigenvalues --    1.46835   1.49544   1.51509   1.51742   1.53988
 Alpha virt. eigenvalues --    1.55652   1.56675   1.58188   1.59559   1.60744
 Alpha virt. eigenvalues --    1.61807   1.61847   1.64025   1.64551   1.68327
 Alpha virt. eigenvalues --    1.70040   1.71065   1.72285   1.72771   1.73874
 Alpha virt. eigenvalues --    1.75964   1.77504   1.79089   1.79962   1.88009
 Alpha virt. eigenvalues --    1.90027   1.91773   1.94714   1.97723   1.98905
 Alpha virt. eigenvalues --    1.99301   2.01047   2.01827   2.03187   2.05858
 Alpha virt. eigenvalues --    2.07377   2.08155   2.10152   2.10776   2.11632
 Alpha virt. eigenvalues --    2.12358   2.13102   2.13833   2.14221   2.14373
 Alpha virt. eigenvalues --    2.15517   2.16253   2.16969   2.17678   2.19955
 Alpha virt. eigenvalues --    2.20475   2.20910   2.22518   2.24396   2.24857
 Alpha virt. eigenvalues --    2.26557   2.27985   2.30366   2.31300   2.33171
 Alpha virt. eigenvalues --    2.34631   2.35889   2.36241   2.36764   2.37490
 Alpha virt. eigenvalues --    2.38855   2.41594   2.42415   2.45730   2.45880
 Alpha virt. eigenvalues --    2.49498   2.52052   2.53818   2.56728   2.57800
 Alpha virt. eigenvalues --    2.58511   2.60433   2.60781   2.62067   2.62285
 Alpha virt. eigenvalues --    2.62811   2.63401   2.65299   2.66651   2.67632
 Alpha virt. eigenvalues --    2.69371   2.70519   2.72994   2.73836   2.76865
 Alpha virt. eigenvalues --    2.77060   2.77423   2.78994   2.80134   2.84633
 Alpha virt. eigenvalues --    2.87899   2.88361   2.92197   2.93645   2.95004
 Alpha virt. eigenvalues --    2.95814   2.98864   3.01032   3.03779   3.05897
 Alpha virt. eigenvalues --    3.06943   3.08801   3.09387   3.15082   3.18745
 Alpha virt. eigenvalues --    3.21871   3.26624   3.29766   3.32330   3.34793
 Alpha virt. eigenvalues --    3.35869   3.38160   3.43714   3.51902   3.54430
 Alpha virt. eigenvalues --    3.60364   3.63690   4.38744   4.40893   4.43739
 Alpha virt. eigenvalues --    4.46632   4.47739   4.52000   4.53384   4.58523
 Alpha virt. eigenvalues --    4.62947   4.65177   4.67726   4.70650   4.72108
 Alpha virt. eigenvalues --    4.80844   4.85225   4.87603   4.90785   4.99861
 Alpha virt. eigenvalues --    5.04628   5.13309
          Condensed to atoms (all electrons):
              1          2          3          4          5          6
     1  H    0.458159   0.385705  -0.018749  -0.018759  -0.030777   0.003514
     2  C    0.385705   5.244797   0.374721   0.374832   0.377974  -0.067202
     3  H   -0.018749   0.374721   0.510355  -0.023635  -0.034547   0.001264
     4  H   -0.018759   0.374832  -0.023635   0.512106  -0.035437   0.001182
     5  C   -0.030777   0.377974  -0.034547  -0.035437   4.187576   0.587153
     6  O    0.003514  -0.067202   0.001264   0.001182   0.587153   8.210016
     7  N    0.003854  -0.119925   0.003483   0.003705   0.246132  -0.107563
     8  H   -0.000018  -0.001179   0.000643   0.000483  -0.017415   0.002009
     9  C   -0.000076   0.004555  -0.000241  -0.000091  -0.029944   0.014435
    10  H    0.000001  -0.000011  -0.000004  -0.000002  -0.001684   0.002885
    11  C    0.000006  -0.000502   0.000008   0.000030  -0.003887  -0.015805
    12  H    0.000000  -0.000043   0.000000   0.000002   0.000016  -0.000024
    13  H    0.000000   0.000007   0.000000  -0.000001   0.000284   0.000271
    14  H    0.000001   0.000302  -0.000005  -0.000026   0.000452   0.011220
    15  C    0.000000   0.000013  -0.000011  -0.000006   0.004060   0.000563
    16  O    0.000000  -0.000039  -0.000001  -0.000001   0.000284  -0.000003
    17  N    0.000000   0.000000   0.000000   0.000000  -0.000090  -0.000002
    18  H    0.000000   0.000000   0.000000   0.000000   0.000002   0.000001
    19  C    0.000000   0.000000   0.000000   0.000000   0.000001   0.000000
    20  H    0.000000   0.000000   0.000000   0.000000   0.000000   0.000000
    21  C    0.000000   0.000000   0.000000   0.000000   0.000000   0.000000
    22  H    0.000000   0.000000   0.000000   0.000000   0.000000   0.000000
    23  H    0.000000   0.000000   0.000000   0.000000   0.000000   0.000000
    24  H    0.000000   0.000000   0.000000   0.000000   0.000000   0.000000
    25  C    0.000000   0.000000   0.000000   0.000000   0.000000   0.000000
    26  O    0.000000   0.000000   0.000000   0.000000   0.000000   0.000000
    27  N    0.000000   0.000000   0.000000   0.000000   0.000000   0.000000
    28  H    0.000000   0.000000   0.000000   0.000000   0.000000   0.000000
    29  C    0.000000   0.000000   0.000000   0.000000   0.000000   0.000000
    30  H    0.000000   0.000000   0.000000   0.000000   0.000000   0.000000
    31  C    0.000000   0.000000   0.000000   0.000000   0.000000   0.000000
    32  H    0.000000   0.000000   0.000000   0.000000   0.000000   0.000000
    33  H    0.000000   0.000000   0.000000   0.000000   0.000000   0.000000
    34  H    0.000000   0.000000   0.000000   0.000000   0.000000   0.000000
    35  C    0.000000   0.000000   0.000000   0.000000   0.000000   0.000000
    36  O    0.000000   0.000000   0.000000   0.000000   0.000000   0.000000
    37  N    0.000000   0.000000   0.000000   0.000000   0.000000   0.000000
    38  H    0.000000   0.000000   0.000000   0.000000   0.000000   0.000000
    39  C    0.000000   0.000000   0.000000   0.000000   0.000000   0.000000
    40  H    0.000000   0.000000   0.000000   0.000000   0.000000   0.000000
    41  H    0.000000   0.000000   0.000000   0.000000   0.000000   0.000000
    42  H    0.000000   0.000000   0.000000   0.000000   0.000000   0.000000
              7          8          9         10         11         12
     1  H    0.003854  -0.000018  -0.000076   0.000001   0.000006   0.000000
     2  C   -0.119925  -0.001179   0.004555  -0.000011  -0.000502  -0.000043
     3  H    0.003483   0.000643  -0.000241  -0.000004   0.000008   0.000000
     4  H    0.003705   0.000483  -0.000091  -0.000002   0.000030   0.000002
     5  C    0.246132  -0.017415  -0.029944  -0.001684  -0.003887   0.000016
     6  O   -0.107563   0.002009   0.014435   0.002885  -0.015805  -0.000024
     7  N    7.419623   0.311368   0.198340  -0.041281  -0.063408   0.001612
     8  H    0.311368   0.287875  -0.026655   0.002369   0.002999   0.000243
     9  C    0.198340  -0.026655   5.009719   0.406212   0.335694  -0.042529
    10  H   -0.041281   0.002369   0.406212   0.496744  -0.045552   0.004499
    11  C   -0.063408   0.002999   0.335694  -0.045552   5.213432   0.384952
    12  H    0.001612   0.000243  -0.042529   0.004499   0.384952   0.525307
    13  H    0.004891  -0.000079  -0.042195   0.000168   0.377216  -0.024186
    14  H   -0.005530  -0.000194  -0.026511  -0.003945   0.387179  -0.020050
    15  C   -0.037536  -0.005551   0.388678  -0.039702  -0.065445  -0.002911
    16  O   -0.006740   0.020025  -0.069576   0.000864  -0.000174   0.000579
    17  N    0.002811   0.000740  -0.112925   0.002450   0.001837   0.000217
    18  H    0.000017  -0.000017   0.000057   0.000509   0.001670  -0.000067
    19  C   -0.000040  -0.000014   0.002410  -0.000070  -0.000050  -0.000019
    20  H    0.000001   0.000000  -0.000072   0.000000   0.000023   0.000006
    21  C    0.000002   0.000029  -0.000809   0.000010   0.000003   0.000002
    22  H    0.000001   0.000001  -0.000119   0.000007   0.000001   0.000000
    23  H    0.000000   0.000000   0.000018  -0.000001   0.000000   0.000000
    24  H   -0.000008   0.000031   0.000114   0.000002  -0.000022   0.000001
    25  C    0.000000   0.000000  -0.000022   0.000005  -0.000014   0.000000
    26  O    0.000000   0.000000   0.000000   0.000000   0.000000   0.000000
    27  N    0.000000   0.000000  -0.000082   0.000000   0.000012   0.000000
    28  H    0.000000   0.000000   0.000003  -0.000002  -0.000095   0.000002
    29  C    0.000000   0.000000   0.000000   0.000000   0.000000   0.000000
    30  H    0.000000   0.000000   0.000000   0.000000   0.000000   0.000000
    31  C    0.000000   0.000000   0.000000   0.000000   0.000000   0.000000
    32  H    0.000000   0.000000   0.000000   0.000000   0.000000   0.000000
    33  H    0.000000   0.000000   0.000000   0.000000   0.000000   0.000000
    34  H    0.000000   0.000000   0.000000   0.000000   0.000000   0.000000
    35  C    0.000000   0.000000   0.000000   0.000000   0.000000   0.000000
    36  O    0.000000   0.000000   0.000000   0.000000  -0.000003   0.000000
    37  N    0.000000   0.000000   0.000000   0.000000   0.000000   0.000000
    38  H    0.000000   0.000000   0.000000   0.000000   0.000000   0.000000
    39  C    0.000000   0.000000   0.000000   0.000000   0.000000   0.000000
    40  H    0.000000   0.000000   0.000000   0.000000   0.000000   0.000000
    41  H    0.000000   0.000000   0.000000   0.000000   0.000000   0.000000
    42  H    0.000000   0.000000   0.000000   0.000000   0.000000   0.000000
             13         14         15         16         17         18
     1  H    0.000000   0.000001   0.000000   0.000000   0.000000   0.000000
     2  C    0.000007   0.000302   0.000013  -0.000039   0.000000   0.000000
     3  H    0.000000  -0.000005  -0.000011  -0.000001   0.000000   0.000000
     4  H   -0.000001  -0.000026  -0.000006  -0.000001   0.000000   0.000000
     5  C    0.000284   0.000452   0.004060   0.000284  -0.000090   0.000002
     6  O    0.000271   0.011220   0.000563  -0.000003  -0.000002   0.000001
     7  N    0.004891  -0.005530  -0.037536  -0.006740   0.002811   0.000017
     8  H   -0.000079  -0.000194  -0.005551   0.020025   0.000740  -0.000017
     9  C   -0.042195  -0.026511   0.388678  -0.069576  -0.112925   0.000057
    10  H    0.000168  -0.003945  -0.039702   0.000864   0.002450   0.000509
    11  C    0.377216   0.387179  -0.065445  -0.000174   0.001837   0.001670
    12  H   -0.024186  -0.020050  -0.002911   0.000579   0.000217  -0.000067
    13  H    0.562455  -0.019251  -0.007344   0.000012   0.001331   0.003165
    14  H   -0.019251   0.421158   0.004127  -0.000055   0.000077  -0.000120
    15  C   -0.007344   0.004127   4.159215   0.572215   0.266100  -0.016661
    16  O    0.000012  -0.000055   0.572215   8.298859  -0.101226   0.002309
    17  N    0.001331   0.000077   0.266100  -0.101226   7.514372   0.301430
    18  H    0.003165  -0.000120  -0.016661   0.002309   0.301430   0.308537
    19  C    0.000304   0.000002  -0.027569   0.007485   0.133817  -0.021912
    20  H   -0.000018  -0.000001  -0.001606   0.000522  -0.049423   0.002440
    21  C   -0.000003   0.000000  -0.006987  -0.053391  -0.050681   0.002562
    22  H    0.000000   0.000000   0.000628  -0.001815   0.000344   0.000035
    23  H    0.000000   0.000000   0.000498   0.001787   0.003843  -0.000066
    24  H    0.000001   0.000000  -0.004438  -0.012795  -0.000946  -0.000203
    25  C    0.000010   0.000000   0.001603   0.000125  -0.039479  -0.009037
    26  O    0.000000   0.000000  -0.000072   0.000000   0.001709  -0.000011
    27  N   -0.000116   0.000000   0.000725  -0.000003  -0.007334   0.012446
    28  H    0.000069   0.000002   0.000008   0.000005   0.001391   0.008078
    29  C   -0.000002   0.000000   0.000006   0.000000   0.000183  -0.000024
    30  H    0.000000   0.000000   0.000000   0.000000  -0.000005   0.000023
    31  C    0.000000   0.000000  -0.000001   0.000000  -0.000006  -0.000041
    32  H    0.000000   0.000000   0.000000   0.000000   0.000001   0.000026
    33  H    0.000000   0.000000   0.000000   0.000000   0.000000   0.000000
    34  H    0.000000   0.000000   0.000000   0.000000  -0.000016  -0.000004
    35  C    0.000002   0.000000  -0.000001   0.000000  -0.000028  -0.000045
    36  O    0.000035   0.000000  -0.000002   0.000000  -0.000026  -0.000312
    37  N    0.000000   0.000000   0.000000   0.000000   0.000000  -0.000002
    38  H    0.000000   0.000000   0.000000   0.000000   0.000000   0.000000
    39  C    0.000000   0.000000   0.000000   0.000000   0.000000   0.000000
    40  H    0.000000   0.000000   0.000000   0.000000   0.000000   0.000000
    41  H    0.000000   0.000000   0.000000   0.000000   0.000000   0.000000
    42  H    0.000000   0.000000   0.000000   0.000000   0.000000   0.000000
             19         20         21         22         23         24
     1  H    0.000000   0.000000   0.000000   0.000000   0.000000   0.000000
     2  C    0.000000   0.000000   0.000000   0.000000   0.000000   0.000000
     3  H    0.000000   0.000000   0.000000   0.000000   0.000000   0.000000
     4  H    0.000000   0.000000   0.000000   0.000000   0.000000   0.000000
     5  C    0.000001   0.000000   0.000000   0.000000   0.000000   0.000000
     6  O    0.000000   0.000000   0.000000   0.000000   0.000000   0.000000
     7  N   -0.000040   0.000001   0.000002   0.000001   0.000000  -0.000008
     8  H   -0.000014   0.000000   0.000029   0.000001   0.000000   0.000031
     9  C    0.002410  -0.000072  -0.000809  -0.000119   0.000018   0.000114
    10  H   -0.000070   0.000000   0.000010   0.000007  -0.000001   0.000002
    11  C   -0.000050   0.000023   0.000003   0.000001   0.000000  -0.000022
    12  H   -0.000019   0.000006   0.000002   0.000000   0.000000   0.000001
    13  H    0.000304  -0.000018  -0.000003   0.000000   0.000000   0.000001
    14  H    0.000002  -0.000001   0.000000   0.000000   0.000000   0.000000
    15  C   -0.027569  -0.001606  -0.006987   0.000628   0.000498  -0.004438
    16  O    0.007485   0.000522  -0.053391  -0.001815   0.001787  -0.012795
    17  N    0.133817  -0.049423  -0.050681   0.000344   0.003843  -0.000946
    18  H   -0.021912   0.002440   0.002562   0.000035  -0.000066  -0.000203
    19  C    5.060592   0.403063   0.358973  -0.044703  -0.029671  -0.033980
    20  H    0.403063   0.500541  -0.035064   0.004291  -0.000880  -0.001867
    21  C    0.358973  -0.035064   5.179124   0.394391   0.378848   0.397826
    22  H   -0.044703   0.004291   0.394391   0.532308  -0.020182  -0.019913
    23  H   -0.029671  -0.000880   0.378848  -0.020182   0.504327  -0.024303
    24  H   -0.033980  -0.001867   0.397826  -0.019913  -0.024303   0.440916
    25  C    0.390269  -0.035508  -0.057293  -0.004866  -0.007126   0.004833
    26  O   -0.072018   0.000927  -0.004459   0.000747   0.004254   0.000432
    27  N   -0.114567  -0.000735   0.002841  -0.000001   0.000223  -0.000043
    28  H   -0.001075  -0.000180   0.000156  -0.000013  -0.000012  -0.000004
    29  C    0.004750  -0.000221  -0.000102  -0.000026  -0.000006   0.000001
    30  H   -0.000133   0.000014  -0.000012   0.000001   0.000001   0.000000
    31  C   -0.000499  -0.000001   0.000021   0.000007   0.000001   0.000000
    32  H   -0.000047   0.000001  -0.000004   0.000004   0.000000   0.000000
    33  H    0.000007   0.000000   0.000000   0.000000   0.000000   0.000000
    34  H    0.000291  -0.000003   0.000003  -0.000001   0.000000   0.000000
    35  C    0.000040  -0.000004  -0.000001   0.000000   0.000000   0.000000
    36  O   -0.000044   0.000000   0.000000   0.000000   0.000000   0.000000
    37  N    0.000000   0.000000   0.000000   0.000000   0.000000   0.000000
    38  H    0.000000   0.000000   0.000000   0.000000   0.000000   0.000000
    39  C    0.000000   0.000000   0.000000   0.000000   0.000000   0.000000
    40  H    0.000000   0.000000   0.000000   0.000000   0.000000   0.000000
    41  H    0.000000   0.000000   0.000000   0.000000   0.000000   0.000000
    42  H    0.000000   0.000000   0.000000   0.000000   0.000000   0.000000
             25         26         27         28         29         30
     1  H    0.000000   0.000000   0.000000   0.000000   0.000000   0.000000
     2  C    0.000000   0.000000   0.000000   0.000000   0.000000   0.000000
     3  H    0.000000   0.000000   0.000000   0.000000   0.000000   0.000000
     4  H    0.000000   0.000000   0.000000   0.000000   0.000000   0.000000
     5  C    0.000000   0.000000   0.000000   0.000000   0.000000   0.000000
     6  O    0.000000   0.000000   0.000000   0.000000   0.000000   0.000000
     7  N    0.000000   0.000000   0.000000   0.000000   0.000000   0.000000
     8  H    0.000000   0.000000   0.000000   0.000000   0.000000   0.000000
     9  C   -0.000022   0.000000  -0.000082   0.000003   0.000000   0.000000
    10  H    0.000005   0.000000   0.000000  -0.000002   0.000000   0.000000
    11  C   -0.000014   0.000000   0.000012  -0.000095   0.000000   0.000000
    12  H    0.000000   0.000000   0.000000   0.000002   0.000000   0.000000
    13  H    0.000010   0.000000  -0.000116   0.000069  -0.000002   0.000000
    14  H    0.000000   0.000000   0.000000   0.000002   0.000000   0.000000
    15  C    0.001603  -0.000072   0.000725   0.000008   0.000006   0.000000
    16  O    0.000125   0.000000  -0.000003   0.000005   0.000000   0.000000
    17  N   -0.039479   0.001709  -0.007334   0.001391   0.000183  -0.000005
    18  H   -0.009037  -0.000011   0.012446   0.008078  -0.000024   0.000023
    19  C    0.390269  -0.072018  -0.114567  -0.001075   0.004750  -0.000133
    20  H   -0.035508   0.000927  -0.000735  -0.000180  -0.000221   0.000014
    21  C   -0.057293  -0.004459   0.002841   0.000156  -0.000102  -0.000012
    22  H   -0.004866   0.000747  -0.000001  -0.000013  -0.000026   0.000001
    23  H   -0.007126   0.004254   0.000223  -0.000012  -0.000006   0.000001
    24  H    0.004833   0.000432  -0.000043  -0.000004   0.000001   0.000000
    25  C    4.141852   0.572048   0.281226  -0.017495  -0.032045  -0.001466
    26  O    0.572048   8.229775  -0.101502   0.002058   0.013409   0.002800
    27  N    0.281226  -0.101502   7.451830   0.292795   0.188817  -0.040815
    28  H   -0.017495   0.002058   0.292795   0.294250  -0.027564   0.001929
    29  C   -0.032045   0.013409   0.188817  -0.027564   5.044407   0.405113
    30  H   -0.001466   0.002800  -0.040815   0.001929   0.405113   0.492404
    31  C   -0.004213  -0.014753  -0.063469   0.003842   0.335489  -0.044683
    32  H   -0.000024  -0.000014   0.001471   0.000146  -0.042569   0.004419
    33  H    0.000285   0.000249   0.004911  -0.000095  -0.041961   0.000142
    34  H    0.000470   0.009625  -0.005120  -0.000193  -0.027227  -0.003914
    35  C    0.003544   0.000422  -0.035794  -0.006225   0.377800  -0.036432
    36  O    0.000392  -0.000002  -0.008133   0.027344  -0.078483   0.000990
    37  N   -0.000090  -0.000001   0.002748   0.000885  -0.115835   0.002144
    38  H    0.000003   0.000001   0.000020  -0.000029   0.001170   0.000464
    39  C    0.000001   0.000000  -0.000050  -0.000011   0.003611  -0.000208
    40  H    0.000000   0.000000  -0.000004  -0.000011   0.000577  -0.000016
    41  H    0.000000   0.000000   0.000000   0.000000  -0.000112   0.000010
    42  H    0.000000   0.000000   0.000001   0.000000  -0.000004  -0.000001
             31         32         33         34         35         36
     1  H    0.000000   0.000000   0.000000   0.000000   0.000000   0.000000
     2  C    0.000000   0.000000   0.000000   0.000000   0.000000   0.000000
     3  H    0.000000   0.000000   0.000000   0.000000   0.000000   0.000000
     4  H    0.000000   0.000000   0.000000   0.000000   0.000000   0.000000
     5  C    0.000000   0.000000   0.000000   0.000000   0.000000   0.000000
     6  O    0.000000   0.000000   0.000000   0.000000   0.000000   0.000000
     7  N    0.000000   0.000000   0.000000   0.000000   0.000000   0.000000
     8  H    0.000000   0.000000   0.000000   0.000000   0.000000   0.000000
     9  C    0.000000   0.000000   0.000000   0.000000   0.000000   0.000000
    10  H    0.000000   0.000000   0.000000   0.000000   0.000000   0.000000
    11  C    0.000000   0.000000   0.000000   0.000000   0.000000  -0.000003
    12  H    0.000000   0.000000   0.000000   0.000000   0.000000   0.000000
    13  H    0.000000   0.000000   0.000000   0.000000   0.000002   0.000035
    14  H    0.000000   0.000000   0.000000   0.000000   0.000000   0.000000
    15  C   -0.000001   0.000000   0.000000   0.000000  -0.000001  -0.000002
    16  O    0.000000   0.000000   0.000000   0.000000   0.000000   0.000000
    17  N   -0.000006   0.000001   0.000000  -0.000016  -0.000028  -0.000026
    18  H   -0.000041   0.000026   0.000000  -0.000004  -0.000045  -0.000312
    19  C   -0.000499  -0.000047   0.000007   0.000291   0.000040  -0.000044
    20  H   -0.000001   0.000001   0.000000  -0.000003  -0.000004   0.000000
    21  C    0.000021  -0.000004   0.000000   0.000003  -0.000001   0.000000
    22  H    0.000007   0.000004   0.000000  -0.000001   0.000000   0.000000
    23  H    0.000001   0.000000   0.000000   0.000000   0.000000   0.000000
    24  H    0.000000   0.000000   0.000000   0.000000   0.000000   0.000000
    25  C   -0.004213  -0.000024   0.000285   0.000470   0.003544   0.000392
    26  O   -0.014753  -0.000014   0.000249   0.009625   0.000422  -0.000002
    27  N   -0.063469   0.001471   0.004911  -0.005120  -0.035794  -0.008133
    28  H    0.003842   0.000146  -0.000095  -0.000193  -0.006225   0.027344
    29  C    0.335489  -0.042569  -0.041961  -0.027227   0.377800  -0.078483
    30  H   -0.044683   0.004419   0.000142  -0.003914  -0.036432   0.000990
    31  C    5.203950   0.386073   0.379850   0.388180  -0.063192   0.000023
    32  H    0.386073   0.520915  -0.023664  -0.020262  -0.002770   0.000622
    33  H    0.379850  -0.023664   0.560664  -0.019903  -0.007008   0.000023
    34  H    0.388180  -0.020262  -0.019903   0.424798   0.003895  -0.000063
    35  C   -0.063192  -0.002770  -0.007008   0.003895   4.139205   0.590469
    36  O    0.000023   0.000622   0.000023  -0.000063   0.590469   8.218634
    37  N    0.002216   0.000170   0.000499   0.000095   0.294355  -0.098589
    38  H   -0.000013  -0.000010   0.002659  -0.000080  -0.020913   0.002357
    39  C   -0.000079  -0.000040   0.000161   0.000003  -0.025700  -0.004778
    40  H   -0.000049  -0.000001  -0.000008   0.000000  -0.002027   0.009538
    41  H   -0.000004   0.000001   0.000002   0.000000   0.000787   0.000365
    42  H    0.000011   0.000002  -0.000002  -0.000001   0.000923   0.000372
             37         38         39         40         41         42
     1  H    0.000000   0.000000   0.000000   0.000000   0.000000   0.000000
     2  C    0.000000   0.000000   0.000000   0.000000   0.000000   0.000000
     3  H    0.000000   0.000000   0.000000   0.000000   0.000000   0.000000
     4  H    0.000000   0.000000   0.000000   0.000000   0.000000   0.000000
     5  C    0.000000   0.000000   0.000000   0.000000   0.000000   0.000000
     6  O    0.000000   0.000000   0.000000   0.000000   0.000000   0.000000
     7  N    0.000000   0.000000   0.000000   0.000000   0.000000   0.000000
     8  H    0.000000   0.000000   0.000000   0.000000   0.000000   0.000000
     9  C    0.000000   0.000000   0.000000   0.000000   0.000000   0.000000
    10  H    0.000000   0.000000   0.000000   0.000000   0.000000   0.000000
    11  C    0.000000   0.000000   0.000000   0.000000   0.000000   0.000000
    12  H    0.000000   0.000000   0.000000   0.000000   0.000000   0.000000
    13  H    0.000000   0.000000   0.000000   0.000000   0.000000   0.000000
    14  H    0.000000   0.000000   0.000000   0.000000   0.000000   0.000000
    15  C    0.000000   0.000000   0.000000   0.000000   0.000000   0.000000
    16  O    0.000000   0.000000   0.000000   0.000000   0.000000   0.000000
    17  N    0.000000   0.000000   0.000000   0.000000   0.000000   0.000000
    18  H   -0.000002   0.000000   0.000000   0.000000   0.000000   0.000000
    19  C    0.000000   0.000000   0.000000   0.000000   0.000000   0.000000
    20  H    0.000000   0.000000   0.000000   0.000000   0.000000   0.000000
    21  C    0.000000   0.000000   0.000000   0.000000   0.000000   0.000000
    22  H    0.000000   0.000000   0.000000   0.000000   0.000000   0.000000
    23  H    0.000000   0.000000   0.000000   0.000000   0.000000   0.000000
    24  H    0.000000   0.000000   0.000000   0.000000   0.000000   0.000000
    25  C   -0.000090   0.000003   0.000001   0.000000   0.000000   0.000000
    26  O   -0.000001   0.000001   0.000000   0.000000   0.000000   0.000000
    27  N    0.002748   0.000020  -0.000050  -0.000004   0.000000   0.000001
    28  H    0.000885  -0.000029  -0.000011  -0.000011   0.000000   0.000000
    29  C   -0.115835   0.001170   0.003611   0.000577  -0.000112  -0.000004
    30  H    0.002144   0.000464  -0.000208  -0.000016   0.000010  -0.000001
    31  C    0.002216  -0.000013  -0.000079  -0.000049  -0.000004   0.000011
    32  H    0.000170  -0.000010  -0.000040  -0.000001   0.000001   0.000002
    33  H    0.000499   0.002659   0.000161  -0.000008   0.000002  -0.000002
    34  H    0.000095  -0.000080   0.000003   0.000000   0.000000  -0.000001
    35  C    0.294355  -0.020913  -0.025700  -0.002027   0.000787   0.000923
    36  O   -0.098589   0.002357  -0.004778   0.009538   0.000365   0.000372
    37  N    7.326704   0.322470   0.183633  -0.031667  -0.046753  -0.047700
[...]
    29  C    0.000000   0.000000   0.000003   0.000000   0.000152  -0.000464
    30  H    0.000000   0.000000   0.000000   0.000000  -0.000020   0.000042
    31  C    0.000000   0.000000  -0.000001   0.000000   0.000021  -0.000070
    32  H    0.000000   0.000000   0.000001   0.000000  -0.000015   0.000099
    33  H    0.000000   0.000000   0.000000   0.000000   0.000000   0.000002
    34  H    0.000000   0.000000   0.000000   0.000000  -0.000009  -0.000012
    35  C    0.000000   0.000000   0.000000   0.000000  -0.000023   0.000007
    36  O    0.000011   0.000000   0.000000   0.000000  -0.000016  -0.000026
    37  N    0.000000   0.000000   0.000000   0.000000   0.000000   0.000000
    38  H    0.000000   0.000000   0.000000   0.000000   0.000000   0.000000
    39  C    0.000000   0.000000   0.000000   0.000000   0.000000   0.000000
    40  H    0.000000   0.000000   0.000000   0.000000   0.000000   0.000000
    41  H    0.000000   0.000000   0.000000   0.000000   0.000000   0.000000
    42  H    0.000000   0.000000   0.000000   0.000000   0.000000   0.000000
             19         20         21         22         23         24
     1  H    0.000000   0.000000   0.000000   0.000000   0.000000   0.000000
     2  C    0.000000   0.000000   0.000000   0.000000   0.000000   0.000000
     3  H    0.000000   0.000000   0.000000   0.000000   0.000000   0.000000
     4  H    0.000000   0.000000   0.000000   0.000000   0.000000   0.000000
     5  C    0.000002   0.000000   0.000000   0.000000   0.000000   0.000000
     6  O    0.000000   0.000000   0.000000   0.000000   0.000000   0.000000
     7  N   -0.000047   0.000000  -0.000001   0.000002   0.000000  -0.000003
     8  H   -0.000021   0.000000   0.000011   0.000002   0.000000  -0.000002
     9  C    0.003229  -0.000150  -0.000367  -0.000153   0.000010   0.000165
    10  H   -0.000064   0.000002  -0.000001   0.000012  -0.000001  -0.000005
    11  C   -0.000183   0.000021  -0.000004   0.000002   0.000000  -0.000004
    12  H   -0.000008   0.000002   0.000000   0.000000   0.000000   0.000000
    13  H    0.000060  -0.000012   0.000002   0.000000   0.000000   0.000000
    14  H    0.000003   0.000000   0.000000   0.000000   0.000000   0.000000
    15  C   -0.022086  -0.001658  -0.005144  -0.000022   0.000343  -0.000912
    16  O    0.007951   0.000250  -0.009677  -0.000604   0.000317   0.004455
    17  N    0.159967  -0.044553  -0.049675   0.000868   0.003673  -0.002286
    18  H   -0.032117   0.003501   0.001808   0.000370  -0.000070  -0.000131
    19  C    5.018689   0.401215   0.357135  -0.040337  -0.032204  -0.032019
    20  H    0.401215   0.501881  -0.037999   0.004101  -0.000245  -0.003075
    21  C    0.357135  -0.037999   5.130416   0.391880   0.383847   0.391285
    22  H   -0.040337   0.004101   0.391880   0.528862  -0.022025  -0.023390
    23  H   -0.032204  -0.000245   0.383847  -0.022025   0.490881  -0.023151
    24  H   -0.032019  -0.003075   0.391285  -0.023390  -0.023151   0.463602
    25  C    0.392495  -0.038053  -0.052524  -0.004737  -0.006004   0.004581
    26  O   -0.071107   0.001137  -0.002931   0.001056   0.005196   0.000341
    27  N   -0.112013  -0.000570   0.003442  -0.000074   0.000234  -0.000039
    28  H    0.000507  -0.000612   0.000198  -0.000012  -0.000015  -0.000003
    29  C    0.004524  -0.000271  -0.000088  -0.000015  -0.000011   0.000001
    30  H    0.000219  -0.000009  -0.000018   0.000000   0.000001   0.000000
    31  C   -0.000273   0.000002   0.000011   0.000002   0.000001   0.000000
    32  H   -0.000007   0.000000   0.000000   0.000000   0.000000   0.000000
    33  H    0.000002   0.000000   0.000000   0.000000   0.000000   0.000000
    34  H    0.000107  -0.000001  -0.000001   0.000000  -0.000001   0.000000
    35  C    0.000038   0.000000  -0.000001   0.000000   0.000000   0.000000
    36  O   -0.000068   0.000001   0.000000   0.000000   0.000000   0.000000
    37  N    0.000000   0.000000   0.000000   0.000000   0.000000   0.000000
    38  H    0.000000   0.000000   0.000000   0.000000   0.000000   0.000000
    39  C    0.000000   0.000000   0.000000   0.000000   0.000000   0.000000
    40  H    0.000000   0.000000   0.000000   0.000000   0.000000   0.000000
    41  H    0.000000   0.000000   0.000000   0.000000   0.000000   0.000000
    42  H    0.000000   0.000000   0.000000   0.000000   0.000000   0.000000
             25         26         27         28         29         30
     1  H    0.000000   0.000000   0.000000   0.000000   0.000000   0.000000
     2  C    0.000000   0.000000   0.000000   0.000000   0.000000   0.000000
     3  H    0.000000   0.000000   0.000000   0.000000   0.000000   0.000000
     4  H    0.000000   0.000000   0.000000   0.000000   0.000000   0.000000
     5  C    0.000000   0.000000   0.000000   0.000000   0.000000   0.000000
     6  O    0.000000   0.000000   0.000000   0.000000   0.000000   0.000000
     7  N    0.000000   0.000000   0.000000   0.000000   0.000000   0.000000
     8  H    0.000000   0.000000   0.000000   0.000000   0.000000   0.000000
     9  C    0.000049   0.000000  -0.000146   0.000037   0.000001   0.000000
    10  H   -0.000019   0.000000  -0.000005  -0.000009  -0.000001   0.000000
    11  C   -0.000002   0.000000   0.000000  -0.000005   0.000000   0.000000
    12  H    0.000000   0.000000   0.000000  -0.000001   0.000000   0.000000
    13  H   -0.000006   0.000000  -0.000026   0.000154   0.000000   0.000000
    14  H    0.000000   0.000000   0.000000   0.000001   0.000000   0.000000
    15  C    0.002222  -0.000048   0.000463  -0.000161   0.000003   0.000000
    16  O    0.000210   0.000000  -0.000003  -0.000001   0.000000   0.000000
    17  N   -0.034851   0.001673  -0.010668   0.002966   0.000152  -0.000020
    18  H   -0.007145  -0.000090   0.017388  -0.001855  -0.000464   0.000042
    19  C    0.392495  -0.071107  -0.112013   0.000507   0.004524   0.000219
    20  H   -0.038053   0.001137  -0.000570  -0.000612  -0.000271  -0.000009
    21  C   -0.052524  -0.002931   0.003442   0.000198  -0.000088  -0.000018
    22  H   -0.004737   0.001056  -0.000074  -0.000012  -0.000015   0.000000
    23  H   -0.006004   0.005196   0.000234  -0.000015  -0.000011   0.000001
    24  H    0.004581   0.000341  -0.000039  -0.000003   0.000001   0.000000
    25  C    4.152385   0.590369   0.279054  -0.016753  -0.028800  -0.000049
    26  O    0.590369   8.167007  -0.105234   0.001786   0.008229   0.007243
    27  N    0.279054  -0.105234   7.445610   0.300427   0.198349  -0.044786
    28  H   -0.016753   0.001786   0.300427   0.287289  -0.030704   0.001919
    29  C   -0.028800   0.008229   0.198349  -0.030704   5.053563   0.409434
    30  H   -0.000049   0.007243  -0.044786   0.001919   0.409434   0.482766
    31  C   -0.002216  -0.003783  -0.065016   0.003614   0.337025  -0.041976
    32  H    0.000350  -0.000009   0.000762   0.000076  -0.038139   0.003990
    33  H    0.000018   0.000017   0.004565  -0.000087  -0.037424   0.000214
    34  H    0.001840   0.004154  -0.005523  -0.000125  -0.029828  -0.003609
    35  C    0.002916   0.000494  -0.040420  -0.008205   0.383038  -0.040344
    36  O    0.000564  -0.000005  -0.013679   0.028680  -0.074450   0.001356
    37  N   -0.000065  -0.000001   0.002633   0.001210  -0.119462   0.002606
    38  H   -0.000004   0.000000   0.000046  -0.000038   0.000484   0.000832
    39  C    0.000001   0.000000  -0.000070  -0.000041   0.004168  -0.000145
    40  H    0.000000   0.000000   0.000000  -0.000004   0.000162  -0.000002
    41  H    0.000000   0.000000   0.000002   0.000001  -0.000163   0.000003
    42  H    0.000000   0.000000   0.000000   0.000000   0.000011  -0.000007
             31         32         33         34         35         36
     1  H    0.000000   0.000000   0.000000   0.000000   0.000000   0.000000
     2  C    0.000000   0.000000   0.000000   0.000000   0.000000   0.000000
     3  H    0.000000   0.000000   0.000000   0.000000   0.000000   0.000000
     4  H    0.000000   0.000000   0.000000   0.000000   0.000000   0.000000
     5  C    0.000000   0.000000   0.000000   0.000000   0.000000   0.000000
     6  O    0.000000   0.000000   0.000000   0.000000   0.000000   0.000000
     7  N    0.000000   0.000000   0.000000   0.000000   0.000000   0.000000
     8  H    0.000000   0.000000   0.000000   0.000000   0.000000   0.000000
     9  C    0.000000   0.000000   0.000000   0.000000   0.000000   0.000000
    10  H    0.000000   0.000001   0.000000   0.000000   0.000000   0.000000
    11  C    0.000000   0.000000   0.000000   0.000000   0.000000  -0.000001
    12  H    0.000000   0.000000   0.000000   0.000000   0.000000   0.000000
    13  H    0.000000   0.000000   0.000000   0.000000   0.000000   0.000011
    14  H    0.000000   0.000000   0.000000   0.000000   0.000000   0.000000
    15  C   -0.000001   0.000001   0.000000   0.000000   0.000000   0.000000
    16  O    0.000000   0.000000   0.000000   0.000000   0.000000   0.000000
    17  N    0.000021  -0.000015   0.000000  -0.000009  -0.000023  -0.000016
    18  H   -0.000070   0.000099   0.000002  -0.000012   0.000007  -0.000026
    19  C   -0.000273  -0.000007   0.000002   0.000107   0.000038  -0.000068
    20  H    0.000002   0.000000   0.000000  -0.000001   0.000000   0.000001
    21  C    0.000011   0.000000   0.000000  -0.000001  -0.000001   0.000000
    22  H    0.000002   0.000000   0.000000   0.000000   0.000000   0.000000
    23  H    0.000001   0.000000   0.000000  -0.000001   0.000000   0.000000
    24  H    0.000000   0.000000   0.000000   0.000000   0.000000   0.000000
    25  C   -0.002216   0.000350   0.000018   0.001840   0.002916   0.000564
    26  O   -0.003783  -0.000009   0.000017   0.004154   0.000494  -0.000005
    27  N   -0.065016   0.000762   0.004565  -0.005523  -0.040420  -0.013679
    28  H    0.003614   0.000076  -0.000087  -0.000125  -0.008205   0.028680
    29  C    0.337025  -0.038139  -0.037424  -0.029828   0.383038  -0.074450
    30  H   -0.041976   0.003990   0.000214  -0.003609  -0.040344   0.001356
    31  C    5.137560   0.388663   0.382827   0.392179  -0.052008  -0.000417
    32  H    0.388663   0.514277  -0.024534  -0.023398  -0.003821   0.000853
    33  H    0.382827  -0.024534   0.540285  -0.023112  -0.003890   0.000010
    34  H    0.392179  -0.023398  -0.023112   0.472665   0.004046  -0.000070
    35  C   -0.052008  -0.003821  -0.003890   0.004046   4.150190   0.597646
    36  O   -0.000417   0.000853   0.000010  -0.000070   0.597646   8.180752
    37  N    0.003544   0.000383   0.001848  -0.000020   0.288285  -0.104325
    38  H    0.000408  -0.000002   0.001139  -0.000051  -0.022767   0.002512
    39  C   -0.000205  -0.000021   0.000024   0.000003  -0.028636   0.008223
    40  H   -0.000020   0.000003  -0.000007   0.000000  -0.003195   0.002919
    41  H   -0.000001   0.000000   0.000003   0.000000  -0.003706   0.001266
    42  H   -0.000001  -0.000001  -0.000007   0.000000   0.004521   0.000358
             37         38         39         40         41         42
     1  H    0.000000   0.000000   0.000000   0.000000   0.000000   0.000000
     2  C    0.000000   0.000000   0.000000   0.000000   0.000000   0.000000
     3  H    0.000000   0.000000   0.000000   0.000000   0.000000   0.000000
     4  H    0.000000   0.000000   0.000000   0.000000   0.000000   0.000000
     5  C    0.000000   0.000000   0.000000   0.000000   0.000000   0.000000
     6  O    0.000000   0.000000   0.000000   0.000000   0.000000   0.000000
     7  N    0.000000   0.000000   0.000000   0.000000   0.000000   0.000000
     8  H    0.000000   0.000000   0.000000   0.000000   0.000000   0.000000
     9  C    0.000000   0.000000   0.000000   0.000000   0.000000   0.000000
    10  H    0.000000   0.000000   0.000000   0.000000   0.000000   0.000000
    11  C    0.000000   0.000000   0.000000   0.000000   0.000000   0.000000
    12  H    0.000000   0.000000   0.000000   0.000000   0.000000   0.000000
    13  H    0.000000   0.000000   0.000000   0.000000   0.000000   0.000000
    14  H    0.000000   0.000000   0.000000   0.000000   0.000000   0.000000
    15  C    0.000000   0.000000   0.000000   0.000000   0.000000   0.000000
    16  O    0.000000   0.000000   0.000000   0.000000   0.000000   0.000000
    17  N    0.000000   0.000000   0.000000   0.000000   0.000000   0.000000
    18  H    0.000000   0.000000   0.000000   0.000000   0.000000   0.000000
    19  C    0.000000   0.000000   0.000000   0.000000   0.000000   0.000000
    20  H    0.000000   0.000000   0.000000   0.000000   0.000000   0.000000
    21  C    0.000000   0.000000   0.000000   0.000000   0.000000   0.000000
    22  H    0.000000   0.000000   0.000000   0.000000   0.000000   0.000000
    23  H    0.000000   0.000000   0.000000   0.000000   0.000000   0.000000
    24  H    0.000000   0.000000   0.000000   0.000000   0.000000   0.000000
    25  C   -0.000065  -0.000004   0.000001   0.000000   0.000000   0.000000
    26  O   -0.000001   0.000000   0.000000   0.000000   0.000000   0.000000
    27  N    0.002633   0.000046  -0.000070   0.000000   0.000002   0.000000
    28  H    0.001210  -0.000038  -0.000041  -0.000004   0.000001   0.000000
    29  C   -0.119462   0.000484   0.004168   0.000162  -0.000163   0.000011
    30  H    0.002606   0.000832  -0.000145  -0.000002   0.000003  -0.000007
    31  C    0.003544   0.000408  -0.000205  -0.000020  -0.000001  -0.000001
    32  H    0.000383  -0.000002  -0.000021   0.000003   0.000000  -0.000001
    33  H    0.001848   0.001139   0.000024  -0.000007   0.000003  -0.000007
    34  H   -0.000020  -0.000051   0.000003   0.000000   0.000000   0.000000
    35  C    0.288285  -0.022767  -0.028636  -0.003195  -0.003706   0.004521
    36  O   -0.104325   0.002512   0.008223   0.002919   0.001266   0.000358
    37  N    7.322864   0.328539   0.193420  -0.040528  -0.045411  -0.036800
    38  H    0.328539   0.319145  -0.021912   0.002492   0.001328  -0.004554
    39  C    0.193420  -0.021912   4.910138   0.404398   0.406376   0.397484
    40  H   -0.040528   0.002492   0.404398   0.486938  -0.032662  -0.024879
    41  H   -0.045411   0.001328   0.406376  -0.032662   0.516443  -0.030313
    42  H   -0.036800  -0.004554   0.397484  -0.024879  -0.030313   0.519739
 Mulliken atomic charges:
              1
     1  H    0.203155
     2  C   -0.575199
     3  H    0.172942
     4  H    0.207083
     5  C    0.755925
     6  O   -0.622915
     7  N   -0.823743
     8  H    0.419319
     9  C   -0.037814
    10  H    0.214062
    11  C   -0.483308
    12  H    0.176087
    13  H    0.167297
    14  H    0.211150
    15  C    0.793468
    16  O   -0.619722
    17  N   -0.866004
    18  H    0.400147
    19  C   -0.003589
    20  H    0.215095
    21  C   -0.501604
    22  H    0.164213
    23  H    0.199225
    24  H    0.220588
    25  C    0.764176
    26  O   -0.605497
    27  N   -0.854702
    28  H    0.429764
    29  C   -0.039322
    30  H    0.220340
    31  C   -0.479869
    32  H    0.180490
    33  H    0.158107
    34  H    0.210766
    35  C    0.775835
    36  O   -0.632092
    37  N   -0.798718
    38  H    0.392404
    39  C   -0.273206
    40  H    0.204387
    41  H    0.186834
    42  H    0.174447
 Sum of Mulliken atomic charges =   0.00000
 Mulliken charges with hydrogens summed into heavy atoms:
              1
     2  C    0.007981
     5  C    0.755925
     6  O   -0.622915
     7  N   -0.404424
     9  C    0.176248
    11  C    0.071226
    15  C    0.793468
    16  O   -0.619722
    17  N   -0.465857
    19  C    0.211506
    21  C    0.082422
    25  C    0.764176
    26  O   -0.605497
    27  N   -0.424937
    29  C    0.181017
    31  C    0.069493
    35  C    0.775835
    36  O   -0.632092
    37  N   -0.406315
    39  C    0.292463
 Sum of Mulliken charges with hydrogens summed into heavy atoms =   0.00000
 Electronic spatial extent (au):  <R**2>=           8964.4022
 Charge=              0.0000 electrons
 Dipole moment (field-independent basis, Debye):
    X=              4.5865    Y=             -0.1779    Z=              0.1076  Tot=              4.5912
 Quadrupole moment (field-independent basis, Debye-Ang):
   XX=            -85.4311   YY=           -140.0265   ZZ=           -123.5073
   XY=            -12.8998   XZ=              5.5485   YZ=              0.9072
 Traceless Quadrupole moment (field-independent basis, Debye-Ang):
   XX=             30.8905   YY=            -23.7049   ZZ=             -7.1856
   XY=            -12.8998   XZ=              5.5485   YZ=              0.9072
 Octapole moment (field-independent basis, Debye-Ang**2):
  XXX=            135.2765  YYY=             -5.5456  ZZZ=              1.3421  XYY=             31.9055
  XXY=            -25.7575  XXZ=             18.5537  XZZ=              9.5025  YZZ=              5.3587
  YYZ=            -24.0714  XYZ=            -40.5020
 Hexadecapole moment (field-independent basis, Debye-Ang**3):
 XXXX=          -6825.7923 YYYY=          -2186.8362 ZZZZ=           -749.5892 XXXY=           -322.0091
 XXXZ=             67.6536 YYYX=           -176.7290 YYYZ=             -2.3566 ZZZX=             -6.3348
 ZZZY=              4.0915 XXYY=          -1958.7340 XXZZ=          -1607.0372 YYZZ=           -507.7308
 XXYZ=             79.8122 YYXZ=             12.3132 ZZXY=            -12.9811
 N-N= 1.614659094925D+03 E-N=-5.536855827932D+03  KE= 9.830767223172D+02
 1\1\GINC-NODE007\FOpt\RHF\6-31G(d)\C12H22N4O4\MANAGER\26-Dec-2016\0\\#
  HF/6-31G* Opt=(ModRedundant, maxcycles=1000, calcfc) geom=nocrowd\\Ph
 i Psi fixed scan\\0,1\H,2.763559596,2.5947046273,3.3731073423\C,2.6160
 222477,2.4570696837,2.3075140637\H,1.7330500925,3.0055542525,2.0029883
 656\H,2.4655393237,1.4006931129,2.1282756566\C,3.8721671439,2.89686596
 41,1.5871553482\O,4.8880448213,2.2533559795,1.6406976382\N,3.782885926
 3,4.0565687444,0.9051721664\H,2.9456738054,4.5944108314,0.9081366599\C
 ,4.9152639145,4.6369141168,0.2268107932\H,5.7951804608,4.4694991164,0.
 8358685825\C,5.1422723949,4.0104198511,-1.1561963152\H,4.2793836651,4.
 1794552621,-1.7911854036\H,6.0163905564,4.4278532112,-1.6440623793\H,5
 .289729207,2.9450248249,-1.0399003667\C,4.6541917163,6.1393176254,0.10
 01997931\O,3.542218965,6.5822242802,0.1918648823\N,5.7565155979,6.8723
 155413,-0.2078737538\H,6.6054970269,6.3759978036,-0.0562473736\C,5.882
 6173952,8.3310297455,-0.0669383436\H,5.6409144879,8.7865061337,-1.0237
 77496\C,4.9923231522,8.9565675086,1.0076510155\H,5.1762010304,8.498370
 9557,1.9732927666\H,5.2306469586,10.0072297769,1.0843227632\H,3.950953
 9527,8.8365789234,0.76006567\C,7.3498388006,8.693828537,0.2221842741\O
 ,7.6380685484,9.653737133,0.8802087767\N,8.292463483,7.8661943922,-0.2
 972235709\H,8.0712725809,7.2898269649,-1.0820656194\C,9.6995738746,8.1
 906703667,-0.1856300232\H,9.8190818056,9.2669146995,-0.2369972215\C,10
 .2818585421,7.6882687394,1.1405188156\H,10.2051671351,6.6083975029,1.2
 027835885\H,11.3246986852,7.9658401181,1.2491886952\H,9.7283646506,8.1
 26538735,1.9603363529\C,10.4055974625,7.557244852,-1.3843272059\O,9.84
 28109988,6.7726647275,-2.1045642396\N,11.6858486203,7.9204858308,-1.56
 48899555\H,12.070941479,8.6370437484,-0.9947583395\C,12.4724310003,7.4
 125152467,-2.6713915555\H,12.4091820768,6.3345109678,-2.7069172215\H,1
 2.1276040064,7.8090298217,-3.6190451389\H,13.5037528113,7.700959744,-2
 .5216524871\\Version=EM64L-G09RevA.02\State=1-A\HF=-984.5512252\RMSD=6
 .234e-09\RMSF=1.550e-03\Dipole=1.5333803,0.834187,-0.4644461\Quadrupol
 e=20.6919595,-16.1768542,-4.5151054,12.19421,-5.509552,-2.9293943\PG=C
 01 [X(C12H22N4O4)]\\@


 ... FOR AFTERWARDS A MAN FINDS PLEASURE IN HIS PAINS,
 WHEN HE HAS SUFFERED LONG AND WANDERED FAR.

                                    -- HOMER
 Job cpu time:  0 days  2 hours  8 minutes 24.1 seconds.
 File lengths (MBytes):  RWF=    553 Int=      0 D2E=      0 Chk=     11 Scr=      1
 Normal termination of Gaussian 09 at Mon Dec 26 17:21:35 2016.
