 Entering Gaussian System, Link 0=/home/steboss/local/g09/g09
 Initial command:
 /home/steboss/local//g09/l1.exe /tmp/Gau-22511.inp -scrdir=/tmp/
 Entering Link 1 = /home/steboss/local//g09/l1.exe PID=     22513.
  
 Copyright (c) 1988,1990,1992,1993,1995,1998,2003,2009, Gaussian, Inc.
                  All Rights Reserved.
  
 This is part of the Gaussian(R) 09 program.  It is based on
 the Gaussian(R) 03 system (copyright 2003, Gaussian, Inc.),
 the Gaussian(R) 98 system (copyright 1998, Gaussian, Inc.),
 the Gaussian(R) 94 system (copyright 1995, Gaussian, Inc.),
 the Gaussian 92(TM) system (copyright 1992, Gaussian, Inc.),
 the Gaussian 90(TM) system (copyright 1990, Gaussian, Inc.),
 the Gaussian 88(TM) system (copyright 1988, Gaussian, Inc.),
 the Gaussian 86(TM) system (copyright 1986, Carnegie Mellon
 University), and the Gaussian 82(TM) system (copyright 1983,
 Carnegie Mellon University). Gaussian is a federally registered
 trademark of Gaussian, Inc.
  
 This software contains proprietary and confidential information,
 including trade secrets, belonging to Gaussian, Inc.
  
 This software is provided under written license and may be
 used, copied, transmitted, or stored only in accord with that
 written license.
  
 The following legend is applicable only to US Government
 contracts under FAR:
  
                    RESTRICTED RIGHTS LEGEND
  
 Use, reproduction and disclosure by the US Government is
 subject to restrictions as set forth in subparagraphs (a)
 and (c) of the Commercial Computer Software - Restricted
 Rights clause in FAR 52.227-19.
  
 Gaussian, Inc.
 340 Quinnipiac St., Bldg. 40, Wallingford CT 06492
  
  
 ---------------------------------------------------------------
 Warning -- This program may not be used in any manner that
 competes with the business of Gaussian, Inc. or will provide
 assistance to any competitor of Gaussian, Inc.  The licensee
 of this program is prohibited from giving any competitor of
 Gaussian, Inc. access to this program.  By using this program,
 the user acknowledges that Gaussian, Inc. is engaged in the
 business of creating and licensing software in the field of
 computational chemistry and represents and warrants to the
 licensee that it is not a competitor of Gaussian, Inc. and that
 it will not use this program in any manner prohibited above.
 ---------------------------------------------------------------
  

 Cite this work as:
 Gaussian 09, Revision A.02,
 M. J. Frisch, G. W. Trucks, H. B. Schlegel, G. E. Scuseria, 
 M. A. Robb, J. R. Cheeseman, G. Scalmani, V. Barone, B. Mennucci, 
 G. A. Petersson, H. Nakatsuji, M. Caricato, X. Li, H. P. Hratchian, 
 A. F. Izmaylov, J. Bloino, G. Zheng, J. L. Sonnenberg, M. Hada, 
 M. Ehara, K. Toyota, R. Fukuda, J. Hasegawa, M. Ishida, T. Nakajima, 
 Y. Honda, O. Kitao, H. Nakai, T. Vreven, J. A. Montgomery, Jr., 
 J. E. Peralta, F. Ogliaro, M. Bearpark, J. J. Heyd, E. Brothers, 
 K. N. Kudin, V. N. Staroverov, R. Kobayashi, J. Normand, 
 K. Raghavachari, A. Rendell, J. C. Burant, S. S. Iyengar, J. Tomasi, 
 M. Cossi, N. Rega, J. M. Millam, M. Klene, J. E. Knox, J. B. Cross, 
 V. Bakken, C. Adamo, J. Jaramillo, R. Gomperts, R. E. Stratmann, 
 O. Yazyev, A. J. Austin, R. Cammi, C. Pomelli, J. W. Ochterski, 
 R. L. Martin, K. Morokuma, V. G. Zakrzewski, G. A. Voth, 
 P. Salvador, J. J. Dannenberg, S. Dapprich, A. D. Daniels, 
 O. Farkas, J. B. Foresman, J. V. Ortiz, J. Cioslowski, 
 and D. J. Fox, Gaussian, Inc., Wallingford CT, 2009.
 
 ******************************************
 Gaussian 09:  EM64L-G09RevA.02 11-Jun-2009
                19-Mar-2017 
 ******************************************
 %nproc=8
 Will use up to    8 processors via shared memory.
 %mem=4096MB
 %chk=IPolQout.vacu.chk
 ----------------------------------------------------------------------
 #MP2/cc-pvTZ density=MP2, maxdisk=16GB, pop=(minimal, MK), 5d, punch=m
 o
 ----------------------------------------------------------------------
 1/30=1,38=1/1;
 2/12=2,17=6,18=5,40=1/2;
 3/5=16,6=1,8=1,11=9,16=1,25=1,30=1,71=1/1,2,3;
 4//1;
 5/5=2,38=5/2;
 8/6=4,10=1/1;
 9/15=1,16=-3/6;
 10/5=1,13=10/2;
 6/7=2,8=2,9=2,10=2,15=8,20=1,22=2/1,2;
 99/5=1,9=1,10=32/99;
 -----------------
 Generated by mdgx
 -----------------
 Symbolic Z-matrix:
 Charge =  0 Multiplicity = 1
 H                     13.69865   19.44317   15.73727 
 C                     14.43454   18.71671   15.39256 
 H                     15.12335   19.11922   14.64985 
 H                     13.76318   17.94517   15.01558 
 C                     15.32847   18.19616   16.48934 
 O                     15.26184   18.74303   17.596 
 N                     16.06694   17.10422   16.20564 
 H                     16.18265   16.70701   15.28426 
 C                     16.79292   16.32858   17.20087 
 H                     17.25607   15.51902   16.63677 
 C                     18.0413   17.16379   17.76513 
 H                     17.8116   18.05399   18.3507 
 H                     18.66369   16.53185   18.39868 
 H                     18.5299   17.65191   16.92186 
 C                     15.88437   15.78722   18.32921 
 O                     14.68709   15.73969   18.19343 
 N                     16.43489   15.22508   19.3935 
 H                     17.43721   15.10087   19.38915 
 C                     15.64885   14.80505   20.55594 
 H                     15.11994   13.87057   20.3686 
 H                     16.37053   14.60495   21.34792 
 H                     14.97317   15.61296   20.83673 
 
                          Input orientation:                          
 ---------------------------------------------------------------------
 Center     Atomic      Atomic             Coordinates (Angstroms)
 Number     Number       Type             X           Y           Z
 ---------------------------------------------------------------------
      1          1           0       13.698653   19.443168   15.737272
      2          6           0       14.434539   18.716706   15.392561
      3          1           0       15.123347   19.119222   14.649847
      4          1           0       13.763175   17.945174   15.015585
      5          6           0       15.328473   18.196158   16.489340
      6          8           0       15.261836   18.743028   17.596002
      7          7           0       16.066939   17.104221   16.205637
      8          1           0       16.182653   16.707010   15.284261
      9          6           0       16.792925   16.328581   17.200867
     10          1           0       17.256069   15.519015   16.636774
     11          6           0       18.041297   17.163790   17.765132
     12          1           0       17.811597   18.053987   18.350696
     13          1           0       18.663686   16.531847   18.398677
     14          1           0       18.529896   17.651908   16.921857
     15          6           0       15.884371   15.787218   18.329210
     16          8           0       14.687094   15.739688   18.193426
     17          7           0       16.434891   15.225083   19.393497
     18          1           0       17.437214   15.100872   19.389149
     19          6           0       15.648849   14.805047   20.555938
     20          1           0       15.119938   13.870565   20.368595
     21          1           0       16.370534   14.604948   21.347918
     22          1           0       14.973173   15.612957   20.836726
 ---------------------------------------------------------------------
                    Distance matrix (angstroms):
                    1          2          3          4          5
     1  H    0.000000
     2  C    1.090000   0.000000
     3  H    1.821315   1.090000   0.000000
     4  H    1.664026   1.090000   1.833635   0.000000
     5  C    2.185624   1.507651   2.068298   2.164510   0.000000
     6  O    2.527570   2.353777   2.973302   3.088868   1.236207
     7  N    3.361371   2.434324   2.714973   2.725941   1.348387
     8  H    3.723176   2.665804   2.709866   2.731138   2.097475
     9  C    4.627881   3.812492   4.133142   4.070407   2.477647
    10  H    5.372457   4.442334   4.632264   4.551353   3.302190
    11  C    5.307197   4.587957   4.695012   5.145182   3.170622
    12  H    5.067161   4.538093   4.696562   5.246383   3.106568
    13  H    6.341169   5.629923   5.769076   6.120279   4.187977
    14  H    5.287037   4.499388   4.349668   5.142131   3.276033
    15  C    4.986129   4.394067   5.021864   4.487356   3.081743
    16  O    4.552524   4.095274   4.916149   3.976993   3.057699
    17  N    6.216689   5.674533   6.275880   5.805435   4.299485
    18  H    6.794746   6.169524   6.630392   6.380963   4.736716
    19  C    6.966705   6.590607   7.332815   6.641663   5.304668
    20  H    7.383976   6.979668   7.762247   6.862796   5.814023
    21  H    7.875701   7.491389   8.173022   7.619309   6.130943
    22  H    6.503794   6.289858   7.112939   6.386628   5.069411
                    6          7          8          9         10
     6  O    0.000000
     7  N    2.294994   0.000000
     8  H    3.215186   1.010000   0.000000
     9  C    2.886160   1.455732   2.046709   0.000000
    10  H    3.910415   2.028001   2.095912   1.090000   0.000000
    11  C    3.201250   2.516677   3.133357   1.604495   2.143608
    12  H    2.746930   2.923554   3.724357   2.310158   3.110020
    13  H    4.135964   3.446757   3.985699   2.230654   2.472148
    14  H    3.510731   2.622802   3.013984   2.201388   2.500628
    15  C    3.108370   2.505472   3.194794   1.546513   2.194955
    16  O    3.115654   2.777990   3.411107   2.401352   3.011892
    17  N    4.121042   3.718736   4.375563   2.480629   2.891409
    18  H    4.605752   4.003225   4.582980   2.590551   2.789843
    19  C    4.941529   4.938231   5.629653   3.858312   4.295667
    20  H    5.607879   5.355704   5.918213   4.344563   4.605099
    21  H    5.694717   5.725521   6.420429   4.510805   4.880017
    22  H    4.514750   4.986700   5.787025   4.128327   4.781217
                   11         12         13         14         15
    11  C    0.000000
    12  H    1.090000   0.000000
    13  H    1.090000   1.745070   0.000000
    14  H    1.090000   1.649001   1.858342   0.000000
    15  C    2.620204   2.975384   2.878175   3.529379   0.000000
    16  O    3.669085   3.891431   4.059917   4.476673   1.205889
    17  N    2.998450   3.314431   2.768542   4.048152   1.323546
    18  H    2.694064   3.152687   2.129074   3.713390   2.001465
    19  C    4.367618   4.482877   4.089604   5.441654   2.445087
    20  H    5.114460   5.368237   4.849861   6.148689   2.901208
    21  H    4.709085   4.791229   4.203512   5.791099   3.278218
    22  H    4.610115   4.493954   4.517558   5.668668   2.673628
                   16         17         18         19         20
    16  O    0.000000
    17  N    2.181692   0.000000
    18  H    3.066105   1.010000   0.000000
    19  C    2.716614   1.464774   2.155728   0.000000
    20  H    2.900402   2.124768   2.800490   1.090000   0.000000
    21  H    3.751322   2.051456   2.284847   1.090000   1.749966
    22  H    2.661754   2.090449   2.903310   1.090000   1.810143
                   21         22
    21  H    0.000000
    22  H    1.797225   0.000000
 Stoichiometry    C6H12N2O2
 Framework group  C1[X(C6H12N2O2)]
 Deg. of freedom    60
 Full point group                 C1      NOp   1
 Largest Abelian subgroup         C1      NOp   1
 Largest concise Abelian subgroup C1      NOp   1
                         Standard orientation:                         
 ---------------------------------------------------------------------
 Center     Atomic      Atomic             Coordinates (Angstroms)
 Number     Number       Type             X           Y           Z
 ---------------------------------------------------------------------
      1          1           0       -3.606996   -1.580438    0.595492
      2          6           0       -3.252187   -0.857274   -0.138842
      3          1           0       -3.934252   -0.019550   -0.284121
      4          1           0       -3.150955   -1.513298   -1.003414
      5          6           0       -1.941098   -0.212717    0.233451
      6          8           0       -1.494735   -0.425999    1.366358
      7          7           0       -1.302903    0.472722   -0.736615
      8          1           0       -1.701273    0.714127   -1.632787
      9          6           0        0.068606    0.949389   -0.632189
     10          1           0        0.265787    1.436243   -1.587277
     11          6           0        0.170061    2.144345    0.433734
     12          1           0       -0.020824    1.889417    1.476171
     13          1           0        1.162636    2.593834    0.404496
     14          1           0       -0.678654    2.809992    0.276586
     15          6           0        1.084528   -0.182266   -0.351187
     16          8           0        0.795011   -1.337593   -0.539780
     17          7           0        2.335530    0.127520   -0.049859
     18          1           0        2.597811    1.101919   -0.092916
     19          6           0        3.320111   -0.879975    0.351534
     20          1           0        3.693303   -1.442359   -0.504358
     21          1           0        4.166402   -0.325513    0.757074
     22          1           0        2.876290   -1.526332    1.108730
 ---------------------------------------------------------------------
 Rotational constants (GHZ):      2.3460750      0.8163211      0.7155028
 Standard basis: CC-pVTZ (5D, 7F)
 There are   468 symmetry adapted basis functions of A   symmetry.
 Integral buffers will be    131072 words long.
 Raffenetti 1 integral format.
 Two-electron integral symmetry is turned on.
   468 basis functions,   724 primitive gaussians,   530 cartesian basis functions
    39 alpha electrons       39 beta electrons
       nuclear repulsion energy       562.2195862839 Hartrees.
 NAtoms=   22 NActive=   22 NUniq=   22 SFac= 7.50D-01 NAtFMM=   80 NAOKFM=F Big=F
 One-electron integrals computed using PRISM.
 NBasis=   468 RedAO= T  NBF=   468
 NBsUse=   468 1.00D-06 NBFU=   468
 Harris functional with IExCor=  205 diagonalized for initial guess.
 ExpMin= 1.03D-01 ExpMax= 1.53D+04 ExpMxC= 5.22D+02 IAcc=1 IRadAn=         1 AccDes= 0.00D+00
 HarFok:  IExCor=  205 AccDes= 0.00D+00 IRadAn=         1 IDoV= 1
 ScaDFX=  1.000000  1.000000  1.000000  1.000000
 FoFCou: FMM=F IPFlag=           0 FMFlag=      100000 FMFlg1=           0
         NFxFlg=           0 DoJE=T BraDBF=F KetDBF=T FulRan=T
         Omega=  0.000000  0.000000  1.000000  0.000000  0.000000 ICntrl=     500 IOpCl=  0
         NMat0=    1 NMatS0=    1 NMatT0=    0 NMatD0=    1 NMtDS0=    0 NMtDT0=    0
         I1Cent=           4 NGrid=           0.
 Petite list used in FoFCou.
 Initial guess orbital symmetries:
       Occupied  (A) (A) (A) (A) (A) (A) (A) (A) (A) (A) (A) (A)
                 (A) (A) (A) (A) (A) (A) (A) (A) (A) (A) (A) (A)
                 (A) (A) (A) (A) (A) (A) (A) (A) (A) (A) (A) (A)
                 (A) (A) (A)
       Virtual   (A) (A) (A) (A) (A) (A) (A) (A) (A) (A) (A) (A)
                 (A) (A) (A) (A) (A) (A) (A) (A) (A) (A) (A) (A)
                 (A) (A) (A) (A) (A) (A) (A) (A) (A) (A) (A) (A)
                 (A) (A) (A) (A) (A) (A) (A) (A) (A) (A) (A) (A)
                 (A) (A) (A) (A) (A) (A) (A) (A) (A) (A) (A) (A)
                 (A) (A) (A) (A) (A) (A) (A) (A) (A) (A) (A) (A)
                 (A) (A) (A) (A) (A) (A) (A) (A) (A) (A) (A) (A)
                 (A) (A) (A) (A) (A) (A) (A) (A) (A) (A) (A) (A)
                 (A) (A) (A) (A) (A) (A) (A) (A) (A) (A) (A) (A)
                 (A) (A) (A) (A) (A) (A) (A) (A) (A) (A) (A) (A)
                 (A) (A) (A) (A) (A) (A) (A) (A) (A) (A) (A) (A)
                 (A) (A) (A) (A) (A) (A) (A) (A) (A) (A) (A) (A)
                 (A) (A) (A) (A) (A) (A) (A) (A) (A) (A) (A) (A)
                 (A) (A) (A) (A) (A) (A) (A) (A) (A) (A) (A) (A)
                 (A) (A) (A) (A) (A) (A) (A) (A) (A) (A) (A) (A)
                 (A) (A) (A) (A) (A) (A) (A) (A) (A) (A) (A) (A)
                 (A) (A) (A) (A) (A) (A) (A) (A) (A) (A) (A) (A)
                 (A) (A) (A) (A) (A) (A) (A) (A) (A) (A) (A) (A)
                 (A) (A) (A) (A) (A) (A) (A) (A) (A) (A) (A) (A)
                 (A) (A) (A) (A) (A) (A) (A) (A) (A) (A) (A) (A)
                 (A) (A) (A) (A) (A) (A) (A) (A) (A) (A) (A) (A)
                 (A) (A) (A) (A) (A) (A) (A) (A) (A) (A) (A) (A)
                 (A) (A) (A) (A) (A) (A) (A) (A) (A) (A) (A) (A)
                 (A) (A) (A) (A) (A) (A) (A) (A) (A) (A) (A) (A)
                 (A) (A) (A) (A) (A) (A) (A) (A) (A) (A) (A) (A)
                 (A) (A) (A) (A) (A) (A) (A) (A) (A) (A) (A) (A)
                 (A) (A) (A) (A) (A) (A) (A) (A) (A) (A) (A) (A)
                 (A) (A) (A) (A) (A) (A) (A) (A) (A) (A) (A) (A)
                 (A) (A) (A) (A) (A) (A) (A) (A) (A) (A) (A) (A)
                 (A) (A) (A) (A) (A) (A) (A) (A) (A) (A) (A) (A)
                 (A) (A) (A) (A) (A) (A) (A) (A) (A) (A) (A) (A)
                 (A) (A) (A) (A) (A) (A) (A) (A) (A) (A) (A) (A)
                 (A) (A) (A) (A) (A) (A) (A) (A) (A) (A) (A) (A)
                 (A) (A) (A) (A) (A) (A) (A) (A) (A) (A) (A) (A)
                 (A) (A) (A) (A) (A) (A) (A) (A) (A) (A) (A) (A)
                 (A) (A) (A) (A) (A) (A) (A) (A) (A)
 The electronic state of the initial guess is 1-A.
 Requested convergence on RMS density matrix=1.00D-08 within 128 cycles.
 Requested convergence on MAX density matrix=1.00D-06.
 Requested convergence on             energy=1.00D-06.
 No special actions if energy rises.
 Integral accuracy reduced to 1.0D-05 until final iterations.
 Initial convergence to 1.0D-05 achieved.  Increase integral accuracy.
 SCF Done:  E(RHF) =  -493.002618939     A.U. after   13 cycles
             Convg  =    0.8708D-08             -V/T =  2.0014
 ExpMin= 1.03D-01 ExpMax= 1.53D+04 ExpMxC= 5.22D+02 IAcc=1 IRadAn=         1 AccDes= 0.00D+00
 HarFok:  IExCor=  205 AccDes= 0.00D+00 IRadAn=         1 IDoV=-2
 ScaDFX=  1.000000  1.000000  1.000000  1.000000
 Range of M.O.s used for correlation:    11   468
 NBasis=   468 NAE=    39 NBE=    39 NFC=    10 NFV=     0
 NROrb=    458 NOA=    29 NOB=    29 NVA=   429 NVB=   429
 Disk-based method using ON**2 memory for  8 occupieds at a time.
 Estimated scratch disk usage=  1864345048 words.
 Actual    scratch disk usage=  1706239448 words.
 JobTyp=1 Pass  1:  I=  11 to  18 NPSUse=  8 ParTrn=T ParDer=T DoDerP=T.
 JobTyp=1 Pass  2:  I=  19 to  25 NPSUse=  8 ParTrn=T ParDer=T DoDerP=T.
 (rs|ai) integrals will be sorted in core.
 JobTyp=1 Pass  3:  I=  26 to  32 NPSUse=  8 ParTrn=T ParDer=T DoDerP=T.
 (rs|ai) integrals will be sorted in core.
 JobTyp=1 Pass  4:  I=  33 to  39 NPSUse=  8 ParTrn=T ParDer=T DoDerP=T.
 (rs|ai) integrals will be sorted in core.
 Spin components of T(2) and E(2):
     alpha-alpha T2 =       0.6999155211D-01 E2=     -0.2319489295D+00
     alpha-beta  T2 =       0.3981940393D+00 E2=     -0.1420168210D+01
     beta-beta   T2 =       0.6999155211D-01 E2=     -0.2319489295D+00
 ANorm=    0.1240232697D+01
 E2 =    -0.1884066069D+01 EUMP2 =    -0.49488668500835D+03
          Differentiating once with respect to electric field.
                with respect to dipole field.
          Electric field/nuclear overlap derivatives assumed to be zero.
          There are     1 degrees of freedom in the 1st order CPHF.  IDoFFX=0.
 LinEq1:  Iter=  0 NonCon=     1 RMS=2.75D-03 Max=7.97D-02
 AX will form     1 AO Fock derivatives at one time.
 LinEq1:  Iter=  1 NonCon=     1 RMS=7.92D-04 Max=1.90D-02
 LinEq1:  Iter=  2 NonCon=     1 RMS=2.83D-04 Max=6.01D-03
 LinEq1:  Iter=  3 NonCon=     1 RMS=1.26D-04 Max=3.15D-03
 LinEq1:  Iter=  4 NonCon=     1 RMS=3.53D-05 Max=8.98D-04
 LinEq1:  Iter=  5 NonCon=     1 RMS=1.02D-05 Max=1.65D-04
 LinEq1:  Iter=  6 NonCon=     1 RMS=3.82D-06 Max=8.58D-05
 LinEq1:  Iter=  7 NonCon=     1 RMS=1.49D-06 Max=3.95D-05
 LinEq1:  Iter=  8 NonCon=     1 RMS=6.29D-07 Max=1.38D-05
 LinEq1:  Iter=  9 NonCon=     1 RMS=2.28D-07 Max=4.74D-06
 LinEq1:  Iter= 10 NonCon=     1 RMS=6.79D-08 Max=1.02D-06
 LinEq1:  Iter= 11 NonCon=     1 RMS=2.05D-08 Max=6.28D-07
 LinEq1:  Iter= 12 NonCon=     1 RMS=6.66D-09 Max=2.33D-07
 LinEq1:  Iter= 13 NonCon=     1 RMS=2.09D-09 Max=5.99D-08
 LinEq1:  Iter= 14 NonCon=     1 RMS=5.54D-10 Max=1.05D-08
 LinEq1:  Iter= 15 NonCon=     1 RMS=1.76D-10 Max=3.01D-09
 LinEq1:  Iter= 16 NonCon=     0 RMS=5.78D-11 Max=8.13D-10
 Linear equations converged to 1.000D-10 1.000D-09 after    16 iterations.
 End of Minotr Frequency-dependent properties file   721 does not exist.
 End of Minotr Frequency-dependent properties file   722 does not exist.

 **********************************************************************

            Population analysis using the MP2 density.

 **********************************************************************

 Orbital symmetries:
       Occupied  (A) (A) (A) (A) (A) (A) (A) (A) (A) (A) (A) (A)
                 (A) (A) (A) (A) (A) (A) (A) (A) (A) (A) (A) (A)
                 (A) (A) (A) (A) (A) (A) (A) (A) (A) (A) (A) (A)
                 (A) (A) (A)
       Virtual   (A) (A) (A) (A) (A) (A) (A) (A) (A) (A) (A) (A)
                 (A) (A) (A) (A) (A) (A) (A) (A) (A) (A) (A) (A)
                 (A) (A) (A) (A) (A) (A) (A) (A) (A) (A) (A) (A)
                 (A) (A) (A) (A) (A) (A) (A) (A) (A) (A) (A) (A)
                 (A) (A) (A) (A) (A) (A) (A) (A) (A) (A) (A) (A)
                 (A) (A) (A) (A) (A) (A) (A) (A) (A) (A) (A) (A)
                 (A) (A) (A) (A) (A) (A) (A) (A) (A) (A) (A) (A)
                 (A) (A) (A) (A) (A) (A) (A) (A) (A) (A) (A) (A)
                 (A) (A) (A) (A) (A) (A) (A) (A) (A) (A) (A) (A)
                 (A) (A) (A) (A) (A) (A) (A) (A) (A) (A) (A) (A)
                 (A) (A) (A) (A) (A) (A) (A) (A) (A) (A) (A) (A)
                 (A) (A) (A) (A) (A) (A) (A) (A) (A) (A) (A) (A)
                 (A) (A) (A) (A) (A) (A) (A) (A) (A) (A) (A) (A)
                 (A) (A) (A) (A) (A) (A) (A) (A) (A) (A) (A) (A)
                 (A) (A) (A) (A) (A) (A) (A) (A) (A) (A) (A) (A)
                 (A) (A) (A) (A) (A) (A) (A) (A) (A) (A) (A) (A)
                 (A) (A) (A) (A) (A) (A) (A) (A) (A) (A) (A) (A)
                 (A) (A) (A) (A) (A) (A) (A) (A) (A) (A) (A) (A)
                 (A) (A) (A) (A) (A) (A) (A) (A) (A) (A) (A) (A)
                 (A) (A) (A) (A) (A) (A) (A) (A) (A) (A) (A) (A)
                 (A) (A) (A) (A) (A) (A) (A) (A) (A) (A) (A) (A)
                 (A) (A) (A) (A) (A) (A) (A) (A) (A) (A) (A) (A)
                 (A) (A) (A) (A) (A) (A) (A) (A) (A) (A) (A) (A)
                 (A) (A) (A) (A) (A) (A) (A) (A) (A) (A) (A) (A)
                 (A) (A) (A) (A) (A) (A) (A) (A) (A) (A) (A) (A)
                 (A) (A) (A) (A) (A) (A) (A) (A) (A) (A) (A) (A)
                 (A) (A) (A) (A) (A) (A) (A) (A) (A) (A) (A) (A)
                 (A) (A) (A) (A) (A) (A) (A) (A) (A) (A) (A) (A)
                 (A) (A) (A) (A) (A) (A) (A) (A) (A) (A) (A) (A)
                 (A) (A) (A) (A) (A) (A) (A) (A) (A) (A) (A) (A)
                 (A) (A) (A) (A) (A) (A) (A) (A) (A) (A) (A) (A)
                 (A) (A) (A) (A) (A) (A) (A) (A) (A) (A) (A) (A)
                 (A) (A) (A) (A) (A) (A) (A) (A) (A) (A) (A) (A)
                 (A) (A) (A) (A) (A) (A) (A) (A) (A) (A) (A) (A)
                 (A) (A) (A) (A) (A) (A) (A) (A) (A) (A) (A) (A)
                 (A) (A) (A) (A) (A) (A) (A) (A) (A)
 The electronic state is 1-A.
 Alpha  occ. eigenvalues --  -20.50113 -20.49893 -15.58634 -15.57914 -11.34132
 Alpha  occ. eigenvalues --  -11.33429 -11.29769 -11.26147 -11.23114 -11.22375
 Alpha  occ. eigenvalues --   -1.38461  -1.35746  -1.23459  -1.22697  -1.04340
 Alpha  occ. eigenvalues --   -0.98376  -0.95262  -0.88796  -0.80812  -0.77675
 Alpha  occ. eigenvalues --   -0.70502  -0.69188  -0.64344  -0.63016  -0.62334
 Alpha  occ. eigenvalues --   -0.62034  -0.58711  -0.57988  -0.56299  -0.55512
 Alpha  occ. eigenvalues --   -0.54506  -0.53867  -0.52489  -0.50524  -0.48277
 Alpha  occ. eigenvalues --   -0.41861  -0.40548  -0.39009  -0.38337
 Alpha virt. eigenvalues --    0.11258   0.13666   0.15654   0.16319   0.17461
 Alpha virt. eigenvalues --    0.19115   0.20310   0.20494   0.21712   0.22714
 Alpha virt. eigenvalues --    0.23346   0.24086   0.24409   0.25147   0.29165
 Alpha virt. eigenvalues --    0.30477   0.30555   0.34671   0.35593   0.36987
 Alpha virt. eigenvalues --    0.37346   0.39725   0.40134   0.40998   0.42422
 Alpha virt. eigenvalues --    0.43645   0.44674   0.47635   0.48892   0.50448
 Alpha virt. eigenvalues --    0.51430   0.52098   0.53794   0.54874   0.56041
 Alpha virt. eigenvalues --    0.56590   0.59013   0.59445   0.60233   0.61345
 Alpha virt. eigenvalues --    0.62000   0.62777   0.63043   0.63515   0.63706
 Alpha virt. eigenvalues --    0.63956   0.65059   0.65362   0.66008   0.67313
 Alpha virt. eigenvalues --    0.70359   0.71019   0.72472   0.73095   0.74541
 Alpha virt. eigenvalues --    0.75667   0.75781   0.77097   0.79286   0.80271
 Alpha virt. eigenvalues --    0.82883   0.84256   0.84968   0.86556   0.87608
 Alpha virt. eigenvalues --    0.88367   0.90123   0.92074   0.93970   0.94402
 Alpha virt. eigenvalues --    0.96759   0.99473   1.01029   1.02146   1.03002
 Alpha virt. eigenvalues --    1.03776   1.05344   1.06996   1.07693   1.08680
 Alpha virt. eigenvalues --    1.09872   1.11251   1.11825   1.13678   1.14533
 Alpha virt. eigenvalues --    1.15230   1.17080   1.18431   1.19925   1.20883
 Alpha virt. eigenvalues --    1.21261   1.22067   1.24049   1.24949   1.25466
 Alpha virt. eigenvalues --    1.27696   1.28980   1.29744   1.30227   1.31660
 Alpha virt. eigenvalues --    1.32941   1.34945   1.35913   1.37898   1.39502
 Alpha virt. eigenvalues --    1.40067   1.41204   1.42504   1.43650   1.45458
 Alpha virt. eigenvalues --    1.46183   1.48822   1.50061   1.50587   1.51180
 Alpha virt. eigenvalues --    1.52089   1.52387   1.53573   1.54680   1.55676
 Alpha virt. eigenvalues --    1.56253   1.58404   1.59065   1.59646   1.61946
 Alpha virt. eigenvalues --    1.63341   1.64532   1.66922   1.67971   1.69396
 Alpha virt. eigenvalues --    1.72598   1.74611   1.75952   1.77659   1.79201
 Alpha virt. eigenvalues --    1.80439   1.81551   1.83031   1.84688   1.87733
 Alpha virt. eigenvalues --    1.89570   1.90778   1.92774   1.96558   1.99023
 Alpha virt. eigenvalues --    2.04208   2.04685   2.09455   2.12011   2.14523
 Alpha virt. eigenvalues --    2.17001   2.19871   2.21666   2.27525   2.34397
 Alpha virt. eigenvalues --    2.40636   2.45719   2.47285   2.48557   2.50416
 Alpha virt. eigenvalues --    2.52032   2.53850   2.56007   2.57963   2.59347
 Alpha virt. eigenvalues --    2.61728   2.64876   2.67486   2.68825   2.70774
 Alpha virt. eigenvalues --    2.73906   2.76925   2.79027   2.80793   2.82717
 Alpha virt. eigenvalues --    2.84164   2.86137   2.89586   2.90070   2.91664
 Alpha virt. eigenvalues --    2.93446   2.93979   2.96800   2.97181   2.99111
 Alpha virt. eigenvalues --    3.00468   3.02710   3.04174   3.06943   3.07803
 Alpha virt. eigenvalues --    3.08996   3.10046   3.11154   3.12040   3.12421
 Alpha virt. eigenvalues --    3.13953   3.15191   3.17131   3.18065   3.19402
 Alpha virt. eigenvalues --    3.20102   3.22076   3.23954   3.24466   3.25140
 Alpha virt. eigenvalues --    3.26033   3.27419   3.29314   3.30060   3.31959
 Alpha virt. eigenvalues --    3.33070   3.34376   3.34496   3.35812   3.36610
 Alpha virt. eigenvalues --    3.38516   3.39342   3.40777   3.41805   3.42491
 Alpha virt. eigenvalues --    3.43322   3.43874   3.46511   3.47449   3.49571
 Alpha virt. eigenvalues --    3.51082   3.52391   3.54835   3.56130   3.58118
 Alpha virt. eigenvalues --    3.58802   3.59934   3.60367   3.61502   3.63348
 Alpha virt. eigenvalues --    3.64597   3.65078   3.65977   3.66824   3.68243
 Alpha virt. eigenvalues --    3.69293   3.71284   3.71510   3.72257   3.73019
 Alpha virt. eigenvalues --    3.75262   3.76566   3.77170   3.78692   3.79016
 Alpha virt. eigenvalues --    3.79911   3.81784   3.82743   3.83481   3.84953
 Alpha virt. eigenvalues --    3.86234   3.87481   3.88148   3.90129   3.91473
 Alpha virt. eigenvalues --    3.92328   3.94266   3.94797   3.96910   3.97403
 Alpha virt. eigenvalues --    4.01218   4.04679   4.07532   4.08242   4.09288
 Alpha virt. eigenvalues --    4.09920   4.10687   4.11038   4.15402   4.16124
 Alpha virt. eigenvalues --    4.16840   4.17489   4.17915   4.19658   4.20650
 Alpha virt. eigenvalues --    4.21372   4.22894   4.23571   4.24996   4.28092
 Alpha virt. eigenvalues --    4.28902   4.29674   4.31675   4.33612   4.34490
 Alpha virt. eigenvalues --    4.35782   4.36717   4.37855   4.39028   4.40274
 Alpha virt. eigenvalues --    4.40998   4.41890   4.43928   4.45239   4.47123
 Alpha virt. eigenvalues --    4.47698   4.48645   4.51789   4.52438   4.53989
 Alpha virt. eigenvalues --    4.55046   4.56943   4.57991   4.58877   4.60723
 Alpha virt. eigenvalues --    4.63162   4.63903   4.65714   4.68573   4.69126
 Alpha virt. eigenvalues --    4.71952   4.72649   4.74182   4.76638   4.77881
 Alpha virt. eigenvalues --    4.81855   4.83836   4.84945   4.87788   4.92721
 Alpha virt. eigenvalues --    4.94971   4.95503   4.97650   4.99932   5.02797
 Alpha virt. eigenvalues --    5.08282   5.10548   5.11640   5.14084   5.15981
 Alpha virt. eigenvalues --    5.17590   5.20007   5.20843   5.23045   5.23461
 Alpha virt. eigenvalues --    5.25741   5.29597   5.31168   5.32659   5.34230
 Alpha virt. eigenvalues --    5.35570   5.39681   5.39933   5.41312   5.45477
 Alpha virt. eigenvalues --    5.46492   5.48068   5.49385   5.52161   5.52629
 Alpha virt. eigenvalues --    5.54549   5.56994   5.57705   5.58700   5.59423
 Alpha virt. eigenvalues --    5.60562   5.61757   5.63482   5.63894   5.67078
 Alpha virt. eigenvalues --    5.67265   5.68190   5.69109   5.70331   5.72035
 Alpha virt. eigenvalues --    5.73248   5.74292   5.76464   5.79002   5.81267
 Alpha virt. eigenvalues --    5.83929   5.84637   5.87263   5.88062   5.93369
 Alpha virt. eigenvalues --    5.97242   5.99774   6.04397   6.05808   6.09119
 Alpha virt. eigenvalues --    6.12991   6.15631   6.20744   6.22085   6.23551
 Alpha virt. eigenvalues --    6.26886   6.27371   6.29409   6.30323   6.35830
 Alpha virt. eigenvalues --    6.37182   6.39382   6.48314   6.51192   6.55382
 Alpha virt. eigenvalues --    6.61907   6.70696   6.76699   6.83367   6.89890
 Alpha virt. eigenvalues --    6.97278   6.98787   6.99584   7.01870   7.10533
 Alpha virt. eigenvalues --    7.14888   7.38247   7.38619   7.41102   7.42497
 Alpha virt. eigenvalues --    7.61772   7.63611   7.65247   7.68034   9.91089
 Alpha virt. eigenvalues --   10.53555  12.42707  13.08366  13.45270  13.84292
 Alpha virt. eigenvalues --   14.03573  14.28131  14.38023  14.68421
          Condensed to atoms (all electrons):
              1          2          3          4          5          6
     1  H    0.545197   0.372924  -0.014035  -0.030619  -0.034026   0.007676
     2  C    0.372924   5.161851   0.361009   0.360815   0.301009  -0.080088
     3  H   -0.014035   0.361009   0.598126  -0.028508  -0.043926   0.001977
     4  H   -0.030619   0.360815  -0.028508   0.601687  -0.043235   0.002338
     5  C   -0.034026   0.301009  -0.043926  -0.043235   4.714318   0.686400
     6  O    0.007676  -0.080088   0.001977   0.002338   0.686400   7.809755
     7  N    0.005731  -0.090369   0.007540   0.011139   0.286721  -0.124466
     8  H   -0.000320  -0.000464  -0.000409  -0.001572  -0.016837   0.004880
     9  C   -0.000398   0.007288  -0.000353  -0.000595  -0.071108   0.011515
    10  H    0.000021  -0.000341   0.000025   0.000003   0.008575   0.000072
    11  C   -0.000002  -0.000436  -0.000317   0.000190  -0.008870  -0.003505
    12  H   -0.000006   0.000628  -0.000155  -0.000025   0.001623   0.013063
    13  H   -0.000002   0.000034  -0.000002  -0.000004   0.000706   0.000428
    14  H    0.000002  -0.000222   0.000152  -0.000045  -0.000991  -0.001217
    15  C    0.000008  -0.000186   0.000151  -0.000052  -0.003026   0.006336
    16  O   -0.000001  -0.001584   0.000032   0.001137   0.021203  -0.005811
    17  N    0.000001  -0.000079   0.000002   0.000030  -0.000301  -0.001888
    18  H    0.000000   0.000002   0.000000  -0.000001  -0.000052  -0.000058
    19  C    0.000000  -0.000001   0.000000  -0.000001  -0.000182  -0.000110
    20  H    0.000000   0.000000   0.000000   0.000000  -0.000033   0.000007
    21  H    0.000000   0.000000   0.000000   0.000000  -0.000003  -0.000001
    22  H    0.000000   0.000004   0.000000  -0.000001   0.000132   0.000072
              7          8          9         10         11         12
     1  H    0.005731  -0.000320  -0.000398   0.000021  -0.000002  -0.000006
     2  C   -0.090369  -0.000464   0.007288  -0.000341  -0.000436   0.000628
     3  H    0.007540  -0.000409  -0.000353   0.000025  -0.000317  -0.000155
     4  H    0.011139  -0.001572  -0.000595   0.000003   0.000190  -0.000025
     5  C    0.286721  -0.016837  -0.071108   0.008575  -0.008870   0.001623
     6  O   -0.124466   0.004880   0.011515   0.000072  -0.003505   0.013063
     7  N    6.608824   0.323949   0.266977  -0.028574  -0.077748  -0.004751
     8  H    0.323949   0.540896  -0.028672  -0.012201   0.003680  -0.000085
     9  C    0.266977  -0.028672   5.344231   0.371805   0.259281  -0.020558
    10  H   -0.028574  -0.012201   0.371805   0.567562  -0.038711   0.004617
    11  C   -0.077748   0.003680   0.259281  -0.038711   5.263760   0.370857
    12  H   -0.004751  -0.000085  -0.020558   0.004617   0.370857   0.540662
    13  H    0.004772  -0.000381  -0.033111  -0.005028   0.360015  -0.029838
    14  H    0.012199   0.000598  -0.031622  -0.003921   0.335814  -0.037605
    15  C   -0.048095   0.002136   0.183491  -0.021042  -0.093131  -0.000668
    16  O   -0.004812  -0.000717  -0.081316   0.000950   0.004386   0.000089
    17  N    0.004386  -0.000278  -0.085503   0.000652   0.025242   0.000173
    18  H    0.000161  -0.000014   0.006188  -0.000788  -0.003372   0.000061
    19  C   -0.000214   0.000022   0.007402  -0.000343  -0.000645  -0.000175
    20  H   -0.000038  -0.000001  -0.001368  -0.000050   0.000291   0.000014
    21  H    0.000008   0.000000   0.000781  -0.000011  -0.000286  -0.000013
    22  H    0.000020   0.000002   0.001935   0.000015  -0.000841  -0.000028
             13         14         15         16         17         18
     1  H   -0.000002   0.000002   0.000008  -0.000001   0.000001   0.000000
     2  C    0.000034  -0.000222  -0.000186  -0.001584  -0.000079   0.000002
     3  H   -0.000002   0.000152   0.000151   0.000032   0.000002   0.000000
     4  H   -0.000004  -0.000045  -0.000052   0.001137   0.000030  -0.000001
     5  C    0.000706  -0.000991  -0.003026   0.021203  -0.000301  -0.000052
     6  O    0.000428  -0.001217   0.006336  -0.005811  -0.001888  -0.000058
     7  N    0.004772   0.012199  -0.048095  -0.004812   0.004386   0.000161
     8  H   -0.000381   0.000598   0.002136  -0.000717  -0.000278  -0.000014
     9  C   -0.033111  -0.031622   0.183491  -0.081316  -0.085503   0.006188
    10  H   -0.005028  -0.003921  -0.021042   0.000950   0.000652  -0.000788
    11  C    0.360015   0.335814  -0.093131   0.004386   0.025242  -0.003372
    12  H   -0.029838  -0.037605  -0.000668   0.000089   0.000173   0.000061
    13  H    0.604512  -0.013310   0.005233  -0.000143  -0.004535  -0.000648
    14  H   -0.013310   0.608478   0.009474  -0.000353   0.000211  -0.000099
    15  C    0.005233   0.009474   4.799816   0.719903   0.332144  -0.027589
    16  O   -0.000143  -0.000353   0.719903   7.787592  -0.155432   0.006343
    17  N   -0.004535   0.000211   0.332144  -0.155432   6.513792   0.334497
    18  H   -0.000648  -0.000099  -0.027589   0.006343   0.334497   0.550821
    19  C    0.000300   0.000057  -0.055558   0.011069   0.305407  -0.035822
    20  H    0.000023   0.000010  -0.002555   0.003130  -0.049136   0.000296
    21  H    0.000086   0.000001   0.006439   0.001909  -0.035110  -0.008053
    22  H   -0.000054  -0.000016  -0.005382   0.007136  -0.046321   0.005735
             19         20         21         22
     1  H    0.000000   0.000000   0.000000   0.000000
     2  C   -0.000001   0.000000   0.000000   0.000004
     3  H    0.000000   0.000000   0.000000   0.000000
     4  H   -0.000001   0.000000   0.000000  -0.000001
     5  C   -0.000182  -0.000033  -0.000003   0.000132
     6  O   -0.000110   0.000007  -0.000001   0.000072
     7  N   -0.000214  -0.000038   0.000008   0.000020
     8  H    0.000022  -0.000001   0.000000   0.000002
     9  C    0.007402  -0.001368   0.000781   0.001935
    10  H   -0.000343  -0.000050  -0.000011   0.000015
    11  C   -0.000645   0.000291  -0.000286  -0.000841
    12  H   -0.000175   0.000014  -0.000013  -0.000028
    13  H    0.000300   0.000023   0.000086  -0.000054
    14  H    0.000057   0.000010   0.000001  -0.000016
    15  C   -0.055558  -0.002555   0.006439  -0.005382
    16  O    0.011069   0.003130   0.001909   0.007136
    17  N    0.305407  -0.049136  -0.035110  -0.046321
    18  H   -0.035822   0.000296  -0.008053   0.005735
    19  C    4.881012   0.378044   0.377581   0.380314
    20  H    0.378044   0.639043  -0.042345  -0.049290
    21  H    0.377581  -0.042345   0.613194  -0.023422
    22  H    0.380314  -0.049290  -0.023422   0.586168
 Mulliken atomic charges:
              1
     1  H    0.147847
     2  C   -0.391794
     3  H    0.118693
     4  H    0.127317
     5  C    0.201900
     6  O   -0.327376
     7  N   -0.153358
     8  H    0.185790
     9  C   -0.106290
    10  H    0.156713
    11  C   -0.395652
    12  H    0.162119
    13  H    0.110946
    14  H    0.122404
    15  C    0.192153
    16  O   -0.314712
    17  N   -0.137954
    18  H    0.172392
    19  C   -0.248160
    20  H    0.123957
    21  H    0.109244
    22  H    0.143820
 Sum of Mulliken atomic charges =   0.00000
 Mulliken charges with hydrogens summed into heavy atoms:
              1
     2  C    0.002063
     5  C    0.201900
     6  O   -0.327376
     7  N    0.032431
     9  C    0.050423
    11  C   -0.000182
    15  C    0.192153
    16  O   -0.314712
    17  N    0.034438
    19  C    0.128861
 Sum of Mulliken charges with hydrogens summed into heavy atoms =   0.00000
 Electronic spatial extent (au):  <R**2>=           1737.1204
 Charge=              0.0000 electrons
 Dipole moment (field-independent basis, Debye):
    X=              1.4960    Y=              3.6046    Z=             -2.5942  Tot=              4.6863
 Quadrupole moment (field-independent basis, Debye-Ang):
   XX=            -47.7252   YY=            -61.7878   ZZ=            -62.7714
   XY=              1.6373   XZ=              6.3402   YZ=             -2.1606
 Traceless Quadrupole moment (field-independent basis, Debye-Ang):
   XX=              9.7029   YY=             -4.3597   ZZ=             -5.3432
   XY=              1.6373   XZ=              6.3402   YZ=             -2.1606
 Octapole moment (field-independent basis, Debye-Ang**2):
  XXX=             22.3812  YYY=             -2.6104  ZZZ=            -11.0882  XYY=             -0.9203
  XXY=             -2.3397  XXZ=             -3.3902  XZZ=              2.4162  YZZ=              3.8822
  YYZ=              1.8867  XYZ=             -1.9976
 Hexadecapole moment (field-independent basis, Debye-Ang**3):
 XXXX=          -1457.0147 YYYY=           -514.5609 ZZZZ=           -221.7941 XXXY=              2.3556
 XXXZ=             12.0552 YYYX=              9.6703 YYYZ=             -5.3576 ZZZX=             13.0321
 ZZZY=             -5.6480 XXYY=           -317.6503 XXZZ=           -309.1827 YYZZ=           -116.3274
 XXYZ=             -5.2982 YYXZ=              1.1022 ZZXY=             -9.3442
 N-N= 5.622195862839D+02 E-N=-2.282308587633D+03  KE= 4.945864687496D+02
 Merz-Kollman atomic radii used.

 **********************************************************************

          Electrostatic Properties Using The MP2 Density

 **********************************************************************

       Atomic Center    1 is at  -3.606996 -1.580438  0.595492
       Atomic Center    2 is at  -3.252187 -0.857274 -0.138842
       Atomic Center    3 is at  -3.934252 -0.019550 -0.284121
       Atomic Center    4 is at  -3.150955 -1.513298 -1.003414
       Atomic Center    5 is at  -1.941098 -0.212717  0.233451
       Atomic Center    6 is at  -1.494735 -0.425999  1.366358
       Atomic Center    7 is at  -1.302903  0.472722 -0.736615
       Atomic Center    8 is at  -1.701273  0.714127 -1.632787
       Atomic Center    9 is at   0.068606  0.949389 -0.632189
       Atomic Center   10 is at   0.265787  1.436243 -1.587277
       Atomic Center   11 is at   0.170061  2.144345  0.433734
       Atomic Center   12 is at  -0.020824  1.889417  1.476171
       Atomic Center   13 is at   1.162636  2.593834  0.404496
       Atomic Center   14 is at  -0.678654  2.809992  0.276586
       Atomic Center   15 is at   1.084528 -0.182266 -0.351187
       Atomic Center   16 is at   0.795011 -1.337593 -0.539780
       Atomic Center   17 is at   2.335530  0.127520 -0.049859
       Atomic Center   18 is at   2.597811  1.101919 -0.092916
       Atomic Center   19 is at   3.320111 -0.879975  0.351534
       Atomic Center   20 is at   3.693303 -1.442359 -0.504358
       Atomic Center   21 is at   4.166402 -0.325513  0.757074
       Atomic Center   22 is at   2.876290 -1.526332  1.108730
    1004 points will be used for fitting atomic charges
 Fitting point charges to electrostatic potential
 Charges from ESP fit, RMS=   0.00202 RRMS=   0.08944:
 Charge=   0.00000 Dipole=     1.5074     3.5986    -2.5678 Tot=     4.6708
              1
     1  H    0.200884
     2  C   -0.700031
     3  H    0.157636
     4  H    0.171928
     5  C    0.819844
     6  O   -0.521301
     7  N   -0.633670
     8  H    0.362400
     9  C   -0.026842
    10  H    0.108951
    11  C   -0.352931
    12  H    0.127502
    13  H    0.065496
    14  H    0.121010
    15  C    0.521299
    16  O   -0.468959
    17  N   -0.347100
    18  H    0.292342
    19  C   -0.369716
    20  H    0.142856
    21  H    0.141338
    22  H    0.187065
 -----------------------------------------------------------------

              Electrostatic Properties (Atomic Units)

 -----------------------------------------------------------------
    Center     Electric         -------- Electric Field --------
               Potential          X             Y             Z
 -----------------------------------------------------------------
    1 Atom     -1.108850
    2 Atom    -14.769948
    3 Atom     -1.096828
    4 Atom     -1.102790
    5 Atom    -14.668072
    6 Atom    -22.394636
    7 Atom    -18.345022
    8 Atom     -1.001517
    9 Atom    -14.690574
   10 Atom     -1.078559
   11 Atom    -14.757779
   12 Atom     -1.112411
   13 Atom     -1.096778
   14 Atom     -1.103568
   15 Atom    -14.673726
   16 Atom    -22.394353
   17 Atom    -18.348635
   18 Atom     -1.006720
   19 Atom    -14.722088
   20 Atom     -1.105581
   21 Atom     -1.094508
   22 Atom     -1.100678
 -----------------------------------------------------------------
 1\1\GINC-TACHIKOMA\SP\RMP2-FC\CC-pVTZ\C6H12N2O2\STEBOSS\19-Mar-2017\0\
 \#MP2/cc-pvTZ density=MP2, maxdisk=16GB, pop=(minimal, MK), 5d, punch=
 mo\\Generated by mdgx\\0,1\H,0,13.6986534,19.4431684,15.7372721\C,0,14
 .4345386,18.716706,15.392561\H,0,15.1233472,19.1192217,14.6498472\H,0,
 13.7631752,17.9451744,15.0155846\C,0,15.3284725,18.1961581,16.48934\O,
 0,15.261836,18.7430283,17.5960016\N,0,16.0669388,17.1042206,16.2056368
 \H,0,16.1826534,16.7070101,15.2842607\C,0,16.7929247,16.3285811,17.200
 8668\H,0,17.2560694,15.5190153,16.6367744\C,0,18.0412973,17.1637902,17
 .7651316\H,0,17.8115972,18.0539874,18.3506962\H,0,18.6636861,16.531846
 8,18.3986773\H,0,18.5298962,17.651908,16.9218569\C,0,15.8843711,15.787
 2175,18.3292098\O,0,14.6870942,15.7396875,18.1934262\N,0,16.4348906,15
 .225083,19.3934966\H,0,17.4372143,15.1008721,19.3891488\C,0,15.6488489
 ,14.8050465,20.5559383\H,0,15.1199376,13.8705652,20.3685952\H,0,16.370
 5335,14.6049477,21.3479179\H,0,14.9731726,15.6129573,20.8367256\\Versi
 on=EM64L-G09RevA.02\State=1-A\HF=-493.0026189\MP2=-494.886685\RMSD=8.7
 08e-09\Dipole=1.4457473,-1.0383298,-0.4806101\Quadrupole=-2.524363,-4.
 1818603,6.7062233,-2.7484654,1.9695258,-4.4266628\PG=C01 [X(C6H12N2O2)
 ]\\@


 THERE IS SOMETHING FASCINATING ABOUT SCIENCE.
 ONE GETS SUCH WHOLESALE CONJECTURE OUT OF SUCH TRIFLING INVESTMENTS.

                                                       -- MARK TWAIN
 Job cpu time:  0 days  2 hours 42 minutes 33.7 seconds.
 File lengths (MBytes):  RWF=  13139 Int=      0 D2E=      0 Chk=     14 Scr=      1
 Normal termination of Gaussian 09 at Sun Mar 19 17:10:13 2017.
