 Entering Gaussian System, Link 0=g09
 Initial command:
 /home/steboss/Software/g09/l1.exe /tmp/Gau-29595.inp -scrdir=/tmp/
 Entering Link 1 = /home/steboss/Software/g09/l1.exe PID=     29604.
  
 Copyright (c) 1988,1990,1992,1993,1995,1998,2003,2009, Gaussian, Inc.
                  All Rights Reserved.
  
 This is part of the Gaussian(R) 09 program.  It is based on
 the Gaussian(R) 03 system (copyright 2003, Gaussian, Inc.),
 the Gaussian(R) 98 system (copyright 1998, Gaussian, Inc.),
 the Gaussian(R) 94 system (copyright 1995, Gaussian, Inc.),
 the Gaussian 92(TM) system (copyright 1992, Gaussian, Inc.),
 the Gaussian 90(TM) system (copyright 1990, Gaussian, Inc.),
 the Gaussian 88(TM) system (copyright 1988, Gaussian, Inc.),
 the Gaussian 86(TM) system (copyright 1986, Carnegie Mellon
 University), and the Gaussian 82(TM) system (copyright 1983,
 Carnegie Mellon University). Gaussian is a federally registered
 trademark of Gaussian, Inc.
  
 This software contains proprietary and confidential information,
 including trade secrets, belonging to Gaussian, Inc.
  
 This software is provided under written license and may be
 used, copied, transmitted, or stored only in accord with that
 written license.
  
 The following legend is applicable only to US Government
 contracts under FAR:
  
                    RESTRICTED RIGHTS LEGEND
  
 Use, reproduction and disclosure by the US Government is
 subject to restrictions as set forth in subparagraphs (a)
 and (c) of the Commercial Computer Software - Restricted
 Rights clause in FAR 52.227-19.
  
 Gaussian, Inc.
 340 Quinnipiac St., Bldg. 40, Wallingford CT 06492
  
  
 ---------------------------------------------------------------
 Warning -- This program may not be used in any manner that
 competes with the business of Gaussian, Inc. or will provide
 assistance to any competitor of Gaussian, Inc.  The licensee
 of this program is prohibited from giving any competitor of
 Gaussian, Inc. access to this program.  By using this program,
 the user acknowledges that Gaussian, Inc. is engaged in the
 business of creating and licensing software in the field of
 computational chemistry and represents and warrants to the
 licensee that it is not a competitor of Gaussian, Inc. and that
 it will not use this program in any manner prohibited above.
 ---------------------------------------------------------------
  

 Cite this work as:
 Gaussian 09, Revision A.02,
 M. J. Frisch, G. W. Trucks, H. B. Schlegel, G. E. Scuseria, 
 M. A. Robb, J. R. Cheeseman, G. Scalmani, V. Barone, B. Mennucci, 
 G. A. Petersson, H. Nakatsuji, M. Caricato, X. Li, H. P. Hratchian, 
 A. F. Izmaylov, J. Bloino, G. Zheng, J. L. Sonnenberg, M. Hada, 
 M. Ehara, K. Toyota, R. Fukuda, J. Hasegawa, M. Ishida, T. Nakajima, 
 Y. Honda, O. Kitao, H. Nakai, T. Vreven, J. A. Montgomery, Jr., 
 J. E. Peralta, F. Ogliaro, M. Bearpark, J. J. Heyd, E. Brothers, 
 K. N. Kudin, V. N. Staroverov, R. Kobayashi, J. Normand, 
 K. Raghavachari, A. Rendell, J. C. Burant, S. S. Iyengar, J. Tomasi, 
 M. Cossi, N. Rega, J. M. Millam, M. Klene, J. E. Knox, J. B. Cross, 
 V. Bakken, C. Adamo, J. Jaramillo, R. Gomperts, R. E. Stratmann, 
 O. Yazyev, A. J. Austin, R. Cammi, C. Pomelli, J. W. Ochterski, 
 R. L. Martin, K. Morokuma, V. G. Zakrzewski, G. A. Voth, 
 P. Salvador, J. J. Dannenberg, S. Dapprich, A. D. Daniels, 
 O. Farkas, J. B. Foresman, J. V. Ortiz, J. Cioslowski, 
 and D. J. Fox, Gaussian, Inc., Wallingford CT, 2009.
 
 ******************************************
 Gaussian 09:  EM64L-G09RevA.02 11-Jun-2009
                26-Dec-2016 
 ******************************************
 %chk=structure_330.chk
 -------------------------------------------------------------------
 # HF/6-31G* Opt=(ModRedundant, maxcycles=1000, calcfc) geom=nocrowd
 -------------------------------------------------------------------
 1/6=1000,10=4,18=120,19=15,38=1/1,3;
 2/9=110,12=1,17=6,18=5,40=1/2;
 3/5=1,6=6,7=1,11=9,16=1,25=1,30=1,71=2/1,2,3;
 4//1;
 5/5=2,38=5/2;
 8/6=4,10=90,11=11/1;
 11/6=1,8=1,9=11,15=111,16=1/1,2,10;
 10/6=1,7=6,13=1/2;
 6/7=2,8=2,9=2,10=2,28=1/1;
 7/10=1,18=20,25=1/1,2,3,16;
 1/6=1000,10=4,18=20,19=15/3(2);
 2/9=110,12=1/2;
 99//99;
 2/9=110,12=1/2;
 3/5=1,6=6,7=1,11=9,16=1,25=1,30=1,71=1/1,2,3;
 4/5=5,16=3/1;
 5/5=2,38=5/2;
 7//1,2,3,16;
 1/6=1000,18=20,19=15/3(-5);
 2/9=110,12=1/2;
 6/7=2,8=2,9=2,10=2,19=2,28=1/1;
 99/9=1/99;
 ------------------
 Phi Psi fixed scan
 ------------------
 Symbolic Z-matrix:
 Charge =  0 Multiplicity = 1
 H                     9.6921    1.        0. 
 C                     9.6921    2.09      0. 
 H                     10.2058   2.4538   -0.8898 
 H                     10.2058   2.4538    0.8898 
 C                     8.2647    2.6408    0. 
 O                     7.3015    1.8774    0. 
 N                     8.1367    3.9696    0. 
 H                     8.959     4.5561    0. 
 C                     6.8388    4.6139    0. 
 H                     6.2845    4.3155   -0.8898 
 C                     6.0308    4.2208    1.2321 
 H                     6.5688    4.5213    2.1312 
 H                     5.0616    4.7189    1.2058 
 H                     5.8836    3.1409    1.2414 
 C                     6.9794    6.1294    0. 
 O                     8.0915    6.6527    0. 
 N                     5.846     6.8349    0. 
 H                     4.9551    6.3592    0. 
 C                     5.8461    8.2839    0. 
 H                     5.3323    8.6477   -0.8898 
 C                     5.1347    8.8329    1.2322 
 H                     5.6431    8.4846    2.1312 
 H                     5.1499    9.9224    1.2058 
 H                     4.1019    8.4846    1.2414 
 C                     7.266     8.8318    0. 
 O                     7.5178    9.9119   -0.5295 
 N                     8.1959    8.0825    0.5968 
 H                     7.94      7.2011    1.0184 
 C                     9.5837    8.4938    0.6638 
 H                     9.9771    8.6124   -0.3458 
 C                     9.7281    9.8203    1.402 
 H                     9.3467    9.7149    2.4177 
 H                     10.7799   10.1045   1.4371 
 H                     9.1613    10.591    0.8797 
 C                     10.4269   7.4597    1.396 
 O                     9.9117    6.4361    1.8403 
 N                     11.7283   7.7297    1.5211 
 H                     12.1056   8.585     1.1388 
 C                     12.6364   6.8252    2.197 
 H                     12.0854   5.9542    2.5517 
 H                     13.4141   6.505     1.5036 
 H                     13.0938   7.3352    3.0448 
 
 The following ModRedundant input section has been read:
 D   15   17   19   25 F                                                       
 D   17   19   25   27 F                                                       

 GradGradGradGradGradGradGradGradGradGradGradGradGradGradGradGradGradGrad
 Berny optimization.
 Initialization pass.
                           ----------------------------
                           !    Initial Parameters    !
                           ! (Angstroms and Degrees)  !
 --------------------------                            --------------------------
 ! Name  Definition              Value          Derivative Info.                !
 --------------------------------------------------------------------------------
 ! R1    R(1,2)                  1.09           calculate D2E/DX2 analytically  !
 ! R2    R(2,3)                  1.0899         calculate D2E/DX2 analytically  !
 ! R3    R(2,4)                  1.0899         calculate D2E/DX2 analytically  !
 ! R4    R(2,5)                  1.53           calculate D2E/DX2 analytically  !
 ! R5    R(5,6)                  1.229          calculate D2E/DX2 analytically  !
 ! R6    R(5,7)                  1.335          calculate D2E/DX2 analytically  !
 ! R7    R(7,8)                  1.01           calculate D2E/DX2 analytically  !
 ! R8    R(7,9)                  1.449          calculate D2E/DX2 analytically  !
 ! R9    R(9,10)                 1.09           calculate D2E/DX2 analytically  !
 ! R10   R(9,11)                 1.5249         calculate D2E/DX2 analytically  !
 ! R11   R(9,15)                 1.522          calculate D2E/DX2 analytically  !
 ! R12   R(11,12)                1.09           calculate D2E/DX2 analytically  !
 ! R13   R(11,13)                1.09           calculate D2E/DX2 analytically  !
 ! R14   R(11,14)                1.0899         calculate D2E/DX2 analytically  !
 ! R15   R(15,16)                1.2291         calculate D2E/DX2 analytically  !
 ! R16   R(15,17)                1.335          calculate D2E/DX2 analytically  !
 ! R17   R(16,27)                1.5529         calculate D2E/DX2 analytically  !
 ! R18   R(16,28)                1.1665         calculate D2E/DX2 analytically  !
 ! R19   R(17,18)                1.0099         calculate D2E/DX2 analytically  !
 ! R20   R(17,19)                1.449          calculate D2E/DX2 analytically  !
 ! R21   R(19,20)                1.09           calculate D2E/DX2 analytically  !
 ! R22   R(19,21)                1.5251         calculate D2E/DX2 analytically  !
 ! R23   R(19,25)                1.5219         calculate D2E/DX2 analytically  !
 ! R24   R(21,22)                1.0899         calculate D2E/DX2 analytically  !
 ! R25   R(21,23)                1.0899         calculate D2E/DX2 analytically  !
 ! R26   R(21,24)                1.09           calculate D2E/DX2 analytically  !
 ! R27   R(25,26)                1.229          calculate D2E/DX2 analytically  !
 ! R28   R(25,27)                1.335          calculate D2E/DX2 analytically  !
 ! R29   R(27,28)                1.01           calculate D2E/DX2 analytically  !
 ! R30   R(27,29)                1.449          calculate D2E/DX2 analytically  !
 ! R31   R(29,30)                1.09           calculate D2E/DX2 analytically  !
 ! R32   R(29,31)                1.5249         calculate D2E/DX2 analytically  !
 ! R33   R(29,35)                1.522          calculate D2E/DX2 analytically  !
 ! R34   R(31,32)                1.0901         calculate D2E/DX2 analytically  !
 ! R35   R(31,33)                1.0901         calculate D2E/DX2 analytically  !
 ! R36   R(31,34)                1.09           calculate D2E/DX2 analytically  !
 ! R37   R(35,36)                1.2291         calculate D2E/DX2 analytically  !
 ! R38   R(35,37)                1.335          calculate D2E/DX2 analytically  !
 ! R39   R(37,38)                1.01           calculate D2E/DX2 analytically  !
 ! R40   R(37,39)                1.449          calculate D2E/DX2 analytically  !
 ! R41   R(39,40)                1.09           calculate D2E/DX2 analytically  !
 ! R42   R(39,41)                1.09           calculate D2E/DX2 analytically  !
 ! R43   R(39,42)                1.09           calculate D2E/DX2 analytically  !
 ! A1    A(1,2,3)              109.4982         calculate D2E/DX2 analytically  !
 ! A2    A(1,2,4)              109.4982         calculate D2E/DX2 analytically  !
 ! A3    A(1,2,5)              111.1004         calculate D2E/DX2 analytically  !
 ! A4    A(3,2,4)              109.4463         calculate D2E/DX2 analytically  !
 ! A5    A(3,2,5)              108.6355         calculate D2E/DX2 analytically  !
 ! A6    A(4,2,5)              108.6355         calculate D2E/DX2 analytically  !
 ! A7    A(2,5,6)              120.5004         calculate D2E/DX2 analytically  !
 ! A8    A(2,5,7)              116.6026         calculate D2E/DX2 analytically  !
 ! A9    A(6,5,7)              122.897          calculate D2E/DX2 analytically  !
 ! A10   A(5,7,8)              119.9959         calculate D2E/DX2 analytically  !
 ! A11   A(5,7,9)              121.9028         calculate D2E/DX2 analytically  !
 ! A12   A(8,7,9)              118.1013         calculate D2E/DX2 analytically  !
 ! A13   A(7,9,10)             109.4983         calculate D2E/DX2 analytically  !
 ! A14   A(7,9,11)             111.0986         calculate D2E/DX2 analytically  !
 ! A15   A(7,9,15)             111.1002         calculate D2E/DX2 analytically  !
 ! A16   A(10,9,11)            108.636          calculate D2E/DX2 analytically  !
 ! A17   A(10,9,15)            108.6373         calculate D2E/DX2 analytically  !
 ! A18   A(11,9,15)            107.7957         calculate D2E/DX2 analytically  !
 ! A19   A(9,11,12)            109.5034         calculate D2E/DX2 analytically  !
 ! A20   A(9,11,13)            109.5016         calculate D2E/DX2 analytically  !
 ! A21   A(9,11,14)            109.5033         calculate D2E/DX2 analytically  !
 ! A22   A(12,11,13)           109.4381         calculate D2E/DX2 analytically  !
 ! A23   A(12,11,14)           109.437          calculate D2E/DX2 analytically  !
 ! A24   A(13,11,14)           109.4437         calculate D2E/DX2 analytically  !
 ! A25   A(9,15,16)            120.4998         calculate D2E/DX2 analytically  !
 ! A26   A(9,15,17)            116.6003         calculate D2E/DX2 analytically  !
 ! A27   A(16,15,17)           122.8999         calculate D2E/DX2 analytically  !
 ! A28   A(15,16,27)           116.9273         calculate D2E/DX2 analytically  !
 ! A29   A(15,16,28)            94.7407         calculate D2E/DX2 analytically  !
 ! A30   A(15,17,18)           119.9991         calculate D2E/DX2 analytically  !
 ! A31   A(15,17,19)           121.8968         calculate D2E/DX2 analytically  !
 ! A32   A(18,17,19)           118.1041         calculate D2E/DX2 analytically  !
 ! A33   A(17,19,20)           109.4954         calculate D2E/DX2 analytically  !
 ! A34   A(17,19,21)           111.0974         calculate D2E/DX2 analytically  !
 ! A35   A(17,19,25)           111.1042         calculate D2E/DX2 analytically  !
 ! A36   A(20,19,21)           108.6349         calculate D2E/DX2 analytically  !
 ! A37   A(20,19,25)           108.6399         calculate D2E/DX2 analytically  !
 ! A38   A(21,19,25)           107.7944         calculate D2E/DX2 analytically  !
 ! A39   A(19,21,22)           109.4996         calculate D2E/DX2 analytically  !
 ! A40   A(19,21,23)           109.4977         calculate D2E/DX2 analytically  !
 ! A41   A(19,21,24)           109.4988         calculate D2E/DX2 analytically  !
 ! A42   A(22,21,23)           109.4452         calculate D2E/DX2 analytically  !
 ! A43   A(22,21,24)           109.4447         calculate D2E/DX2 analytically  !
 ! A44   A(23,21,24)           109.4412         calculate D2E/DX2 analytically  !
 ! A45   A(19,25,26)           120.5            calculate D2E/DX2 analytically  !
 ! A46   A(19,25,27)           116.6013         calculate D2E/DX2 analytically  !
 ! A47   A(26,25,27)           122.8987         calculate D2E/DX2 analytically  !
 ! A48   A(16,27,25)           107.3462         calculate D2E/DX2 analytically  !
 ! A49   A(16,27,29)           110.0911         calculate D2E/DX2 analytically  !
 ! A50   A(25,27,28)           119.9945         calculate D2E/DX2 analytically  !
 ! A51   A(25,27,29)           121.9018         calculate D2E/DX2 analytically  !
 ! A52   A(28,27,29)           118.1037         calculate D2E/DX2 analytically  !
 ! A53   A(27,29,30)           109.495          calculate D2E/DX2 analytically  !
 ! A54   A(27,29,31)           111.0996         calculate D2E/DX2 analytically  !
 ! A55   A(27,29,35)           111.0997         calculate D2E/DX2 analytically  !
 ! A56   A(30,29,31)           108.636          calculate D2E/DX2 analytically  !
 ! A57   A(30,29,35)           108.6368         calculate D2E/DX2 analytically  !
 ! A58   A(31,29,35)           107.7992         calculate D2E/DX2 analytically  !
 ! A59   A(29,31,32)           109.5011         calculate D2E/DX2 analytically  !
 ! A60   A(29,31,33)           109.4962         calculate D2E/DX2 analytically  !
 ! A61   A(29,31,34)           109.5036         calculate D2E/DX2 analytically  !
 ! A62   A(32,31,33)           109.4393         calculate D2E/DX2 analytically  !
 ! A63   A(32,31,34)           109.4462         calculate D2E/DX2 analytically  !
 ! A64   A(33,31,34)           109.4409         calculate D2E/DX2 analytically  !
 ! A65   A(29,35,36)           120.4997         calculate D2E/DX2 analytically  !
 ! A66   A(29,35,37)           116.5986         calculate D2E/DX2 analytically  !
 ! A67   A(36,35,37)           122.9017         calculate D2E/DX2 analytically  !
 ! A68   A(35,37,38)           119.9986         calculate D2E/DX2 analytically  !
 ! A69   A(35,37,39)           121.8976         calculate D2E/DX2 analytically  !
 ! A70   A(38,37,39)           118.1038         calculate D2E/DX2 analytically  !
 ! A71   A(37,39,40)           109.4996         calculate D2E/DX2 analytically  !
 ! A72   A(37,39,41)           109.4981         calculate D2E/DX2 analytically  !
 ! A73   A(37,39,42)           109.4955         calculate D2E/DX2 analytically  !
 ! A74   A(40,39,41)           109.4474         calculate D2E/DX2 analytically  !
 ! A75   A(40,39,42)           109.4457         calculate D2E/DX2 analytically  !
 ! A76   A(41,39,42)           109.441          calculate D2E/DX2 analytically  !
 ! D1    D(1,2,5,6)              0.0            calculate D2E/DX2 analytically  !
 ! D2    D(1,2,5,7)            180.0            calculate D2E/DX2 analytically  !
 ! D3    D(3,2,5,6)            120.51           calculate D2E/DX2 analytically  !
 ! D4    D(3,2,5,7)            -59.49           calculate D2E/DX2 analytically  !
 ! D5    D(4,2,5,6)           -120.51           calculate D2E/DX2 analytically  !
 ! D6    D(4,2,5,7)             59.49           calculate D2E/DX2 analytically  !
 ! D7    D(2,5,7,8)              0.0            calculate D2E/DX2 analytically  !
 ! D8    D(2,5,7,9)            180.0            calculate D2E/DX2 analytically  !
 ! D9    D(6,5,7,8)            180.0            calculate D2E/DX2 analytically  !
 ! D10   D(6,5,7,9)              0.0            calculate D2E/DX2 analytically  !
 ! D11   D(5,7,9,10)           -59.9991         calculate D2E/DX2 analytically  !
 ! D12   D(5,7,9,11)            59.9992         calculate D2E/DX2 analytically  !
 ! D13   D(5,7,9,15)           180.0            calculate D2E/DX2 analytically  !
 ! D14   D(8,7,9,10)           120.0009         calculate D2E/DX2 analytically  !
 ! D15   D(8,7,9,11)          -120.0008         calculate D2E/DX2 analytically  !
 ! D16   D(8,7,9,15)             0.0            calculate D2E/DX2 analytically  !
 ! D17   D(7,9,11,12)           60.0014         calculate D2E/DX2 analytically  !
 ! D18   D(7,9,11,13)          179.9992         calculate D2E/DX2 analytically  !
 ! D19   D(7,9,11,14)          -59.9962         calculate D2E/DX2 analytically  !
 ! D20   D(10,9,11,12)        -179.4894         calculate D2E/DX2 analytically  !
 ! D21   D(10,9,11,13)         -59.4916         calculate D2E/DX2 analytically  !
 ! D22   D(10,9,11,14)          60.5131         calculate D2E/DX2 analytically  !
 ! D23   D(15,9,11,12)         -61.9437         calculate D2E/DX2 analytically  !
 ! D24   D(15,9,11,13)          58.0541         calculate D2E/DX2 analytically  !
 ! D25   D(15,9,11,14)         178.0588         calculate D2E/DX2 analytically  !
 ! D26   D(7,9,15,16)            0.0            calculate D2E/DX2 analytically  !
 ! D27   D(7,9,15,17)          180.0            calculate D2E/DX2 analytically  !
 ! D28   D(10,9,15,16)        -120.5111         calculate D2E/DX2 analytically  !
 ! D29   D(10,9,15,17)          59.4889         calculate D2E/DX2 analytically  !
 ! D30   D(11,9,15,16)         121.9441         calculate D2E/DX2 analytically  !
 ! D31   D(11,9,15,17)         -58.0559         calculate D2E/DX2 analytically  !
 ! D32   D(9,15,16,27)        -154.4654         calculate D2E/DX2 analytically  !
 ! D33   D(9,15,16,28)        -118.8364         calculate D2E/DX2 analytically  !
 ! D34   D(17,15,16,27)         25.5346         calculate D2E/DX2 analytically  !
 ! D35   D(17,15,16,28)         61.1636         calculate D2E/DX2 analytically  !
 ! D36   D(9,15,17,18)           0.0            calculate D2E/DX2 analytically  !
 ! D37   D(9,15,17,19)         180.0            calculate D2E/DX2 analytically  !
 ! D38   D(16,15,17,18)        180.0            calculate D2E/DX2 analytically  !
 ! D39   D(16,15,17,19)          0.0            calculate D2E/DX2 analytically  !
 ! D40   D(15,16,27,25)        -51.7991         calculate D2E/DX2 analytically  !
 ! D41   D(15,16,27,29)        173.4709         calculate D2E/DX2 analytically  !
 ! D42   D(15,17,19,20)        120.0048         calculate D2E/DX2 analytically  !
 ! D43   D(15,17,19,21)       -120.0009         calculate D2E/DX2 analytically  !
 ! D44   D(15,17,19,25)          0.0            frozen, calculate D2E/DX2 analyt!
 ! D45   D(18,17,19,20)        -59.9952         calculate D2E/DX2 analytically  !
 ! D46   D(18,17,19,21)         59.9991         calculate D2E/DX2 analytically  !
 ! D47   D(18,17,19,25)        180.0            calculate D2E/DX2 analytically  !
 ! D48   D(17,19,21,22)         60.0039         calculate D2E/DX2 analytically  !
 ! D49   D(17,19,21,23)       -179.9943         calculate D2E/DX2 analytically  !
 ! D50   D(17,19,21,24)        -59.998          calculate D2E/DX2 analytically  !
 ! D51   D(20,19,21,22)       -179.4919         calculate D2E/DX2 analytically  !
 ! D52   D(20,19,21,23)        -59.4901         calculate D2E/DX2 analytically  !
 ! D53   D(20,19,21,24)         60.5062         calculate D2E/DX2 analytically  !
 ! D54   D(25,19,21,22)        -61.9445         calculate D2E/DX2 analytically  !
 ! D55   D(25,19,21,23)         58.0573         calculate D2E/DX2 analytically  !
 ! D56   D(25,19,21,24)        178.0536         calculate D2E/DX2 analytically  !
 ! D57   D(17,19,25,26)        149.9976         calculate D2E/DX2 analytically  !
 ! D58   D(17,19,25,27)        -29.9967         frozen, calculate D2E/DX2 analyt!
 ! D59   D(20,19,25,26)         29.486          calculate D2E/DX2 analytically  !
 ! D60   D(20,19,25,27)       -150.5084         calculate D2E/DX2 analytically  !
 ! D61   D(21,19,25,26)        -88.0582         calculate D2E/DX2 analytically  !
 ! D62   D(21,19,25,27)         91.9475         calculate D2E/DX2 analytically  !
 ! D63   D(19,25,27,16)         51.8088         calculate D2E/DX2 analytically  !
 ! D64   D(19,25,27,28)         -0.0049         calculate D2E/DX2 analytically  !
 ! D65   D(19,25,27,29)       -179.9959         calculate D2E/DX2 analytically  !
 ! D66   D(26,25,27,16)       -128.1854         calculate D2E/DX2 analytically  !
 ! D67   D(26,25,27,28)       -179.9991         calculate D2E/DX2 analytically  !
 ! D68   D(26,25,27,29)          0.0099         calculate D2E/DX2 analytically  !
 ! D69   D(16,27,29,30)         66.9829         calculate D2E/DX2 analytically  !
 ! D70   D(16,27,29,31)       -173.0205         calculate D2E/DX2 analytically  !
 ! D71   D(16,27,29,35)        -53.0149         calculate D2E/DX2 analytically  !
 ! D72   D(25,27,29,30)        -60.0042         calculate D2E/DX2 analytically  !
 ! D73   D(25,27,29,31)         59.9925         calculate D2E/DX2 analytically  !
 ! D74   D(25,27,29,35)        179.998          calculate D2E/DX2 analytically  !
 ! D75   D(28,27,29,30)        120.0047         calculate D2E/DX2 analytically  !
 ! D76   D(28,27,29,31)       -119.9987         calculate D2E/DX2 analytically  !
 ! D77   D(28,27,29,35)          0.0069         calculate D2E/DX2 analytically  !
 ! D78   D(27,29,31,32)         60.0056         calculate D2E/DX2 analytically  !
 ! D79   D(27,29,31,33)       -179.9999         calculate D2E/DX2 analytically  !
 ! D80   D(27,29,31,34)        -60.002          calculate D2E/DX2 analytically  !
 ! D81   D(30,29,31,32)       -179.4887         calculate D2E/DX2 analytically  !
 ! D82   D(30,29,31,33)        -59.4941         calculate D2E/DX2 analytically  !
 ! D83   D(30,29,31,34)         60.5038         calculate D2E/DX2 analytically  !
 ! D84   D(35,29,31,32)        -61.9418         calculate D2E/DX2 analytically  !
 ! D85   D(35,29,31,33)         58.0527         calculate D2E/DX2 analytically  !
 ! D86   D(35,29,31,34)        178.0506         calculate D2E/DX2 analytically  !
 ! D87   D(27,29,35,36)         -0.0069         calculate D2E/DX2 analytically  !
 ! D88   D(27,29,35,37)        179.9985         calculate D2E/DX2 analytically  !
 ! D89   D(30,29,35,36)       -120.5132         calculate D2E/DX2 analytically  !
 ! D90   D(30,29,35,37)         59.4922         calculate D2E/DX2 analytically  !
 ! D91   D(31,29,35,36)        121.9404         calculate D2E/DX2 analytically  !
 ! D92   D(31,29,35,37)        -58.0542         calculate D2E/DX2 analytically  !
 ! D93   D(29,35,37,38)         -0.0052         calculate D2E/DX2 analytically  !
 ! D94   D(29,35,37,39)        179.9997         calculate D2E/DX2 analytically  !
 ! D95   D(36,35,37,38)       -179.9997         calculate D2E/DX2 analytically  !
 ! D96   D(36,35,37,39)          0.0053         calculate D2E/DX2 analytically  !
 ! D97   D(35,37,39,40)         -0.0066         calculate D2E/DX2 analytically  !
 ! D98   D(35,37,39,41)        119.9981         calculate D2E/DX2 analytically  !
 ! D99   D(35,37,39,42)       -120.0076         calculate D2E/DX2 analytically  !
 ! D100  D(38,37,39,40)        179.9982         calculate D2E/DX2 analytically  !
 ! D101  D(38,37,39,41)        -59.9971         calculate D2E/DX2 analytically  !
 ! D102  D(38,37,39,42)         59.9972         calculate D2E/DX2 analytically  !
 --------------------------------------------------------------------------------
 Trust Radius=3.00D-01 FncErr=1.00D-07 GrdErr=1.00D-07
 Number of steps in this run= 252 maximum allowed number of steps= 252.
 GradGradGradGradGradGradGradGradGradGradGradGradGradGradGradGradGradGrad

                          Input orientation:                          
 ---------------------------------------------------------------------
 Center     Atomic      Atomic             Coordinates (Angstroms)
 Number     Number       Type             X           Y           Z
 ---------------------------------------------------------------------
      1          1           0        9.692100    1.000000    0.000000
      2          6           0        9.692100    2.090000    0.000000
      3          1           0       10.205800    2.453800   -0.889800
      4          1           0       10.205800    2.453800    0.889800
      5          6           0        8.264700    2.640800    0.000000
      6          8           0        7.301500    1.877400    0.000000
      7          7           0        8.136700    3.969600    0.000000
      8          1           0        8.959000    4.556100    0.000000
      9          6           0        6.838800    4.613900    0.000000
     10          1           0        6.284500    4.315500   -0.889800
     11          6           0        6.030800    4.220800    1.232100
     12          1           0        6.568800    4.521300    2.131200
     13          1           0        5.061600    4.718900    1.205800
     14          1           0        5.883600    3.140900    1.241400
     15          6           0        6.979400    6.129400    0.000000
     16          8           0        8.091500    6.652700    0.000000
     17          7           0        5.846000    6.834900    0.000000
     18          1           0        4.955100    6.359200    0.000000
     19          6           0        5.846100    8.283900    0.000000
     20          1           0        5.332300    8.647700   -0.889800
     21          6           0        5.134700    8.832900    1.232200
     22          1           0        5.643100    8.484600    2.131200
     23          1           0        5.149900    9.922400    1.205800
     24          1           0        4.101900    8.484600    1.241400
     25          6           0        7.266000    8.831800    0.000000
     26          8           0        7.517800    9.911900   -0.529500
     27          7           0        8.195900    8.082500    0.596800
     28          1           0        7.940000    7.201100    1.018400
     29          6           0        9.583700    8.493800    0.663800
     30          1           0        9.977100    8.612400   -0.345800
     31          6           0        9.728100    9.820300    1.402000
     32          1           0        9.346700    9.714900    2.417700
     33          1           0       10.779900   10.104500    1.437100
     34          1           0        9.161300   10.591000    0.879700
     35          6           0       10.426900    7.459700    1.396000
     36          8           0        9.911700    6.436100    1.840300
     37          7           0       11.728300    7.729700    1.521100
     38          1           0       12.105600    8.585000    1.138800
     39          6           0       12.636400    6.825200    2.197000
     40          1           0       12.085400    5.954200    2.551700
     41          1           0       13.414100    6.505000    1.503600
     42          1           0       13.093800    7.335200    3.044800
 ---------------------------------------------------------------------
                    Distance matrix (angstroms):
                    1          2          3          4          5
     1  H    0.000000
     2  C    1.090000   0.000000
     3  H    1.780215   1.089946   0.000000
     4  H    1.780215   1.089946   1.779600   0.000000
     5  C    2.174786   1.529984   2.143498   2.143498   0.000000
     6  O    2.546527   2.400035   3.091753   3.091753   1.229038
     7  N    3.352282   2.439706   2.714879   2.714879   1.334951
     8  H    3.630879   2.572758   2.601138   2.601138   2.037260
     9  C    4.604519   3.809382   4.098105   4.098105   2.434402
    10  H    4.836943   4.166093   4.340797   4.691428   2.741816
    11  C    5.029587   4.411745   5.005534   4.546436   3.000796
    12  H    5.166872   4.495357   5.160307   4.363874   3.309739
    13  H    6.060173   5.459542   5.998751   5.629683   4.004036
    14  H    4.541938   4.141272   4.867806   4.390574   2.731449
    15  C    5.802541   4.865747   4.971060   4.971060   3.717839
    16  O    5.874942   4.835303   4.784639   4.784639   4.015637
    17  N    6.988458   6.107910   6.244489   6.244489   4.841548
    18  H    7.152635   6.376930   6.604070   6.604070   4.977946
    19  C    8.236924   7.290824   7.334084   7.334084   6.139561
    20  H    8.847989   7.924836   7.881332   8.079751   6.743409
    21  C    9.145629   8.231337   8.420918   8.156360   7.046795
    22  H    8.772437   7.863035   8.143416   7.663541   6.750170
    23  H   10.084382   9.134113   9.259247   9.024520   8.011094
    24  H    9.423940   8.583841   8.841389   8.587885   7.281482
    25  C    8.198967   7.165042   7.079057   7.079057   6.271035
    26  O    9.188575   8.135728   7.935894   8.053758   7.328515
    27  N    7.263373   6.205227   6.158891   5.983963   5.474761
    28  H    6.523851   5.498212   5.595707   5.261867   4.683898
    29  C    7.523923   6.439024   6.267558   6.076157   6.036390
    30  H    7.625578   6.537775   6.186808   6.285488   6.221889
    31  C    8.931103   7.856490   7.729545   7.399721   7.460051
    32  H    9.050638   8.006477   8.025035   7.469679   7.553733
    33  H    9.281190   8.214668   8.017310   7.691706   8.006142
    34  H    9.645875   8.562863   8.392624   8.203969   8.048816
    35  C    6.649547   5.596644   5.507522   5.036284   5.463124
    36  O    5.743354   4.724777   4.837216   4.104712   4.528092
    37  N    7.193658   6.185958   5.997130   5.527356   6.340913
    38  H    8.040776   7.021885   6.731721   6.423617   7.168186
    39  C    6.886847   5.993149   5.877524   5.169693   6.437995
    40  H    6.064912   5.212590   5.256388   4.306693   5.664587
    41  H    6.813158   5.967103   5.695066   5.204052   6.611291
    42  H    7.808785   6.953739   6.902875   6.067342   7.391103
                    6          7          8          9         10
     6  O    0.000000
     7  N    2.252745   0.000000
     8  H    3.150038   1.010029   0.000000
     9  C    2.775342   1.449023   2.120988   0.000000
    10  H    2.787537   2.083755   2.828884   1.089970   0.000000
    11  C    2.936711   2.452751   3.194503   1.524947   2.139110
    12  H    3.474057   2.702720   3.202543   2.150230   3.041319
    13  H    3.813821   3.386982   4.082914   2.150214   2.459625
    14  H    2.268909   2.702643   3.605822   2.150165   2.466256
    15  C    4.264183   2.450322   2.528654   1.522008   2.136554
    16  O    4.840206   2.683481   2.268984   2.392898   3.085368
    17  N    5.166748   3.668413   3.857940   2.432795   2.707656
    18  H    5.058866   3.979041   4.391171   2.567956   2.595334
    19  C    6.569736   4.884673   4.856608   3.801888   4.090494
    20  H    7.106789   5.526393   5.539484   4.396911   4.435611
    21  C    7.388662   5.846538   5.868101   4.714047   5.121702
    22  H    7.137744   5.580796   5.565098   4.577557   5.188374
    23  H    8.414592   6.768364   6.690319   5.699694   6.092305
    24  H    7.445375   6.181093   6.369113   4.900410   5.165961
    25  C    6.954491   4.939545   4.598680   4.239479   4.706597
    26  O    8.054834   5.997861   5.571537   5.367515   5.741998
    27  N    6.297570   4.156395   3.657046   3.772145   4.478138
    28  H    5.457710   3.393880   3.011897   2.990549   3.835179
    29  C    7.030350   4.796126   4.041827   4.798826   5.545862
    30  H    7.255249   5.006220   4.196388   5.094753   5.691624
    31  C    8.422805   6.223251   5.501720   6.117210   6.885750
    32  H    8.453078   6.349633   5.710412   6.176976   7.033502
    33  H    9.047082   6.832917   6.013790   6.909719   7.689968
    34  H    8.953187   6.757708   6.102034   6.472527   7.126641
    35  C    6.548207   4.401662   3.540401   4.787677   5.680700
    36  O    5.566111   3.552598   2.797989   4.018685   5.010686
    37  N    7.493979   5.417720   4.478226   5.994094   6.863247
    38  H    8.328754   6.192814   5.237365   6.693705   7.498603
    39  C    7.600572   5.764422   4.847566   6.582463   7.494902
    40  H    6.783596   5.103140   4.270859   5.986183   6.941160
    41  H    7.812770   6.044834   5.089886   7.005115   7.832846
    42  H    8.521099   6.720931   5.838731   7.470027   8.424146
                   11         12         13         14         15
    11  C    0.000000
    12  H    1.090011   0.000000
    13  H    1.090020   1.779624   0.000000
    14  H    1.089926   1.779536   1.779617   0.000000
    15  C    2.461842   2.701220   2.668599   3.416575   0.000000
    16  O    3.417410   3.376906   3.791283   4.329969   1.229068
    17  N    2.895814   3.227568   2.558651   3.897194   1.335038
    18  H    2.692203   3.244059   2.038598   3.572204   2.037302
    19  C    4.249820   4.384229   3.844297   5.290834   2.434387
    20  H    4.958609   5.261421   4.460974   5.930497   3.137916
    21  C    4.698347   4.631926   4.114734   5.741063   3.497163
    22  H    4.374778   4.069971   3.921097   5.422611   3.445965
    23  H    5.769308   5.660523   5.204249   6.821167   4.380396
    24  H    4.679822   4.752377   3.886231   5.632902   3.920210
    25  C    4.930021   4.858859   4.819676   5.986522   2.717555
    26  O    6.140279   6.085926   6.000953   7.187012   3.857143
    27  N    4.472582   4.205233   4.637728   5.493783   2.377108
    28  H    3.545829   3.209337   3.805473   4.556724   1.763075
    29  C    5.586107   5.198427   5.915490   6.532832   3.579580
    30  H    6.111399   5.872745   6.459795   7.015216   3.907822
    31  C    6.712175   6.212271   6.916574   7.708460   4.810790
    32  H    6.525793   5.896804   6.692593   7.522913   4.930030
    33  H    7.563987   7.027607   7.858571   8.514915   5.684231
    34  H    7.106593   6.717780   7.169061   8.147278   5.043851
    35  C    5.462878   4.905064   6.027819   6.270368   3.950161
    36  O    4.509861   3.863426   5.184095   5.238570   3.475507
    37  N    6.697567   6.106267   7.321832   7.436117   5.237056
    38  H    7.480517   6.939357   8.035493   8.268134   5.796962
    39  C    7.165744   6.490613   7.924429   7.751616   6.108404
    40  H    6.434610   5.715146   7.257491   6.934974   5.710788
    41  H    7.733331   7.154515   8.546525   8.251930   6.618705
    42  H    7.929145   7.164379   8.645414   8.534131   6.936184
                   16         17         18         19         20
    16  O    0.000000
    17  N    2.252880   0.000000
    18  H    3.150103   1.009947   0.000000
    19  C    2.775362   1.449000   2.120932   0.000000
    20  H    3.519226   2.083717   2.484201   1.089993   0.000000
    21  C    3.874823   2.452808   2.769434   1.525060   2.139212
    22  H    3.727269   2.702719   3.087504   2.150233   3.041322
    23  H    4.560472   3.386911   3.766735   2.150193   2.459608
    24  H    4.562219   2.702678   2.605062   2.150253   2.466272
    25  C    2.330220   2.450308   3.384377   1.521943   2.136547
    26  O    3.351401   3.541640   4.412423   2.392767   2.550378
    27  N    1.552868   2.726666   3.718698   2.432754   3.275612
    28  H    1.166548   2.357133   3.264286   2.567881   3.540336
    29  C    2.461085   4.142823   5.140145   3.801887   4.528991
    30  H    2.741439   4.510551   5.515158   4.158443   4.676681
    31  C    3.831156   5.094008   6.060227   4.404095   5.094153
    32  H    4.098520   5.137565   6.032590   4.488567   5.309791
    33  H    4.605179   6.090887   7.072540   5.451809   6.100252
    34  H    4.174752   5.086588   6.031096   4.133659   4.644221
    35  C    2.837985   4.829476   5.753304   4.859203   5.708868
    36  O    2.597450   4.480587   5.287769   4.830132   5.771960
    37  N    4.086562   6.141324   7.075892   6.100915   6.896664
    38  H    4.598222   6.598660   7.575005   6.369369   7.070837
    39  C    5.051008   7.136977   8.002895   7.284421   8.136321
    40  H    4.790648   6.798303   7.583955   7.132148   8.043831
    41  H    5.532874   7.723068   8.592831   7.918328   8.696840
    42  H    5.895729   7.877291   8.744245   7.918333   8.800262
                   21         22         23         24         25
    21  C    0.000000
    22  H    1.089947   0.000000
    23  H    1.089926   1.779573   0.000000
    24  H    1.089988   1.779618   1.779562   0.000000
    25  C    2.461861   2.701179   2.668565   3.416599   0.000000
    26  O    3.153885   3.554013   2.935699   4.103857   1.228979
    27  N    3.215242   3.005471   3.610295   4.163896   1.335041
    28  H    3.252413   2.856824   3.901955   4.053161   2.037301
    29  C    4.497963   4.204958   4.689696   5.512154   2.434463
    30  H    5.097798   4.993538   5.236929   6.087160   2.741857
    31  C    4.701395   4.359249   4.583539   5.784809   3.000779
    32  H    4.463662   3.913103   4.373201   5.514095   3.309751
    33  H    5.790271   5.430706   5.637691   6.874450   4.004062
    34  H    4.407798   4.287296   4.079791   5.492292   2.731450
    35  C    5.469908   4.947290   5.826474   6.409364   3.717898
    36  O    5.379049   4.743619   5.935623   6.189411   4.015696
    37  N    6.691493   6.162123   6.941376   7.668773   4.841538
    38  H    6.975932   6.539025   7.083424   8.004987   4.977902
    39  C    7.825420   7.187780   8.162280   8.746683   6.139581
    40  H    7.638077   6.934189   8.103038   8.476797   6.165904
    41  H    8.604722   8.043702   8.947866   9.523898   6.743437
    42  H    8.299150   7.593992   8.554594   9.242707   6.743432
                   26         27         28         29         30
    26  O    0.000000
    27  N    2.252793   0.000000
    28  H    3.150029   1.009999   0.000000
    29  C    2.775413   1.449015   2.120982   0.000000
    30  H    2.787580   2.083738   2.828884   1.090010   0.000000
    31  C    2.936751   2.452740   3.194473   1.524924   2.139119
    32  H    3.474143   2.702730   3.202505   2.150214   3.041355
    33  H    3.813910   3.386982   4.082900   2.150173   2.459590
    34  H    2.268946   2.702703   3.605861   2.150182   2.466219
    35  C    4.264235   2.450298   2.528661   1.521994   2.136564
    36  O    4.840237   2.683448   2.268997   2.392878   3.085384
    37  N    5.166746   3.668330   3.857893   2.432719   2.707615
    38  H    5.058834   3.978948   4.391116   2.567863   2.595246
    39  C    6.569748   4.884617   4.856601   3.801829   4.090451
    40  H    6.783815   4.845566   4.592397   4.033886   4.461666
    41  H    7.106815   5.526337   5.539472   4.396880   4.435582
    42  H    7.106812   5.526354   5.539489   4.396853   4.779250
                   31         32         33         34         35
    31  C    0.000000
    32  H    1.090056   0.000000
    33  H    1.090085   1.779727   0.000000
    34  H    1.089972   1.779710   1.779675   0.000000
    35  C    2.461867   2.701227   2.668570   3.416628   0.000000
    36  O    3.417400   3.376854   3.791240   4.330017   1.229061
    37  N    2.895789   3.227527   2.558553   3.897168   1.334988
    38  H    2.692164   3.244039   2.038466   3.572124   2.037274
    39  C    4.249807   4.384199   3.844197   5.290827   2.434354
    40  H    4.671767   4.654170   4.491286   5.731131   2.520475
    41  H    4.958642   5.261443   4.460923   5.930511   3.137896
    42  H    4.494714   4.482966   3.950678   5.545489   3.137897
                   36         37         38         39         40
    36  O    0.000000
    37  N    2.252848   0.000000
    38  H    3.150091   1.009974   0.000000
    39  C    2.775360   1.449002   2.120951   0.000000
    40  H    2.337368   2.083760   2.986269   1.089979   0.000000
    41  H    3.519221   2.083775   2.484281   1.090022   1.779702
    42  H    3.519227   2.083718   2.484225   1.089991   1.779657
                   41         42
    41  H    0.000000
    42  H    1.779641   0.000000
 Stoichiometry    C12H22N4O4
 Framework group  C1[X(C12H22N4O4)]
 Deg. of freedom   120
 Full point group                 C1      NOp   1
 Largest Abelian subgroup         C1      NOp   1
 Largest concise Abelian subgroup C1      NOp   1
                         Standard orientation:                         
 ---------------------------------------------------------------------
 Center     Atomic      Atomic             Coordinates (Angstroms)
 Number     Number       Type             X           Y           Z
 ---------------------------------------------------------------------
      1          1           0        5.234525    2.185250   -0.494151
      2          6           0        4.164600    1.994229   -0.577046
      3          1           0        3.827722    2.241996   -1.583578
      4          1           0        3.628313    2.608121    0.146498
      5          6           0        3.844798    0.523418   -0.302648
      6          8           0        4.743170   -0.270155   -0.031163
      7          7           0        2.560276    0.167312   -0.375342
      8          1           0        1.857348    0.856230   -0.602153
      9          6           0        2.128660   -1.195204   -0.136749
     10          1           0        2.607033   -1.859646   -0.856271
     11          6           0        2.501478   -1.650761    1.269997
     12          1           0        2.022524   -1.000467    2.002012
     13          1           0        2.165458   -2.676597    1.421306
     14          1           0        3.583223   -1.601320    1.393782
     15          6           0        0.619317   -1.325424   -0.283159
     16          8           0       -0.066414   -0.346414   -0.569378
     17          7           0        0.102176   -2.540286   -0.085671
     18          1           0        0.706960   -3.314669    0.147914
     19          6           0       -1.320152   -2.794124   -0.195891
     20          1           0       -1.498050   -3.535623   -0.974747
     21          6           0       -1.887041   -3.321757    1.117901
     22          1           0       -1.724553   -2.586281    1.905719
     23          1           0       -2.955869   -3.503487    1.006010
     24          1           0       -1.386387   -4.253193    1.382184
     25          6           0       -2.077656   -1.523079   -0.552184
     26          8           0       -3.117491   -1.578871   -1.204885
     27          7           0       -1.552908   -0.373687   -0.121056
     28          1           0       -0.695388   -0.378863    0.412545
     29          6           0       -2.178867    0.904176   -0.394712
     30          1           0       -2.243024    1.054443   -1.472407
     31          6           0       -3.585996    0.962609    0.190067
     32          1           0       -3.537337    0.822837    1.270029
     33          1           0       -4.031635    1.932685   -0.030484
     34          1           0       -4.196279    0.174381   -0.250718
     35          6           0       -1.376322    2.047862    0.208917
     36          8           0       -0.341644    1.822625    0.832858
     37          7           0       -1.856726    3.279255    0.021635
     38          1           0       -2.711814    3.413973   -0.498675
     39          6           0       -1.185127    4.451131    0.546295
     40          1           0       -0.284660    4.146249    1.079456
     41          1           0       -0.913456    5.113349   -0.275782
     42          1           0       -1.851503    4.976555    1.230364
 ---------------------------------------------------------------------
 Rotational constants (GHZ):      0.3821480      0.2710329      0.1713851
 Standard basis: 6-31G(d) (6D, 7F)
 There are   344 symmetry adapted basis functions of A   symmetry.
 Integral buffers will be    131072 words long.
 Raffenetti 1 integral format.
 Two-electron integral symmetry is turned on.
   344 basis functions,   648 primitive gaussians,   344 cartesian basis functions
    77 alpha electrons       77 beta electrons
       nuclear repulsion energy      1752.9744734378 Hartrees.
 NAtoms=   42 NActive=   42 NUniq=   42 SFac= 7.50D-01 NAtFMM=   80 NAOKFM=F Big=F
 One-electron integrals computed using PRISM.
 NBasis=   344 RedAO= T  NBF=   344
 NBsUse=   344 1.00D-06 NBFU=   344
 Harris functional with IExCor=  205 diagonalized for initial guess.
 ExpMin= 1.61D-01 ExpMax= 5.48D+03 ExpMxC= 8.25D+02 IAcc=1 IRadAn=         1 AccDes= 0.00D+00
 HarFok:  IExCor=  205 AccDes= 0.00D+00 IRadAn=         1 IDoV= 1
 ScaDFX=  1.000000  1.000000  1.000000  1.000000
 FoFCou: FMM=F IPFlag=           0 FMFlag=      100000 FMFlg1=           0
         NFxFlg=           0 DoJE=T BraDBF=F KetDBF=T FulRan=T
         Omega=  0.000000  0.000000  1.000000  0.000000  0.000000 ICntrl=     500 IOpCl=  0
         NMat0=    1 NMatS0=    1 NMatT0=    0 NMatD0=    1 NMtDS0=    0 NMtDT0=    0
         I1Cent=           4 NGrid=           0.
 Petite list used in FoFCou.
 Initial guess orbital symmetries:
       Occupied  (A) (A) (A) (A) (A) (A) (A) (A) (A) (A) (A) (A)
                 (A) (A) (A) (A) (A) (A) (A) (A) (A) (A) (A) (A)
                 (A) (A) (A) (A) (A) (A) (A) (A) (A) (A) (A) (A)
                 (A) (A) (A) (A) (A) (A) (A) (A) (A) (A) (A) (A)
                 (A) (A) (A) (A) (A) (A) (A) (A) (A) (A) (A) (A)
                 (A) (A) (A) (A) (A) (A) (A) (A) (A) (A) (A) (A)
                 (A) (A) (A) (A) (A)
       Virtual   (A) (A) (A) (A) (A) (A) (A) (A) (A) (A) (A) (A)
                 (A) (A) (A) (A) (A) (A) (A) (A) (A) (A) (A) (A)
                 (A) (A) (A) (A) (A) (A) (A) (A) (A) (A) (A) (A)
                 (A) (A) (A) (A) (A) (A) (A) (A) (A) (A) (A) (A)
                 (A) (A) (A) (A) (A) (A) (A) (A) (A) (A) (A) (A)
                 (A) (A) (A) (A) (A) (A) (A) (A) (A) (A) (A) (A)
                 (A) (A) (A) (A) (A) (A) (A) (A) (A) (A) (A) (A)
                 (A) (A) (A) (A) (A) (A) (A) (A) (A) (A) (A) (A)
                 (A) (A) (A) (A) (A) (A) (A) (A) (A) (A) (A) (A)
                 (A) (A) (A) (A) (A) (A) (A) (A) (A) (A) (A) (A)
                 (A) (A) (A) (A) (A) (A) (A) (A) (A) (A) (A) (A)
                 (A) (A) (A) (A) (A) (A) (A) (A) (A) (A) (A) (A)
                 (A) (A) (A) (A) (A) (A) (A) (A) (A) (A) (A) (A)
                 (A) (A) (A) (A) (A) (A) (A) (A) (A) (A) (A) (A)
                 (A) (A) (A) (A) (A) (A) (A) (A) (A) (A) (A) (A)
                 (A) (A) (A) (A) (A) (A) (A) (A) (A) (A) (A) (A)
                 (A) (A) (A) (A) (A) (A) (A) (A) (A) (A) (A) (A)
                 (A) (A) (A) (A) (A) (A) (A) (A) (A) (A) (A) (A)
                 (A) (A) (A) (A) (A) (A) (A) (A) (A) (A) (A) (A)
                 (A) (A) (A) (A) (A) (A) (A) (A) (A) (A) (A) (A)
                 (A) (A) (A) (A) (A) (A) (A) (A) (A) (A) (A) (A)
                 (A) (A) (A) (A) (A) (A) (A) (A) (A) (A) (A) (A)
                 (A) (A) (A)
 The electronic state of the initial guess is 1-A.
 Requested convergence on RMS density matrix=1.00D-08 within 128 cycles.
 Requested convergence on MAX density matrix=1.00D-06.
 Requested convergence on             energy=1.00D-06.
 No special actions if energy rises.
 Integral accuracy reduced to 1.0D-05 until final iterations.
 Initial convergence to 1.0D-05 achieved.  Increase integral accuracy.
 SCF Done:  E(RHF) =  -984.173179906     A.U. after   19 cycles
             Convg  =    0.9776D-08             -V/T =  2.0002
 Range of M.O.s used for correlation:     1   344
 NBasis=   344 NAE=    77 NBE=    77 NFC=     0 NFV=     0
 NROrb=    344 NOA=    77 NOB=    77 NVA=   267 NVB=   267
 Symmetrizing basis deriv contribution to polar:
 IMax=3 JMax=2 DiffMx= 0.00D+00
 G2DrvN: will do    43 centers at a time, making    1 passes doing MaxLOS=2.
 Calling FoFCou, ICntrl=  3107 FMM=F I1Cent=   0 AccDes= 0.00D+00.
 FoFDir/FoFCou used for L=0 through L=2.
 End of G2Drv Frequency-dependent properties file   721 does not exist.
 End of G2Drv Frequency-dependent properties file   722 does not exist.
          IDoAtm=111111111111111111111111111111111111111111
          Differentiating once with respect to nuclear coordinates.
          There are   129 degrees of freedom in the 1st order CPHF.  IDoFFX=5.
    123 vectors produced by pass  0 Test12= 2.06D-10 1.00D-07 XBig12= 1.25D-01 1.22D-01.
 AX will form   123 AO Fock derivatives at one time.
    123 vectors produced by pass  1 Test12= 2.06D-10 1.00D-07 XBig12= 1.18D-02 5.14D-02.
    123 vectors produced by pass  2 Test12= 2.06D-10 1.00D-07 XBig12= 1.56D-04 2.58D-03.
    123 vectors produced by pass  3 Test12= 2.06D-10 1.00D-07 XBig12= 1.71D-06 2.18D-04.
    123 vectors produced by pass  4 Test12= 2.06D-10 1.00D-07 XBig12= 1.34D-08 1.10D-05.
     45 vectors produced by pass  5 Test12= 2.06D-10 1.00D-07 XBig12= 8.00D-11 6.93D-07.
 Inverted reduced A of dimension   660 with in-core refinement.
 End of Minotr Frequency-dependent properties file   721 does not exist.
 End of Minotr Frequency-dependent properties file   722 does not exist.

 **********************************************************************

            Population analysis using the SCF density.

 **********************************************************************

 Orbital symmetries:
       Occupied  (A) (A) (A) (A) (A) (A) (A) (A) (A) (A) (A) (A)
                 (A) (A) (A) (A) (A) (A) (A) (A) (A) (A) (A) (A)
                 (A) (A) (A) (A) (A) (A) (A) (A) (A) (A) (A) (A)
                 (A) (A) (A) (A) (A) (A) (A) (A) (A) (A) (A) (A)
                 (A) (A) (A) (A) (A) (A) (A) (A) (A) (A) (A) (A)
                 (A) (A) (A) (A) (A) (A) (A) (A) (A) (A) (A) (A)
                 (A) (A) (A) (A) (A)
       Virtual   (A) (A) (A) (A) (A) (A) (A) (A) (A) (A) (A) (A)
                 (A) (A) (A) (A) (A) (A) (A) (A) (A) (A) (A) (A)
                 (A) (A) (A) (A) (A) (A) (A) (A) (A) (A) (A) (A)
                 (A) (A) (A) (A) (A) (A) (A) (A) (A) (A) (A) (A)
                 (A) (A) (A) (A) (A) (A) (A) (A) (A) (A) (A) (A)
                 (A) (A) (A) (A) (A) (A) (A) (A) (A) (A) (A) (A)
                 (A) (A) (A) (A) (A) (A) (A) (A) (A) (A) (A) (A)
                 (A) (A) (A) (A) (A) (A) (A) (A) (A) (A) (A) (A)
                 (A) (A) (A) (A) (A) (A) (A) (A) (A) (A) (A) (A)
                 (A) (A) (A) (A) (A) (A) (A) (A) (A) (A) (A) (A)
                 (A) (A) (A) (A) (A) (A) (A) (A) (A) (A) (A) (A)
                 (A) (A) (A) (A) (A) (A) (A) (A) (A) (A) (A) (A)
                 (A) (A) (A) (A) (A) (A) (A) (A) (A) (A) (A) (A)
                 (A) (A) (A) (A) (A) (A) (A) (A) (A) (A) (A) (A)
                 (A) (A) (A) (A) (A) (A) (A) (A) (A) (A) (A) (A)
                 (A) (A) (A) (A) (A) (A) (A) (A) (A) (A) (A) (A)
                 (A) (A) (A) (A) (A) (A) (A) (A) (A) (A) (A) (A)
                 (A) (A) (A) (A) (A) (A) (A) (A) (A) (A) (A) (A)
                 (A) (A) (A) (A) (A) (A) (A) (A) (A) (A) (A) (A)
                 (A) (A) (A) (A) (A) (A) (A) (A) (A) (A) (A) (A)
                 (A) (A) (A) (A) (A) (A) (A) (A) (A) (A) (A) (A)
                 (A) (A) (A) (A) (A) (A) (A) (A) (A) (A) (A) (A)
                 (A) (A) (A)
 The electronic state is 1-A.
 Alpha  occ. eigenvalues --  -20.55284 -20.52692 -20.51320 -20.47038 -15.62452
 Alpha  occ. eigenvalues --  -15.60076 -15.58637 -15.55946 -11.37494 -11.35568
 Alpha  occ. eigenvalues --  -11.34639 -11.30357 -11.29086 -11.28501 -11.27629
 Alpha  occ. eigenvalues --  -11.26843 -11.23250 -11.23198 -11.22295 -11.21287
 Alpha  occ. eigenvalues --   -1.51632  -1.38600  -1.37083  -1.33499  -1.29057
 Alpha  occ. eigenvalues --   -1.24408  -1.24053  -1.21102  -1.08365  -1.04678
 Alpha  occ. eigenvalues --   -1.03273  -0.98387  -0.96067  -0.92322  -0.90826
 Alpha  occ. eigenvalues --   -0.87460  -0.85381  -0.82222  -0.79848  -0.78249
 Alpha  occ. eigenvalues --   -0.74598  -0.73390  -0.72298  -0.68521  -0.67456
 Alpha  occ. eigenvalues --   -0.66073  -0.65655  -0.63981  -0.63614  -0.63030
 Alpha  occ. eigenvalues --   -0.61359  -0.59883  -0.58987  -0.58398  -0.58124
 Alpha  occ. eigenvalues --   -0.57406  -0.56439  -0.55887  -0.55761  -0.55464
 Alpha  occ. eigenvalues --   -0.55208  -0.54542  -0.53481  -0.52971  -0.52745
 Alpha  occ. eigenvalues --   -0.51890  -0.51120  -0.49060  -0.48827  -0.44160
 Alpha  occ. eigenvalues --   -0.41802  -0.41477  -0.40735  -0.39532  -0.38645
 Alpha  occ. eigenvalues --   -0.37478  -0.21153
 Alpha virt. eigenvalues --    0.15051   0.18899   0.19279   0.20567   0.20889
 Alpha virt. eigenvalues --    0.22401   0.24143   0.25568   0.26091   0.27549
 Alpha virt. eigenvalues --    0.28045   0.29082   0.29385   0.29894   0.30779
 Alpha virt. eigenvalues --    0.30911   0.31190   0.31542   0.31769   0.32516
 Alpha virt. eigenvalues --    0.33315   0.33440   0.34350   0.35079   0.35682
 Alpha virt. eigenvalues --    0.36701   0.37093   0.37408   0.38978   0.39419
 Alpha virt. eigenvalues --    0.40030   0.41868   0.43361   0.44002   0.45783
 Alpha virt. eigenvalues --    0.47352   0.49627   0.52327   0.53818   0.54976
 Alpha virt. eigenvalues --    0.55852   0.60527   0.61157   0.61410   0.68240
 Alpha virt. eigenvalues --    0.71332   0.71808   0.72398   0.73007   0.74341
 Alpha virt. eigenvalues --    0.74404   0.74512   0.76266   0.76429   0.77139
 Alpha virt. eigenvalues --    0.77709   0.78113   0.78794   0.79512   0.81688
 Alpha virt. eigenvalues --    0.82538   0.83304   0.83516   0.85584   0.87286
 Alpha virt. eigenvalues --    0.88938   0.90452   0.90908   0.91681   0.93136
 Alpha virt. eigenvalues --    0.94500   0.94809   0.96353   0.98094   0.98695
 Alpha virt. eigenvalues --    0.99294   1.00188   1.00505   1.00868   1.01817
 Alpha virt. eigenvalues --    1.03613   1.04653   1.05679   1.06561   1.08215
 Alpha virt. eigenvalues --    1.09308   1.10701   1.11591   1.12062   1.12439
 Alpha virt. eigenvalues --    1.13127   1.14259   1.14560   1.15489   1.15518
 Alpha virt. eigenvalues --    1.16201   1.16756   1.16869   1.18474   1.18613
 Alpha virt. eigenvalues --    1.19114   1.19756   1.20041   1.20598   1.21192
 Alpha virt. eigenvalues --    1.21545   1.21793   1.22733   1.23497   1.24481
 Alpha virt. eigenvalues --    1.25811   1.26727   1.26974   1.28622   1.29320
 Alpha virt. eigenvalues --    1.29918   1.31756   1.35021   1.36315   1.38812
 Alpha virt. eigenvalues --    1.41435   1.41882   1.43697   1.44937   1.45607
 Alpha virt. eigenvalues --    1.46236   1.51981   1.52254   1.53509   1.55352
 Alpha virt. eigenvalues --    1.56772   1.58982   1.59985   1.62214   1.63149
 Alpha virt. eigenvalues --    1.63531   1.65290   1.65959   1.68532   1.71199
 Alpha virt. eigenvalues --    1.72917   1.73697   1.75636   1.76971   1.79247
 Alpha virt. eigenvalues --    1.81012   1.82279   1.84741   1.89548   1.91052
 Alpha virt. eigenvalues --    1.93109   1.95799   1.96268   1.97804   1.99918
 Alpha virt. eigenvalues --    2.00341   2.01994   2.03919   2.04658   2.06551
 Alpha virt. eigenvalues --    2.08393   2.09708   2.10653   2.10957   2.11676
 Alpha virt. eigenvalues --    2.13435   2.14406   2.14523   2.15817   2.17319
 Alpha virt. eigenvalues --    2.19097   2.20115   2.21493   2.21926   2.23052
 Alpha virt. eigenvalues --    2.24208   2.25048   2.26433   2.27203   2.30003
 Alpha virt. eigenvalues --    2.30540   2.32082   2.33024   2.34026   2.36044
 Alpha virt. eigenvalues --    2.36774   2.37691   2.38271   2.40273   2.42595
 Alpha virt. eigenvalues --    2.43408   2.44990   2.47892   2.49278   2.50069
 Alpha virt. eigenvalues --    2.50705   2.52430   2.53768   2.56899   2.59041
 Alpha virt. eigenvalues --    2.60386   2.61617   2.61895   2.62404   2.63392
 Alpha virt. eigenvalues --    2.64042   2.64399   2.64556   2.66788   2.68931
 Alpha virt. eigenvalues --    2.72243   2.74234   2.74935   2.77126   2.78742
 Alpha virt. eigenvalues --    2.80520   2.81074   2.84586   2.87249   2.89878
 Alpha virt. eigenvalues --    2.91960   2.93162   2.96152   2.98111   2.98413
 Alpha virt. eigenvalues --    3.00193   3.01538   3.05568   3.06911   3.08730
 Alpha virt. eigenvalues --    3.09640   3.13312   3.17411   3.18961   3.22463
 Alpha virt. eigenvalues --    3.27274   3.30403   3.31938   3.35898   3.36293
 Alpha virt. eigenvalues --    3.41293   3.44643   3.48552   3.56427   3.58832
 Alpha virt. eigenvalues --    3.64465   3.71223   4.40118   4.43698   4.45023
 Alpha virt. eigenvalues --    4.48779   4.52167   4.53976   4.62931   4.63153
 Alpha virt. eigenvalues --    4.66242   4.69139   4.70122   4.72783   4.79703
 Alpha virt. eigenvalues --    4.86523   4.88175   4.91086   4.97719   5.05143
 Alpha virt. eigenvalues --    5.12891   5.24121
          Condensed to atoms (all electrons):
              1          2          3          4          5          6
     1  H    0.460836   0.385461  -0.019180  -0.018712  -0.030877   0.003518
     2  C    0.385461   5.244790   0.374136   0.375220   0.379125  -0.067322
     3  H   -0.019180   0.374136   0.514710  -0.023344  -0.034470   0.001302
     4  H   -0.018712   0.375220  -0.023344   0.504021  -0.034681   0.001148
     5  C   -0.030877   0.379125  -0.034470  -0.034681   4.180682   0.586672
     6  O    0.003518  -0.067322   0.001302   0.001148   0.586672   8.213003
     7  N    0.003852  -0.119466   0.003422   0.003567   0.249291  -0.107745
     8  H   -0.000004  -0.001362   0.000671   0.000517  -0.016849   0.001937
     9  C   -0.000079   0.004525  -0.000247  -0.000094  -0.029340   0.014637
    10  H    0.000002   0.000016  -0.000005  -0.000002  -0.001426   0.003157
    11  C    0.000006  -0.000520   0.000009   0.000030  -0.003699  -0.016175
    12  H    0.000000  -0.000040   0.000000   0.000002   0.000076  -0.000031
    13  H    0.000000   0.000007   0.000000  -0.000001   0.000294   0.000267
    14  H    0.000001   0.000299  -0.000005  -0.000026   0.000151   0.011544
    15  C    0.000000   0.000030  -0.000011  -0.000006   0.004283   0.000626
    16  O    0.000000  -0.000028   0.000000  -0.000001   0.000176  -0.000003
    17  N    0.000000   0.000000   0.000000   0.000000  -0.000075  -0.000002
    18  H    0.000000   0.000000   0.000000   0.000000   0.000001   0.000002
    19  C    0.000000   0.000000   0.000000   0.000000   0.000000   0.000000
    20  H    0.000000   0.000000   0.000000   0.000000   0.000000   0.000000
    21  C    0.000000   0.000000   0.000000   0.000000   0.000000   0.000000
    22  H    0.000000   0.000000   0.000000   0.000000   0.000000   0.000000
    23  H    0.000000   0.000000   0.000000   0.000000   0.000000   0.000000
    24  H    0.000000   0.000000   0.000000   0.000000   0.000000   0.000000
    25  C    0.000000   0.000000   0.000000   0.000000   0.000000   0.000000
    26  O    0.000000   0.000000   0.000000   0.000000   0.000000   0.000000
    27  N    0.000000   0.000000   0.000000   0.000000   0.000009   0.000000
    28  H    0.000000   0.000000   0.000000  -0.000001   0.000011   0.000000
    29  C    0.000000   0.000000   0.000000   0.000000  -0.000001   0.000000
    30  H    0.000000   0.000000   0.000000   0.000000   0.000000   0.000000
    31  C    0.000000   0.000000   0.000000   0.000000   0.000000   0.000000
    32  H    0.000000   0.000000   0.000000   0.000000   0.000000   0.000000
    33  H    0.000000   0.000000   0.000000   0.000000   0.000000   0.000000
    34  H    0.000000   0.000000   0.000000   0.000000   0.000000   0.000000
    35  C    0.000000   0.000000   0.000000   0.000003  -0.000001   0.000000
    36  O    0.000000  -0.000032  -0.000001   0.000058   0.000004   0.000000
    37  N    0.000000   0.000000   0.000000  -0.000001   0.000000   0.000000
    38  H    0.000000   0.000000   0.000000   0.000000   0.000000   0.000000
    39  C    0.000000  -0.000001   0.000000   0.000001   0.000000   0.000000
    40  H    0.000000   0.000000   0.000000   0.000014   0.000000   0.000000
    41  H    0.000000   0.000000   0.000000   0.000000   0.000000   0.000000
    42  H    0.000000   0.000000   0.000000   0.000000   0.000000   0.000000
              7          8          9         10         11         12
     1  H    0.003852  -0.000004  -0.000079   0.000002   0.000006   0.000000
     2  C   -0.119466  -0.001362   0.004525   0.000016  -0.000520  -0.000040
     3  H    0.003422   0.000671  -0.000247  -0.000005   0.000009   0.000000
     4  H    0.003567   0.000517  -0.000094  -0.000002   0.000030   0.000002
     5  C    0.249291  -0.016849  -0.029340  -0.001426  -0.003699   0.000076
     6  O   -0.107745   0.001937   0.014637   0.003157  -0.016175  -0.000031
     7  N    7.417658   0.306414   0.209025  -0.041900  -0.064946   0.001377
     8  H    0.306414   0.280638  -0.023384   0.001793   0.003670   0.000172
     9  C    0.209025  -0.023384   4.963776   0.412564   0.325497  -0.041806
    10  H   -0.041900   0.001793   0.412564   0.494479  -0.047639   0.004329
    11  C   -0.064946   0.003670   0.325497  -0.047639   5.233371   0.387458
    12  H    0.001377   0.000172  -0.041806   0.004329   0.387458   0.517774
    13  H    0.004927  -0.000075  -0.042925   0.000149   0.377474  -0.024879
    14  H   -0.005468  -0.000209  -0.026282  -0.003422   0.385658  -0.019168
    15  C   -0.040547  -0.004860   0.393250  -0.039416  -0.076074  -0.004378
    16  O   -0.005840   0.010876  -0.055023   0.000501   0.000335   0.000349
    17  N    0.002453   0.000513  -0.109294   0.000692   0.005262   0.000539
    18  H    0.000066  -0.000008   0.000359   0.000492   0.000396  -0.000012
    19  C   -0.000049  -0.000020   0.003705  -0.000133  -0.000107  -0.000057
    20  H    0.000000   0.000000  -0.000075   0.000014  -0.000009   0.000001
    21  C    0.000001   0.000001  -0.000289  -0.000003   0.000090   0.000011
    22  H    0.000000   0.000000  -0.000051   0.000000   0.000030   0.000016
    23  H    0.000000   0.000000  -0.000001   0.000000   0.000001   0.000000
    24  H    0.000000   0.000000   0.000035   0.000000  -0.000027  -0.000002
    25  C   -0.000004   0.000019  -0.000164   0.000001  -0.000066   0.000000
    26  O    0.000000   0.000000  -0.000002   0.000000   0.000000   0.000000
    27  N   -0.000321   0.001375  -0.007229  -0.000140   0.001045  -0.000065
    28  H    0.000088   0.000430  -0.007416   0.000113   0.001150   0.000567
    29  C    0.000010  -0.000155   0.000227   0.000001  -0.000016  -0.000003
    30  H    0.000005  -0.000048   0.000012   0.000000   0.000000   0.000000
    31  C    0.000000   0.000004  -0.000001   0.000000   0.000000   0.000000
    32  H    0.000000   0.000000   0.000000   0.000000   0.000000   0.000000
    33  H    0.000000   0.000000   0.000000   0.000000   0.000000   0.000000
    34  H    0.000000   0.000000   0.000000   0.000000   0.000000   0.000000
    35  C    0.000057   0.000502  -0.000054   0.000001   0.000002   0.000005
    36  O   -0.001042   0.005616   0.000193  -0.000001  -0.000058   0.000142
    37  N    0.000002  -0.000048   0.000000   0.000000   0.000000   0.000000
    38  H    0.000000  -0.000001   0.000000   0.000000   0.000000   0.000000
    39  C   -0.000001   0.000010   0.000000   0.000000   0.000000   0.000000
    40  H   -0.000001   0.000008   0.000000   0.000000   0.000000   0.000000
    41  H    0.000000   0.000002   0.000000   0.000000   0.000000   0.000000
    42  H    0.000000   0.000000   0.000000   0.000000   0.000000   0.000000
             13         14         15         16         17         18
     1  H    0.000000   0.000001   0.000000   0.000000   0.000000   0.000000
     2  C    0.000007   0.000299   0.000030  -0.000028   0.000000   0.000000
     3  H    0.000000  -0.000005  -0.000011   0.000000   0.000000   0.000000
     4  H   -0.000001  -0.000026  -0.000006  -0.000001   0.000000   0.000000
     5  C    0.000294   0.000151   0.004283   0.000176  -0.000075   0.000001
     6  O    0.000267   0.011544   0.000626  -0.000003  -0.000002   0.000002
     7  N    0.004927  -0.005468  -0.040547  -0.005840   0.002453   0.000066
     8  H   -0.000075  -0.000209  -0.004860   0.010876   0.000513  -0.000008
     9  C   -0.042925  -0.026282   0.393250  -0.055023  -0.109294   0.000359
    10  H    0.000149  -0.003422  -0.039416   0.000501   0.000692   0.000492
    11  C    0.377474   0.385658  -0.076074   0.000335   0.005262   0.000396
    12  H   -0.024879  -0.019168  -0.004378   0.000349   0.000539  -0.000012
    13  H    0.576014  -0.020388  -0.008760   0.000035   0.001338   0.003269
    14  H   -0.020388   0.424056   0.004863  -0.000068  -0.000081  -0.000068
    15  C   -0.008760   0.004863   4.340965   0.443689   0.284933  -0.022778
    16  O    0.000035  -0.000068   0.443689   9.694229  -0.113662   0.002254
    17  N    0.001338  -0.000081   0.284933  -0.113662   7.433786   0.321307
    18  H    0.003269  -0.000068  -0.022778   0.002254   0.321307   0.297315
    19  C    0.000147   0.000001  -0.019871   0.014182   0.094399  -0.014598
    20  H    0.000000   0.000000   0.001111   0.000513  -0.043104  -0.001846
    21  C    0.000053  -0.000002  -0.002372  -0.000724  -0.066504  -0.000683
    22  H    0.000019   0.000001   0.000824  -0.000084   0.001205  -0.000156
    23  H    0.000001   0.000000  -0.000055  -0.000075   0.004808  -0.000098
    24  H   -0.000009   0.000000   0.000396   0.000058  -0.003549   0.002430
    25  C   -0.000017   0.000000  -0.008364  -0.032672  -0.028559   0.002481
    26  O    0.000000   0.000000  -0.000450   0.000594   0.002545  -0.000051
    27  N    0.000031  -0.000004   0.029558  -1.265383   0.032561  -0.000551
    28  H    0.000067  -0.000020  -0.003213  -0.129072   0.010621  -0.000299
    29  C    0.000000   0.000000   0.001001   0.038603  -0.000828   0.000013
    30  H    0.000000   0.000000  -0.000552   0.007659  -0.000040   0.000000
    31  C    0.000000   0.000000  -0.000051  -0.000538   0.000030   0.000000
    32  H    0.000000   0.000000  -0.000015   0.000079  -0.000001   0.000000
    33  H    0.000000   0.000000   0.000000   0.000089   0.000000   0.000000
    34  H    0.000000   0.000000   0.000010  -0.000224  -0.000003   0.000000
    35  C    0.000000   0.000000   0.000268   0.000917   0.000007   0.000000
    36  O    0.000000   0.000001  -0.000357  -0.013189   0.000018   0.000001
    37  N    0.000000   0.000000  -0.000005  -0.000231   0.000000   0.000000
    38  H    0.000000   0.000000   0.000000   0.000001   0.000000   0.000000
    39  C    0.000000   0.000000   0.000000   0.000002   0.000000   0.000000
    40  H    0.000000   0.000000   0.000000   0.000002   0.000000   0.000000
    41  H    0.000000   0.000000   0.000000   0.000000   0.000000   0.000000
    42  H    0.000000   0.000000   0.000000   0.000000   0.000000   0.000000
             19         20         21         22         23         24
     1  H    0.000000   0.000000   0.000000   0.000000   0.000000   0.000000
     2  C    0.000000   0.000000   0.000000   0.000000   0.000000   0.000000
     3  H    0.000000   0.000000   0.000000   0.000000   0.000000   0.000000
     4  H    0.000000   0.000000   0.000000   0.000000   0.000000   0.000000
     5  C    0.000000   0.000000   0.000000   0.000000   0.000000   0.000000
     6  O    0.000000   0.000000   0.000000   0.000000   0.000000   0.000000
     7  N   -0.000049   0.000000   0.000001   0.000000   0.000000   0.000000
     8  H   -0.000020   0.000000   0.000001   0.000000   0.000000   0.000000
     9  C    0.003705  -0.000075  -0.000289  -0.000051  -0.000001   0.000035
    10  H   -0.000133   0.000014  -0.000003   0.000000   0.000000   0.000000
    11  C   -0.000107  -0.000009   0.000090   0.000030   0.000001  -0.000027
    12  H   -0.000057   0.000001   0.000011   0.000016   0.000000  -0.000002
    13  H    0.000147   0.000000   0.000053   0.000019   0.000001  -0.000009
    14  H    0.000001   0.000000  -0.000002   0.000001   0.000000   0.000000
    15  C   -0.019871   0.001111  -0.002372   0.000824  -0.000055   0.000396
    16  O    0.014182   0.000513  -0.000724  -0.000084  -0.000075   0.000058
    17  N    0.094399  -0.043104  -0.066504   0.001205   0.004808  -0.003549
    18  H   -0.014598  -0.001846  -0.000683  -0.000156  -0.000098   0.002430
    19  C    5.091085   0.413030   0.346005  -0.038044  -0.034578  -0.039943
    20  H    0.413030   0.476098  -0.041369   0.004176  -0.000119  -0.003118
    21  C    0.346005  -0.041369   5.145996   0.385707   0.387680   0.382131
    22  H   -0.038044   0.004176   0.385707   0.519519  -0.018891  -0.025903
    23  H   -0.034578  -0.000119   0.387680  -0.018891   0.478898  -0.023658
    24  H   -0.039943  -0.003118   0.382131  -0.025903  -0.023658   0.549130
    25  C    0.392760  -0.036216  -0.055189  -0.007250  -0.006285   0.006600
    26  O   -0.062121   0.003799  -0.002419   0.000017   0.004398  -0.000113
    27  N   -0.134259   0.003212   0.002496   0.003384   0.000129  -0.000168
    28  H   -0.004685   0.000116   0.000934   0.000582  -0.000001  -0.000063
    29  C    0.005354  -0.000047  -0.000311  -0.000046  -0.000026   0.000006
    30  H    0.000023   0.000019  -0.000007   0.000004  -0.000002   0.000000
    31  C   -0.000650   0.000002   0.000069   0.000009   0.000021  -0.000001
    32  H   -0.000058   0.000001   0.000022   0.000055  -0.000009   0.000001
    33  H    0.000010   0.000000  -0.000001   0.000001  -0.000001   0.000000
    34  H    0.000310  -0.000005  -0.000045  -0.000007   0.000027   0.000000
    35  C    0.000021  -0.000001   0.000001  -0.000012   0.000000   0.000000
    36  O   -0.000067   0.000000   0.000001  -0.000004   0.000000   0.000000
    37  N    0.000000   0.000000   0.000000   0.000000   0.000000   0.000000
    38  H    0.000000   0.000000   0.000000   0.000000   0.000000   0.000000
    39  C    0.000000   0.000000   0.000000   0.000000   0.000000   0.000000
    40  H    0.000000   0.000000   0.000000   0.000000   0.000000   0.000000
    41  H    0.000000   0.000000   0.000000   0.000000   0.000000   0.000000
    42  H    0.000000   0.000000   0.000000   0.000000   0.000000   0.000000
             25         26         27         28         29         30
     1  H    0.000000   0.000000   0.000000   0.000000   0.000000   0.000000
     2  C    0.000000   0.000000   0.000000   0.000000   0.000000   0.000000
     3  H    0.000000   0.000000   0.000000   0.000000   0.000000   0.000000
     4  H    0.000000   0.000000   0.000000  -0.000001   0.000000   0.000000
     5  C    0.000000   0.000000   0.000009   0.000011  -0.000001   0.000000
     6  O    0.000000   0.000000   0.000000   0.000000   0.000000   0.000000
     7  N   -0.000004   0.000000  -0.000321   0.000088   0.000010   0.000005
     8  H    0.000019   0.000000   0.001375   0.000430  -0.000155  -0.000048
     9  C   -0.000164  -0.000002  -0.007229  -0.007416   0.000227   0.000012
    10  H    0.000001   0.000000  -0.000140   0.000113   0.000001   0.000000
    11  C   -0.000066   0.000000   0.001045   0.001150  -0.000016   0.000000
    12  H    0.000000   0.000000  -0.000065   0.000567  -0.000003   0.000000
    13  H   -0.000017   0.000000   0.000031   0.000067   0.000000   0.000000
    14  H    0.000000   0.000000  -0.000004  -0.000020   0.000000   0.000000
    15  C   -0.008364  -0.000450   0.029558  -0.003213   0.001001  -0.000552
    16  O   -0.032672   0.000594  -1.265383  -0.129072   0.038603   0.007659
    17  N   -0.028559   0.002545   0.032561   0.010621  -0.000828  -0.000040
    18  H    0.002481  -0.000051  -0.000551  -0.000299   0.000013   0.000000
    19  C    0.392760  -0.062121  -0.134259  -0.004685   0.005354   0.000023
    20  H   -0.036216   0.003799   0.003212   0.000116  -0.000047   0.000019
    21  C   -0.055189  -0.002419   0.002496   0.000934  -0.000311  -0.000007
    22  H   -0.007250   0.000017   0.003384   0.000582  -0.000046   0.000004
    23  H   -0.006285   0.004398   0.000129  -0.000001  -0.000026  -0.000002
    24  H    0.006600  -0.000113  -0.000168  -0.000063   0.000006   0.000000
    25  C    4.230071   0.547237   0.319325  -0.015353  -0.031814  -0.001405
    26  O    0.547237   8.328838  -0.122749   0.002039   0.014956   0.003811
    27  N    0.319325  -0.122749   8.530550   0.372363   0.142149  -0.053094
    28  H   -0.015353   0.002039   0.372363   0.293913  -0.033109   0.003560
    29  C   -0.031814   0.014956   0.142149  -0.033109   5.029839   0.400119
    30  H   -0.001405   0.003811  -0.053094   0.003560   0.400119   0.506396
    31  C   -0.005344  -0.018788  -0.044178   0.001304   0.345919  -0.040234
    32  H    0.000215  -0.000066   0.000384   0.000586  -0.042459   0.004549
    33  H    0.000617   0.000118   0.005982  -0.000094  -0.051016   0.001212
    34  H   -0.001452   0.016503  -0.009050  -0.000173  -0.022089  -0.004749
    35  C    0.004033   0.000569  -0.037633  -0.005909   0.376514  -0.039962
    36  O    0.000451  -0.000002  -0.005677   0.022402  -0.077716   0.001182
    37  N   -0.000089  -0.000002   0.002717   0.000756  -0.111417   0.002115
    38  H    0.000003   0.000001   0.000035  -0.000023   0.001008   0.000451
    39  C    0.000001   0.000000  -0.000059  -0.000012   0.003661  -0.000216
    40  H    0.000000   0.000000  -0.000005  -0.000011   0.000591  -0.000020
    41  H    0.000000   0.000000   0.000000   0.000000  -0.000106   0.000012
    42  H    0.000000   0.000000   0.000001   0.000000  -0.000002  -0.000003
             31         32         33         34         35         36
     1  H    0.000000   0.000000   0.000000   0.000000   0.000000   0.000000
     2  C    0.000000   0.000000   0.000000   0.000000   0.000000  -0.000032
     3  H    0.000000   0.000000   0.000000   0.000000   0.000000  -0.000001
     4  H    0.000000   0.000000   0.000000   0.000000   0.000003   0.000058
     5  C    0.000000   0.000000   0.000000   0.000000  -0.000001   0.000004
     6  O    0.000000   0.000000   0.000000   0.000000   0.000000   0.000000
     7  N    0.000000   0.000000   0.000000   0.000000   0.000057  -0.001042
     8  H    0.000004   0.000000   0.000000   0.000000   0.000502   0.005616
     9  C   -0.000001   0.000000   0.000000   0.000000  -0.000054   0.000193
    10  H    0.000000   0.000000   0.000000   0.000000   0.000001  -0.000001
    11  C    0.000000   0.000000   0.000000   0.000000   0.000002  -0.000058
    12  H    0.000000   0.000000   0.000000   0.000000   0.000005   0.000142
    13  H    0.000000   0.000000   0.000000   0.000000   0.000000   0.000000
    14  H    0.000000   0.000000   0.000000   0.000000   0.000000   0.000001
    15  C   -0.000051  -0.000015   0.000000   0.000010   0.000268  -0.000357
    16  O   -0.000538   0.000079   0.000089  -0.000224   0.000917  -0.013189
    17  N    0.000030  -0.000001   0.000000  -0.000003   0.000007   0.000018
    18  H    0.000000   0.000000   0.000000   0.000000   0.000000   0.000001
    19  C   -0.000650  -0.000058   0.000010   0.000310   0.000021  -0.000067
    20  H    0.000002   0.000001   0.000000  -0.000005  -0.000001   0.000000
    21  C    0.000069   0.000022  -0.000001  -0.000045   0.000001   0.000001
    22  H    0.000009   0.000055   0.000001  -0.000007  -0.000012  -0.000004
    23  H    0.000021  -0.000009  -0.000001   0.000027   0.000000   0.000000
    24  H   -0.000001   0.000001   0.000000   0.000000   0.000000   0.000000
    25  C   -0.005344   0.000215   0.000617  -0.001452   0.004033   0.000451
    26  O   -0.018788  -0.000066   0.000118   0.016503   0.000569  -0.000002
    27  N   -0.044178   0.000384   0.005982  -0.009050  -0.037633  -0.005677
    28  H    0.001304   0.000586  -0.000094  -0.000173  -0.005909   0.022402
    29  C    0.345919  -0.042459  -0.051016  -0.022089   0.376514  -0.077716
    30  H   -0.040234   0.004549   0.001212  -0.004749  -0.039962   0.001182
    31  C    5.171486   0.387231   0.372393   0.385612  -0.061370   0.000202
    32  H    0.387231   0.529942  -0.025313  -0.019928  -0.002919   0.000602
    33  H    0.372393  -0.025313   0.598700  -0.023528  -0.006399   0.000034
    34  H    0.385612  -0.019928  -0.023528   0.422868   0.003852  -0.000064
    35  C   -0.061370  -0.002919  -0.006399   0.003852   4.159567   0.575336
    36  O    0.000202   0.000602   0.000034  -0.000064   0.575336   8.247401
    37  N    0.000814   0.000271  -0.000027   0.000088   0.288297  -0.096156
    38  H    0.000249  -0.000009   0.002697  -0.000085  -0.020884   0.002300
    39  C   -0.000094  -0.000044   0.000213   0.000003  -0.025411  -0.004859
    40  H   -0.000051  -0.000002  -0.000009   0.000000  -0.001825   0.010589
    41  H   -0.000006   0.000001   0.000003   0.000000   0.000862   0.000375
    42  H    0.000023   0.000001  -0.000007  -0.000001   0.000808   0.000360
             37         38         39         40         41         42
     1  H    0.000000   0.000000   0.000000   0.000000   0.000000   0.000000
     2  C    0.000000   0.000000  -0.000001   0.000000   0.000000   0.000000
     3  H    0.000000   0.000000   0.000000   0.000000   0.000000   0.000000
     4  H   -0.000001   0.000000   0.000001   0.000014   0.000000   0.000000
     5  C    0.000000   0.000000   0.000000   0.000000   0.000000   0.000000
     6  O    0.000000   0.000000   0.000000   0.000000   0.000000   0.000000
     7  N    0.000002   0.000000  -0.000001  -0.000001   0.000000   0.000000
     8  H   -0.000048  -0.000001   0.000010   0.000008   0.000002   0.000000
     9  C    0.000000   0.000000   0.000000   0.000000   0.000000   0.000000
    10  H    0.000000   0.000000   0.000000   0.000000   0.000000   0.000000
    11  C    0.000000   0.000000   0.000000   0.000000   0.000000   0.000000
    12  H    0.000000   0.000000   0.000000   0.000000   0.000000   0.000000
    13  H    0.000000   0.000000   0.000000   0.000000   0.000000   0.000000
    14  H    0.000000   0.000000   0.000000   0.000000   0.000000   0.000000
    15  C   -0.000005   0.000000   0.000000   0.000000   0.000000   0.000000
    16  O   -0.000231   0.000001   0.000002   0.000002   0.000000   0.000000
    17  N    0.000000   0.000000   0.000000   0.000000   0.000000   0.000000
    18  H    0.000000   0.000000   0.000000   0.000000   0.000000   0.000000
    19  C    0.000000   0.000000   0.000000   0.000000   0.000000   0.000000
[...]
    29  C    0.000000   0.000000   0.000066   0.000536  -0.000152   0.000004
    30  H    0.000000   0.000000   0.000000  -0.000014  -0.000011   0.000000
    31  C    0.000000   0.000000  -0.000002  -0.000008   0.000005   0.000000
    32  H    0.000000   0.000000   0.000000  -0.000001   0.000000   0.000000
    33  H    0.000000   0.000000   0.000000   0.000000   0.000000   0.000000
    34  H    0.000000   0.000000   0.000000   0.000000  -0.000001   0.000000
    35  C    0.000000   0.000000   0.000000   0.000097  -0.000001   0.000000
    36  O    0.000000   0.000000  -0.000023  -0.000190   0.000003   0.000000
    37  N    0.000000   0.000000   0.000000  -0.000003   0.000000   0.000000
    38  H    0.000000   0.000000   0.000000   0.000000   0.000000   0.000000
    39  C    0.000000   0.000000   0.000000   0.000000   0.000000   0.000000
    40  H    0.000000   0.000000   0.000000   0.000000   0.000000   0.000000
    41  H    0.000000   0.000000   0.000000   0.000000   0.000000   0.000000
    42  H    0.000000   0.000000   0.000000   0.000000   0.000000   0.000000
             19         20         21         22         23         24
     1  H    0.000000   0.000000   0.000000   0.000000   0.000000   0.000000
     2  C    0.000000   0.000000   0.000000   0.000000   0.000000   0.000000
     3  H    0.000000   0.000000   0.000000   0.000000   0.000000   0.000000
     4  H    0.000000   0.000000   0.000000   0.000000   0.000000   0.000000
     5  C    0.000000   0.000000   0.000000   0.000000   0.000000   0.000000
     6  O    0.000000   0.000000   0.000000   0.000000   0.000000   0.000000
     7  N   -0.000073   0.000002   0.000000   0.000000   0.000000   0.000000
     8  H   -0.000004   0.000000   0.000000   0.000000   0.000000   0.000000
     9  C    0.002497  -0.000099  -0.000182  -0.000029   0.000003  -0.000016
    10  H    0.000185  -0.000001  -0.000009   0.000000   0.000000  -0.000007
    11  C   -0.000258  -0.000003   0.000051   0.000005   0.000000  -0.000002
    12  H    0.000036   0.000000  -0.000003   0.000001   0.000000   0.000000
    13  H   -0.000109   0.000004   0.000061   0.000081   0.000001   0.000032
    14  H    0.000000   0.000000  -0.000001   0.000000   0.000000   0.000000
    15  C   -0.015197   0.000146   0.000937   0.000251  -0.000014  -0.000037
    16  O    0.002257  -0.000002   0.000004  -0.000020   0.000000  -0.000001
    17  N    0.099075  -0.047879  -0.067897   0.001027   0.004882  -0.003801
    18  H   -0.022165  -0.002163  -0.001911  -0.000106  -0.000076   0.003567
    19  C    5.047405   0.418978   0.342345  -0.035399  -0.036128  -0.036924
    20  H    0.418978   0.483600  -0.043238   0.004083   0.000258  -0.003537
    21  C    0.342345  -0.043238   5.160110   0.384430   0.387035   0.388477
    22  H   -0.035399   0.004083   0.384430   0.510561  -0.019210  -0.026398
    23  H   -0.036128   0.000258   0.387035  -0.019210   0.471392  -0.022495
    24  H   -0.036924  -0.003537   0.388477  -0.026398  -0.022495   0.533341
    25  C    0.390571  -0.042901  -0.043430  -0.007004  -0.004315   0.005399
    26  O   -0.073205   0.005105  -0.005432   0.000144   0.006066  -0.000016
    27  N   -0.098585   0.003686  -0.000337   0.002726   0.000159  -0.000099
    28  H   -0.000544  -0.000020   0.000124   0.000046  -0.000019  -0.000004
    29  C    0.004707  -0.000126  -0.000259  -0.000124  -0.000008   0.000005
    30  H    0.000234   0.000019  -0.000012   0.000002  -0.000005   0.000000
    31  C   -0.000390  -0.000002   0.000094   0.000027   0.000011  -0.000001
    32  H   -0.000004   0.000000  -0.000004   0.000025  -0.000002   0.000000
    33  H    0.000005   0.000000  -0.000001   0.000000   0.000000   0.000000
    34  H    0.000029   0.000000  -0.000005   0.000010   0.000042   0.000001
    35  C   -0.000005   0.000000   0.000000   0.000000   0.000000   0.000000
    36  O   -0.000015   0.000000   0.000000   0.000000   0.000000   0.000000
    37  N    0.000000   0.000000   0.000000   0.000000   0.000000   0.000000
    38  H    0.000000   0.000000   0.000000   0.000000   0.000000   0.000000
    39  C    0.000000   0.000000   0.000000   0.000000   0.000000   0.000000
    40  H    0.000000   0.000000   0.000000   0.000000   0.000000   0.000000
    41  H    0.000000   0.000000   0.000000   0.000000   0.000000   0.000000
    42  H    0.000000   0.000000   0.000000   0.000000   0.000000   0.000000
             25         26         27         28         29         30
     1  H    0.000000   0.000000   0.000000   0.000000   0.000000   0.000000
     2  C    0.000000   0.000000   0.000000   0.000000   0.000000   0.000000
     3  H    0.000000   0.000000   0.000000   0.000000   0.000000   0.000000
     4  H    0.000000   0.000000   0.000000   0.000000   0.000000   0.000000
     5  C    0.000000   0.000000   0.000000   0.000000   0.000000   0.000000
     6  O    0.000000   0.000000   0.000000   0.000000   0.000000   0.000000
     7  N    0.000000   0.000000   0.000001  -0.000010   0.000000   0.000000
     8  H   -0.000003   0.000000   0.000007  -0.000018   0.000000   0.000000
     9  C    0.000091   0.000000  -0.000126   0.000495   0.000002   0.000000
    10  H   -0.000009   0.000000   0.000001  -0.000006   0.000000   0.000000
    11  C   -0.000003   0.000000   0.000007  -0.000056   0.000000   0.000000
    12  H   -0.000004   0.000000   0.000001  -0.000001   0.000000   0.000000
    13  H   -0.000001   0.000000   0.000000  -0.000001   0.000000   0.000000
    14  H    0.000000   0.000000   0.000000   0.000001   0.000000   0.000000
    15  C   -0.001216   0.000005   0.003364  -0.000834   0.000066   0.000000
    16  O    0.003679   0.000018  -0.025246   0.026648   0.000536  -0.000014
    17  N   -0.021257   0.002875   0.005038  -0.001205  -0.000152  -0.000011
    18  H    0.002127  -0.000061  -0.000202  -0.000057   0.000004   0.000000
    19  C    0.390571  -0.073205  -0.098585  -0.000544   0.004707   0.000234
    20  H   -0.042901   0.005105   0.003686  -0.000020  -0.000126   0.000019
    21  C   -0.043430  -0.005432  -0.000337   0.000124  -0.000259  -0.000012
    22  H   -0.007004   0.000144   0.002726   0.000046  -0.000124   0.000002
    23  H   -0.004315   0.006066   0.000159  -0.000019  -0.000008  -0.000005
    24  H    0.005399  -0.000016  -0.000099  -0.000004   0.000005   0.000000
    25  C    4.149248   0.552911   0.299512  -0.011485  -0.034609  -0.002211
    26  O    0.552911   8.239007  -0.104420   0.001523   0.008468   0.006598
    27  N    0.299512  -0.104420   7.442426   0.274425   0.191792  -0.045080
    28  H   -0.011485   0.001523   0.274425   0.227588  -0.023852   0.002291
    29  C   -0.034609   0.008468   0.191792  -0.023852   5.047407   0.414168
    30  H   -0.002211   0.006598  -0.045080   0.002291   0.414168   0.499215
    31  C   -0.001719  -0.004780  -0.061548   0.001689   0.334966  -0.041464
    32  H    0.000147  -0.000004   0.000347   0.000275  -0.038692   0.004058
    33  H    0.000037   0.000007   0.004525  -0.000008  -0.037433   0.000462
    34  H    0.001985   0.005260  -0.005521  -0.000177  -0.029900  -0.003857
    35  C    0.003660   0.000550  -0.033014  -0.005019   0.367864  -0.048912
    36  O    0.000407  -0.000004  -0.004381   0.016825  -0.077886   0.002027
    37  N   -0.000111  -0.000002   0.002191   0.000885  -0.110891   0.004899
    38  H   -0.000015  -0.000004  -0.000026  -0.000033   0.000634   0.002012
    39  C    0.000001   0.000000  -0.000083  -0.000025   0.004707  -0.000039
    40  H    0.000000   0.000000   0.000011   0.000003  -0.000163  -0.000005
    41  H    0.000000   0.000000   0.000000   0.000000  -0.000004  -0.000016
    42  H    0.000000   0.000000  -0.000006  -0.000004   0.000102  -0.000002
             31         32         33         34         35         36
     1  H    0.000000   0.000000   0.000000   0.000000   0.000000   0.000000
     2  C    0.000000   0.000000   0.000000   0.000000   0.000000   0.000000
     3  H    0.000000   0.000000   0.000000   0.000000   0.000000   0.000000
     4  H    0.000000   0.000000   0.000000   0.000000   0.000000   0.000000
     5  C    0.000000   0.000000   0.000000   0.000000   0.000000   0.000000
     6  O    0.000000   0.000000   0.000000   0.000000   0.000000   0.000000
     7  N    0.000000   0.000000   0.000000   0.000000   0.000000   0.000000
     8  H    0.000000   0.000000   0.000000   0.000000   0.000000   0.000000
     9  C    0.000000   0.000000   0.000000   0.000000  -0.000001  -0.000001
    10  H    0.000000   0.000000   0.000000   0.000000   0.000000   0.000000
    11  C    0.000000   0.000000   0.000000   0.000000   0.000000   0.000000
    12  H    0.000000   0.000000   0.000000   0.000000   0.000000   0.000000
    13  H    0.000000   0.000000   0.000000   0.000000   0.000000   0.000000
    14  H    0.000000   0.000000   0.000000   0.000000   0.000000   0.000000
    15  C   -0.000002   0.000000   0.000000   0.000000   0.000000  -0.000023
    16  O   -0.000008  -0.000001   0.000000   0.000000   0.000097  -0.000190
    17  N    0.000005   0.000000   0.000000  -0.000001  -0.000001   0.000003
    18  H    0.000000   0.000000   0.000000   0.000000   0.000000   0.000000
    19  C   -0.000390  -0.000004   0.000005   0.000029  -0.000005  -0.000015
    20  H   -0.000002   0.000000   0.000000   0.000000   0.000000   0.000000
    21  C    0.000094  -0.000004  -0.000001  -0.000005   0.000000   0.000000
    22  H    0.000027   0.000025   0.000000   0.000010   0.000000   0.000000
    23  H    0.000011  -0.000002   0.000000   0.000042   0.000000   0.000000
    24  H   -0.000001   0.000000   0.000000   0.000001   0.000000   0.000000
    25  C   -0.001719   0.000147   0.000037   0.001985   0.003660   0.000407
    26  O   -0.004780  -0.000004   0.000007   0.005260   0.000550  -0.000004
    27  N   -0.061548   0.000347   0.004525  -0.005521  -0.033014  -0.004381
    28  H    0.001689   0.000275  -0.000008  -0.000177  -0.005019   0.016825
    29  C    0.334966  -0.038692  -0.037433  -0.029900   0.367864  -0.077886
    30  H   -0.041464   0.004058   0.000462  -0.003857  -0.048912   0.002027
    31  C    5.148369   0.388998   0.381739   0.391860  -0.048804  -0.000774
    32  H    0.388998   0.510958  -0.023978  -0.023313  -0.004504   0.002407
    33  H    0.381739  -0.023978   0.537786  -0.023315  -0.003317   0.000011
    34  H    0.391860  -0.023313  -0.023315   0.477766   0.004350  -0.000066
    35  C   -0.048804  -0.004504  -0.003317   0.004350   4.185364   0.595506
    36  O   -0.000774   0.002407   0.000011  -0.000066   0.595506   8.170525
    37  N   -0.000150   0.000516   0.002538  -0.000074   0.274981  -0.103685
    38  H    0.000202   0.000003   0.000214  -0.000027  -0.020858   0.002531
    39  C   -0.000288  -0.000006  -0.000033   0.000003  -0.029492   0.008497
    40  H   -0.000008   0.000000   0.000004   0.000000  -0.003663   0.001184
    41  H    0.000006   0.000000  -0.000006   0.000000   0.004569   0.000362
    42  H    0.000022   0.000002  -0.000015   0.000000  -0.002812   0.003450
             37         38         39         40         41         42
     1  H    0.000000   0.000000   0.000000   0.000000   0.000000   0.000000
     2  C    0.000000   0.000000   0.000000   0.000000   0.000000   0.000000
     3  H    0.000000   0.000000   0.000000   0.000000   0.000000   0.000000
     4  H    0.000000   0.000000   0.000000   0.000000   0.000000   0.000000
     5  C    0.000000   0.000000   0.000000   0.000000   0.000000   0.000000
     6  O    0.000000   0.000000   0.000000   0.000000   0.000000   0.000000
     7  N    0.000000   0.000000   0.000000   0.000000   0.000000   0.000000
     8  H    0.000000   0.000000   0.000000   0.000000   0.000000   0.000000
     9  C    0.000000   0.000000   0.000000   0.000000   0.000000   0.000000
    10  H    0.000000   0.000000   0.000000   0.000000   0.000000   0.000000
    11  C    0.000000   0.000000   0.000000   0.000000   0.000000   0.000000
    12  H    0.000000   0.000000   0.000000   0.000000   0.000000   0.000000
    13  H    0.000000   0.000000   0.000000   0.000000   0.000000   0.000000
    14  H    0.000000   0.000000   0.000000   0.000000   0.000000   0.000000
    15  C    0.000000   0.000000   0.000000   0.000000   0.000000   0.000000
    16  O   -0.000003   0.000000   0.000000   0.000000   0.000000   0.000000
    17  N    0.000000   0.000000   0.000000   0.000000   0.000000   0.000000
    18  H    0.000000   0.000000   0.000000   0.000000   0.000000   0.000000
    19  C    0.000000   0.000000   0.000000   0.000000   0.000000   0.000000
    20  H    0.000000   0.000000   0.000000   0.000000   0.000000   0.000000
    21  C    0.000000   0.000000   0.000000   0.000000   0.000000   0.000000
    22  H    0.000000   0.000000   0.000000   0.000000   0.000000   0.000000
    23  H    0.000000   0.000000   0.000000   0.000000   0.000000   0.000000
    24  H    0.000000   0.000000   0.000000   0.000000   0.000000   0.000000
    25  C   -0.000111  -0.000015   0.000001   0.000000   0.000000   0.000000
    26  O   -0.000002  -0.000004   0.000000   0.000000   0.000000   0.000000
    27  N    0.002191  -0.000026  -0.000083   0.000011   0.000000  -0.000006
    28  H    0.000885  -0.000033  -0.000025   0.000003   0.000000  -0.000004
    29  C   -0.110891   0.000634   0.004707  -0.000163  -0.000004   0.000102
    30  H    0.004899   0.002012  -0.000039  -0.000005  -0.000016  -0.000002
    31  C   -0.000150   0.000202  -0.000288  -0.000008   0.000006   0.000022
    32  H    0.000516   0.000003  -0.000006   0.000000   0.000000   0.000002
    33  H    0.002538   0.000214  -0.000033   0.000004  -0.000006  -0.000015
    34  H   -0.000074  -0.000027   0.000003   0.000000   0.000000   0.000000
    35  C    0.274981  -0.020858  -0.029492  -0.003663   0.004569  -0.002812
    36  O   -0.103685   0.002531   0.008497   0.001184   0.000362   0.003450
    37  N    7.328287   0.327564   0.197451  -0.045973  -0.037744  -0.040497
    38  H    0.327564   0.323510  -0.022648   0.001283  -0.004532   0.002580
    39  C    0.197451  -0.022648   4.906182   0.406272   0.397230   0.404255
    40  H   -0.045973   0.001283   0.406272   0.523799  -0.031758  -0.032938
    41  H   -0.037744  -0.004532   0.397230  -0.031758   0.527679  -0.024844
    42  H   -0.040497   0.002580   0.404255  -0.032938  -0.024844   0.488453
 Mulliken atomic charges:
              1
     1  H    0.208564
     2  C   -0.576539
     3  H    0.175319
     4  H    0.203126
     5  C    0.756094
     6  O   -0.622698
     7  N   -0.822463
     8  H    0.422093
     9  C   -0.040001
    10  H    0.218117
    11  C   -0.488342
    12  H    0.184643
    13  H    0.156470
    14  H    0.212836
    15  C    0.811924
    16  O   -0.652152
    17  N   -0.852180
    18  H    0.392419
    19  C    0.010680
    20  H    0.224085
    21  C   -0.500948
    22  H    0.184870
    23  H    0.212424
    24  H    0.162515
    25  C    0.760518
    26  O   -0.640611
    27  N   -0.851546
    28  H    0.490560
    29  C   -0.021329
    30  H    0.205640
    31  C   -0.488049
    32  H    0.182773
    33  H    0.160777
    34  H    0.204951
    35  C    0.763461
    36  O   -0.616707
    37  N   -0.800181
    38  H    0.387610
    39  C   -0.271985
    40  H    0.181953
    41  H    0.169058
    42  H    0.202254
 Sum of Mulliken atomic charges =   0.00000
 Mulliken charges with hydrogens summed into heavy atoms:
              1
     2  C    0.010471
     5  C    0.756094
     6  O   -0.622698
     7  N   -0.400371
     9  C    0.178116
    11  C    0.065606
    15  C    0.811924
    16  O   -0.652152
    17  N   -0.459760
    19  C    0.234765
    21  C    0.058860
    25  C    0.760518
    26  O   -0.640611
    27  N   -0.360986
    29  C    0.184311
    31  C    0.060452
    35  C    0.763461
    36  O   -0.616707
    37  N   -0.412571
    39  C    0.281280
 Sum of Mulliken charges with hydrogens summed into heavy atoms =   0.00000
 Electronic spatial extent (au):  <R**2>=           8163.4663
 Charge=              0.0000 electrons
 Dipole moment (field-independent basis, Debye):
    X=             -2.3912    Y=              0.6750    Z=             -0.2324  Tot=              2.4955
 Quadrupole moment (field-independent basis, Debye-Ang):
   XX=           -128.9205   YY=           -106.8016   ZZ=           -122.5690
   XY=            -10.4318   XZ=              2.6979   YZ=            -10.5672
 Traceless Quadrupole moment (field-independent basis, Debye-Ang):
   XX=             -9.4901   YY=             12.6288   ZZ=             -3.1387
   XY=            -10.4318   XZ=              2.6979   YZ=            -10.5672
 Octapole moment (field-independent basis, Debye-Ang**2):
  XXX=           -255.9594  YYY=             27.4468  ZZZ=             -2.4605  XYY=             33.1585
  XXY=             97.4759  XXZ=             -6.3089  XZZ=             13.2775  YZZ=              9.8261
  YYZ=             -1.7667  XYZ=             26.3740
 Hexadecapole moment (field-independent basis, Debye-Ang**3):
 XXXX=          -8116.2548 YYYY=          -2657.1710 ZZZZ=           -521.1847 XXXY=           -105.3013
 XXXZ=            117.6617 YYYX=           -136.9366 YYYZ=            -32.4578 ZZZX=             -3.9677
 ZZZY=             -2.2601 XXYY=          -1456.7389 XXZZ=          -1275.2075 YYZZ=           -584.8534
 XXYZ=           -115.5696 YYXZ=            -29.5600 ZZXY=            -22.5496
 N-N= 1.641858712397D+03 E-N=-5.591818487545D+03  KE= 9.830793201808D+02
 1\1\GINC-NODE005\FOpt\RHF\6-31G(d)\C12H22N4O4\MANAGER\26-Dec-2016\0\\#
  HF/6-31G* Opt=(ModRedundant, maxcycles=1000, calcfc) geom=nocrowd\\Ph
 i Psi fixed scan\\0,1\H,8.3562076171,0.4197442317,-1.4513625906\C,8.48
 74855076,1.0051822128,-0.5514275918\H,9.432515331,1.5327981245,-0.5943
 021129\H,8.5086877744,0.3218102205,0.2908844012\C,7.2979859639,1.92688
 55059,-0.3946619313\O,6.1760961424,1.5590407459,-0.6289921252\N,7.5749
 838546,3.1722737367,0.0434794383\H,8.5090626217,3.4602266204,0.2312718
 228\C,6.5419122164,4.1523717783,0.2655211031\H,5.8021171111,4.04066571
 45,-0.5164702168\C,5.8601622127,3.9751218057,1.6297701901\H,6.58307574
 79,4.0904368566,2.4298518845\H,5.0659952264,4.7006619713,1.7752220145\
 H,5.4308066463,2.9834864107,1.6834256016\C,7.1929186028,5.5335209457,0
 .1802992742\O,8.3692013386,5.6621423831,0.4090193045\N,6.3399674221,6.
 5239858613,-0.1310866599\H,5.4095619998,6.2186170476,-0.3127835229\C,6
 .4379280017,7.9862879176,-0.2464672085\H,6.2090345855,8.2279197469,-1.
 2748908011\C,5.3580227657,8.6107151779,0.6509592725\H,5.5719810375,8.4
 138749044,1.6957233747\H,5.3164814656,9.6793259308,0.4910086825\H,4.38
 29075305,8.1935444744,0.4178345734\C,7.730569118,8.7834189998,0.005046
 4767\O,7.7664972863,9.8627223801,-0.535529611\N,8.6653997249,8.3735433
 357,0.8663989323\H,8.7263186761,7.4108633062,1.1260831161\C,9.81035519
 9,9.216523647,1.143577459\H,10.1232947771,9.6897952016,0.2211183965\C,
 9.4781418232,10.3059666695,2.1710785318\H,9.1707703656,9.853122136,3.1
 067803876\H,10.339887707,10.938583804,2.3583431361\H,8.6742875865,10.9
 241998808,1.7943201557\C,10.9303735054,8.3344572195,1.6833245446\O,10.
 7029383332,7.3466874234,2.3283646678\N,12.1800569965,8.7762488661,1.43
 79254936\H,12.3090328763,9.5234522203,0.796435262\C,13.3439359554,8.05
 16139132,1.9025810733\H,13.4868878758,7.127832412,1.3532202894\H,14.21
 67618339,8.677694027,1.7737982987\H,13.2338916362,7.8120342327,2.95030
 7213\\Version=EM64L-G09RevA.02\State=1-A\HF=-984.5463727\RMSD=5.955e-0
 9\RMSF=4.507e-04\Dipole=0.6860956,0.6884388,0.1388741\Quadrupole=14.89
 33997,-10.0263881,-4.8670116,-2.6918226,-4.0820277,0.8175317\PG=C01 [X
 (C12H22N4O4)]\\@


 GETTING A SIMPLE ANSWER FROM A PROFESSOR IS LIKE
 GETTING A THIMBLE OF WATER FROM A FIRE HYDRANT.
     -- PROF. LEN SHAPIRO, NDSU
 Job cpu time:  0 days  3 hours 25 minutes 45.9 seconds.
 File lengths (MBytes):  RWF=    553 Int=      0 D2E=      0 Chk=     11 Scr=      1
 Normal termination of Gaussian 09 at Mon Dec 26 14:12:11 2016.
