 Entering Gaussian System, Link 0=g09
 Initial command:
 /home/steboss/Software/g09/l1.exe /tmp/Gau-23442.inp -scrdir=/tmp/
 Entering Link 1 = /home/steboss/Software/g09/l1.exe PID=     23446.
  
 Copyright (c) 1988,1990,1992,1993,1995,1998,2003,2009, Gaussian, Inc.
                  All Rights Reserved.
  
 This is part of the Gaussian(R) 09 program.  It is based on
 the Gaussian(R) 03 system (copyright 2003, Gaussian, Inc.),
 the Gaussian(R) 98 system (copyright 1998, Gaussian, Inc.),
 the Gaussian(R) 94 system (copyright 1995, Gaussian, Inc.),
 the Gaussian 92(TM) system (copyright 1992, Gaussian, Inc.),
 the Gaussian 90(TM) system (copyright 1990, Gaussian, Inc.),
 the Gaussian 88(TM) system (copyright 1988, Gaussian, Inc.),
 the Gaussian 86(TM) system (copyright 1986, Carnegie Mellon
 University), and the Gaussian 82(TM) system (copyright 1983,
 Carnegie Mellon University). Gaussian is a federally registered
 trademark of Gaussian, Inc.
  
 This software contains proprietary and confidential information,
 including trade secrets, belonging to Gaussian, Inc.
  
 This software is provided under written license and may be
 used, copied, transmitted, or stored only in accord with that
 written license.
  
 The following legend is applicable only to US Government
 contracts under FAR:
  
                    RESTRICTED RIGHTS LEGEND
  
 Use, reproduction and disclosure by the US Government is
 subject to restrictions as set forth in subparagraphs (a)
 and (c) of the Commercial Computer Software - Restricted
 Rights clause in FAR 52.227-19.
  
 Gaussian, Inc.
 340 Quinnipiac St., Bldg. 40, Wallingford CT 06492
  
  
 ---------------------------------------------------------------
 Warning -- This program may not be used in any manner that
 competes with the business of Gaussian, Inc. or will provide
 assistance to any competitor of Gaussian, Inc.  The licensee
 of this program is prohibited from giving any competitor of
 Gaussian, Inc. access to this program.  By using this program,
 the user acknowledges that Gaussian, Inc. is engaged in the
 business of creating and licensing software in the field of
 computational chemistry and represents and warrants to the
 licensee that it is not a competitor of Gaussian, Inc. and that
 it will not use this program in any manner prohibited above.
 ---------------------------------------------------------------
  

 Cite this work as:
 Gaussian 09, Revision A.02,
 M. J. Frisch, G. W. Trucks, H. B. Schlegel, G. E. Scuseria, 
 M. A. Robb, J. R. Cheeseman, G. Scalmani, V. Barone, B. Mennucci, 
 G. A. Petersson, H. Nakatsuji, M. Caricato, X. Li, H. P. Hratchian, 
 A. F. Izmaylov, J. Bloino, G. Zheng, J. L. Sonnenberg, M. Hada, 
 M. Ehara, K. Toyota, R. Fukuda, J. Hasegawa, M. Ishida, T. Nakajima, 
 Y. Honda, O. Kitao, H. Nakai, T. Vreven, J. A. Montgomery, Jr., 
 J. E. Peralta, F. Ogliaro, M. Bearpark, J. J. Heyd, E. Brothers, 
 K. N. Kudin, V. N. Staroverov, R. Kobayashi, J. Normand, 
 K. Raghavachari, A. Rendell, J. C. Burant, S. S. Iyengar, J. Tomasi, 
 M. Cossi, N. Rega, J. M. Millam, M. Klene, J. E. Knox, J. B. Cross, 
 V. Bakken, C. Adamo, J. Jaramillo, R. Gomperts, R. E. Stratmann, 
 O. Yazyev, A. J. Austin, R. Cammi, C. Pomelli, J. W. Ochterski, 
 R. L. Martin, K. Morokuma, V. G. Zakrzewski, G. A. Voth, 
 P. Salvador, J. J. Dannenberg, S. Dapprich, A. D. Daniels, 
 O. Farkas, J. B. Foresman, J. V. Ortiz, J. Cioslowski, 
 and D. J. Fox, Gaussian, Inc., Wallingford CT, 2009.
 
 ******************************************
 Gaussian 09:  EM64L-G09RevA.02 11-Jun-2009
                26-Dec-2016 
 ******************************************
 %chk=structure_210.chk
 -------------------------------------------------------------------
 # HF/6-31G* Opt=(ModRedundant, maxcycles=1000, calcfc) geom=nocrowd
 -------------------------------------------------------------------
 1/6=1000,10=4,18=120,19=15,38=1/1,3;
 2/9=110,12=1,17=6,18=5,40=1/2;
 3/5=1,6=6,7=1,11=9,16=1,25=1,30=1,71=2/1,2,3;
 4//1;
 5/5=2,38=5/2;
 8/6=4,10=90,11=11/1;
 11/6=1,8=1,9=11,15=111,16=1/1,2,10;
 10/6=1,7=6,13=1/2;
 6/7=2,8=2,9=2,10=2,28=1/1;
 7/10=1,18=20,25=1/1,2,3,16;
 1/6=1000,10=4,18=20,19=15/3(2);
 2/9=110,12=1/2;
 99//99;
 2/9=110,12=1/2;
 3/5=1,6=6,7=1,11=9,16=1,25=1,30=1,71=1/1,2,3;
 4/5=5,16=3/1;
 5/5=2,38=5/2;
 7//1,2,3,16;
 1/6=1000,18=20,19=15/3(-5);
 2/9=110,12=1/2;
 6/7=2,8=2,9=2,10=2,19=2,28=1/1;
 99/9=1/99;
 ------------------
 Phi Psi fixed scan
 ------------------
 Symbolic Z-matrix:
 Charge =  0 Multiplicity = 1
 H                     9.6921    1.        0. 
 C                     9.6921    2.09      0. 
 H                     10.2058   2.4538   -0.8898 
 H                     10.2058   2.4538    0.8898 
 C                     8.2647    2.6408    0. 
 O                     7.3015    1.8774    0. 
 N                     8.1367    3.9696    0. 
 H                     8.959     4.5561    0. 
 C                     6.8388    4.6139    0. 
 H                     6.2845    4.3155   -0.8898 
 C                     6.0308    4.2208    1.2321 
 H                     6.5688    4.5213    2.1312 
 H                     5.0616    4.7189    1.2058 
 H                     5.8836    3.1409    1.2414 
 C                     6.9794    6.1294    0. 
 O                     8.0915    6.6527    0. 
 N                     5.846     6.8349    0. 
 H                     4.9551    6.3592    0. 
 C                     5.8461    8.2839    0. 
 H                     5.3323    8.6477   -0.8898 
 C                     5.1347    8.8329    1.2322 
 H                     5.6431    8.4846    2.1312 
 H                     5.1499    9.9224    1.2058 
 H                     4.1019    8.4846    1.2414 
 C                     7.266     8.8318    0. 
 O                     8.1781    8.2008   -0.5295 
 N                     7.4515    10.0114   0.5968 
 H                     6.67      10.4926   1.0185 
 C                     8.7559    10.639    0.6638 
 H                     9.4473    9.9853    1.1954 
 C                     9.3104    10.9029  -0.7321 
 H                     8.6334    11.5635  -1.2737 
 H                     10.2899   11.3742  -0.6514 
 H                     9.4048    9.9598   -1.2704 
 C                     8.6859    11.9714   1.396 
 O                     7.6168    12.3837   1.8403 
 N                     9.8314    12.6456   1.5211 
 H                     10.6854   12.2655   1.1388 
 C                     9.8966    13.9257   2.197 
 H                     8.9033    14.2008   2.5517 
 H                     10.5779   13.8551   3.0449 
 H                     10.2576   14.6853   1.5037 
 
 The following ModRedundant input section has been read:
 D   15   17   19   25 F                                                       
 D   17   19   25   27 F                                                       

 GradGradGradGradGradGradGradGradGradGradGradGradGradGradGradGradGradGrad
 Berny optimization.
 Initialization pass.
                           ----------------------------
                           !    Initial Parameters    !
                           ! (Angstroms and Degrees)  !
 --------------------------                            --------------------------
 ! Name  Definition              Value          Derivative Info.                !
 --------------------------------------------------------------------------------
 ! R1    R(1,2)                  1.09           calculate D2E/DX2 analytically  !
 ! R2    R(2,3)                  1.0899         calculate D2E/DX2 analytically  !
 ! R3    R(2,4)                  1.0899         calculate D2E/DX2 analytically  !
 ! R4    R(2,5)                  1.53           calculate D2E/DX2 analytically  !
 ! R5    R(5,6)                  1.229          calculate D2E/DX2 analytically  !
 ! R6    R(5,7)                  1.335          calculate D2E/DX2 analytically  !
 ! R7    R(7,8)                  1.01           calculate D2E/DX2 analytically  !
 ! R8    R(7,9)                  1.449          calculate D2E/DX2 analytically  !
 ! R9    R(9,10)                 1.09           calculate D2E/DX2 analytically  !
 ! R10   R(9,11)                 1.5249         calculate D2E/DX2 analytically  !
 ! R11   R(9,15)                 1.522          calculate D2E/DX2 analytically  !
 ! R12   R(11,12)                1.09           calculate D2E/DX2 analytically  !
 ! R13   R(11,13)                1.09           calculate D2E/DX2 analytically  !
 ! R14   R(11,14)                1.0899         calculate D2E/DX2 analytically  !
 ! R15   R(15,16)                1.2291         calculate D2E/DX2 analytically  !
 ! R16   R(15,17)                1.335          calculate D2E/DX2 analytically  !
 ! R17   R(16,26)                1.6384         calculate D2E/DX2 analytically  !
 ! R18   R(17,18)                1.0099         calculate D2E/DX2 analytically  !
 ! R19   R(17,19)                1.449          calculate D2E/DX2 analytically  !
 ! R20   R(19,20)                1.09           calculate D2E/DX2 analytically  !
 ! R21   R(19,21)                1.5251         calculate D2E/DX2 analytically  !
 ! R22   R(19,25)                1.5219         calculate D2E/DX2 analytically  !
 ! R23   R(21,22)                1.0899         calculate D2E/DX2 analytically  !
 ! R24   R(21,23)                1.0899         calculate D2E/DX2 analytically  !
 ! R25   R(21,24)                1.09           calculate D2E/DX2 analytically  !
 ! R26   R(25,26)                1.229          calculate D2E/DX2 analytically  !
 ! R27   R(25,27)                1.3349         calculate D2E/DX2 analytically  !
 ! R28   R(27,28)                1.01           calculate D2E/DX2 analytically  !
 ! R29   R(27,29)                1.4491         calculate D2E/DX2 analytically  !
 ! R30   R(29,30)                1.0899         calculate D2E/DX2 analytically  !
 ! R31   R(29,31)                1.525          calculate D2E/DX2 analytically  !
 ! R32   R(29,35)                1.5219         calculate D2E/DX2 analytically  !
 ! R33   R(31,32)                1.09           calculate D2E/DX2 analytically  !
 ! R34   R(31,33)                1.09           calculate D2E/DX2 analytically  !
 ! R35   R(31,34)                1.09           calculate D2E/DX2 analytically  !
 ! R36   R(35,36)                1.229          calculate D2E/DX2 analytically  !
 ! R37   R(35,37)                1.3351         calculate D2E/DX2 analytically  !
 ! R38   R(37,38)                1.0099         calculate D2E/DX2 analytically  !
 ! R39   R(37,39)                1.4491         calculate D2E/DX2 analytically  !
 ! R40   R(39,40)                1.09           calculate D2E/DX2 analytically  !
 ! R41   R(39,41)                1.09           calculate D2E/DX2 analytically  !
 ! R42   R(39,42)                1.0899         calculate D2E/DX2 analytically  !
 ! A1    A(1,2,3)              109.4982         calculate D2E/DX2 analytically  !
 ! A2    A(1,2,4)              109.4982         calculate D2E/DX2 analytically  !
 ! A3    A(1,2,5)              111.1004         calculate D2E/DX2 analytically  !
 ! A4    A(3,2,4)              109.4463         calculate D2E/DX2 analytically  !
 ! A5    A(3,2,5)              108.6355         calculate D2E/DX2 analytically  !
 ! A6    A(4,2,5)              108.6355         calculate D2E/DX2 analytically  !
 ! A7    A(2,5,6)              120.5004         calculate D2E/DX2 analytically  !
 ! A8    A(2,5,7)              116.6026         calculate D2E/DX2 analytically  !
 ! A9    A(6,5,7)              122.897          calculate D2E/DX2 analytically  !
 ! A10   A(5,7,8)              119.9959         calculate D2E/DX2 analytically  !
 ! A11   A(5,7,9)              121.9028         calculate D2E/DX2 analytically  !
 ! A12   A(8,7,9)              118.1013         calculate D2E/DX2 analytically  !
 ! A13   A(7,9,10)             109.4983         calculate D2E/DX2 analytically  !
 ! A14   A(7,9,11)             111.0986         calculate D2E/DX2 analytically  !
 ! A15   A(7,9,15)             111.1002         calculate D2E/DX2 analytically  !
 ! A16   A(10,9,11)            108.636          calculate D2E/DX2 analytically  !
 ! A17   A(10,9,15)            108.6373         calculate D2E/DX2 analytically  !
 ! A18   A(11,9,15)            107.7957         calculate D2E/DX2 analytically  !
 ! A19   A(9,11,12)            109.5034         calculate D2E/DX2 analytically  !
 ! A20   A(9,11,13)            109.5016         calculate D2E/DX2 analytically  !
 ! A21   A(9,11,14)            109.5033         calculate D2E/DX2 analytically  !
 ! A22   A(12,11,13)           109.4381         calculate D2E/DX2 analytically  !
 ! A23   A(12,11,14)           109.437          calculate D2E/DX2 analytically  !
 ! A24   A(13,11,14)           109.4437         calculate D2E/DX2 analytically  !
 ! A25   A(9,15,16)            120.4998         calculate D2E/DX2 analytically  !
 ! A26   A(9,15,17)            116.6003         calculate D2E/DX2 analytically  !
 ! A27   A(16,15,17)           122.8999         calculate D2E/DX2 analytically  !
 ! A28   A(15,16,26)           116.7513         calculate D2E/DX2 analytically  !
 ! A29   A(15,17,18)           119.9991         calculate D2E/DX2 analytically  !
 ! A30   A(15,17,19)           121.8968         calculate D2E/DX2 analytically  !
 ! A31   A(18,17,19)           118.1041         calculate D2E/DX2 analytically  !
 ! A32   A(17,19,20)           109.4954         calculate D2E/DX2 analytically  !
 ! A33   A(17,19,21)           111.0974         calculate D2E/DX2 analytically  !
 ! A34   A(17,19,25)           111.1042         calculate D2E/DX2 analytically  !
 ! A35   A(20,19,21)           108.6349         calculate D2E/DX2 analytically  !
 ! A36   A(20,19,25)           108.6399         calculate D2E/DX2 analytically  !
 ! A37   A(21,19,25)           107.7944         calculate D2E/DX2 analytically  !
 ! A38   A(19,21,22)           109.4996         calculate D2E/DX2 analytically  !
 ! A39   A(19,21,23)           109.4977         calculate D2E/DX2 analytically  !
 ! A40   A(19,21,24)           109.4988         calculate D2E/DX2 analytically  !
 ! A41   A(22,21,23)           109.4452         calculate D2E/DX2 analytically  !
 ! A42   A(22,21,24)           109.4447         calculate D2E/DX2 analytically  !
 ! A43   A(23,21,24)           109.4412         calculate D2E/DX2 analytically  !
 ! A44   A(19,25,26)           120.5009         calculate D2E/DX2 analytically  !
 ! A45   A(19,25,27)           116.5996         calculate D2E/DX2 analytically  !
 ! A46   A(26,25,27)           122.8994         calculate D2E/DX2 analytically  !
 ! A47   A(16,26,25)           107.8576         calculate D2E/DX2 analytically  !
 ! A48   A(25,27,28)           120.0087         calculate D2E/DX2 analytically  !
 ! A49   A(25,27,29)           121.9017         calculate D2E/DX2 analytically  !
 ! A50   A(28,27,29)           118.0896         calculate D2E/DX2 analytically  !
 ! A51   A(27,29,30)           109.5001         calculate D2E/DX2 analytically  !
 ! A52   A(27,29,31)           111.0957         calculate D2E/DX2 analytically  !
 ! A53   A(27,29,35)           111.1006         calculate D2E/DX2 analytically  !
 ! A54   A(30,29,31)           108.6375         calculate D2E/DX2 analytically  !
 ! A55   A(30,29,35)           108.6385         calculate D2E/DX2 analytically  !
 ! A56   A(31,29,35)           107.7938         calculate D2E/DX2 analytically  !
 ! A57   A(29,31,32)           109.5034         calculate D2E/DX2 analytically  !
 ! A58   A(29,31,33)           109.4999         calculate D2E/DX2 analytically  !
 ! A59   A(29,31,34)           109.4999         calculate D2E/DX2 analytically  !
 ! A60   A(32,31,33)           109.4441         calculate D2E/DX2 analytically  !
 ! A61   A(32,31,34)           109.4379         calculate D2E/DX2 analytically  !
 ! A62   A(33,31,34)           109.4421         calculate D2E/DX2 analytically  !
 ! A63   A(29,35,36)           120.5068         calculate D2E/DX2 analytically  !
 ! A64   A(29,35,37)           116.5977         calculate D2E/DX2 analytically  !
 ! A65   A(36,35,37)           122.8955         calculate D2E/DX2 analytically  !
 ! A66   A(35,37,38)           120.0009         calculate D2E/DX2 analytically  !
 ! A67   A(35,37,39)           121.8996         calculate D2E/DX2 analytically  !
 ! A68   A(38,37,39)           118.0995         calculate D2E/DX2 analytically  !
 ! A69   A(37,39,40)           109.4957         calculate D2E/DX2 analytically  !
 ! A70   A(37,39,41)           109.4964         calculate D2E/DX2 analytically  !
 ! A71   A(37,39,42)           109.5035         calculate D2E/DX2 analytically  !
 ! A72   A(40,39,41)           109.439          calculate D2E/DX2 analytically  !
 ! A73   A(40,39,42)           109.4461         calculate D2E/DX2 analytically  !
 ! A74   A(41,39,42)           109.4465         calculate D2E/DX2 analytically  !
 ! D1    D(1,2,5,6)              0.0            calculate D2E/DX2 analytically  !
 ! D2    D(1,2,5,7)            180.0            calculate D2E/DX2 analytically  !
 ! D3    D(3,2,5,6)            120.51           calculate D2E/DX2 analytically  !
 ! D4    D(3,2,5,7)            -59.49           calculate D2E/DX2 analytically  !
 ! D5    D(4,2,5,6)           -120.51           calculate D2E/DX2 analytically  !
 ! D6    D(4,2,5,7)             59.49           calculate D2E/DX2 analytically  !
 ! D7    D(2,5,7,8)              0.0            calculate D2E/DX2 analytically  !
 ! D8    D(2,5,7,9)            180.0            calculate D2E/DX2 analytically  !
 ! D9    D(6,5,7,8)            180.0            calculate D2E/DX2 analytically  !
 ! D10   D(6,5,7,9)              0.0            calculate D2E/DX2 analytically  !
 ! D11   D(5,7,9,10)           -59.9991         calculate D2E/DX2 analytically  !
 ! D12   D(5,7,9,11)            59.9992         calculate D2E/DX2 analytically  !
 ! D13   D(5,7,9,15)           180.0            calculate D2E/DX2 analytically  !
 ! D14   D(8,7,9,10)           120.0009         calculate D2E/DX2 analytically  !
 ! D15   D(8,7,9,11)          -120.0008         calculate D2E/DX2 analytically  !
 ! D16   D(8,7,9,15)             0.0            calculate D2E/DX2 analytically  !
 ! D17   D(7,9,11,12)           60.0014         calculate D2E/DX2 analytically  !
 ! D18   D(7,9,11,13)          179.9992         calculate D2E/DX2 analytically  !
 ! D19   D(7,9,11,14)          -59.9962         calculate D2E/DX2 analytically  !
 ! D20   D(10,9,11,12)        -179.4894         calculate D2E/DX2 analytically  !
 ! D21   D(10,9,11,13)         -59.4916         calculate D2E/DX2 analytically  !
 ! D22   D(10,9,11,14)          60.5131         calculate D2E/DX2 analytically  !
 ! D23   D(15,9,11,12)         -61.9437         calculate D2E/DX2 analytically  !
 ! D24   D(15,9,11,13)          58.0541         calculate D2E/DX2 analytically  !
 ! D25   D(15,9,11,14)         178.0588         calculate D2E/DX2 analytically  !
 ! D26   D(7,9,15,16)            0.0            calculate D2E/DX2 analytically  !
 ! D27   D(7,9,15,17)          180.0            calculate D2E/DX2 analytically  !
 ! D28   D(10,9,15,16)        -120.5111         calculate D2E/DX2 analytically  !
 ! D29   D(10,9,15,17)          59.4889         calculate D2E/DX2 analytically  !
 ! D30   D(11,9,15,16)         121.9441         calculate D2E/DX2 analytically  !
 ! D31   D(11,9,15,17)         -58.0559         calculate D2E/DX2 analytically  !
 ! D32   D(9,15,16,26)         158.7825         calculate D2E/DX2 analytically  !
 ! D33   D(17,15,16,26)        -21.2175         calculate D2E/DX2 analytically  !
 ! D34   D(9,15,17,18)           0.0            calculate D2E/DX2 analytically  !
 ! D35   D(9,15,17,19)         180.0            calculate D2E/DX2 analytically  !
 ! D36   D(16,15,17,18)        180.0            calculate D2E/DX2 analytically  !
 ! D37   D(16,15,17,19)          0.0            calculate D2E/DX2 analytically  !
 ! D38   D(15,16,26,25)         45.9509         calculate D2E/DX2 analytically  !
 ! D39   D(15,17,19,20)        120.0048         calculate D2E/DX2 analytically  !
 ! D40   D(15,17,19,21)       -120.0009         calculate D2E/DX2 analytically  !
 ! D41   D(15,17,19,25)          0.0            frozen, calculate D2E/DX2 analyt!
 ! D42   D(18,17,19,20)        -59.9952         calculate D2E/DX2 analytically  !
 ! D43   D(18,17,19,21)         59.9991         calculate D2E/DX2 analytically  !
 ! D44   D(18,17,19,25)        180.0            calculate D2E/DX2 analytically  !
 ! D45   D(17,19,21,22)         60.0039         calculate D2E/DX2 analytically  !
 ! D46   D(17,19,21,23)       -179.9943         calculate D2E/DX2 analytically  !
 ! D47   D(17,19,21,24)        -59.998          calculate D2E/DX2 analytically  !
 ! D48   D(20,19,21,22)       -179.4919         calculate D2E/DX2 analytically  !
 ! D49   D(20,19,21,23)        -59.4901         calculate D2E/DX2 analytically  !
 ! D50   D(20,19,21,24)         60.5062         calculate D2E/DX2 analytically  !
 ! D51   D(25,19,21,22)        -61.9445         calculate D2E/DX2 analytically  !
 ! D52   D(25,19,21,23)         58.0573         calculate D2E/DX2 analytically  !
 ! D53   D(25,19,21,24)        178.0536         calculate D2E/DX2 analytically  !
 ! D54   D(17,19,25,26)         30.0019         calculate D2E/DX2 analytically  !
 ! D55   D(17,19,25,27)       -150.001          frozen, calculate D2E/DX2 analyt!
 ! D56   D(20,19,25,26)        -90.5097         calculate D2E/DX2 analytically  !
 ! D57   D(20,19,25,27)         89.4873         calculate D2E/DX2 analytically  !
 ! D58   D(21,19,25,26)        151.9461         calculate D2E/DX2 analytically  !
 ! D59   D(21,19,25,27)        -28.0569         calculate D2E/DX2 analytically  !
 ! D60   D(19,25,26,16)        -48.3427         calculate D2E/DX2 analytically  !
 ! D61   D(27,25,26,16)        131.6604         calculate D2E/DX2 analytically  !
 ! D62   D(19,25,27,28)          0.0052         calculate D2E/DX2 analytically  !
 ! D63   D(19,25,27,29)        179.9973         calculate D2E/DX2 analytically  !
 ! D64   D(26,25,27,28)       -179.9978         calculate D2E/DX2 analytically  !
 ! D65   D(26,25,27,29)         -0.0057         calculate D2E/DX2 analytically  !
 ! D66   D(25,27,29,30)        -59.9958         calculate D2E/DX2 analytically  !
 ! D67   D(25,27,29,31)         60.0037         calculate D2E/DX2 analytically  !
 ! D68   D(25,27,29,35)       -179.9996         calculate D2E/DX2 analytically  !
 ! D69   D(28,27,29,30)        119.9965         calculate D2E/DX2 analytically  !
 ! D70   D(28,27,29,31)       -120.0041         calculate D2E/DX2 analytically  !
 ! D71   D(28,27,29,35)         -0.0073         calculate D2E/DX2 analytically  !
 ! D72   D(27,29,31,32)         59.9979         calculate D2E/DX2 analytically  !
 ! D73   D(27,29,31,33)       -179.998          calculate D2E/DX2 analytically  !
 ! D74   D(27,29,31,34)        -59.9986         calculate D2E/DX2 analytically  !
 ! D75   D(30,29,31,32)       -179.4914         calculate D2E/DX2 analytically  !
 ! D76   D(30,29,31,33)        -59.4874         calculate D2E/DX2 analytically  !
 ! D77   D(30,29,31,34)         60.5121         calculate D2E/DX2 analytically  !
 ! D78   D(35,29,31,32)        -61.9447         calculate D2E/DX2 analytically  !
 ! D79   D(35,29,31,33)         58.0594         calculate D2E/DX2 analytically  !
 ! D80   D(35,29,31,34)        178.0588         calculate D2E/DX2 analytically  !
 ! D81   D(27,29,35,36)          0.0039         calculate D2E/DX2 analytically  !
 ! D82   D(27,29,35,37)       -179.9993         calculate D2E/DX2 analytically  !
 ! D83   D(30,29,35,36)       -120.5105         calculate D2E/DX2 analytically  !
 ! D84   D(30,29,35,37)         59.4864         calculate D2E/DX2 analytically  !
 ! D85   D(31,29,35,36)        121.9435         calculate D2E/DX2 analytically  !
 ! D86   D(31,29,35,37)        -58.0597         calculate D2E/DX2 analytically  !
 ! D87   D(29,35,37,38)          0.0062         calculate D2E/DX2 analytically  !
 ! D88   D(29,35,37,39)        179.9986         calculate D2E/DX2 analytically  !
 ! D89   D(36,35,37,38)       -179.9971         calculate D2E/DX2 analytically  !
 ! D90   D(36,35,37,39)         -0.0047         calculate D2E/DX2 analytically  !
 ! D91   D(35,37,39,40)          0.0069         calculate D2E/DX2 analytically  !
 ! D92   D(35,37,39,41)        119.9979         calculate D2E/DX2 analytically  !
 ! D93   D(35,37,39,42)       -119.9972         calculate D2E/DX2 analytically  !
 ! D94   D(38,37,39,40)        179.9994         calculate D2E/DX2 analytically  !
 ! D95   D(38,37,39,41)        -60.0096         calculate D2E/DX2 analytically  !
 ! D96   D(38,37,39,42)         59.9953         calculate D2E/DX2 analytically  !
 --------------------------------------------------------------------------------
 Trust Radius=3.00D-01 FncErr=1.00D-07 GrdErr=1.00D-07
 Number of steps in this run= 252 maximum allowed number of steps= 252.
 GradGradGradGradGradGradGradGradGradGradGradGradGradGradGradGradGradGrad

                          Input orientation:                          
 ---------------------------------------------------------------------
 Center     Atomic      Atomic             Coordinates (Angstroms)
 Number     Number       Type             X           Y           Z
 ---------------------------------------------------------------------
      1          1           0        9.692100    1.000000    0.000000
      2          6           0        9.692100    2.090000    0.000000
      3          1           0       10.205800    2.453800   -0.889800
      4          1           0       10.205800    2.453800    0.889800
      5          6           0        8.264700    2.640800    0.000000
      6          8           0        7.301500    1.877400    0.000000
      7          7           0        8.136700    3.969600    0.000000
      8          1           0        8.959000    4.556100    0.000000
      9          6           0        6.838800    4.613900    0.000000
     10          1           0        6.284500    4.315500   -0.889800
     11          6           0        6.030800    4.220800    1.232100
     12          1           0        6.568800    4.521300    2.131200
     13          1           0        5.061600    4.718900    1.205800
     14          1           0        5.883600    3.140900    1.241400
     15          6           0        6.979400    6.129400    0.000000
     16          8           0        8.091500    6.652700    0.000000
     17          7           0        5.846000    6.834900    0.000000
     18          1           0        4.955100    6.359200    0.000000
     19          6           0        5.846100    8.283900    0.000000
     20          1           0        5.332300    8.647700   -0.889800
     21          6           0        5.134700    8.832900    1.232200
     22          1           0        5.643100    8.484600    2.131200
     23          1           0        5.149900    9.922400    1.205800
     24          1           0        4.101900    8.484600    1.241400
     25          6           0        7.266000    8.831800    0.000000
     26          8           0        8.178100    8.200800   -0.529500
     27          7           0        7.451500   10.011400    0.596800
     28          1           0        6.670000   10.492600    1.018500
     29          6           0        8.755900   10.639000    0.663800
     30          1           0        9.447300    9.985300    1.195400
     31          6           0        9.310400   10.902900   -0.732100
     32          1           0        8.633400   11.563500   -1.273700
     33          1           0       10.289900   11.374200   -0.651400
     34          1           0        9.404800    9.959800   -1.270400
     35          6           0        8.685900   11.971400    1.396000
     36          8           0        7.616800   12.383700    1.840300
     37          7           0        9.831400   12.645600    1.521100
     38          1           0       10.685400   12.265500    1.138800
     39          6           0        9.896600   13.925700    2.197000
     40          1           0        8.903300   14.200800    2.551700
     41          1           0       10.577900   13.855100    3.044900
     42          1           0       10.257600   14.685300    1.503700
 ---------------------------------------------------------------------
                    Distance matrix (angstroms):
                    1          2          3          4          5
     1  H    0.000000
     2  C    1.090000   0.000000
     3  H    1.780215   1.089946   0.000000
     4  H    1.780215   1.089946   1.779600   0.000000
     5  C    2.174786   1.529984   2.143498   2.143498   0.000000
     6  O    2.546527   2.400035   3.091753   3.091753   1.229038
     7  N    3.352282   2.439706   2.714879   2.714879   1.334951
     8  H    3.630879   2.572758   2.601138   2.601138   2.037260
     9  C    4.604519   3.809382   4.098105   4.098105   2.434402
    10  H    4.836943   4.166093   4.340797   4.691428   2.741816
    11  C    5.029587   4.411745   5.005534   4.546436   3.000796
    12  H    5.166872   4.495357   5.160307   4.363874   3.309739
    13  H    6.060173   5.459542   5.998751   5.629683   4.004036
    14  H    4.541938   4.141272   4.867806   4.390574   2.731449
    15  C    5.802541   4.865747   4.971060   4.971060   3.717839
    16  O    5.874942   4.835303   4.784639   4.784639   4.015637
    17  N    6.988458   6.107910   6.244489   6.244489   4.841548
    18  H    7.152635   6.376930   6.604070   6.604070   4.977946
    19  C    8.236924   7.290824   7.334084   7.334084   6.139561
    20  H    8.847989   7.924836   7.881332   8.079751   6.743409
    21  C    9.145629   8.231337   8.420918   8.156360   7.046795
    22  H    8.772437   7.863035   8.143416   7.663541   6.750170
    23  H   10.084382   9.134113   9.259247   9.024520   8.011094
    24  H    9.423940   8.583841   8.841389   8.587885   7.281482
    25  C    8.198967   7.165042   7.079057   7.079057   6.271035
    26  O    7.377268   6.317788   6.104866   6.257315   5.585828
    27  N    9.304934   8.253789   8.180065   8.049182   7.439302
    28  H   10.013984   8.987442   8.986979   8.782981   8.076582
    29  C    9.707081   8.625688   8.456559   8.315695   8.040716
    30  H    9.067774   7.989034   7.851552   7.575764   7.534534
    31  C    9.937258   8.851490   8.497876   8.649832   8.360129
    32  H   10.692553   9.617191   9.252376   9.494199   9.020689
    33  H   10.411806   9.326203   8.923981   9.052950   8.988773
    34  H    9.053976   7.976855   7.558207   7.851630   7.515418
    35  C   11.105533  10.030121   9.905538   9.651479   9.443851
    36  O   11.716749  10.660855  10.618817  10.305789   9.936326
    37  N   11.745346  10.665545  10.479762  10.218195  10.240328
    38  H   11.366398  10.287094  10.030687   9.826570   9.989570
    39  C   13.112679  12.039619  11.883957  11.550276  11.612014
    40  H   13.468278  12.401809  12.309851  11.935260  11.855487
    41  H   13.240455  12.184976  12.066895  11.609158  11.848326
    42  H   13.779272  12.697342  12.463592  12.247006  12.300518
                    6          7          8          9         10
     6  O    0.000000
     7  N    2.252745   0.000000
     8  H    3.150038   1.010029   0.000000
     9  C    2.775342   1.449023   2.120988   0.000000
    10  H    2.787537   2.083755   2.828884   1.089970   0.000000
    11  C    2.936711   2.452751   3.194503   1.524947   2.139110
    12  H    3.474057   2.702720   3.202543   2.150230   3.041319
    13  H    3.813821   3.386982   4.082914   2.150214   2.459625
    14  H    2.268909   2.702643   3.605822   2.150165   2.466256
    15  C    4.264183   2.450322   2.528654   1.522008   2.136554
    16  O    4.840206   2.683481   2.268984   2.392898   3.085368
    17  N    5.166748   3.668413   3.857940   2.432795   2.707656
    18  H    5.058866   3.979041   4.391171   2.567956   2.595334
    19  C    6.569736   4.884673   4.856608   3.801888   4.090494
    20  H    7.106789   5.526393   5.539484   4.396911   4.435611
    21  C    7.388662   5.846538   5.868101   4.714047   5.121702
    22  H    7.137744   5.580796   5.565098   4.577557   5.188374
    23  H    8.414592   6.768364   6.690319   5.699694   6.092305
    24  H    7.445375   6.181093   6.369113   4.900410   5.165961
    25  C    6.954491   4.939545   4.598680   4.239479   4.706597
    26  O    6.405793   4.264404   3.764839   3.865223   4.337176
    27  N    8.157244   6.109748   5.691136   5.464849   6.001262
    28  H    8.698150   6.762993   6.443516   5.968664   6.476634
    29  C    8.906264   6.730894   6.122381   6.357494   6.964779
    30  H    8.471805   6.271786   5.580648   6.089761   6.818944
    31  C    9.275306   7.069950   6.398541   6.796786   7.250847
    32  H    9.859858   7.715980   7.129655   7.289708   7.628775
    33  H    9.977177   7.738779   6.977256   7.618141   8.119440
    34  H    8.447661   6.253358   5.568898   6.064398   6.460592
    35  C   10.283687   8.141206   7.550502   7.713197   8.342926
    36  O   10.670916   8.628678   8.152271   8.022579   8.621155
    37  N   11.165495   8.969879   8.277369   8.705033   9.369285
    38  H   10.984547   8.752982   7.981990   8.639455   9.310512
    39  C   12.518901  10.346400   9.669297  10.044231  10.720613
    40  H   12.686336  10.572431   9.976699  10.133212  10.789865
    41  H   12.785598  10.627981   9.917845  10.423630  11.176722
    42  H   13.230342  11.026584  10.322217  10.741620  11.359891
                   11         12         13         14         15
    11  C    0.000000
    12  H    1.090011   0.000000
    13  H    1.090020   1.779624   0.000000
    14  H    1.089926   1.779536   1.779617   0.000000
    15  C    2.461842   2.701220   2.668599   3.416575   0.000000
    16  O    3.417410   3.376906   3.791283   4.329969   1.229068
    17  N    2.895814   3.227568   2.558651   3.897194   1.335038
    18  H    2.692203   3.244059   2.038598   3.572204   2.037302
    19  C    4.249820   4.384229   3.844297   5.290834   2.434387
    20  H    4.958609   5.261421   4.460974   5.930497   3.137916
    21  C    4.698347   4.631926   4.114734   5.741063   3.497163
    22  H    4.374778   4.069971   3.921097   5.422611   3.445965
    23  H    5.769308   5.660523   5.204249   6.821167   4.380396
    24  H    4.679822   4.752377   3.886231   5.632902   3.920210
    25  C    4.930021   4.858859   4.819676   5.986522   2.717555
    26  O    4.853301   4.817457   4.984723   5.831244   2.451112
    27  N    5.996086   5.768426   5.838926   7.076552   3.955878
    28  H    6.307906   6.074929   5.996469   7.397000   4.491167
    29  C    6.995886   6.660550   6.999229   8.050170   4.892144
    30  H    6.700991   6.246341   6.853426   7.716728   4.731541
    31  C    7.698332   7.512634   7.749169   8.711275   5.362447
    32  H    8.183386   8.090025   8.108898   9.210175   5.821295
    33  H    8.535727   8.279595   8.664718   9.528137   6.236318
    34  H    7.112138   7.013634   7.243065   8.074985   4.708338
    35  C    8.194402   7.779886   8.109900   9.265771   6.244191
    36  O    8.337760   7.937270   8.104369   9.422952   6.550515
    37  N    9.246910   8.776163   9.256510  10.295760   7.273824
    38  H    9.294687   8.826318   9.411843  10.311457   7.258307
    39  C   10.490974   9.976037  10.446285  11.546829   8.609248
    40  H   10.468668   9.965913  10.318747  11.539361   8.681017
    41  H   10.806577  10.199390  10.829682  11.835673   9.050252
    42  H   11.289170  10.830877  11.243500  12.348030   9.284995
                   16         17         18         19         20
    16  O    0.000000
    17  N    2.252880   0.000000
    18  H    3.150103   1.009947   0.000000
    19  C    2.775362   1.449000   2.120932   0.000000
    20  H    3.519226   2.083717   2.484201   1.089993   0.000000
    21  C    3.874823   2.452808   2.769434   1.525060   2.139212
    22  H    3.727269   2.702719   3.087504   2.150233   3.041322
    23  H    4.560472   3.386911   3.766735   2.150193   2.459608
    24  H    4.562219   2.702678   2.605062   2.150253   2.466272
    25  C    2.330220   2.450308   3.384377   1.521943   2.136547
    26  O    1.638439   2.754041   3.749612   2.392802   2.903121
    27  N    3.470826   3.608871   4.463939   2.432640   2.925862
    28  H    4.219341   3.885240   4.589468   2.567978   2.972323
    29  C    4.095442   4.835217   5.762239   3.801850   4.254408
    30  H    3.791226   4.931872   5.895544   4.158411   4.803172
    31  C    4.481728   5.393205   6.336388   4.404146   4.575596
    32  H    5.102149   5.634853   6.498995   4.488555   4.421146
    33  H    5.248795   6.385751   7.350826   5.451755   5.662900
    34  H    3.778304   4.903465   5.863281   4.133631   4.295546
    35  C    5.530886   6.033032   6.882185   4.859109   5.245807
    36  O    6.037914   6.108324   6.838564   4.830160   5.160434
    37  N    6.423072   7.208425   8.100054   6.100884   6.483637
    38  H    6.287186   7.362613   8.307682   6.369366   6.771955
    39  C    7.809080   8.456572   9.300385   7.284454   7.630102
    40  H    8.008995   8.373454   9.142765   7.132135   7.445326
    41  H    8.205374   8.996972   9.852706   7.918309   8.373482
    42  H    8.454334   9.129738   9.985067   7.918356   8.151076
                   21         22         23         24         25
    21  C    0.000000
    22  H    1.089947   0.000000
    23  H    1.089926   1.779573   0.000000
    24  H    1.089988   1.779618   1.779562   0.000000
    25  C    2.461861   2.701179   2.668565   3.416599   0.000000
    26  O    3.572873   3.685932   3.891679   4.453317   1.229007
    27  N    2.675847   2.820605   2.382470   3.737171   1.334929
    28  H    2.270995   2.514893   1.634293   3.267550   2.037355
    29  C    4.086339   4.060077   3.716250   5.160889   2.434421
    30  H    4.464068   4.195207   4.297873   5.552253   2.741827
    31  C    5.057652   5.243639   4.693250   6.072178   3.000833
    32  H    5.096726   5.478582   4.579946   6.028254   3.309725
    33  H    6.048326   6.138844   5.654778   7.086877   4.004009
    34  H    5.076088   5.281807   4.923123   6.050298   2.731440
    35  C    4.742155   4.685822   4.091195   5.761487   3.717798
    36  O    4.374790   4.379851   3.542059   5.283577   4.015689
    37  N    6.056330   5.935318   5.425097   7.086559   4.841497
    38  H    6.527001   6.380035   6.011353   7.592641   4.977897
    39  C    7.038689   6.906675   6.288088   8.006078   6.139600
    40  H    6.690125   6.593987   5.848433   7.579266   6.165881
    41  H    7.624749   7.350467   6.950655   8.604270   6.743415
    42  H    7.782570   7.754744   6.990176   8.741288   6.743460
                   26         27         28         29         30
    26  O    0.000000
    27  N    2.252725   0.000000
    28  H    3.150082   1.010013   0.000000
    29  C    2.775362   1.449079   2.120902   0.000000
    30  H    2.787578   2.083800   2.828788   1.089934   0.000000
    31  C    2.936749   2.452806   3.194473   1.525008   2.139156
    32  H    3.474030   2.702716   3.202491   2.150259   3.041316
    33  H    3.813794   3.386996   4.082825   2.150215   2.459611
    34  H    2.268878   2.702680   3.605838   2.150236   2.466298
    35  C    4.264134   2.450319   2.528479   1.521942   2.136484
    36  O    4.840213   2.683547   2.268930   2.392839   3.085279
    37  N    5.166683   3.668414   3.857780   2.432716   2.707547
    38  H    5.058811   3.979050   4.391023   2.567897   2.595266
    39  C    6.569743   4.884762   4.856540   3.801881   4.090455
    40  H    6.783783   4.845661   4.592285   4.033895   4.461606
    41  H    7.106791   5.526446   5.539349   4.396888   4.435567
    42  H    7.106825   5.526482   5.539407   4.396940   4.779292
                   31         32         33         34         35
    31  C    0.000000
    32  H    1.089978   0.000000
    33  H    1.089980   1.779630   0.000000
    34  H    1.090007   1.779585   1.779632   0.000000
    35  C    2.461809   2.701192   2.668578   3.416583   0.000000
    36  O    3.417352   3.376862   3.791190   4.329976   1.228971
    37  N    2.895748   3.227546   2.558600   3.897176   1.335053
    38  H    2.692131   3.244020   2.038542   3.572175   2.037314
    39  C    4.249774   4.384224   3.844245   5.290850   2.434478
    40  H    4.671747   4.654233   4.491345   5.731146   2.520542
    41  H    4.958606   5.261446   4.460991   5.930543   3.137971
    42  H    4.494723   4.483036   3.950808   5.545561   3.138008
                   36         37         38         39         40
    36  O    0.000000
    37  N    2.252761   0.000000
    38  H    3.149981   1.009923   0.000000
    39  C    2.775335   1.449051   2.120909   0.000000
    40  H    2.337311   2.083783   2.986227   1.090017   0.000000
    41  H    3.519118   2.083775   2.484271   1.089995   1.779618
    42  H    3.519160   2.083825   2.484270   1.089944   1.779655
                   41         42
    41  H    0.000000
    42  H    1.779641   0.000000
 Stoichiometry    C12H22N4O4
 Framework group  C1[X(C12H22N4O4)]
 Deg. of freedom   120
 Full point group                 C1      NOp   1
 Largest Abelian subgroup         C1      NOp   1
 Largest concise Abelian subgroup C1      NOp   1
                         Standard orientation:                         
 ---------------------------------------------------------------------
 Center     Atomic      Atomic             Coordinates (Angstroms)
 Number     Number       Type             X           Y           Z
 ---------------------------------------------------------------------
      1          1           0        6.520964   -2.736361   -0.557257
      2          6           0        5.448422   -2.608537   -0.410922
      3          1           0        5.136258   -3.148725    0.482797
      4          1           0        4.913976   -2.999701   -1.276567
      5          6           0        5.087978   -1.131442   -0.240268
      6          8           0        5.961650   -0.267819   -0.277499
      7          7           0        3.796739   -0.848950   -0.053202
      8          1           0        3.115054   -1.593889   -0.030174
      9          6           0        3.327824    0.510961    0.121231
     10          1           0        3.803081    0.949971    0.998406
     11          6           0        3.663491    1.367605   -1.094890
     12          1           0        3.187079    0.945750   -1.979873
     13          1           0        3.299915    2.382900   -0.936353
     14          1           0        4.743654    1.387408   -1.239090
     15          6           0        1.818715    0.549551    0.315165
     16          8           0        1.162361   -0.489575    0.310073
     17          7           0        1.268658    1.753856    0.486669
     18          1           0        1.850043    2.579672    0.483164
     19          6           0       -0.157147    1.923681    0.681194
     20          1           0       -0.338635    2.400269    1.644527
     21          6           0       -0.760788    2.795221   -0.415092
     22          1           0       -0.595015    2.326564   -1.385073
     23          1           0       -1.831474    2.905735   -0.243754
     24          1           0       -0.287866    3.777168   -0.400974
     25          6           0       -0.876852    0.582852    0.658551
     26          8           0       -0.305820   -0.438066    1.035521
     27          7           0       -2.135695    0.587595    0.214334
     28          1           0       -2.562471    1.452682   -0.085021
     29          6           0       -2.927504   -0.623982    0.143978
     30          1           0       -2.438605   -1.340309   -0.516181
     31          6           0       -3.083341   -1.258640    1.521865
     32          1           0       -3.579612   -0.556591    2.191861
     33          1           0       -3.681744   -2.165890    1.438994
     34          1           0       -2.100115   -1.507729    1.921035
     35          6           0       -4.321117   -0.337148   -0.396276
     36          8           0       -4.646343    0.806350   -0.707738
     37          7           0       -5.145828   -1.381153   -0.507049
     38          1           0       -4.832675   -2.302828   -0.237985
     39          6           0       -6.498142   -1.238956   -1.007824
     40          1           0       -6.686813   -0.194059   -1.254260
     41          1           0       -6.621227   -1.850422   -1.901719
     42          1           0       -7.204890   -1.565167   -0.244888
 ---------------------------------------------------------------------
 Rotational constants (GHZ):      0.7692433      0.1239113      0.1134192
 Standard basis: 6-31G(d) (6D, 7F)
 There are   344 symmetry adapted basis functions of A   symmetry.
 Integral buffers will be    131072 words long.
 Raffenetti 1 integral format.
 Two-electron integral symmetry is turned on.
   344 basis functions,   648 primitive gaussians,   344 cartesian basis functions
    77 alpha electrons       77 beta electrons
       nuclear repulsion energy      1642.6673965200 Hartrees.
 NAtoms=   42 NActive=   42 NUniq=   42 SFac= 7.50D-01 NAtFMM=   80 NAOKFM=F Big=F
 One-electron integrals computed using PRISM.
 NBasis=   344 RedAO= T  NBF=   344
 NBsUse=   344 1.00D-06 NBFU=   344
 Harris functional with IExCor=  205 diagonalized for initial guess.
 ExpMin= 1.61D-01 ExpMax= 5.48D+03 ExpMxC= 8.25D+02 IAcc=1 IRadAn=         1 AccDes= 0.00D+00
 HarFok:  IExCor=  205 AccDes= 0.00D+00 IRadAn=         1 IDoV= 1
 ScaDFX=  1.000000  1.000000  1.000000  1.000000
 FoFCou: FMM=F IPFlag=           0 FMFlag=      100000 FMFlg1=           0
         NFxFlg=           0 DoJE=T BraDBF=F KetDBF=T FulRan=T
         Omega=  0.000000  0.000000  1.000000  0.000000  0.000000 ICntrl=     500 IOpCl=  0
         NMat0=    1 NMatS0=    1 NMatT0=    0 NMatD0=    1 NMtDS0=    0 NMtDT0=    0
         I1Cent=           4 NGrid=           0.
 Petite list used in FoFCou.
 Initial guess orbital symmetries:
       Occupied  (A) (A) (A) (A) (A) (A) (A) (A) (A) (A) (A) (A)
                 (A) (A) (A) (A) (A) (A) (A) (A) (A) (A) (A) (A)
                 (A) (A) (A) (A) (A) (A) (A) (A) (A) (A) (A) (A)
                 (A) (A) (A) (A) (A) (A) (A) (A) (A) (A) (A) (A)
                 (A) (A) (A) (A) (A) (A) (A) (A) (A) (A) (A) (A)
                 (A) (A) (A) (A) (A) (A) (A) (A) (A) (A) (A) (A)
                 (A) (A) (A) (A) (A)
       Virtual   (A) (A) (A) (A) (A) (A) (A) (A) (A) (A) (A) (A)
                 (A) (A) (A) (A) (A) (A) (A) (A) (A) (A) (A) (A)
                 (A) (A) (A) (A) (A) (A) (A) (A) (A) (A) (A) (A)
                 (A) (A) (A) (A) (A) (A) (A) (A) (A) (A) (A) (A)
                 (A) (A) (A) (A) (A) (A) (A) (A) (A) (A) (A) (A)
                 (A) (A) (A) (A) (A) (A) (A) (A) (A) (A) (A) (A)
                 (A) (A) (A) (A) (A) (A) (A) (A) (A) (A) (A) (A)
                 (A) (A) (A) (A) (A) (A) (A) (A) (A) (A) (A) (A)
                 (A) (A) (A) (A) (A) (A) (A) (A) (A) (A) (A) (A)
                 (A) (A) (A) (A) (A) (A) (A) (A) (A) (A) (A) (A)
                 (A) (A) (A) (A) (A) (A) (A) (A) (A) (A) (A) (A)
                 (A) (A) (A) (A) (A) (A) (A) (A) (A) (A) (A) (A)
                 (A) (A) (A) (A) (A) (A) (A) (A) (A) (A) (A) (A)
                 (A) (A) (A) (A) (A) (A) (A) (A) (A) (A) (A) (A)
                 (A) (A) (A) (A) (A) (A) (A) (A) (A) (A) (A) (A)
                 (A) (A) (A) (A) (A) (A) (A) (A) (A) (A) (A) (A)
                 (A) (A) (A) (A) (A) (A) (A) (A) (A) (A) (A) (A)
                 (A) (A) (A) (A) (A) (A) (A) (A) (A) (A) (A) (A)
                 (A) (A) (A) (A) (A) (A) (A) (A) (A) (A) (A) (A)
                 (A) (A) (A) (A) (A) (A) (A) (A) (A) (A) (A) (A)
                 (A) (A) (A) (A) (A) (A) (A) (A) (A) (A) (A) (A)
                 (A) (A) (A) (A) (A) (A) (A) (A) (A) (A) (A) (A)
                 (A) (A) (A)
 The electronic state of the initial guess is 1-A.
 Requested convergence on RMS density matrix=1.00D-08 within 128 cycles.
 Requested convergence on MAX density matrix=1.00D-06.
 Requested convergence on             energy=1.00D-06.
 No special actions if energy rises.
 Integral accuracy reduced to 1.0D-05 until final iterations.
 Initial convergence to 1.0D-05 achieved.  Increase integral accuracy.
 SCF Done:  E(RHF) =  -984.337200668     A.U. after   17 cycles
             Convg  =    0.8515D-08             -V/T =  2.0009
 Range of M.O.s used for correlation:     1   344
 NBasis=   344 NAE=    77 NBE=    77 NFC=     0 NFV=     0
 NROrb=    344 NOA=    77 NOB=    77 NVA=   267 NVB=   267
 Symmetrizing basis deriv contribution to polar:
 IMax=3 JMax=2 DiffMx= 0.00D+00
 G2DrvN: will do    43 centers at a time, making    1 passes doing MaxLOS=2.
 Calling FoFCou, ICntrl=  3107 FMM=F I1Cent=   0 AccDes= 0.00D+00.
 FoFDir/FoFCou used for L=0 through L=2.
 End of G2Drv Frequency-dependent properties file   721 does not exist.
 End of G2Drv Frequency-dependent properties file   722 does not exist.
          IDoAtm=111111111111111111111111111111111111111111
          Differentiating once with respect to nuclear coordinates.
          There are   129 degrees of freedom in the 1st order CPHF.  IDoFFX=5.
    123 vectors produced by pass  0 Test12= 2.06D-10 1.00D-07 XBig12= 1.06D-01 9.11D-02.
 AX will form   123 AO Fock derivatives at one time.
    123 vectors produced by pass  1 Test12= 2.06D-10 1.00D-07 XBig12= 1.15D-02 3.43D-02.
    123 vectors produced by pass  2 Test12= 2.06D-10 1.00D-07 XBig12= 1.52D-04 1.87D-03.
    123 vectors produced by pass  3 Test12= 2.06D-10 1.00D-07 XBig12= 1.59D-06 1.69D-04.
    123 vectors produced by pass  4 Test12= 2.06D-10 1.00D-07 XBig12= 1.20D-08 1.23D-05.
     41 vectors produced by pass  5 Test12= 2.06D-10 1.00D-07 XBig12= 7.59D-11 7.49D-07.
 Inverted reduced A of dimension   656 with in-core refinement.
 End of Minotr Frequency-dependent properties file   721 does not exist.
 End of Minotr Frequency-dependent properties file   722 does not exist.

 **********************************************************************

            Population analysis using the SCF density.

 **********************************************************************

 Orbital symmetries:
       Occupied  (A) (A) (A) (A) (A) (A) (A) (A) (A) (A) (A) (A)
                 (A) (A) (A) (A) (A) (A) (A) (A) (A) (A) (A) (A)
                 (A) (A) (A) (A) (A) (A) (A) (A) (A) (A) (A) (A)
                 (A) (A) (A) (A) (A) (A) (A) (A) (A) (A) (A) (A)
                 (A) (A) (A) (A) (A) (A) (A) (A) (A) (A) (A) (A)
                 (A) (A) (A) (A) (A) (A) (A) (A) (A) (A) (A) (A)
                 (A) (A) (A) (A) (A)
       Virtual   (A) (A) (A) (A) (A) (A) (A) (A) (A) (A) (A) (A)
                 (A) (A) (A) (A) (A) (A) (A) (A) (A) (A) (A) (A)
                 (A) (A) (A) (A) (A) (A) (A) (A) (A) (A) (A) (A)
                 (A) (A) (A) (A) (A) (A) (A) (A) (A) (A) (A) (A)
                 (A) (A) (A) (A) (A) (A) (A) (A) (A) (A) (A) (A)
                 (A) (A) (A) (A) (A) (A) (A) (A) (A) (A) (A) (A)
                 (A) (A) (A) (A) (A) (A) (A) (A) (A) (A) (A) (A)
                 (A) (A) (A) (A) (A) (A) (A) (A) (A) (A) (A) (A)
                 (A) (A) (A) (A) (A) (A) (A) (A) (A) (A) (A) (A)
                 (A) (A) (A) (A) (A) (A) (A) (A) (A) (A) (A) (A)
                 (A) (A) (A) (A) (A) (A) (A) (A) (A) (A) (A) (A)
                 (A) (A) (A) (A) (A) (A) (A) (A) (A) (A) (A) (A)
                 (A) (A) (A) (A) (A) (A) (A) (A) (A) (A) (A) (A)
                 (A) (A) (A) (A) (A) (A) (A) (A) (A) (A) (A) (A)
                 (A) (A) (A) (A) (A) (A) (A) (A) (A) (A) (A) (A)
                 (A) (A) (A) (A) (A) (A) (A) (A) (A) (A) (A) (A)
                 (A) (A) (A) (A) (A) (A) (A) (A) (A) (A) (A) (A)
                 (A) (A) (A) (A) (A) (A) (A) (A) (A) (A) (A) (A)
                 (A) (A) (A) (A) (A) (A) (A) (A) (A) (A) (A) (A)
                 (A) (A) (A) (A) (A) (A) (A) (A) (A) (A) (A) (A)
                 (A) (A) (A) (A) (A) (A) (A) (A) (A) (A) (A) (A)
                 (A) (A) (A) (A) (A) (A) (A) (A) (A) (A) (A) (A)
                 (A) (A) (A)
 The electronic state is 1-A.
 Alpha  occ. eigenvalues --  -20.52784 -20.50862 -20.50557 -20.50312 -15.60007
 Alpha  occ. eigenvalues --  -15.59938 -15.57698 -15.57030 -11.35587 -11.33990
 Alpha  occ. eigenvalues --  -11.33886 -11.31842 -11.28984 -11.27963 -11.27370
 Alpha  occ. eigenvalues --  -11.26634 -11.23751 -11.22731 -11.21641 -11.21487
 Alpha  occ. eigenvalues --   -1.42854  -1.38596  -1.36332  -1.33799  -1.25862
 Alpha  occ. eigenvalues --   -1.24325  -1.22823  -1.22037  -1.07877  -1.04992
 Alpha  occ. eigenvalues --   -1.02367  -0.97762  -0.95884  -0.90705  -0.89792
 Alpha  occ. eigenvalues --   -0.86948  -0.82571  -0.79902  -0.78383  -0.76942
 Alpha  occ. eigenvalues --   -0.73654  -0.72851  -0.70445  -0.67261  -0.66578
 Alpha  occ. eigenvalues --   -0.65625  -0.65215  -0.64055  -0.63459  -0.62189
 Alpha  occ. eigenvalues --   -0.60988  -0.60177  -0.59035  -0.58503  -0.58014
 Alpha  occ. eigenvalues --   -0.56665  -0.56564  -0.56014  -0.55513  -0.55220
 Alpha  occ. eigenvalues --   -0.54796  -0.54128  -0.53567  -0.52315  -0.51978
 Alpha  occ. eigenvalues --   -0.51776  -0.50668  -0.48815  -0.48150  -0.44730
 Alpha  occ. eigenvalues --   -0.42145  -0.40662  -0.40007  -0.39546  -0.37946
 Alpha  occ. eigenvalues --   -0.37467  -0.24980
 Alpha virt. eigenvalues --    0.17829   0.19635   0.19776   0.20864   0.22031
 Alpha virt. eigenvalues --    0.22839   0.24625   0.24809   0.26294   0.27835
 Alpha virt. eigenvalues --    0.27951   0.28922   0.29615   0.29729   0.30066
 Alpha virt. eigenvalues --    0.30636   0.31194   0.31850   0.31950   0.32116
 Alpha virt. eigenvalues --    0.33676   0.33736   0.35087   0.35603   0.36011
 Alpha virt. eigenvalues --    0.36618   0.37571   0.38409   0.39303   0.39886
 Alpha virt. eigenvalues --    0.41658   0.42588   0.43562   0.44176   0.45280
 Alpha virt. eigenvalues --    0.49051   0.50095   0.52740   0.53312   0.54710
 Alpha virt. eigenvalues --    0.58327   0.60288   0.62007   0.62817   0.66350
 Alpha virt. eigenvalues --    0.71507   0.72559   0.73013   0.73640   0.74549
 Alpha virt. eigenvalues --    0.74951   0.75526   0.76271   0.76656   0.77233
 Alpha virt. eigenvalues --    0.78211   0.78650   0.79431   0.80731   0.81254
 Alpha virt. eigenvalues --    0.83497   0.84099   0.84643   0.86942   0.88207
 Alpha virt. eigenvalues --    0.89289   0.90926   0.92357   0.92868   0.93472
 Alpha virt. eigenvalues --    0.94030   0.94954   0.95781   0.97647   0.98721
 Alpha virt. eigenvalues --    0.99911   1.00022   1.00461   1.01094   1.01821
 Alpha virt. eigenvalues --    1.02998   1.04100   1.06091   1.07284   1.08478
 Alpha virt. eigenvalues --    1.09358   1.10138   1.11022   1.11889   1.12381
 Alpha virt. eigenvalues --    1.13795   1.14482   1.14925   1.15219   1.15612
 Alpha virt. eigenvalues --    1.16056   1.16499   1.17009   1.17318   1.17440
 Alpha virt. eigenvalues --    1.18090   1.19340   1.19889   1.20530   1.20603
 Alpha virt. eigenvalues --    1.21064   1.21581   1.21777   1.22614   1.23830
 Alpha virt. eigenvalues --    1.23934   1.25647   1.26774   1.28223   1.29595
 Alpha virt. eigenvalues --    1.32006   1.32698   1.34563   1.36768   1.38066
 Alpha virt. eigenvalues --    1.40618   1.41976   1.43866   1.45555   1.47435
 Alpha virt. eigenvalues --    1.49797   1.51487   1.52909   1.54642   1.56036
 Alpha virt. eigenvalues --    1.56614   1.59312   1.60895   1.61335   1.62845
 Alpha virt. eigenvalues --    1.64793   1.64845   1.66407   1.69561   1.71306
 Alpha virt. eigenvalues --    1.72228   1.73208   1.74697   1.75085   1.76460
 Alpha virt. eigenvalues --    1.77604   1.80009   1.80243   1.83820   1.88785
 Alpha virt. eigenvalues --    1.91586   1.93615   1.94464   1.97881   1.99659
 Alpha virt. eigenvalues --    2.00295   2.00860   2.03408   2.04834   2.07249
 Alpha virt. eigenvalues --    2.08173   2.09004   2.10085   2.10515   2.12363
 Alpha virt. eigenvalues --    2.13567   2.14088   2.15016   2.15347   2.15635
 Alpha virt. eigenvalues --    2.17236   2.18363   2.20729   2.21097   2.22356
 Alpha virt. eigenvalues --    2.22800   2.24261   2.25313   2.25579   2.26900
 Alpha virt. eigenvalues --    2.29481   2.29873   2.32551   2.32880   2.35731
 Alpha virt. eigenvalues --    2.36737   2.37686   2.37910   2.41368   2.42412
 Alpha virt. eigenvalues --    2.45452   2.46837   2.47366   2.50029   2.50414
 Alpha virt. eigenvalues --    2.52857   2.53374   2.54570   2.58200   2.58652
 Alpha virt. eigenvalues --    2.59086   2.61614   2.62565   2.63244   2.63816
 Alpha virt. eigenvalues --    2.64064   2.65643   2.67361   2.68286   2.70073
 Alpha virt. eigenvalues --    2.70339   2.73159   2.76116   2.77246   2.77889
 Alpha virt. eigenvalues --    2.81018   2.82396   2.82868   2.83311   2.89725
 Alpha virt. eigenvalues --    2.92199   2.93213   2.93929   2.94887   2.97041
 Alpha virt. eigenvalues --    3.01096   3.02134   3.02863   3.06660   3.08453
 Alpha virt. eigenvalues --    3.10184   3.12773   3.15775   3.19140   3.24500
 Alpha virt. eigenvalues --    3.27594   3.30168   3.30879   3.35430   3.36521
 Alpha virt. eigenvalues --    3.39893   3.41838   3.50650   3.55022   3.59126
 Alpha virt. eigenvalues --    3.65005   3.69371   4.40092   4.44317   4.45593
 Alpha virt. eigenvalues --    4.49043   4.49289   4.52420   4.54443   4.63682
 Alpha virt. eigenvalues --    4.65269   4.66588   4.72520   4.73332   4.73635
 Alpha virt. eigenvalues --    4.84299   4.88049   4.90017   4.93192   5.04123
 Alpha virt. eigenvalues --    5.07163   5.19793
          Condensed to atoms (all electrons):
              1          2          3          4          5          6
     1  H    0.462020   0.385457  -0.018975  -0.019070  -0.030905   0.003636
     2  C    0.385457   5.245195   0.374682   0.374574   0.377905  -0.067370
     3  H   -0.018975   0.374682   0.511483  -0.023702  -0.034335   0.001255
     4  H   -0.019070   0.374574  -0.023702   0.514772  -0.035250   0.001187
     5  C   -0.030905   0.377905  -0.034335  -0.035250   4.184586   0.585552
     6  O    0.003636  -0.067370   0.001255   0.001187   0.585552   8.216674
     7  N    0.003886  -0.120069   0.003496   0.003744   0.251440  -0.107477
     8  H   -0.000019  -0.001282   0.000650   0.000474  -0.017461   0.001962
     9  C   -0.000076   0.004528  -0.000237  -0.000092  -0.030897   0.014056
    10  H    0.000001  -0.000022  -0.000002  -0.000002  -0.001347   0.002573
    11  C    0.000007  -0.000489   0.000008   0.000030  -0.004171  -0.015656
    12  H    0.000000  -0.000044   0.000000   0.000002   0.000141  -0.000043
    13  H    0.000000   0.000007   0.000000  -0.000001   0.000291   0.000277
    14  H    0.000001   0.000300  -0.000005  -0.000026   0.000329   0.011248
    15  C    0.000000   0.000014  -0.000011  -0.000006   0.004250   0.000575
    16  O    0.000000  -0.000041   0.000000  -0.000001   0.000374  -0.000004
    17  N    0.000000   0.000000   0.000000   0.000000  -0.000073  -0.000003
    18  H    0.000000   0.000000   0.000000   0.000000   0.000001   0.000001
    19  C    0.000000   0.000000   0.000000   0.000000   0.000001   0.000000
    20  H    0.000000   0.000000   0.000000   0.000000   0.000000   0.000000
    21  C    0.000000   0.000000   0.000000   0.000000   0.000000   0.000000
    22  H    0.000000   0.000000   0.000000   0.000000   0.000000   0.000000
    23  H    0.000000   0.000000   0.000000   0.000000   0.000000   0.000000
    24  H    0.000000   0.000000   0.000000   0.000000   0.000000   0.000000
    25  C    0.000000   0.000000   0.000000   0.000000   0.000001   0.000000
    26  O    0.000000   0.000000   0.000000   0.000000   0.000002   0.000000
    27  N    0.000000   0.000000   0.000000   0.000000   0.000000   0.000000
    28  H    0.000000   0.000000   0.000000   0.000000   0.000000   0.000000
    29  C    0.000000   0.000000   0.000000   0.000000   0.000000   0.000000
    30  H    0.000000   0.000000   0.000000   0.000000   0.000000   0.000000
    31  C    0.000000   0.000000   0.000000   0.000000   0.000000   0.000000
    32  H    0.000000   0.000000   0.000000   0.000000   0.000000   0.000000
    33  H    0.000000   0.000000   0.000000   0.000000   0.000000   0.000000
    34  H    0.000000   0.000000   0.000000   0.000000   0.000000   0.000000
    35  C    0.000000   0.000000   0.000000   0.000000   0.000000   0.000000
    36  O    0.000000   0.000000   0.000000   0.000000   0.000000   0.000000
    37  N    0.000000   0.000000   0.000000   0.000000   0.000000   0.000000
    38  H    0.000000   0.000000   0.000000   0.000000   0.000000   0.000000
    39  C    0.000000   0.000000   0.000000   0.000000   0.000000   0.000000
    40  H    0.000000   0.000000   0.000000   0.000000   0.000000   0.000000
    41  H    0.000000   0.000000   0.000000   0.000000   0.000000   0.000000
    42  H    0.000000   0.000000   0.000000   0.000000   0.000000   0.000000
              7          8          9         10         11         12
     1  H    0.003886  -0.000019  -0.000076   0.000001   0.000007   0.000000
     2  C   -0.120069  -0.001282   0.004528  -0.000022  -0.000489  -0.000044
     3  H    0.003496   0.000650  -0.000237  -0.000002   0.000008   0.000000
     4  H    0.003744   0.000474  -0.000092  -0.000002   0.000030   0.000002
     5  C    0.251440  -0.017461  -0.030897  -0.001347  -0.004171   0.000141
     6  O   -0.107477   0.001962   0.014056   0.002573  -0.015656  -0.000043
     7  N    7.410802   0.308053   0.205983  -0.041836  -0.063521   0.001636
     8  H    0.308053   0.290823  -0.027905   0.002940   0.002756   0.000343
     9  C    0.205983  -0.027905   4.986810   0.401576   0.342047  -0.042637
    10  H   -0.041836   0.002940   0.401576   0.521998  -0.048457   0.004813
    11  C   -0.063521   0.002756   0.342047  -0.048457   5.211404   0.383273
    12  H    0.001636   0.000343  -0.042637   0.004813   0.383273   0.529753
    13  H    0.004911  -0.000080  -0.041829   0.000275   0.376596  -0.024641
    14  H   -0.005474  -0.000199  -0.026914  -0.004066   0.388330  -0.020680
    15  C   -0.038354  -0.003230   0.386044  -0.045327  -0.067713  -0.001825
    16  O   -0.008397   0.021416  -0.060006   0.000849  -0.000847   0.000649
    17  N    0.002544   0.000860  -0.118659   0.005414   0.002610   0.000334
    18  H    0.000016  -0.000022   0.000256   0.000292   0.000386  -0.000039
    19  C   -0.000044  -0.000019   0.003335  -0.000167   0.000161  -0.000053
    20  H    0.000000   0.000001  -0.000190   0.000029   0.000000   0.000002
    21  C    0.000001   0.000000  -0.000066   0.000002   0.000019   0.000004
    22  H    0.000000   0.000000  -0.000060   0.000001   0.000030   0.000028
    23  H    0.000000   0.000000   0.000001   0.000000   0.000000   0.000000
    24  H    0.000000   0.000000   0.000004  -0.000001  -0.000008  -0.000002
    25  C   -0.000002   0.000014  -0.000372   0.000001  -0.000039   0.000016
    26  O   -0.000049   0.000508  -0.002935   0.000194  -0.000011   0.000014
    27  N    0.000000   0.000000  -0.000006   0.000000   0.000000   0.000000
    28  H    0.000000   0.000000   0.000000   0.000000   0.000000   0.000000
    29  C    0.000000   0.000000   0.000000   0.000000   0.000000   0.000000
    30  H    0.000000   0.000000  -0.000001   0.000000   0.000000   0.000000
    31  C    0.000000   0.000000   0.000000   0.000000   0.000000   0.000000
    32  H    0.000000   0.000000   0.000000   0.000000   0.000000   0.000000
    33  H    0.000000   0.000000   0.000000   0.000000   0.000000   0.000000
    34  H    0.000000   0.000000   0.000000   0.000000   0.000000   0.000000
    35  C    0.000000   0.000000   0.000000   0.000000   0.000000   0.000000
    36  O    0.000000   0.000000   0.000000   0.000000   0.000000   0.000000
    37  N    0.000000   0.000000   0.000000   0.000000   0.000000   0.000000
    38  H    0.000000   0.000000   0.000000   0.000000   0.000000   0.000000
    39  C    0.000000   0.000000   0.000000   0.000000   0.000000   0.000000
    40  H    0.000000   0.000000   0.000000   0.000000   0.000000   0.000000
    41  H    0.000000   0.000000   0.000000   0.000000   0.000000   0.000000
    42  H    0.000000   0.000000   0.000000   0.000000   0.000000   0.000000
             13         14         15         16         17         18
     1  H    0.000000   0.000001   0.000000   0.000000   0.000000   0.000000
     2  C    0.000007   0.000300   0.000014  -0.000041   0.000000   0.000000
     3  H    0.000000  -0.000005  -0.000011   0.000000   0.000000   0.000000
     4  H   -0.000001  -0.000026  -0.000006  -0.000001   0.000000   0.000000
     5  C    0.000291   0.000329   0.004250   0.000374  -0.000073   0.000001
     6  O    0.000277   0.011248   0.000575  -0.000004  -0.000003   0.000001
     7  N    0.004911  -0.005474  -0.038354  -0.008397   0.002544   0.000016
     8  H   -0.000080  -0.000199  -0.003230   0.021416   0.000860  -0.000022
     9  C   -0.041829  -0.026914   0.386044  -0.060006  -0.118659   0.000256
    10  H    0.000275  -0.004066  -0.045327   0.000849   0.005414   0.000292
    11  C    0.376596   0.388330  -0.067713  -0.000847   0.002610   0.000386
    12  H   -0.024641  -0.020680  -0.001825   0.000649   0.000334  -0.000039
    13  H    0.576677  -0.020426  -0.007366   0.000011   0.000409   0.002857
    14  H   -0.020426   0.427426   0.004342  -0.000043   0.000028  -0.000098
    15  C   -0.007366   0.004342   4.252950   0.519566   0.253210  -0.018018
    16  O    0.000011  -0.000043   0.519566   8.742588  -0.111894   0.002602
    17  N    0.000409   0.000028   0.253210  -0.111894   7.440385   0.322324
    18  H    0.002857  -0.000098  -0.018018   0.002602   0.322324   0.311323
    19  C    0.000216  -0.000003  -0.029152   0.015330   0.178911  -0.021594
    20  H    0.000003   0.000000  -0.000150  -0.000558  -0.041289  -0.001448
    21  C    0.000016  -0.000001   0.001442   0.000123  -0.075986  -0.001153
    22  H    0.000023   0.000000   0.000585  -0.000084   0.000357  -0.000083
    23  H    0.000000   0.000000  -0.000047   0.000003   0.005436  -0.000066
    24  H    0.000008   0.000000  -0.000040   0.000009  -0.002340   0.001944
    25  C   -0.000020   0.000000  -0.006643  -0.008491  -0.023267   0.002344
    26  O   -0.000001   0.000000   0.020032  -0.547958   0.014072  -0.000236
    27  N    0.000000   0.000000   0.000413  -0.002035   0.001835  -0.000089
    28  H    0.000000   0.000000  -0.000039   0.000099   0.000160   0.000000
    29  C    0.000000   0.000000  -0.000024   0.000237  -0.000057   0.000002
    30  H    0.000000   0.000000   0.000007  -0.000398   0.000015   0.000000
    31  C    0.000000   0.000000  -0.000003   0.000021  -0.000003   0.000000
    32  H    0.000000   0.000000   0.000000  -0.000003   0.000001   0.000000
    33  H    0.000000   0.000000   0.000000   0.000001   0.000000   0.000000
    34  H    0.000000   0.000000   0.000011   0.000202  -0.000008   0.000000
    35  C    0.000000   0.000000   0.000000   0.000002   0.000000   0.000000
    36  O    0.000000   0.000000   0.000000   0.000000   0.000000   0.000000
    37  N    0.000000   0.000000   0.000000   0.000000   0.000000   0.000000
    38  H    0.000000   0.000000   0.000000   0.000000   0.000000   0.000000
    39  C    0.000000   0.000000   0.000000   0.000000   0.000000   0.000000
    40  H    0.000000   0.000000   0.000000   0.000000   0.000000   0.000000
    41  H    0.000000   0.000000   0.000000   0.000000   0.000000   0.000000
    42  H    0.000000   0.000000   0.000000   0.000000   0.000000   0.000000
             19         20         21         22         23         24
     1  H    0.000000   0.000000   0.000000   0.000000   0.000000   0.000000
     2  C    0.000000   0.000000   0.000000   0.000000   0.000000   0.000000
     3  H    0.000000   0.000000   0.000000   0.000000   0.000000   0.000000
     4  H    0.000000   0.000000   0.000000   0.000000   0.000000   0.000000
     5  C    0.000001   0.000000   0.000000   0.000000   0.000000   0.000000
     6  O    0.000000   0.000000   0.000000   0.000000   0.000000   0.000000
     7  N   -0.000044   0.000000   0.000001   0.000000   0.000000   0.000000
     8  H   -0.000019   0.000001   0.000000   0.000000   0.000000   0.000000
     9  C    0.003335  -0.000190  -0.000066  -0.000060   0.000001   0.000004
    10  H   -0.000167   0.000029   0.000002   0.000001   0.000000  -0.000001
    11  C    0.000161   0.000000   0.000019   0.000030   0.000000  -0.000008
    12  H   -0.000053   0.000002   0.000004   0.000028   0.000000  -0.000002
    13  H    0.000216   0.000003   0.000016   0.000023   0.000000   0.000008
    14  H   -0.000003   0.000000  -0.000001   0.000000   0.000000   0.000000
    15  C   -0.029152  -0.000150   0.001442   0.000585  -0.000047  -0.000040
    16  O    0.015330  -0.000558   0.000123  -0.000084   0.000003   0.000009
    17  N    0.178911  -0.041289  -0.075986   0.000357   0.005436  -0.002340
    18  H   -0.021594  -0.001448  -0.001153  -0.000083  -0.000066   0.001944
    19  C    4.979282   0.407025   0.345944  -0.039175  -0.036078  -0.034925
    20  H    0.407025   0.502881  -0.049628   0.004203   0.000151  -0.003053
    21  C    0.345944  -0.049628   5.201677   0.388422   0.383075   0.387015
    22  H   -0.039175   0.004203   0.388422   0.500911  -0.023635  -0.022736
    23  H   -0.036078   0.000151   0.383075  -0.023635   0.534500  -0.022252
    24  H   -0.034925  -0.003053   0.387015  -0.022736  -0.022252   0.521589
    25  C    0.408085  -0.029317  -0.072422  -0.001245  -0.008412   0.004531
    26  O   -0.082058   0.001257   0.001540   0.000156  -0.000043  -0.000070
    27  N   -0.105124   0.001003  -0.004926  -0.000620  -0.004149   0.000548
    28  H   -0.000694  -0.000086  -0.003577  -0.000489   0.004581   0.000152
    29  C    0.004452  -0.000179   0.000723  -0.000249   0.000676   0.000003
    30  H   -0.000054  -0.000003  -0.000096   0.000000   0.000003  -0.000001
    31  C   -0.000630   0.000038   0.000022   0.000003  -0.000037   0.000001
    32  H   -0.000011  -0.000002  -0.000009   0.000000   0.000004   0.000000
    33  H    0.000012  -0.000001   0.000000   0.000000   0.000000   0.000000
    34  H    0.000286  -0.000018  -0.000006   0.000000  -0.000001   0.000000
    35  C    0.000044   0.000001  -0.000105   0.000008  -0.000043   0.000000
    36  O   -0.000030   0.000000  -0.000123   0.000009  -0.000211  -0.000001
    37  N    0.000000   0.000000   0.000000   0.000000  -0.000001   0.000000
    38  H    0.000000   0.000000   0.000000   0.000000   0.000000   0.000000
    39  C    0.000000   0.000000   0.000000   0.000000   0.000000   0.000000
    40  H    0.000000   0.000000   0.000000   0.000000   0.000000   0.000000
    41  H    0.000000   0.000000   0.000000   0.000000   0.000000   0.000000
    42  H    0.000000   0.000000   0.000000   0.000000   0.000000   0.000000
             25         26         27         28         29         30
     1  H    0.000000   0.000000   0.000000   0.000000   0.000000   0.000000
     2  C    0.000000   0.000000   0.000000   0.000000   0.000000   0.000000
     3  H    0.000000   0.000000   0.000000   0.000000   0.000000   0.000000
     4  H    0.000000   0.000000   0.000000   0.000000   0.000000   0.000000
     5  C    0.000001   0.000002   0.000000   0.000000   0.000000   0.000000
     6  O    0.000000   0.000000   0.000000   0.000000   0.000000   0.000000
     7  N   -0.000002  -0.000049   0.000000   0.000000   0.000000   0.000000
     8  H    0.000014   0.000508   0.000000   0.000000   0.000000   0.000000
     9  C   -0.000372  -0.002935  -0.000006   0.000000   0.000000  -0.000001
    10  H    0.000001   0.000194   0.000000   0.000000   0.000000   0.000000
    11  C   -0.000039  -0.000011   0.000000   0.000000   0.000000   0.000000
    12  H    0.000016   0.000014   0.000000   0.000000   0.000000   0.000000
    13  H   -0.000020  -0.000001   0.000000   0.000000   0.000000   0.000000
    14  H    0.000000   0.000000   0.000000   0.000000   0.000000   0.000000
    15  C   -0.006643   0.020032   0.000413  -0.000039  -0.000024   0.000007
    16  O   -0.008491  -0.547958  -0.002035   0.000099   0.000237  -0.000398
    17  N   -0.023267   0.014072   0.001835   0.000160  -0.000057   0.000015
    18  H    0.002344  -0.000236  -0.000089   0.000000   0.000002   0.000000
    19  C    0.408085  -0.082058  -0.105124  -0.000694   0.004452  -0.000054
    20  H   -0.029317   0.001257   0.001003  -0.000086  -0.000179  -0.000003
    21  C   -0.072422   0.001540  -0.004926  -0.003577   0.000723  -0.000096
    22  H   -0.001245   0.000156  -0.000620  -0.000489  -0.000249   0.000000
    23  H   -0.008412  -0.000043  -0.004149   0.004581   0.000676   0.000003
    24  H    0.004531  -0.000070   0.000548   0.000152   0.000003  -0.000001
    25  C    4.294885   0.506657   0.239037  -0.016643  -0.033651  -0.004111
    26  O    0.506657   8.696494  -0.090774   0.001859   0.011088   0.003201
    27  N    0.239037  -0.090774   7.485399   0.298450   0.214421  -0.041381
    28  H   -0.016643   0.001859   0.298450   0.284166  -0.028696   0.002423
    29  C   -0.033651   0.011088   0.214421  -0.028696   5.008808   0.405196
    30  H   -0.004111   0.003201  -0.041381   0.002423   0.405196   0.509973
    31  C   -0.000964  -0.013134  -0.070428   0.003293   0.333812  -0.048178
    32  H   -0.000704  -0.000047   0.002391   0.000276  -0.041819   0.004603
    33  H    0.000349   0.000253   0.004919  -0.000072  -0.042848   0.000243
    34  H    0.001650   0.009273  -0.006043  -0.000195  -0.026165  -0.004209
    35  C    0.003482   0.000397  -0.035923  -0.005753   0.380907  -0.037855
    36  O    0.000402  -0.000002  -0.008175   0.025358  -0.077579   0.001109
    37  N   -0.000091  -0.000001   0.002694   0.000839  -0.115061   0.002098
    38  H    0.000001   0.000001   0.000024  -0.000026   0.001074   0.000497
    39  C    0.000001   0.000000  -0.000050  -0.000011   0.003654  -0.000228
    40  H    0.000000   0.000000  -0.000004  -0.000011   0.000584  -0.000018
    41  H    0.000000   0.000000   0.000000   0.000000  -0.000105   0.000012
    42  H    0.000000   0.000000   0.000001   0.000000  -0.000006  -0.000002
             31         32         33         34         35         36
     1  H    0.000000   0.000000   0.000000   0.000000   0.000000   0.000000
     2  C    0.000000   0.000000   0.000000   0.000000   0.000000   0.000000
     3  H    0.000000   0.000000   0.000000   0.000000   0.000000   0.000000
     4  H    0.000000   0.000000   0.000000   0.000000   0.000000   0.000000
     5  C    0.000000   0.000000   0.000000   0.000000   0.000000   0.000000
     6  O    0.000000   0.000000   0.000000   0.000000   0.000000   0.000000
     7  N    0.000000   0.000000   0.000000   0.000000   0.000000   0.000000
     8  H    0.000000   0.000000   0.000000   0.000000   0.000000   0.000000
     9  C    0.000000   0.000000   0.000000   0.000000   0.000000   0.000000
    10  H    0.000000   0.000000   0.000000   0.000000   0.000000   0.000000
    11  C    0.000000   0.000000   0.000000   0.000000   0.000000   0.000000
    12  H    0.000000   0.000000   0.000000   0.000000   0.000000   0.000000
    13  H    0.000000   0.000000   0.000000   0.000000   0.000000   0.000000
    14  H    0.000000   0.000000   0.000000   0.000000   0.000000   0.000000
    15  C   -0.000003   0.000000   0.000000   0.000011   0.000000   0.000000
    16  O    0.000021  -0.000003   0.000001   0.000202   0.000002   0.000000
    17  N   -0.000003   0.000001   0.000000  -0.000008   0.000000   0.000000
    18  H    0.000000   0.000000   0.000000   0.000000   0.000000   0.000000
    19  C   -0.000630  -0.000011   0.000012   0.000286   0.000044  -0.000030
    20  H    0.000038  -0.000002  -0.000001  -0.000018   0.000001   0.000000
    21  C    0.000022  -0.000009   0.000000  -0.000006  -0.000105  -0.000123
    22  H    0.000003   0.000000   0.000000   0.000000   0.000008   0.000009
    23  H   -0.000037   0.000004   0.000000  -0.000001  -0.000043  -0.000211
    24  H    0.000001   0.000000   0.000000   0.000000   0.000000  -0.000001
    25  C   -0.000964  -0.000704   0.000349   0.001650   0.003482   0.000402
    26  O   -0.013134  -0.000047   0.000253   0.009273   0.000397  -0.000002
    27  N   -0.070428   0.002391   0.004919  -0.006043  -0.035923  -0.008175
    28  H    0.003293   0.000276  -0.000072  -0.000195  -0.005753   0.025358
    29  C    0.333812  -0.041819  -0.042848  -0.026165   0.380907  -0.077579
    30  H   -0.048178   0.004603   0.000243  -0.004209  -0.037855   0.001109
    31  C    5.208665   0.385226   0.377545   0.388825  -0.062018  -0.000044
    32  H    0.385226   0.527746  -0.024818  -0.020561  -0.002755   0.000635
    33  H    0.377545  -0.024818   0.576696  -0.021241  -0.006969   0.000026
    34  H    0.388825  -0.020561  -0.021241   0.429849   0.003895  -0.000065
    35  C   -0.062018  -0.002755  -0.006969   0.003895   4.144911   0.591765
    36  O   -0.000044   0.000635   0.000026  -0.000065   0.591765   8.217654
    37  N    0.002153   0.000199   0.000220   0.000087   0.286821  -0.098644
    38  H    0.000042   0.000000   0.002598  -0.000086  -0.020532   0.002378
    39  C   -0.000070  -0.000044   0.000168   0.000003  -0.025380  -0.004854
    40  H   -0.000049  -0.000002  -0.000008   0.000000  -0.001897   0.010223
    41  H   -0.000005   0.000001   0.000002   0.000000   0.000777   0.000365
    42  H    0.000016   0.000002  -0.000001  -0.000001   0.000917   0.000375
             37         38         39         40         41         42
     1  H    0.000000   0.000000   0.000000   0.000000   0.000000   0.000000
     2  C    0.000000   0.000000   0.000000   0.000000   0.000000   0.000000
     3  H    0.000000   0.000000   0.000000   0.000000   0.000000   0.000000
     4  H    0.000000   0.000000   0.000000   0.000000   0.000000   0.000000
     5  C    0.000000   0.000000   0.000000   0.000000   0.000000   0.000000
     6  O    0.000000   0.000000   0.000000   0.000000   0.000000   0.000000
     7  N    0.000000   0.000000   0.000000   0.000000   0.000000   0.000000
     8  H    0.000000   0.000000   0.000000   0.000000   0.000000   0.000000
     9  C    0.000000   0.000000   0.000000   0.000000   0.000000   0.000000
    10  H    0.000000   0.000000   0.000000   0.000000   0.000000   0.000000
    11  C    0.000000   0.000000   0.000000   0.000000   0.000000   0.000000
    12  H    0.000000   0.000000   0.000000   0.000000   0.000000   0.000000
    13  H    0.000000   0.000000   0.000000   0.000000   0.000000   0.000000
    14  H    0.000000   0.000000   0.000000   0.000000   0.000000   0.000000
    15  C    0.000000   0.000000   0.000000   0.000000   0.000000   0.000000
    16  O    0.000000   0.000000   0.000000   0.000000   0.000000   0.000000
    17  N    0.000000   0.000000   0.000000   0.000000   0.000000   0.000000
    18  H    0.000000   0.000000   0.000000   0.000000   0.000000   0.000000
    19  C    0.000000   0.000000   0.000000   0.000000   0.000000   0.000000
    20  H    0.000000   0.000000   0.000000   0.000000   0.000000   0.000000
    21  C    0.000000   0.000000   0.000000   0.000000   0.000000   0.000000
    22  H    0.000000   0.000000   0.000000   0.000000   0.000000   0.000000
    23  H   -0.000001   0.000000   0.000000   0.000000   0.000000   0.000000
    24  H    0.000000   0.000000   0.000000   0.000000   0.000000   0.000000
    25  C   -0.000091   0.000001   0.000001   0.000000   0.000000   0.000000
    26  O   -0.000001   0.000001   0.000000   0.000000   0.000000   0.000000
    27  N    0.002694   0.000024  -0.000050  -0.000004   0.000000   0.000001
    28  H    0.000839  -0.000026  -0.000011  -0.000011   0.000000   0.000000
    29  C   -0.115061   0.001074   0.003654   0.000584  -0.000105  -0.000006
[...]
    29  C    0.000000   0.000000  -0.000008   0.000007  -0.000047   0.000002
    30  H    0.000000   0.000000   0.000000  -0.000008   0.000007   0.000000
    31  C    0.000000   0.000000   0.000000   0.000000  -0.000002   0.000000
    32  H    0.000000   0.000000   0.000000   0.000000   0.000000   0.000000
    33  H    0.000000   0.000000   0.000000   0.000000   0.000000   0.000000
    34  H    0.000000   0.000000   0.000000   0.000000   0.000000   0.000000
    35  C    0.000000   0.000000   0.000000   0.000000   0.000001   0.000000
    36  O    0.000000   0.000000   0.000000   0.000000   0.000000   0.000000
    37  N    0.000000   0.000000   0.000000   0.000000   0.000000   0.000000
    38  H    0.000000   0.000000   0.000000   0.000000   0.000000   0.000000
    39  C    0.000000   0.000000   0.000000   0.000000   0.000000   0.000000
    40  H    0.000000   0.000000   0.000000   0.000000   0.000000   0.000000
    41  H    0.000000   0.000000   0.000000   0.000000   0.000000   0.000000
    42  H    0.000000   0.000000   0.000000   0.000000   0.000000   0.000000
             19         20         21         22         23         24
     1  H    0.000000   0.000000   0.000000   0.000000   0.000000   0.000000
     2  C    0.000000   0.000000   0.000000   0.000000   0.000000   0.000000
     3  H    0.000000   0.000000   0.000000   0.000000   0.000000   0.000000
     4  H    0.000000   0.000000   0.000000   0.000000   0.000000   0.000000
     5  C    0.000001   0.000000   0.000000   0.000000   0.000000   0.000000
     6  O    0.000000   0.000000   0.000000   0.000000   0.000000   0.000000
     7  N   -0.000054  -0.000001   0.000001   0.000000   0.000000   0.000000
     8  H   -0.000018   0.000000   0.000000   0.000000   0.000000   0.000000
     9  C    0.002954   0.000069  -0.000188   0.000010   0.000002  -0.000002
    10  H   -0.000306   0.000014   0.000014   0.000000   0.000000  -0.000001
    11  C    0.000087  -0.000008   0.000007   0.000000   0.000000  -0.000002
    12  H   -0.000022   0.000000   0.000003   0.000000   0.000000   0.000000
    13  H    0.000027   0.000000  -0.000001   0.000000   0.000000   0.000008
    14  H    0.000001   0.000000   0.000000   0.000000   0.000000   0.000000
    15  C   -0.020032   0.000650   0.001361   0.000189  -0.000021  -0.000003
    16  O    0.003574   0.000059  -0.000373   0.000090   0.000001  -0.000005
    17  N    0.196243  -0.045144  -0.078685   0.000606   0.005083  -0.003583
    18  H   -0.028672  -0.005145   0.000281  -0.000104  -0.000138   0.001126
    19  C    4.994288   0.416088   0.320365  -0.035824  -0.034004  -0.029371
    20  H    0.416088   0.505919  -0.050057   0.003951  -0.000279  -0.002342
    21  C    0.320365  -0.050057   5.196623   0.387680   0.380293   0.390596
    22  H   -0.035824   0.003951   0.387680   0.496936  -0.024163  -0.022529
    23  H   -0.034004  -0.000279   0.380293  -0.024163   0.527835  -0.025463
    24  H   -0.029371  -0.002342   0.390596  -0.022529  -0.025463   0.509024
    25  C    0.401015  -0.032746  -0.048301  -0.001722  -0.003737   0.003300
    26  O   -0.068619  -0.000980   0.002753  -0.000005  -0.000068  -0.000048
    27  N   -0.100359  -0.000510   0.002076   0.000019   0.000518   0.000094
    28  H   -0.003227   0.000155   0.000121   0.000436   0.000387   0.000099
    29  C    0.004863  -0.000259  -0.000020  -0.000133   0.000083   0.000006
    30  H    0.000342  -0.000017  -0.000045  -0.000007   0.000003   0.000000
    31  C   -0.000493   0.000078   0.000018   0.000004  -0.000017   0.000000
    32  H    0.000015  -0.000006  -0.000006   0.000000   0.000007   0.000000
    33  H    0.000006  -0.000001   0.000000   0.000000   0.000000   0.000000
    34  H    0.000054  -0.000009  -0.000004   0.000000  -0.000001   0.000000
    35  C    0.000055  -0.000001  -0.000040   0.000016   0.000003   0.000000
    36  O    0.000000   0.000000  -0.000158   0.000024  -0.000023  -0.000001
    37  N    0.000001   0.000000   0.000000   0.000000   0.000000   0.000000
    38  H    0.000000   0.000000   0.000000   0.000000   0.000000   0.000000
    39  C    0.000000   0.000000   0.000000   0.000000   0.000000   0.000000
    40  H    0.000000   0.000000   0.000000   0.000000   0.000000   0.000000
    41  H    0.000000   0.000000   0.000000   0.000000   0.000000   0.000000
    42  H    0.000000   0.000000   0.000000   0.000000   0.000000   0.000000
             25         26         27         28         29         30
     1  H    0.000000   0.000000   0.000000   0.000000   0.000000   0.000000
     2  C    0.000000   0.000000   0.000000   0.000000   0.000000   0.000000
     3  H    0.000000   0.000000   0.000000   0.000000   0.000000   0.000000
     4  H    0.000000   0.000000   0.000000   0.000000   0.000000   0.000000
     5  C    0.000000   0.000000   0.000000   0.000000   0.000000   0.000000
     6  O    0.000000   0.000000   0.000000   0.000000   0.000000   0.000000
     7  N   -0.000011  -0.000006   0.000000   0.000000   0.000000   0.000000
     8  H   -0.000005   0.000035   0.000000   0.000000   0.000000   0.000000
     9  C    0.000176  -0.000624  -0.000007   0.000000   0.000000   0.000000
    10  H   -0.000023   0.000090   0.000000   0.000000   0.000000   0.000000
    11  C   -0.000013   0.000002   0.000000   0.000000   0.000000   0.000000
    12  H    0.000000   0.000000   0.000000   0.000000   0.000000   0.000000
    13  H   -0.000001   0.000000   0.000000   0.000000   0.000000   0.000000
    14  H    0.000000   0.000000   0.000000   0.000000   0.000000   0.000000
    15  C   -0.002220   0.009073   0.000115  -0.000010  -0.000008   0.000000
    16  O    0.005898  -0.011674  -0.000390   0.000003   0.000007  -0.000008
    17  N   -0.033245   0.000188   0.002044   0.000026  -0.000047   0.000007
    18  H    0.002963  -0.000256  -0.000093  -0.000002   0.000002   0.000000
    19  C    0.401015  -0.068619  -0.100359  -0.003227   0.004863   0.000342
    20  H   -0.032746  -0.000980  -0.000510   0.000155  -0.000259  -0.000017
    21  C   -0.048301   0.002753   0.002076   0.000121  -0.000020  -0.000045
    22  H   -0.001722  -0.000005   0.000019   0.000436  -0.000133  -0.000007
    23  H   -0.003737  -0.000068   0.000518   0.000387   0.000083   0.000003
    24  H    0.003300  -0.000048   0.000094   0.000099   0.000006   0.000000
    25  C    4.109145   0.559663   0.286365  -0.008690  -0.028120  -0.001773
    26  O    0.559663   8.208741  -0.102219   0.001968   0.008927   0.006778
    27  N    0.286365  -0.102219   7.424450   0.297636   0.199139  -0.042165
    28  H   -0.008690   0.001968   0.297636   0.277822  -0.031969   0.002459
    29  C   -0.028120   0.008927   0.199139  -0.031969   5.048886   0.410288
    30  H   -0.001773   0.006778  -0.042165   0.002459   0.410288   0.477024
    31  C   -0.000920  -0.003844  -0.065602   0.003114   0.336327  -0.040839
    32  H    0.000161  -0.000013   0.000500   0.000305  -0.038002   0.003940
    33  H   -0.000015   0.000006   0.004597  -0.000069  -0.037546   0.000101
    34  H    0.001955   0.004546  -0.005668  -0.000158  -0.029652  -0.003640
    35  C    0.002941   0.000552  -0.039991  -0.007072   0.379727  -0.041195
    36  O    0.000355  -0.000005  -0.012488   0.028353  -0.073983   0.001617
    37  N   -0.000081  -0.000001   0.002517   0.001206  -0.116335   0.003263
    38  H   -0.000005  -0.000001   0.000021  -0.000039   0.000543   0.001203
    39  C    0.000001   0.000000  -0.000076  -0.000037   0.004282  -0.000118
    40  H    0.000000   0.000000   0.000005   0.000001  -0.000162  -0.000001
    41  H    0.000000   0.000000   0.000000   0.000000   0.000004  -0.000009
    42  H    0.000000   0.000000  -0.000002  -0.000004   0.000156  -0.000002
             31         32         33         34         35         36
     1  H    0.000000   0.000000   0.000000   0.000000   0.000000   0.000000
     2  C    0.000000   0.000000   0.000000   0.000000   0.000000   0.000000
     3  H    0.000000   0.000000   0.000000   0.000000   0.000000   0.000000
     4  H    0.000000   0.000000   0.000000   0.000000   0.000000   0.000000
     5  C    0.000000   0.000000   0.000000   0.000000   0.000000   0.000000
     6  O    0.000000   0.000000   0.000000   0.000000   0.000000   0.000000
     7  N    0.000000   0.000000   0.000000   0.000000   0.000000   0.000000
     8  H    0.000000   0.000000   0.000000   0.000000   0.000000   0.000000
     9  C    0.000000   0.000000   0.000000   0.000000   0.000000   0.000000
    10  H    0.000000   0.000000   0.000000   0.000000   0.000000   0.000000
    11  C    0.000000   0.000000   0.000000   0.000000   0.000000   0.000000
    12  H    0.000000   0.000000   0.000000   0.000000   0.000000   0.000000
    13  H    0.000000   0.000000   0.000000   0.000000   0.000000   0.000000
    14  H    0.000000   0.000000   0.000000   0.000000   0.000000   0.000000
    15  C    0.000000   0.000000   0.000000   0.000000   0.000000   0.000000
    16  O    0.000000   0.000000   0.000000   0.000000   0.000000   0.000000
    17  N   -0.000002   0.000000   0.000000   0.000000   0.000001   0.000000
    18  H    0.000000   0.000000   0.000000   0.000000   0.000000   0.000000
    19  C   -0.000493   0.000015   0.000006   0.000054   0.000055   0.000000
    20  H    0.000078  -0.000006  -0.000001  -0.000009  -0.000001   0.000000
    21  C    0.000018  -0.000006   0.000000  -0.000004  -0.000040  -0.000158
    22  H    0.000004   0.000000   0.000000   0.000000   0.000016   0.000024
    23  H   -0.000017   0.000007   0.000000  -0.000001   0.000003  -0.000023
    24  H    0.000000   0.000000   0.000000   0.000000   0.000000  -0.000001
    25  C   -0.000920   0.000161  -0.000015   0.001955   0.002941   0.000355
    26  O   -0.003844  -0.000013   0.000006   0.004546   0.000552  -0.000005
    27  N   -0.065602   0.000500   0.004597  -0.005668  -0.039991  -0.012488
    28  H    0.003114   0.000305  -0.000069  -0.000158  -0.007072   0.028353
    29  C    0.336327  -0.038002  -0.037546  -0.029652   0.379727  -0.073983
    30  H   -0.040839   0.003940   0.000101  -0.003640  -0.041195   0.001617
    31  C    5.140779   0.388372   0.382358   0.391974  -0.052925  -0.000773
    32  H    0.388372   0.517896  -0.024843  -0.023432  -0.003952   0.001265
    33  H    0.382358  -0.024843   0.540710  -0.023097  -0.003358   0.000018
    34  H    0.391974  -0.023432  -0.023097   0.473675   0.004158  -0.000073
    35  C   -0.052925  -0.003952  -0.003358   0.004158   4.161156   0.594910
    36  O   -0.000773   0.001265   0.000018  -0.000073   0.594910   8.181644
    37  N    0.002371   0.000399   0.002204  -0.000042   0.284451  -0.103884
    38  H    0.000349   0.000010   0.000645  -0.000042  -0.022388   0.002520
    39  C   -0.000246  -0.000013   0.000006   0.000003  -0.028653   0.008172
    40  H   -0.000004   0.000000   0.000003   0.000000  -0.003686   0.001197
    41  H    0.000003  -0.000001  -0.000007   0.000000   0.004502   0.000354
    42  H   -0.000008   0.000003  -0.000010   0.000000  -0.003086   0.003220
             37         38         39         40         41         42
     1  H    0.000000   0.000000   0.000000   0.000000   0.000000   0.000000
     2  C    0.000000   0.000000   0.000000   0.000000   0.000000   0.000000
     3  H    0.000000   0.000000   0.000000   0.000000   0.000000   0.000000
     4  H    0.000000   0.000000   0.000000   0.000000   0.000000   0.000000
     5  C    0.000000   0.000000   0.000000   0.000000   0.000000   0.000000
     6  O    0.000000   0.000000   0.000000   0.000000   0.000000   0.000000
     7  N    0.000000   0.000000   0.000000   0.000000   0.000000   0.000000
     8  H    0.000000   0.000000   0.000000   0.000000   0.000000   0.000000
     9  C    0.000000   0.000000   0.000000   0.000000   0.000000   0.000000
    10  H    0.000000   0.000000   0.000000   0.000000   0.000000   0.000000
    11  C    0.000000   0.000000   0.000000   0.000000   0.000000   0.000000
    12  H    0.000000   0.000000   0.000000   0.000000   0.000000   0.000000
    13  H    0.000000   0.000000   0.000000   0.000000   0.000000   0.000000
    14  H    0.000000   0.000000   0.000000   0.000000   0.000000   0.000000
    15  C    0.000000   0.000000   0.000000   0.000000   0.000000   0.000000
    16  O    0.000000   0.000000   0.000000   0.000000   0.000000   0.000000
    17  N    0.000000   0.000000   0.000000   0.000000   0.000000   0.000000
    18  H    0.000000   0.000000   0.000000   0.000000   0.000000   0.000000
    19  C    0.000001   0.000000   0.000000   0.000000   0.000000   0.000000
    20  H    0.000000   0.000000   0.000000   0.000000   0.000000   0.000000
    21  C    0.000000   0.000000   0.000000   0.000000   0.000000   0.000000
    22  H    0.000000   0.000000   0.000000   0.000000   0.000000   0.000000
    23  H    0.000000   0.000000   0.000000   0.000000   0.000000   0.000000
    24  H    0.000000   0.000000   0.000000   0.000000   0.000000   0.000000
    25  C   -0.000081  -0.000005   0.000001   0.000000   0.000000   0.000000
    26  O   -0.000001  -0.000001   0.000000   0.000000   0.000000   0.000000
    27  N    0.002517   0.000021  -0.000076   0.000005   0.000000  -0.000002
    28  H    0.001206  -0.000039  -0.000037   0.000001   0.000000  -0.000004
    29  C   -0.116335   0.000543   0.004282  -0.000162   0.000004   0.000156
    30  H    0.003263   0.001203  -0.000118  -0.000001  -0.000009  -0.000002
    31  C    0.002371   0.000349  -0.000246  -0.000004   0.000003  -0.000008
    32  H    0.000399   0.000010  -0.000013   0.000000  -0.000001   0.000003
    33  H    0.002204   0.000645   0.000006   0.000003  -0.000007  -0.000010
    34  H   -0.000042  -0.000042   0.000003   0.000000   0.000000   0.000000
    35  C    0.284451  -0.022388  -0.028653  -0.003686   0.004502  -0.003086
    36  O   -0.103884   0.002520   0.008172   0.001197   0.000354   0.003220
    37  N    7.321100   0.328436   0.195247  -0.045798  -0.037311  -0.040167
    38  H    0.328436   0.320782  -0.022262   0.001241  -0.004480   0.002557
    39  C    0.195247  -0.022262   4.908798   0.406446   0.397619   0.404052
    40  H   -0.045798   0.001241   0.406446   0.519609  -0.031071  -0.032644
    41  H   -0.037311  -0.004480   0.397619  -0.031071   0.522381  -0.024709
    42  H   -0.040167   0.002557   0.404052  -0.032644  -0.024709   0.487142
 Mulliken atomic charges:
              1
     1  H    0.201810
     2  C   -0.577384
     3  H    0.174915
     4  H    0.206300
     5  C    0.753402
     6  O   -0.624093
     7  N   -0.818627
     8  H    0.422644
     9  C   -0.040034
    10  H    0.213093
    11  C   -0.485064
    12  H    0.177923
    13  H    0.151142
    14  H    0.215143
    15  C    0.807368
    16  O   -0.598192
    17  N   -0.825923
    18  H    0.377961
    19  C   -0.018977
    20  H    0.210523
    21  C   -0.504315
    22  H    0.194526
    23  H    0.173698
    24  H    0.179095
    25  C    0.787691
    26  O   -0.614958
    27  N   -0.850526
    28  H    0.437187
    29  C   -0.037005
    30  H    0.222793
    31  C   -0.480073
    32  H    0.177395
    33  H    0.158290
    34  H    0.209454
    35  C    0.773877
    36  O   -0.632263
    37  N   -0.797575
    38  H    0.390910
    39  C   -0.273223
    40  H    0.184864
    41  H    0.172725
    42  H    0.203501
 Sum of Mulliken atomic charges =   0.00000
 Mulliken charges with hydrogens summed into heavy atoms:
              1
     2  C    0.005641
     5  C    0.753402
     6  O   -0.624093
     7  N   -0.395983
     9  C    0.173059
    11  C    0.059144
    15  C    0.807368
    16  O   -0.598192
    17  N   -0.447962
    19  C    0.191545
    21  C    0.043005
    25  C    0.787691
    26  O   -0.614958
    27  N   -0.413339
    29  C    0.185788
    31  C    0.065066
    35  C    0.773877
    36  O   -0.632263
    37  N   -0.406665
    39  C    0.287867
 Sum of Mulliken charges with hydrogens summed into heavy atoms =   0.00000
 Electronic spatial extent (au):  <R**2>=           9540.5875
 Charge=              0.0000 electrons
 Dipole moment (field-independent basis, Debye):
    X=             -4.5265    Y=             -0.5115    Z=             -0.2385  Tot=              4.5615
 Quadrupole moment (field-independent basis, Debye-Ang):
   XX=           -129.8485   YY=           -102.7470   ZZ=           -122.0877
   XY=             15.2061   XZ=             -8.4399   YZ=              7.1960
 Traceless Quadrupole moment (field-independent basis, Debye-Ang):
   XX=            -11.6208   YY=             15.4807   ZZ=             -3.8600
   XY=             15.2061   XZ=             -8.4399   YZ=              7.1960
 Octapole moment (field-independent basis, Debye-Ang**2):
  XXX=           -241.0339  YYY=            -18.4038  ZZZ=             -1.1226  XYY=             10.9271
  XXY=           -116.0302  XXZ=            -73.5413  XZZ=            -14.8654  YZZ=              0.0101
  YYZ=              3.4607  XYZ=             -4.3414
 Hexadecapole moment (field-independent basis, Debye-Ang**3):
 XXXX=         -10863.5943 YYYY=          -1525.4361 ZZZZ=           -662.2703 XXXY=            363.7361
 XXXZ=           -247.7890 YYYX=             16.2896 YYYZ=             27.5101 ZZZX=             28.6441
 ZZZY=              8.5897 XXYY=          -1688.0796 XXZZ=          -1820.5876 YYZZ=           -377.8321
 XXYZ=            126.2346 YYXZ=             23.2642 ZZXY=             12.3914
 N-N= 1.612266854154D+03 E-N=-5.532845571545D+03  KE= 9.830728110786D+02
 1\1\GINC-NODE003\FOpt\RHF\6-31G(d)\C12H22N4O4\MANAGER\26-Dec-2016\0\\#
  HF/6-31G* Opt=(ModRedundant, maxcycles=1000, calcfc) geom=nocrowd\\Ph
 i Psi fixed scan\\0,1\H,10.3354119125,2.5821517441,-0.9469105827\C,9.7
 786144439,2.223491884,-0.0871974401\H,10.2819257666,2.5565420864,0.812
 5296291\H,9.7678840704,1.1428330774,-0.1208189081\C,8.3558527522,2.729
 697192,-0.1866096346\O,7.5323398407,2.1778242703,-0.8697361414\N,8.084
 1562186,3.84522099,0.52072238\H,8.8046632699,4.3357417652,1.0020873625
 \C,6.8170467286,4.5256497247,0.416989468\H,6.4969496192,4.502890517,-0
 .6181524266\C,5.7431735427,3.8571647028,1.2879968635\H,6.0323911967,3.
 8935414415,2.3324389531\H,4.7764519731,4.3393330064,1.1832334082\H,5.6
 406896936,2.8236624598,0.9865770009\C,7.0431531839,5.9791200407,0.8380
 904788\O,8.0228866194,6.304221669,1.4401247345\N,5.9823700207,6.812365
 7971,0.5899518222\H,5.2426260524,6.3445748375,0.1130256198\C,5.9983643
 566,8.2273483522,0.2070697604\H,5.6290540206,8.2809274227,-0.813056701
 \C,5.0283990434,8.9920930745,1.1114299595\H,5.4063673746,9.0479833847,
 2.1260877786\H,4.8335557167,9.9935983745,0.7445178784\H,4.0793821806,8
 .4695814384,1.1427218092\C,7.402337245,8.8351932878,0.072182047\O,8.28
 18370191,8.2279017654,-0.4728830664\N,7.5041295339,10.1522319844,0.346
 1654596\H,6.8390848934,10.6183660354,0.9208031791\C,8.7624226743,10.84
 50817976,0.1825924494\H,9.5677208586,10.1577026318,0.4103289079\C,8.93
 87967229,11.3626039979,-1.2504204515\H,8.152951977,12.0685407999,-1.49
 587417\H,9.8969287531,11.8551435991,-1.3785270081\H,8.8885588387,10.52
 81398424,-1.9371580907\C,8.7814659571,11.9990051427,1.1823015551\O,7.7
 707529517,12.4046164341,1.6967656469\N,9.9873421688,12.5458309032,1.41
 50957686\H,10.7965142425,12.0972775771,1.0528259469\C,10.1594432839,13
 .6400397047,2.3488795331\H,10.0265933724,13.3149122194,3.3743552894\H,
 11.1571646536,14.0407093287,2.2316797804\H,9.4402452566,14.4186436956,
 2.140174151\\Version=EM64L-G09RevA.02\State=1-A\HF=-984.5389989\RMSD=9
 .303e-09\RMSF=2.997e-03\Dipole=0.452208,1.7201542,0.2393459\Quadrupole
 =15.0064934,-9.4541423,-5.5523511,6.9487183,3.1424319,-8.5218619\PG=C0
 1 [X(C12H22N4O4)]\\@


 THE REASON MAN'S BEST FRIEND IS A DOG IS BECAUSE
 HE WAGS HIS TAIL INSTEAD OF HIS TONGUE.
 Job cpu time:  0 days  6 hours 59 minutes  7.7 seconds.
 File lengths (MBytes):  RWF=    553 Int=      0 D2E=      0 Chk=     11 Scr=      1
 Normal termination of Gaussian 09 at Mon Dec 26 17:46:02 2016.
