 Entering Gaussian System, Link 0=g09
 Initial command:
 /home/steboss/Software/g09/l1.exe /tmp/Gau-23937.inp -scrdir=/tmp/
 Entering Link 1 = /home/steboss/Software/g09/l1.exe PID=     23942.
  
 Copyright (c) 1988,1990,1992,1993,1995,1998,2003,2009, Gaussian, Inc.
                  All Rights Reserved.
  
 This is part of the Gaussian(R) 09 program.  It is based on
 the Gaussian(R) 03 system (copyright 2003, Gaussian, Inc.),
 the Gaussian(R) 98 system (copyright 1998, Gaussian, Inc.),
 the Gaussian(R) 94 system (copyright 1995, Gaussian, Inc.),
 the Gaussian 92(TM) system (copyright 1992, Gaussian, Inc.),
 the Gaussian 90(TM) system (copyright 1990, Gaussian, Inc.),
 the Gaussian 88(TM) system (copyright 1988, Gaussian, Inc.),
 the Gaussian 86(TM) system (copyright 1986, Carnegie Mellon
 University), and the Gaussian 82(TM) system (copyright 1983,
 Carnegie Mellon University). Gaussian is a federally registered
 trademark of Gaussian, Inc.
  
 This software contains proprietary and confidential information,
 including trade secrets, belonging to Gaussian, Inc.
  
 This software is provided under written license and may be
 used, copied, transmitted, or stored only in accord with that
 written license.
  
 The following legend is applicable only to US Government
 contracts under FAR:
  
                    RESTRICTED RIGHTS LEGEND
  
 Use, reproduction and disclosure by the US Government is
 subject to restrictions as set forth in subparagraphs (a)
 and (c) of the Commercial Computer Software - Restricted
 Rights clause in FAR 52.227-19.
  
 Gaussian, Inc.
 340 Quinnipiac St., Bldg. 40, Wallingford CT 06492
  
  
 ---------------------------------------------------------------
 Warning -- This program may not be used in any manner that
 competes with the business of Gaussian, Inc. or will provide
 assistance to any competitor of Gaussian, Inc.  The licensee
 of this program is prohibited from giving any competitor of
 Gaussian, Inc. access to this program.  By using this program,
 the user acknowledges that Gaussian, Inc. is engaged in the
 business of creating and licensing software in the field of
 computational chemistry and represents and warrants to the
 licensee that it is not a competitor of Gaussian, Inc. and that
 it will not use this program in any manner prohibited above.
 ---------------------------------------------------------------
  

 Cite this work as:
 Gaussian 09, Revision A.02,
 M. J. Frisch, G. W. Trucks, H. B. Schlegel, G. E. Scuseria, 
 M. A. Robb, J. R. Cheeseman, G. Scalmani, V. Barone, B. Mennucci, 
 G. A. Petersson, H. Nakatsuji, M. Caricato, X. Li, H. P. Hratchian, 
 A. F. Izmaylov, J. Bloino, G. Zheng, J. L. Sonnenberg, M. Hada, 
 M. Ehara, K. Toyota, R. Fukuda, J. Hasegawa, M. Ishida, T. Nakajima, 
 Y. Honda, O. Kitao, H. Nakai, T. Vreven, J. A. Montgomery, Jr., 
 J. E. Peralta, F. Ogliaro, M. Bearpark, J. J. Heyd, E. Brothers, 
 K. N. Kudin, V. N. Staroverov, R. Kobayashi, J. Normand, 
 K. Raghavachari, A. Rendell, J. C. Burant, S. S. Iyengar, J. Tomasi, 
 M. Cossi, N. Rega, J. M. Millam, M. Klene, J. E. Knox, J. B. Cross, 
 V. Bakken, C. Adamo, J. Jaramillo, R. Gomperts, R. E. Stratmann, 
 O. Yazyev, A. J. Austin, R. Cammi, C. Pomelli, J. W. Ochterski, 
 R. L. Martin, K. Morokuma, V. G. Zakrzewski, G. A. Voth, 
 P. Salvador, J. J. Dannenberg, S. Dapprich, A. D. Daniels, 
 O. Farkas, J. B. Foresman, J. V. Ortiz, J. Cioslowski, 
 and D. J. Fox, Gaussian, Inc., Wallingford CT, 2009.
 
 ******************************************
 Gaussian 09:  EM64L-G09RevA.02 11-Jun-2009
                26-Dec-2016 
 ******************************************
 %chk=structure_270.chk
 -------------------------------------------------------------------
 # HF/6-31G* Opt=(ModRedundant, maxcycles=1000, calcfc) geom=nocrowd
 -------------------------------------------------------------------
 1/6=1000,10=4,18=120,19=15,38=1/1,3;
 2/9=110,12=1,17=6,18=5,40=1/2;
 3/5=1,6=6,7=1,11=9,16=1,25=1,30=1,71=2/1,2,3;
 4//1;
 5/5=2,38=5/2;
 8/6=4,10=90,11=11/1;
 11/6=1,8=1,9=11,15=111,16=1/1,2,10;
 10/6=1,7=6,13=1/2;
 6/7=2,8=2,9=2,10=2,28=1/1;
 7/10=1,18=20,25=1/1,2,3,16;
 1/6=1000,10=4,18=20,19=15/3(2);
 2/9=110,12=1/2;
 99//99;
 2/9=110,12=1/2;
 3/5=1,6=6,7=1,11=9,16=1,25=1,30=1,71=1/1,2,3;
 4/5=5,16=3/1;
 5/5=2,38=5/2;
 7//1,2,3,16;
 1/6=1000,18=20,19=15/3(-5);
 2/9=110,12=1/2;
 6/7=2,8=2,9=2,10=2,19=2,28=1/1;
 99/9=1/99;
 ------------------
 Phi Psi fixed scan
 ------------------
 Symbolic Z-matrix:
 Charge =  0 Multiplicity = 1
 H                     9.6921    1.        0. 
 C                     9.6921    2.09      0. 
 H                     10.2058   2.4538   -0.8898 
 H                     10.2058   2.4538    0.8898 
 C                     8.2647    2.6408    0. 
 O                     7.3015    1.8774    0. 
 N                     8.1367    3.9696    0. 
 H                     8.959     4.5561    0. 
 C                     6.8388    4.6139    0. 
 H                     6.2845    4.3155   -0.8898 
 C                     6.0308    4.2208    1.2321 
 H                     6.5688    4.5213    2.1312 
 H                     5.0616    4.7189    1.2058 
 H                     5.8836    3.1409    1.2414 
 C                     6.9794    6.1294    0. 
 O                     8.0915    6.6527    0. 
 N                     5.846     6.8349    0. 
 H                     4.9551    6.3592    0. 
 C                     5.8461    8.2839    0. 
 H                     5.3323    8.6477   -0.8898 
 C                     5.1347    8.8329    1.2322 
 H                     5.6431    8.4846    2.1312 
 H                     5.1499    9.9224    1.2058 
 H                     4.1019    8.4846    1.2414 
 C                     7.266     8.8318    0. 
 O                     7.8479    9.0564   -1.0589 
 N                     7.8237    9.047     1.1937 
 H                     7.305     8.8468    2.0369 
 C                     9.1698    9.5664    1.3275 
 H                     9.8724    8.8837    0.8496 
 C                     9.2975    10.9364   0.6699 
 H                     8.6065    11.6334   1.144 
 H                     10.3179   11.3018   0.7857 
 H                     9.0596    10.8545  -0.3907 
 C                     9.5564    9.7156    2.792 
 O                     8.7642    9.4099    3.6806 
 N                     10.7798   10.1877   3.0422 
 H                     11.3955   10.4252   2.2776 
 C                     11.2665   10.3754   4.394 
 H                     10.4944   10.0775   5.1034 
 H                     12.1562   9.765     4.5485 
 H                     11.5155   11.4253   4.5485 
 
 The following ModRedundant input section has been read:
 D   15   17   19   25 F                                                       
 D   17   19   25   27 F                                                       

 GradGradGradGradGradGradGradGradGradGradGradGradGradGradGradGradGradGrad
 Berny optimization.
 Initialization pass.
                           ----------------------------
                           !    Initial Parameters    !
                           ! (Angstroms and Degrees)  !
 --------------------------                            --------------------------
 ! Name  Definition              Value          Derivative Info.                !
 --------------------------------------------------------------------------------
 ! R1    R(1,2)                  1.09           calculate D2E/DX2 analytically  !
 ! R2    R(2,3)                  1.0899         calculate D2E/DX2 analytically  !
 ! R3    R(2,4)                  1.0899         calculate D2E/DX2 analytically  !
 ! R4    R(2,5)                  1.53           calculate D2E/DX2 analytically  !
 ! R5    R(5,6)                  1.229          calculate D2E/DX2 analytically  !
 ! R6    R(5,7)                  1.335          calculate D2E/DX2 analytically  !
 ! R7    R(7,8)                  1.01           calculate D2E/DX2 analytically  !
 ! R8    R(7,9)                  1.449          calculate D2E/DX2 analytically  !
 ! R9    R(9,10)                 1.09           calculate D2E/DX2 analytically  !
 ! R10   R(9,11)                 1.5249         calculate D2E/DX2 analytically  !
 ! R11   R(9,15)                 1.522          calculate D2E/DX2 analytically  !
 ! R12   R(11,12)                1.09           calculate D2E/DX2 analytically  !
 ! R13   R(11,13)                1.09           calculate D2E/DX2 analytically  !
 ! R14   R(11,14)                1.0899         calculate D2E/DX2 analytically  !
 ! R15   R(15,16)                1.2291         calculate D2E/DX2 analytically  !
 ! R16   R(15,17)                1.335          calculate D2E/DX2 analytically  !
 ! R17   R(17,18)                1.0099         calculate D2E/DX2 analytically  !
 ! R18   R(17,19)                1.449          calculate D2E/DX2 analytically  !
 ! R19   R(19,20)                1.09           calculate D2E/DX2 analytically  !
 ! R20   R(19,21)                1.5251         calculate D2E/DX2 analytically  !
 ! R21   R(19,25)                1.5219         calculate D2E/DX2 analytically  !
 ! R22   R(21,22)                1.0899         calculate D2E/DX2 analytically  !
 ! R23   R(21,23)                1.0899         calculate D2E/DX2 analytically  !
 ! R24   R(21,24)                1.09           calculate D2E/DX2 analytically  !
 ! R25   R(25,26)                1.229          calculate D2E/DX2 analytically  !
 ! R26   R(25,27)                1.335          calculate D2E/DX2 analytically  !
 ! R27   R(27,28)                1.01           calculate D2E/DX2 analytically  !
 ! R28   R(27,29)                1.449          calculate D2E/DX2 analytically  !
 ! R29   R(29,30)                1.09           calculate D2E/DX2 analytically  !
 ! R30   R(29,31)                1.525          calculate D2E/DX2 analytically  !
 ! R31   R(29,35)                1.522          calculate D2E/DX2 analytically  !
 ! R32   R(31,32)                1.09           calculate D2E/DX2 analytically  !
 ! R33   R(31,33)                1.09           calculate D2E/DX2 analytically  !
 ! R34   R(31,34)                1.09           calculate D2E/DX2 analytically  !
 ! R35   R(35,36)                1.2291         calculate D2E/DX2 analytically  !
 ! R36   R(35,37)                1.335          calculate D2E/DX2 analytically  !
 ! R37   R(37,38)                1.01           calculate D2E/DX2 analytically  !
 ! R38   R(37,39)                1.449          calculate D2E/DX2 analytically  !
 ! R39   R(39,40)                1.09           calculate D2E/DX2 analytically  !
 ! R40   R(39,41)                1.09           calculate D2E/DX2 analytically  !
 ! R41   R(39,42)                1.09           calculate D2E/DX2 analytically  !
 ! A1    A(1,2,3)              109.4982         calculate D2E/DX2 analytically  !
 ! A2    A(1,2,4)              109.4982         calculate D2E/DX2 analytically  !
 ! A3    A(1,2,5)              111.1004         calculate D2E/DX2 analytically  !
 ! A4    A(3,2,4)              109.4463         calculate D2E/DX2 analytically  !
 ! A5    A(3,2,5)              108.6355         calculate D2E/DX2 analytically  !
 ! A6    A(4,2,5)              108.6355         calculate D2E/DX2 analytically  !
 ! A7    A(2,5,6)              120.5004         calculate D2E/DX2 analytically  !
 ! A8    A(2,5,7)              116.6026         calculate D2E/DX2 analytically  !
 ! A9    A(6,5,7)              122.897          calculate D2E/DX2 analytically  !
 ! A10   A(5,7,8)              119.9959         calculate D2E/DX2 analytically  !
 ! A11   A(5,7,9)              121.9028         calculate D2E/DX2 analytically  !
 ! A12   A(8,7,9)              118.1013         calculate D2E/DX2 analytically  !
 ! A13   A(7,9,10)             109.4983         calculate D2E/DX2 analytically  !
 ! A14   A(7,9,11)             111.0986         calculate D2E/DX2 analytically  !
 ! A15   A(7,9,15)             111.1002         calculate D2E/DX2 analytically  !
 ! A16   A(10,9,11)            108.636          calculate D2E/DX2 analytically  !
 ! A17   A(10,9,15)            108.6373         calculate D2E/DX2 analytically  !
 ! A18   A(11,9,15)            107.7957         calculate D2E/DX2 analytically  !
 ! A19   A(9,11,12)            109.5034         calculate D2E/DX2 analytically  !
 ! A20   A(9,11,13)            109.5016         calculate D2E/DX2 analytically  !
 ! A21   A(9,11,14)            109.5033         calculate D2E/DX2 analytically  !
 ! A22   A(12,11,13)           109.4381         calculate D2E/DX2 analytically  !
 ! A23   A(12,11,14)           109.437          calculate D2E/DX2 analytically  !
 ! A24   A(13,11,14)           109.4437         calculate D2E/DX2 analytically  !
 ! A25   A(9,15,16)            120.4998         calculate D2E/DX2 analytically  !
 ! A26   A(9,15,17)            116.6003         calculate D2E/DX2 analytically  !
 ! A27   A(16,15,17)           122.8999         calculate D2E/DX2 analytically  !
 ! A28   A(15,17,18)           119.9991         calculate D2E/DX2 analytically  !
 ! A29   A(15,17,19)           121.8968         calculate D2E/DX2 analytically  !
 ! A30   A(18,17,19)           118.1041         calculate D2E/DX2 analytically  !
 ! A31   A(17,19,20)           109.4954         calculate D2E/DX2 analytically  !
 ! A32   A(17,19,21)           111.0974         calculate D2E/DX2 analytically  !
 ! A33   A(17,19,25)           111.1042         calculate D2E/DX2 analytically  !
 ! A34   A(20,19,21)           108.6349         calculate D2E/DX2 analytically  !
 ! A35   A(20,19,25)           108.6399         calculate D2E/DX2 analytically  !
 ! A36   A(21,19,25)           107.7944         calculate D2E/DX2 analytically  !
 ! A37   A(19,21,22)           109.4996         calculate D2E/DX2 analytically  !
 ! A38   A(19,21,23)           109.4977         calculate D2E/DX2 analytically  !
 ! A39   A(19,21,24)           109.4988         calculate D2E/DX2 analytically  !
 ! A40   A(22,21,23)           109.4452         calculate D2E/DX2 analytically  !
 ! A41   A(22,21,24)           109.4447         calculate D2E/DX2 analytically  !
 ! A42   A(23,21,24)           109.4412         calculate D2E/DX2 analytically  !
 ! A43   A(19,25,26)           120.5            calculate D2E/DX2 analytically  !
 ! A44   A(19,25,27)           116.6007         calculate D2E/DX2 analytically  !
 ! A45   A(26,25,27)           122.8992         calculate D2E/DX2 analytically  !
 ! A46   A(25,27,28)           119.999          calculate D2E/DX2 analytically  !
 ! A47   A(25,27,29)           121.8989         calculate D2E/DX2 analytically  !
 ! A48   A(28,27,29)           118.1022         calculate D2E/DX2 analytically  !
 ! A49   A(27,29,30)           109.5001         calculate D2E/DX2 analytically  !
 ! A50   A(27,29,31)           111.0994         calculate D2E/DX2 analytically  !
 ! A51   A(27,29,35)           111.0974         calculate D2E/DX2 analytically  !
 ! A52   A(30,29,31)           108.6405         calculate D2E/DX2 analytically  !
 ! A53   A(30,29,35)           108.6353         calculate D2E/DX2 analytically  !
 ! A54   A(31,29,35)           107.7934         calculate D2E/DX2 analytically  !
 ! A55   A(29,31,32)           109.5006         calculate D2E/DX2 analytically  !
 ! A56   A(29,31,33)           109.4953         calculate D2E/DX2 analytically  !
 ! A57   A(29,31,34)           109.4992         calculate D2E/DX2 analytically  !
 ! A58   A(32,31,33)           109.4445         calculate D2E/DX2 analytically  !
 ! A59   A(32,31,34)           109.4449         calculate D2E/DX2 analytically  !
 ! A60   A(33,31,34)           109.4428         calculate D2E/DX2 analytically  !
 ! A61   A(29,35,36)           120.5017         calculate D2E/DX2 analytically  !
 ! A62   A(29,35,37)           116.6014         calculate D2E/DX2 analytically  !
 ! A63   A(36,35,37)           122.8969         calculate D2E/DX2 analytically  !
 ! A64   A(35,37,38)           119.995          calculate D2E/DX2 analytically  !
 ! A65   A(35,37,39)           121.903          calculate D2E/DX2 analytically  !
 ! A66   A(38,37,39)           118.102          calculate D2E/DX2 analytically  !
 ! A67   A(37,39,40)           109.5024         calculate D2E/DX2 analytically  !
 ! A68   A(37,39,41)           109.5044         calculate D2E/DX2 analytically  !
 ! A69   A(37,39,42)           109.4959         calculate D2E/DX2 analytically  !
 ! A70   A(40,39,41)           109.4442         calculate D2E/DX2 analytically  !
 ! A71   A(40,39,42)           109.4389         calculate D2E/DX2 analytically  !
 ! A72   A(41,39,42)           109.4417         calculate D2E/DX2 analytically  !
 ! D1    D(1,2,5,6)              0.0            calculate D2E/DX2 analytically  !
 ! D2    D(1,2,5,7)            180.0            calculate D2E/DX2 analytically  !
 ! D3    D(3,2,5,6)            120.51           calculate D2E/DX2 analytically  !
 ! D4    D(3,2,5,7)            -59.49           calculate D2E/DX2 analytically  !
 ! D5    D(4,2,5,6)           -120.51           calculate D2E/DX2 analytically  !
 ! D6    D(4,2,5,7)             59.49           calculate D2E/DX2 analytically  !
 ! D7    D(2,5,7,8)              0.0            calculate D2E/DX2 analytically  !
 ! D8    D(2,5,7,9)            180.0            calculate D2E/DX2 analytically  !
 ! D9    D(6,5,7,8)            180.0            calculate D2E/DX2 analytically  !
 ! D10   D(6,5,7,9)              0.0            calculate D2E/DX2 analytically  !
 ! D11   D(5,7,9,10)           -59.9991         calculate D2E/DX2 analytically  !
 ! D12   D(5,7,9,11)            59.9992         calculate D2E/DX2 analytically  !
 ! D13   D(5,7,9,15)           180.0            calculate D2E/DX2 analytically  !
 ! D14   D(8,7,9,10)           120.0009         calculate D2E/DX2 analytically  !
 ! D15   D(8,7,9,11)          -120.0008         calculate D2E/DX2 analytically  !
 ! D16   D(8,7,9,15)             0.0            calculate D2E/DX2 analytically  !
 ! D17   D(7,9,11,12)           60.0014         calculate D2E/DX2 analytically  !
 ! D18   D(7,9,11,13)          179.9992         calculate D2E/DX2 analytically  !
 ! D19   D(7,9,11,14)          -59.9962         calculate D2E/DX2 analytically  !
 ! D20   D(10,9,11,12)        -179.4894         calculate D2E/DX2 analytically  !
 ! D21   D(10,9,11,13)         -59.4916         calculate D2E/DX2 analytically  !
 ! D22   D(10,9,11,14)          60.5131         calculate D2E/DX2 analytically  !
 ! D23   D(15,9,11,12)         -61.9437         calculate D2E/DX2 analytically  !
 ! D24   D(15,9,11,13)          58.0541         calculate D2E/DX2 analytically  !
 ! D25   D(15,9,11,14)         178.0588         calculate D2E/DX2 analytically  !
 ! D26   D(7,9,15,16)            0.0            calculate D2E/DX2 analytically  !
 ! D27   D(7,9,15,17)          180.0            calculate D2E/DX2 analytically  !
 ! D28   D(10,9,15,16)        -120.5111         calculate D2E/DX2 analytically  !
 ! D29   D(10,9,15,17)          59.4889         calculate D2E/DX2 analytically  !
 ! D30   D(11,9,15,16)         121.9441         calculate D2E/DX2 analytically  !
 ! D31   D(11,9,15,17)         -58.0559         calculate D2E/DX2 analytically  !
 ! D32   D(9,15,17,18)           0.0            calculate D2E/DX2 analytically  !
 ! D33   D(9,15,17,19)         180.0            calculate D2E/DX2 analytically  !
 ! D34   D(16,15,17,18)        180.0            calculate D2E/DX2 analytically  !
 ! D35   D(16,15,17,19)          0.0            calculate D2E/DX2 analytically  !
 ! D36   D(15,17,19,20)        120.0048         calculate D2E/DX2 analytically  !
 ! D37   D(15,17,19,21)       -120.0009         calculate D2E/DX2 analytically  !
 ! D38   D(15,17,19,25)          0.0            frozen, calculate D2E/DX2 analyt!
 ! D39   D(18,17,19,20)        -59.9952         calculate D2E/DX2 analytically  !
 ! D40   D(18,17,19,21)         59.9991         calculate D2E/DX2 analytically  !
 ! D41   D(18,17,19,25)        180.0            calculate D2E/DX2 analytically  !
 ! D42   D(17,19,21,22)         60.0039         calculate D2E/DX2 analytically  !
 ! D43   D(17,19,21,23)       -179.9943         calculate D2E/DX2 analytically  !
 ! D44   D(17,19,21,24)        -59.998          calculate D2E/DX2 analytically  !
 ! D45   D(20,19,21,22)       -179.4919         calculate D2E/DX2 analytically  !
 ! D46   D(20,19,21,23)        -59.4901         calculate D2E/DX2 analytically  !
 ! D47   D(20,19,21,24)         60.5062         calculate D2E/DX2 analytically  !
 ! D48   D(25,19,21,22)        -61.9445         calculate D2E/DX2 analytically  !
 ! D49   D(25,19,21,23)         58.0573         calculate D2E/DX2 analytically  !
 ! D50   D(25,19,21,24)        178.0536         calculate D2E/DX2 analytically  !
 ! D51   D(17,19,25,26)         90.0031         calculate D2E/DX2 analytically  !
 ! D52   D(17,19,25,27)        -90.0            frozen, calculate D2E/DX2 analyt!
 ! D53   D(20,19,25,26)        -30.5086         calculate D2E/DX2 analytically  !
 ! D54   D(20,19,25,27)        149.4884         calculate D2E/DX2 analytically  !
 ! D55   D(21,19,25,26)       -148.0528         calculate D2E/DX2 analytically  !
 ! D56   D(21,19,25,27)         31.9442         calculate D2E/DX2 analytically  !
 ! D57   D(19,25,27,28)          0.0029         calculate D2E/DX2 analytically  !
 ! D58   D(19,25,27,29)        179.999          calculate D2E/DX2 analytically  !
 ! D59   D(26,25,27,28)        179.9998         calculate D2E/DX2 analytically  !
 ! D60   D(26,25,27,29)         -0.0041         calculate D2E/DX2 analytically  !
 ! D61   D(25,27,29,30)        -60.0028         calculate D2E/DX2 analytically  !
 ! D62   D(25,27,29,31)         60.0028         calculate D2E/DX2 analytically  !
 ! D63   D(25,27,29,35)        179.9993         calculate D2E/DX2 analytically  !
 ! D64   D(28,27,29,30)        119.9934         calculate D2E/DX2 analytically  !
 ! D65   D(28,27,29,31)       -120.001          calculate D2E/DX2 analytically  !
 ! D66   D(28,27,29,35)         -0.0045         calculate D2E/DX2 analytically  !
 ! D67   D(27,29,31,32)         60.0001         calculate D2E/DX2 analytically  !
 ! D68   D(27,29,31,33)       -179.9999         calculate D2E/DX2 analytically  !
 ! D69   D(27,29,31,34)        -60.0029         calculate D2E/DX2 analytically  !
 ! D70   D(30,29,31,32)       -179.4849         calculate D2E/DX2 analytically  !
 ! D71   D(30,29,31,33)        -59.4849         calculate D2E/DX2 analytically  !
 ! D72   D(30,29,31,34)         60.5121         calculate D2E/DX2 analytically  !
 ! D73   D(35,29,31,32)        -61.9405         calculate D2E/DX2 analytically  !
 ! D74   D(35,29,31,33)         58.0595         calculate D2E/DX2 analytically  !
 ! D75   D(35,29,31,34)        178.0565         calculate D2E/DX2 analytically  !
 ! D76   D(27,29,35,36)          0.0022         calculate D2E/DX2 analytically  !
 ! D77   D(27,29,35,37)       -179.9981         calculate D2E/DX2 analytically  !
 ! D78   D(30,29,35,36)       -120.5081         calculate D2E/DX2 analytically  !
 ! D79   D(30,29,35,37)         59.4915         calculate D2E/DX2 analytically  !
 ! D80   D(31,29,35,36)        121.9441         calculate D2E/DX2 analytically  !
 ! D81   D(31,29,35,37)        -58.0563         calculate D2E/DX2 analytically  !
 ! D82   D(29,35,37,38)         -0.0052         calculate D2E/DX2 analytically  !
 ! D83   D(29,35,37,39)       -179.9945         calculate D2E/DX2 analytically  !
 ! D84   D(36,35,37,38)        179.9945         calculate D2E/DX2 analytically  !
 ! D85   D(36,35,37,39)          0.0051         calculate D2E/DX2 analytically  !
 ! D86   D(35,37,39,40)         -0.0065         calculate D2E/DX2 analytically  !
 ! D87   D(35,37,39,41)        119.9997         calculate D2E/DX2 analytically  !
 ! D88   D(35,37,39,42)       -120.0011         calculate D2E/DX2 analytically  !
 ! D89   D(38,37,39,40)       -179.9961         calculate D2E/DX2 analytically  !
 ! D90   D(38,37,39,41)        -59.9898         calculate D2E/DX2 analytically  !
 ! D91   D(38,37,39,42)         60.0094         calculate D2E/DX2 analytically  !
 --------------------------------------------------------------------------------
 Trust Radius=3.00D-01 FncErr=1.00D-07 GrdErr=1.00D-07
 Number of steps in this run= 252 maximum allowed number of steps= 252.
 GradGradGradGradGradGradGradGradGradGradGradGradGradGradGradGradGradGrad

                          Input orientation:                          
 ---------------------------------------------------------------------
 Center     Atomic      Atomic             Coordinates (Angstroms)
 Number     Number       Type             X           Y           Z
 ---------------------------------------------------------------------
      1          1           0        9.692100    1.000000    0.000000
      2          6           0        9.692100    2.090000    0.000000
      3          1           0       10.205800    2.453800   -0.889800
      4          1           0       10.205800    2.453800    0.889800
      5          6           0        8.264700    2.640800    0.000000
      6          8           0        7.301500    1.877400    0.000000
      7          7           0        8.136700    3.969600    0.000000
      8          1           0        8.959000    4.556100    0.000000
      9          6           0        6.838800    4.613900    0.000000
     10          1           0        6.284500    4.315500   -0.889800
     11          6           0        6.030800    4.220800    1.232100
     12          1           0        6.568800    4.521300    2.131200
     13          1           0        5.061600    4.718900    1.205800
     14          1           0        5.883600    3.140900    1.241400
     15          6           0        6.979400    6.129400    0.000000
     16          8           0        8.091500    6.652700    0.000000
     17          7           0        5.846000    6.834900    0.000000
     18          1           0        4.955100    6.359200    0.000000
     19          6           0        5.846100    8.283900    0.000000
     20          1           0        5.332300    8.647700   -0.889800
     21          6           0        5.134700    8.832900    1.232200
     22          1           0        5.643100    8.484600    2.131200
     23          1           0        5.149900    9.922400    1.205800
     24          1           0        4.101900    8.484600    1.241400
     25          6           0        7.266000    8.831800    0.000000
     26          8           0        7.847900    9.056400   -1.058900
     27          7           0        7.823700    9.047000    1.193700
     28          1           0        7.305000    8.846800    2.036900
     29          6           0        9.169800    9.566400    1.327500
     30          1           0        9.872400    8.883700    0.849600
     31          6           0        9.297500   10.936400    0.669900
     32          1           0        8.606500   11.633400    1.144000
     33          1           0       10.317900   11.301800    0.785700
     34          1           0        9.059600   10.854500   -0.390700
     35          6           0        9.556400    9.715600    2.792000
     36          8           0        8.764200    9.409900    3.680600
     37          7           0       10.779800   10.187700    3.042200
     38          1           0       11.395500   10.425200    2.277600
     39          6           0       11.266500   10.375400    4.394000
     40          1           0       10.494400   10.077500    5.103400
     41          1           0       12.156200    9.765000    4.548500
     42          1           0       11.515500   11.425300    4.548500
 ---------------------------------------------------------------------
                    Distance matrix (angstroms):
                    1          2          3          4          5
     1  H    0.000000
     2  C    1.090000   0.000000
     3  H    1.780215   1.089946   0.000000
     4  H    1.780215   1.089946   1.779600   0.000000
     5  C    2.174786   1.529984   2.143498   2.143498   0.000000
     6  O    2.546527   2.400035   3.091753   3.091753   1.229038
     7  N    3.352282   2.439706   2.714879   2.714879   1.334951
     8  H    3.630879   2.572758   2.601138   2.601138   2.037260
     9  C    4.604519   3.809382   4.098105   4.098105   2.434402
    10  H    4.836943   4.166093   4.340797   4.691428   2.741816
    11  C    5.029587   4.411745   5.005534   4.546436   3.000796
    12  H    5.166872   4.495357   5.160307   4.363874   3.309739
    13  H    6.060173   5.459542   5.998751   5.629683   4.004036
    14  H    4.541938   4.141272   4.867806   4.390574   2.731449
    15  C    5.802541   4.865747   4.971060   4.971060   3.717839
    16  O    5.874942   4.835303   4.784639   4.784639   4.015637
    17  N    6.988458   6.107910   6.244489   6.244489   4.841548
    18  H    7.152635   6.376930   6.604070   6.604070   4.977946
    19  C    8.236924   7.290824   7.334084   7.334084   6.139561
    20  H    8.847989   7.924836   7.881332   8.079751   6.743409
    21  C    9.145629   8.231337   8.420918   8.156360   7.046795
    22  H    8.772437   7.863035   8.143416   7.663541   6.750170
    23  H   10.084382   9.134113   9.259247   9.024520   8.011094
    24  H    9.423940   8.583841   8.841389   8.587885   7.281482
    25  C    8.198967   7.165042   7.079057   7.079057   6.271035
    26  O    8.332342   7.283754   7.013032   7.276775   6.515744
    27  N    8.346859   7.301759   7.313389   7.016911   6.531370
    28  H    8.451005   7.449937   7.605962   7.113433   6.601850
    29  C    8.684369   7.611282   7.521888   7.200969   7.109529
    30  H    7.931397   6.848992   6.669354   6.438663   6.502332
    31  C    9.966771   8.880499   8.672495   8.533925   8.386443
    32  H   10.749719   9.672836   9.537251   9.321343   9.071517
    33  H   10.350654   9.266402   9.005941   8.849322   8.935652
    34  H    9.882503   8.795974   8.493211   8.574685   8.261318
    35  C    9.152888   8.121789   8.167687   7.534841   7.714697
    36  O    9.226821   8.245529   8.447135   7.632438   7.721207
    37  N    9.739194   8.718418   8.695016   8.048323   8.516831
    38  H    9.844970   8.807076   8.659736   8.178300   8.694036
    39  C   10.473018   9.509670   9.580990   8.726755   9.388401
    40  H   10.444586   9.512546   9.701677   8.715418   9.290897
    41  H   10.177714   9.255607   9.318413   8.404986   9.305206
    42  H   11.519571  10.543314  10.572523   9.776974  10.412684
                    6          7          8          9         10
     6  O    0.000000
     7  N    2.252745   0.000000
     8  H    3.150038   1.010029   0.000000
     9  C    2.775342   1.449023   2.120988   0.000000
    10  H    2.787537   2.083755   2.828884   1.089970   0.000000
    11  C    2.936711   2.452751   3.194503   1.524947   2.139110
    12  H    3.474057   2.702720   3.202543   2.150230   3.041319
    13  H    3.813821   3.386982   4.082914   2.150214   2.459625
    14  H    2.268909   2.702643   3.605822   2.150165   2.466256
    15  C    4.264183   2.450322   2.528654   1.522008   2.136554
    16  O    4.840206   2.683481   2.268984   2.392898   3.085368
    17  N    5.166748   3.668413   3.857940   2.432795   2.707656
    18  H    5.058866   3.979041   4.391171   2.567956   2.595334
    19  C    6.569736   4.884673   4.856608   3.801888   4.090494
    20  H    7.106789   5.526393   5.539484   4.396911   4.435611
    21  C    7.388662   5.846538   5.868101   4.714047   5.121702
    22  H    7.137744   5.580796   5.565098   4.577557   5.188374
    23  H    8.414592   6.768364   6.690319   5.699694   6.092305
    24  H    7.445375   6.181093   6.369113   4.900410   5.165961
    25  C    6.954491   4.939545   4.598680   4.239479   4.706597
    26  O    7.277215   5.203865   4.754841   4.677110   4.994892
    27  N    7.287028   5.225216   4.783514   4.695458   5.394182
    28  H    7.260958   5.350492   5.029392   4.720566   5.489961
    29  C    8.023311   5.844119   5.187466   5.632324   6.388531
    30  H    7.511297   5.280422   4.503803   5.306198   6.063579
    31  C    9.300444   7.094542   6.424296   6.816742   7.439567
    32  H    9.909152   7.762943   7.177825   7.328498   7.942272
    33  H    9.926495   7.690001   6.925922   7.579543   8.239175
    34  H    9.155975   6.957459   6.311308   6.635487   7.121011
    35  C    8.620743   6.544259   5.896829   6.419342   7.309040
    36  O    8.510280   6.598290   6.094599   6.344730   7.279449
    37  N    9.508661   7.409840   6.654714   7.473534   8.375624
    38  H    9.747471   7.581689   6.750580   7.728013   8.572233
    39  C   10.355890   8.374793   7.648271   8.491563   9.458396
    40  H   10.172558   8.301198   7.673852   8.322201   9.318924
    41  H   10.318488   8.392371   7.618634   8.688925   9.682408
    42  H   11.384597   9.364433   8.626149   9.431625  10.367629
                   11         12         13         14         15
    11  C    0.000000
    12  H    1.090011   0.000000
    13  H    1.090020   1.779624   0.000000
    14  H    1.089926   1.779536   1.779617   0.000000
    15  C    2.461842   2.701220   2.668599   3.416575   0.000000
    16  O    3.417410   3.376906   3.791283   4.329969   1.229068
    17  N    2.895814   3.227568   2.558651   3.897194   1.335038
    18  H    2.692203   3.244059   2.038598   3.572204   2.037302
    19  C    4.249820   4.384229   3.844297   5.290834   2.434387
    20  H    4.958609   5.261421   4.460974   5.930497   3.137916
    21  C    4.698347   4.631926   4.114734   5.741063   3.497163
    22  H    4.374778   4.069971   3.921097   5.422611   3.445965
    23  H    5.769308   5.660523   5.204249   6.821167   4.380396
    24  H    4.679822   4.752377   3.886231   5.632902   3.920210
    25  C    4.930021   4.858859   4.819676   5.986522   2.717555
    26  O    5.650979   5.690340   5.630829   6.644019   3.231546
    27  N    5.148609   4.789117   5.134374   6.216774   3.263457
    28  H    4.865302   4.388717   4.771072   5.933843   3.411633
    29  C    6.199828   5.732728   6.355342   7.217588   4.286383
    30  H    6.053663   5.620214   6.373087   7.003127   4.083802
    31  C    7.489104   7.122830   7.542370   8.529428   5.378625
    32  H    7.847842   7.463830   7.770486   8.918869   5.852368
    33  H    8.289696   7.863924   8.434438   9.298977   6.206177
    34  H    7.470816   7.257650   7.495225   8.500021   5.177494
    35  C    6.712374   6.028529   6.905524   7.688986   5.224655
    36  O    6.355579   5.578426   6.468335   7.317644   5.243473
    37  N    7.837944   7.118324   8.122681   8.767727   6.337809
    38  H    8.268474   7.627221   8.592375   9.193246   6.568356
    39  C    8.676939   7.839588   8.981169   9.552617   7.464247
    40  H    8.319352   7.423993   8.568617   9.181010   7.347613
    41  H    8.902651   8.034847   9.325777   9.703665   7.791386
    42  H    9.642887   8.830538   9.889503  10.549241   8.325360
                   16         17         18         19         20
    16  O    0.000000
    17  N    2.252880   0.000000
    18  H    3.150103   1.009947   0.000000
    19  C    2.775362   1.449000   2.120932   0.000000
    20  H    3.519226   2.083717   2.484201   1.089993   0.000000
    21  C    3.874823   2.452808   2.769434   1.525060   2.139212
    22  H    3.727269   2.702719   3.087504   2.150233   3.041322
    23  H    4.560472   3.386911   3.766735   2.150193   2.459608
    24  H    4.562219   2.702678   2.605062   2.150253   2.466272
    25  C    2.330220   2.450308   3.384377   1.521943   2.136547
    26  O    2.637875   3.172371   4.094441   2.392745   2.554188
    27  N    2.688737   3.198375   4.108291   2.432723   3.272230
    28  H    3.095419   3.213314   3.982354   2.567919   3.535076
    29  C    3.378555   4.502332   5.460044   3.801847   4.526239
    30  H    2.978386   4.596879   5.592384   4.158446   4.867619
    31  C    4.500365   5.402214   6.344759   4.404167   4.836695
    32  H    5.136276   5.652849   6.516030   4.488618   4.875565
    33  H    5.214241   6.369334   7.335274   5.451792   5.891329
    34  H    4.329548   5.161110   6.099778   4.133668   4.360256
    35  C    4.395743   5.464500   6.342921   4.859152   5.704304
    36  O    4.647741   5.356616   6.112514   4.830114   5.766060
    37  N    5.383137   6.696165   7.605230   6.100888   6.892567
    38  H    5.507779   6.991042   7.949753   6.369338   7.067837
    39  C    6.576196   7.824589   8.675879   7.284390   8.131311
    40  H    6.599081   7.626714   8.399660   7.132208   8.038038
    41  H    6.848142   8.312218   9.173013   7.918325   8.797106
    42  H    7.429020   8.596735   9.454791   7.918292   8.690347
                   21         22         23         24         25
    21  C    0.000000
    22  H    1.089947   0.000000
    23  H    1.089926   1.779573   0.000000
    24  H    1.089988   1.779618   1.779562   0.000000
    25  C    2.461861   2.701179   2.668565   3.416599   0.000000
    26  O    3.558166   3.919801   3.627399   4.432928   1.228952
    27  N    2.697785   2.439307   2.813481   3.764354   1.335013
    28  H    2.314722   1.703524   2.547960   3.320220   2.037329
    29  C    4.102333   3.775426   4.037467   5.182790   2.434409
    30  H    4.753395   4.437202   4.848482   5.797539   2.741867
    31  C    4.697850   4.636956   4.303251   5.773404   3.000850
    32  H    4.461387   4.435228   3.857386   5.496895   3.309779
    33  H    5.758506   5.621454   5.365394   6.839805   4.004038
    34  H    4.703776   4.863011   4.324740   5.732274   2.731476
    35  C    4.771118   4.155230   4.687861   5.802697   3.717835
    36  O    4.415978   3.605286   4.410267   5.342557   4.015672
    37  N    6.081014   5.487819   5.927776   7.123046   4.841512
    38  H    6.544150   6.072682   6.356814   7.618152   4.977867
    39  C    7.069318   6.349647   6.912498   8.052671   6.139539
    40  H    6.727674   5.908165   6.616572   7.636520   6.165957
    41  H    7.821005   7.064222   7.764448   8.800459   6.743424
    42  H    7.644148   6.998295   7.345285   8.634008   6.743393
                   26         27         28         29         30
    26  O    0.000000
    27  N    2.252750   0.000000
    28  H    3.150024   1.010008   0.000000
    29  C    2.775324   1.449022   2.120979   0.000000
    30  H    2.787615   2.083805   2.828884   1.090007   0.000000
    31  C    2.936748   2.452812   3.194554   1.525007   2.139247
    32  H    3.474071   2.702723   3.202548   2.150225   3.041385
    33  H    3.813826   3.386978   4.082903   2.150185   2.459626
    34  H    2.268892   2.702745   3.605929   2.150246   2.466382
    35  C    4.264147   2.450273   2.528595   1.521999   2.136547
    36  O    4.840189   2.683451   2.268942   2.392924   3.085378
    37  N    5.166711   3.668334   3.857833   2.432758   2.707635
    38  H    5.058786   3.978948   4.391067   2.567872   2.595234
    39  C    6.569681   4.884612   4.856544   3.801849   4.090410
    40  H    6.783845   4.845650   4.592420   4.034007   4.461710
    41  H    7.106792   5.526370   5.539437   4.396916   4.435571
    42  H    7.106751   5.526335   5.539414   4.396892   4.779265
                   31         32         33         34         35
    31  C    0.000000
    32  H    1.089982   0.000000
    33  H    1.090020   1.779671   0.000000
    34  H    1.090035   1.779688   1.779695   0.000000
    35  C    2.461847   2.701143   2.668549   3.416648   0.000000
    36  O    3.417444   3.376857   3.791268   4.330082   1.229082
    37  N    2.895785   3.227452   2.558586   3.897244   1.334985
    38  H    2.692142   3.243966   2.038483   3.572192   2.037260
    39  C    4.249777   4.384138   3.844202   5.290869   2.434375
    40  H    4.671852   4.654228   4.491391   5.731275   2.520592
    41  H    4.958617   5.261360   4.460915   5.930568   3.137944
    42  H    4.494673   4.482879   3.950717   5.545535   3.137904
                   36         37         38         39         40
    36  O    0.000000
    37  N    2.252814   0.000000
    38  H    3.150077   1.010003   0.000000
    39  C    2.775362   1.448955   2.120913   0.000000
    40  H    2.337443   2.083781   2.986306   1.090014   0.000000
    41  H    3.519234   2.083769   2.484253   1.089965   1.779649
    42  H    3.519196   2.083710   2.484268   1.090028   1.779642
                   41         42
    41  H    0.000000
    42  H    1.779633   0.000000
 Stoichiometry    C12H22N4O4
 Framework group  C1[X(C12H22N4O4)]
 Deg. of freedom   120
 Full point group                 C1      NOp   1
 Largest Abelian subgroup         C1      NOp   1
 Largest concise Abelian subgroup C1      NOp   1
                         Standard orientation:                         
 ---------------------------------------------------------------------
 Center     Atomic      Atomic             Coordinates (Angstroms)
 Number     Number       Type             X           Y           Z
 ---------------------------------------------------------------------
      1          1           0        5.541142    3.292109   -0.632299
      2          6           0        4.542767    2.891952   -0.808999
      3          1           0        4.357557    2.836748   -1.881674
      4          1           0        3.802260    3.544068   -0.345992
      5          6           0        4.398495    1.489327   -0.215132
      6          8           0        5.340802    0.959549    0.369613
      7          7           0        3.213697    0.893857   -0.369283
      8          1           0        2.468977    1.370083   -0.857916
      9          6           0        2.951102   -0.434187    0.147447
     10          1           0        3.641953   -1.144456   -0.306731
     11          6           0        3.130612   -0.479677    1.661108
     12          1           0        2.439049    0.219810    2.130772
     13          1           0        2.927181   -1.488071    2.021527
     14          1           0        4.153981   -0.203324    1.914647
     15          6           0        1.527513   -0.872310   -0.165522
     16          8           0        0.767545   -0.129165   -0.782609
     17          7           0        1.167348   -2.084480    0.262557
     18          1           0        1.827894   -2.659073    0.766060
     19          6           0       -0.159874   -2.616347    0.027611
     20          1           0       -0.085779   -3.535661   -0.553300
     21          6           0       -0.867681   -2.926418    1.342401
     22          1           0       -0.957481   -2.013680    1.931323
     23          1           0       -1.861196   -3.324102    1.135726
     24          1           0       -0.290886   -3.663462    1.901104
     25          6           0       -1.020051   -1.623379   -0.740777
     26          8           0       -1.042210   -1.637337   -1.969449
     27          7           0       -1.730382   -0.758919   -0.012492
     28          1           0       -1.679216   -0.786501    0.995842
     29          6           0       -2.587581    0.235627   -0.625478
     30          1           0       -1.990460    0.887185   -1.263469
     31          6           0       -3.669452   -0.421298   -1.476154
     32          1           0       -4.281413   -1.069861   -0.849312
     33          1           0       -4.297784    0.348721   -1.923827
     34          1           0       -3.203454   -1.012847   -2.264248
     35          6           0       -3.278778    1.088057    0.429078
     36          8           0       -3.076126    0.887242    1.624590
     37          7           0       -4.098009    2.043044   -0.017069
     38          1           0       -4.232345    2.169749   -1.010048
     39          6           0       -4.814566    2.920729    0.886085
     40          1           0       -4.568213    2.662729    1.916074
     41          1           0       -4.528215    3.954446    0.692548
     42          1           0       -5.887260    2.806106    0.730037
 ---------------------------------------------------------------------
 Rotational constants (GHZ):      0.4646142      0.1670668      0.1419376
 Standard basis: 6-31G(d) (6D, 7F)
 There are   344 symmetry adapted basis functions of A   symmetry.
 Integral buffers will be    131072 words long.
 Raffenetti 1 integral format.
 Two-electron integral symmetry is turned on.
   344 basis functions,   648 primitive gaussians,   344 cartesian basis functions
    77 alpha electrons       77 beta electrons
       nuclear repulsion energy      1667.8395437811 Hartrees.
 NAtoms=   42 NActive=   42 NUniq=   42 SFac= 7.50D-01 NAtFMM=   80 NAOKFM=F Big=F
 One-electron integrals computed using PRISM.
 NBasis=   344 RedAO= T  NBF=   344
 NBsUse=   344 1.00D-06 NBFU=   344
 Harris functional with IExCor=  205 diagonalized for initial guess.
 ExpMin= 1.61D-01 ExpMax= 5.48D+03 ExpMxC= 8.25D+02 IAcc=1 IRadAn=         1 AccDes= 0.00D+00
 HarFok:  IExCor=  205 AccDes= 0.00D+00 IRadAn=         1 IDoV= 1
 ScaDFX=  1.000000  1.000000  1.000000  1.000000
 FoFCou: FMM=F IPFlag=           0 FMFlag=      100000 FMFlg1=           0
         NFxFlg=           0 DoJE=T BraDBF=F KetDBF=T FulRan=T
         Omega=  0.000000  0.000000  1.000000  0.000000  0.000000 ICntrl=     500 IOpCl=  0
         NMat0=    1 NMatS0=    1 NMatT0=    0 NMatD0=    1 NMtDS0=    0 NMtDT0=    0
         I1Cent=           4 NGrid=           0.
 Petite list used in FoFCou.
 Initial guess orbital symmetries:
       Occupied  (A) (A) (A) (A) (A) (A) (A) (A) (A) (A) (A) (A)
                 (A) (A) (A) (A) (A) (A) (A) (A) (A) (A) (A) (A)
                 (A) (A) (A) (A) (A) (A) (A) (A) (A) (A) (A) (A)
                 (A) (A) (A) (A) (A) (A) (A) (A) (A) (A) (A) (A)
                 (A) (A) (A) (A) (A) (A) (A) (A) (A) (A) (A) (A)
                 (A) (A) (A) (A) (A) (A) (A) (A) (A) (A) (A) (A)
                 (A) (A) (A) (A) (A)
       Virtual   (A) (A) (A) (A) (A) (A) (A) (A) (A) (A) (A) (A)
                 (A) (A) (A) (A) (A) (A) (A) (A) (A) (A) (A) (A)
                 (A) (A) (A) (A) (A) (A) (A) (A) (A) (A) (A) (A)
                 (A) (A) (A) (A) (A) (A) (A) (A) (A) (A) (A) (A)
                 (A) (A) (A) (A) (A) (A) (A) (A) (A) (A) (A) (A)
                 (A) (A) (A) (A) (A) (A) (A) (A) (A) (A) (A) (A)
                 (A) (A) (A) (A) (A) (A) (A) (A) (A) (A) (A) (A)
                 (A) (A) (A) (A) (A) (A) (A) (A) (A) (A) (A) (A)
                 (A) (A) (A) (A) (A) (A) (A) (A) (A) (A) (A) (A)
                 (A) (A) (A) (A) (A) (A) (A) (A) (A) (A) (A) (A)
                 (A) (A) (A) (A) (A) (A) (A) (A) (A) (A) (A) (A)
                 (A) (A) (A) (A) (A) (A) (A) (A) (A) (A) (A) (A)
                 (A) (A) (A) (A) (A) (A) (A) (A) (A) (A) (A) (A)
                 (A) (A) (A) (A) (A) (A) (A) (A) (A) (A) (A) (A)
                 (A) (A) (A) (A) (A) (A) (A) (A) (A) (A) (A) (A)
                 (A) (A) (A) (A) (A) (A) (A) (A) (A) (A) (A) (A)
                 (A) (A) (A) (A) (A) (A) (A) (A) (A) (A) (A) (A)
                 (A) (A) (A) (A) (A) (A) (A) (A) (A) (A) (A) (A)
                 (A) (A) (A) (A) (A) (A) (A) (A) (A) (A) (A) (A)
                 (A) (A) (A) (A) (A) (A) (A) (A) (A) (A) (A) (A)
                 (A) (A) (A) (A) (A) (A) (A) (A) (A) (A) (A) (A)
                 (A) (A) (A) (A) (A) (A) (A) (A) (A) (A) (A) (A)
                 (A) (A) (A)
 The electronic state of the initial guess is 1-A.
 Requested convergence on RMS density matrix=1.00D-08 within 128 cycles.
 Requested convergence on MAX density matrix=1.00D-06.
 Requested convergence on             energy=1.00D-06.
 No special actions if energy rises.
 Integral accuracy reduced to 1.0D-05 until final iterations.
 Initial convergence to 1.0D-05 achieved.  Increase integral accuracy.
 SCF Done:  E(RHF) =  -984.513762035     A.U. after   15 cycles
             Convg  =    0.2839D-08             -V/T =  2.0018
 Range of M.O.s used for correlation:     1   344
 NBasis=   344 NAE=    77 NBE=    77 NFC=     0 NFV=     0
 NROrb=    344 NOA=    77 NOB=    77 NVA=   267 NVB=   267
 Symmetrizing basis deriv contribution to polar:
 IMax=3 JMax=2 DiffMx= 0.00D+00
 G2DrvN: will do    43 centers at a time, making    1 passes doing MaxLOS=2.
 Calling FoFCou, ICntrl=  3107 FMM=F I1Cent=   0 AccDes= 0.00D+00.
 FoFDir/FoFCou used for L=0 through L=2.
 End of G2Drv Frequency-dependent properties file   721 does not exist.
 End of G2Drv Frequency-dependent properties file   722 does not exist.
          IDoAtm=111111111111111111111111111111111111111111
          Differentiating once with respect to nuclear coordinates.
          There are   129 degrees of freedom in the 1st order CPHF.  IDoFFX=5.
    123 vectors produced by pass  0 Test12= 2.06D-10 1.00D-07 XBig12= 9.50D-02 6.15D-02.
 AX will form   123 AO Fock derivatives at one time.
    123 vectors produced by pass  1 Test12= 2.06D-10 1.00D-07 XBig12= 1.15D-02 3.32D-02.
    123 vectors produced by pass  2 Test12= 2.06D-10 1.00D-07 XBig12= 1.39D-04 1.90D-03.
    123 vectors produced by pass  3 Test12= 2.06D-10 1.00D-07 XBig12= 1.55D-06 1.60D-04.
    123 vectors produced by pass  4 Test12= 2.06D-10 1.00D-07 XBig12= 9.19D-09 8.47D-06.
     35 vectors produced by pass  5 Test12= 2.06D-10 1.00D-07 XBig12= 4.75D-11 6.49D-07.
 Inverted reduced A of dimension   650 with in-core refinement.
 End of Minotr Frequency-dependent properties file   721 does not exist.
 End of Minotr Frequency-dependent properties file   722 does not exist.

 **********************************************************************

            Population analysis using the SCF density.

 **********************************************************************

 Orbital symmetries:
       Occupied  (A) (A) (A) (A) (A) (A) (A) (A) (A) (A) (A) (A)
                 (A) (A) (A) (A) (A) (A) (A) (A) (A) (A) (A) (A)
                 (A) (A) (A) (A) (A) (A) (A) (A) (A) (A) (A) (A)
                 (A) (A) (A) (A) (A) (A) (A) (A) (A) (A) (A) (A)
                 (A) (A) (A) (A) (A) (A) (A) (A) (A) (A) (A) (A)
                 (A) (A) (A) (A) (A) (A) (A) (A) (A) (A) (A) (A)
                 (A) (A) (A) (A) (A)
       Virtual   (A) (A) (A) (A) (A) (A) (A) (A) (A) (A) (A) (A)
                 (A) (A) (A) (A) (A) (A) (A) (A) (A) (A) (A) (A)
                 (A) (A) (A) (A) (A) (A) (A) (A) (A) (A) (A) (A)
                 (A) (A) (A) (A) (A) (A) (A) (A) (A) (A) (A) (A)
                 (A) (A) (A) (A) (A) (A) (A) (A) (A) (A) (A) (A)
                 (A) (A) (A) (A) (A) (A) (A) (A) (A) (A) (A) (A)
                 (A) (A) (A) (A) (A) (A) (A) (A) (A) (A) (A) (A)
                 (A) (A) (A) (A) (A) (A) (A) (A) (A) (A) (A) (A)
                 (A) (A) (A) (A) (A) (A) (A) (A) (A) (A) (A) (A)
                 (A) (A) (A) (A) (A) (A) (A) (A) (A) (A) (A) (A)
                 (A) (A) (A) (A) (A) (A) (A) (A) (A) (A) (A) (A)
                 (A) (A) (A) (A) (A) (A) (A) (A) (A) (A) (A) (A)
                 (A) (A) (A) (A) (A) (A) (A) (A) (A) (A) (A) (A)
                 (A) (A) (A) (A) (A) (A) (A) (A) (A) (A) (A) (A)
                 (A) (A) (A) (A) (A) (A) (A) (A) (A) (A) (A) (A)
                 (A) (A) (A) (A) (A) (A) (A) (A) (A) (A) (A) (A)
                 (A) (A) (A) (A) (A) (A) (A) (A) (A) (A) (A) (A)
                 (A) (A) (A) (A) (A) (A) (A) (A) (A) (A) (A) (A)
                 (A) (A) (A) (A) (A) (A) (A) (A) (A) (A) (A) (A)
                 (A) (A) (A) (A) (A) (A) (A) (A) (A) (A) (A) (A)
                 (A) (A) (A) (A) (A) (A) (A) (A) (A) (A) (A) (A)
                 (A) (A) (A) (A) (A) (A) (A) (A) (A) (A) (A) (A)
                 (A) (A) (A)
 The electronic state is 1-A.
 Alpha  occ. eigenvalues --  -20.53383 -20.52681 -20.51323 -20.50055 -15.61204
 Alpha  occ. eigenvalues --  -15.59910 -15.58694 -15.57453 -11.36486 -11.35476
 Alpha  occ. eigenvalues --  -11.34651 -11.34284 -11.29119 -11.28751 -11.27731
 Alpha  occ. eigenvalues --  -11.26564 -11.23997 -11.23271 -11.22354 -11.21664
 Alpha  occ. eigenvalues --   -1.40260  -1.38523  -1.37036  -1.35790  -1.26136
 Alpha  occ. eigenvalues --   -1.24230  -1.23612  -1.22774  -1.08582  -1.05346
 Alpha  occ. eigenvalues --   -1.02923  -0.98438  -0.95846  -0.91478  -0.89601
 Alpha  occ. eigenvalues --   -0.87449  -0.82963  -0.79994  -0.78139  -0.77250
 Alpha  occ. eigenvalues --   -0.74379  -0.73379  -0.68676  -0.67948  -0.66820
 Alpha  occ. eigenvalues --   -0.65619  -0.64604  -0.63937  -0.63392  -0.62256
 Alpha  occ. eigenvalues --   -0.61744  -0.61129  -0.58936  -0.58879  -0.58399
 Alpha  occ. eigenvalues --   -0.56442  -0.56243  -0.56015  -0.55957  -0.55552
 Alpha  occ. eigenvalues --   -0.55188  -0.54865  -0.54041  -0.52816  -0.52463
 Alpha  occ. eigenvalues --   -0.52144  -0.51832  -0.49449  -0.49238  -0.42117
 Alpha  occ. eigenvalues --   -0.41444  -0.41179  -0.40727  -0.39832  -0.39624
 Alpha  occ. eigenvalues --   -0.38533  -0.37137
 Alpha virt. eigenvalues --    0.18185   0.18524   0.19692   0.20721   0.21051
 Alpha virt. eigenvalues --    0.21565   0.23904   0.24563   0.26211   0.26773
 Alpha virt. eigenvalues --    0.28204   0.28458   0.29124   0.29280   0.30526
 Alpha virt. eigenvalues --    0.31023   0.31386   0.31591   0.31871   0.32112
 Alpha virt. eigenvalues --    0.33165   0.33496   0.34573   0.35171   0.35443
 Alpha virt. eigenvalues --    0.36515   0.36682   0.37483   0.38701   0.40296
 Alpha virt. eigenvalues --    0.41600   0.42643   0.43063   0.43731   0.45194
 Alpha virt. eigenvalues --    0.48622   0.49745   0.52138   0.53099   0.54421
 Alpha virt. eigenvalues --    0.55924   0.59384   0.61475   0.62661   0.64921
 Alpha virt. eigenvalues --    0.71261   0.71572   0.72761   0.73732   0.74009
 Alpha virt. eigenvalues --    0.74778   0.75172   0.75988   0.76390   0.76744
 Alpha virt. eigenvalues --    0.77683   0.78141   0.78701   0.80367   0.81064
 Alpha virt. eigenvalues --    0.82894   0.83209   0.84662   0.85691   0.88452
 Alpha virt. eigenvalues --    0.89007   0.90733   0.91474   0.91981   0.92862
 Alpha virt. eigenvalues --    0.93603   0.94528   0.96762   0.97795   0.98079
 Alpha virt. eigenvalues --    0.99302   0.99732   1.00362   1.00883   1.01623
 Alpha virt. eigenvalues --    1.01892   1.05024   1.06492   1.06853   1.08058
 Alpha virt. eigenvalues --    1.09481   1.09990   1.11259   1.11527   1.12103
 Alpha virt. eigenvalues --    1.13765   1.14016   1.14282   1.14652   1.15729
 Alpha virt. eigenvalues --    1.15914   1.16247   1.16615   1.16780   1.17708
 Alpha virt. eigenvalues --    1.17898   1.19133   1.19552   1.20158   1.20338
 Alpha virt. eigenvalues --    1.20475   1.21482   1.21836   1.22199   1.23068
 Alpha virt. eigenvalues --    1.24323   1.25013   1.25844   1.26659   1.28240
 Alpha virt. eigenvalues --    1.29687   1.32567   1.32803   1.34437   1.35525
 Alpha virt. eigenvalues --    1.38034   1.39136   1.42449   1.44284   1.45097
 Alpha virt. eigenvalues --    1.47608   1.49134   1.52834   1.53034   1.54842
 Alpha virt. eigenvalues --    1.55996   1.57127   1.58202   1.61756   1.62734
 Alpha virt. eigenvalues --    1.63888   1.63987   1.67676   1.68341   1.69843
 Alpha virt. eigenvalues --    1.70270   1.72206   1.73891   1.75363   1.76367
 Alpha virt. eigenvalues --    1.78066   1.78639   1.80285   1.84555   1.87083
 Alpha virt. eigenvalues --    1.90671   1.92165   1.94165   1.96029   2.00072
 Alpha virt. eigenvalues --    2.00702   2.02898   2.03695   2.05562   2.06510
 Alpha virt. eigenvalues --    2.09034   2.09846   2.10442   2.11038   2.12712
 Alpha virt. eigenvalues --    2.13248   2.14346   2.14556   2.14926   2.16136
 Alpha virt. eigenvalues --    2.18465   2.18972   2.19337   2.20774   2.21010
 Alpha virt. eigenvalues --    2.22064   2.22845   2.24262   2.24591   2.26975
 Alpha virt. eigenvalues --    2.28845   2.30136   2.31798   2.31979   2.33329
 Alpha virt. eigenvalues --    2.36591   2.36810   2.37900   2.38941   2.40740
 Alpha virt. eigenvalues --    2.42817   2.44071   2.44253   2.47579   2.49490
 Alpha virt. eigenvalues --    2.51737   2.52089   2.54699   2.56282   2.57272
 Alpha virt. eigenvalues --    2.59148   2.60060   2.61974   2.62256   2.63686
 Alpha virt. eigenvalues --    2.63846   2.64632   2.65122   2.66866   2.68885
 Alpha virt. eigenvalues --    2.69470   2.71557   2.73700   2.77077   2.78465
 Alpha virt. eigenvalues --    2.79711   2.80255   2.81500   2.84385   2.86290
 Alpha virt. eigenvalues --    2.88504   2.91327   2.91573   2.95054   2.96728
 Alpha virt. eigenvalues --    2.97269   2.99736   3.02414   3.03129   3.06563
 Alpha virt. eigenvalues --    3.08156   3.09122   3.13854   3.17870   3.24434
 Alpha virt. eigenvalues --    3.25852   3.27098   3.31915   3.32510   3.35600
 Alpha virt. eigenvalues --    3.38036   3.40223   3.42542   3.53907   3.55944
 Alpha virt. eigenvalues --    3.61476   3.63552   4.40529   4.42888   4.43942
 Alpha virt. eigenvalues --    4.48508   4.50294   4.51613   4.57692   4.62993
 Alpha virt. eigenvalues --    4.66037   4.67781   4.71244   4.72467   4.81157
 Alpha virt. eigenvalues --    4.83071   4.87457   4.88516   4.95024   5.03724
 Alpha virt. eigenvalues --    5.07715   5.20113
          Condensed to atoms (all electrons):
              1          2          3          4          5          6
     1  H    0.458655   0.385676  -0.018713  -0.018845  -0.030794   0.003526
     2  C    0.385676   5.245146   0.374816   0.374691   0.377924  -0.067259
     3  H   -0.018713   0.374816   0.509124  -0.023632  -0.034428   0.001257
     4  H   -0.018845   0.374691  -0.023632   0.513163  -0.035430   0.001187
     5  C   -0.030794   0.377924  -0.034428  -0.035430   4.185818   0.586900
     6  O    0.003526  -0.067259   0.001257   0.001187   0.586900   8.211737
     7  N    0.003853  -0.119799   0.003473   0.003699   0.247492  -0.107598
     8  H   -0.000017  -0.001195   0.000640   0.000485  -0.017433   0.002012
     9  C   -0.000076   0.004588  -0.000241  -0.000092  -0.030103   0.014531
    10  H    0.000002  -0.000011  -0.000004  -0.000002  -0.001711   0.002918
    11  C    0.000006  -0.000505   0.000008   0.000030  -0.003965  -0.015880
    12  H    0.000000  -0.000042   0.000000   0.000002   0.000030  -0.000024
    13  H    0.000000   0.000007   0.000000  -0.000001   0.000288   0.000274
    14  H    0.000001   0.000305  -0.000005  -0.000026   0.000471   0.011309
    15  C    0.000000   0.000007  -0.000011  -0.000006   0.004034   0.000548
    16  O    0.000000  -0.000040  -0.000001  -0.000001   0.000279  -0.000003
    17  N    0.000000   0.000000   0.000000   0.000000  -0.000085  -0.000002
    18  H    0.000000   0.000000   0.000000   0.000000   0.000001   0.000001
    19  C    0.000000   0.000000   0.000000   0.000000   0.000001   0.000000
    20  H    0.000000   0.000000   0.000000   0.000000   0.000000   0.000000
    21  C    0.000000   0.000000   0.000000   0.000000   0.000000   0.000000
    22  H    0.000000   0.000000   0.000000   0.000000   0.000000   0.000000
    23  H    0.000000   0.000000   0.000000   0.000000   0.000000   0.000000
    24  H    0.000000   0.000000   0.000000   0.000000   0.000000   0.000000
    25  C    0.000000   0.000000   0.000000   0.000000   0.000000   0.000000
    26  O    0.000000   0.000000   0.000000   0.000000   0.000000   0.000000
    27  N    0.000000   0.000000   0.000000   0.000000   0.000000   0.000000
    28  H    0.000000   0.000000   0.000000   0.000000   0.000000   0.000000
    29  C    0.000000   0.000000   0.000000   0.000000   0.000000   0.000000
    30  H    0.000000   0.000000   0.000000   0.000000   0.000000   0.000000
    31  C    0.000000   0.000000   0.000000   0.000000   0.000000   0.000000
    32  H    0.000000   0.000000   0.000000   0.000000   0.000000   0.000000
    33  H    0.000000   0.000000   0.000000   0.000000   0.000000   0.000000
    34  H    0.000000   0.000000   0.000000   0.000000   0.000000   0.000000
    35  C    0.000000   0.000000   0.000000   0.000000   0.000000   0.000000
    36  O    0.000000   0.000000   0.000000   0.000000   0.000000   0.000000
    37  N    0.000000   0.000000   0.000000   0.000000   0.000000   0.000000
    38  H    0.000000   0.000000   0.000000   0.000000   0.000000   0.000000
    39  C    0.000000   0.000000   0.000000   0.000000   0.000000   0.000000
    40  H    0.000000   0.000000   0.000000   0.000000   0.000000   0.000000
    41  H    0.000000   0.000000   0.000000   0.000000   0.000000   0.000000
    42  H    0.000000   0.000000   0.000000   0.000000   0.000000   0.000000
              7          8          9         10         11         12
     1  H    0.003853  -0.000017  -0.000076   0.000002   0.000006   0.000000
     2  C   -0.119799  -0.001195   0.004588  -0.000011  -0.000505  -0.000042
     3  H    0.003473   0.000640  -0.000241  -0.000004   0.000008   0.000000
     4  H    0.003699   0.000485  -0.000092  -0.000002   0.000030   0.000002
     5  C    0.247492  -0.017433  -0.030103  -0.001711  -0.003965   0.000030
     6  O   -0.107598   0.002012   0.014531   0.002918  -0.015880  -0.000024
     7  N    7.414521   0.311865   0.198859  -0.040671  -0.063355   0.001725
     8  H    0.311865   0.287119  -0.026924   0.002342   0.003004   0.000237
     9  C    0.198859  -0.026924   5.020986   0.406102   0.334427  -0.042366
    10  H   -0.040671   0.002342   0.406102   0.497113  -0.046275   0.004457
    11  C   -0.063355   0.003004   0.334427  -0.046275   5.214430   0.385503
    12  H    0.001725   0.000237  -0.042366   0.004457   0.385503   0.521894
    13  H    0.004949  -0.000077  -0.042439   0.000293   0.377103  -0.024299
    14  H   -0.005672  -0.000194  -0.026352  -0.003894   0.387153  -0.019910
    15  C   -0.037236  -0.005295   0.377610  -0.039172  -0.065500  -0.002706
    16  O   -0.005897   0.019623  -0.070394   0.000735  -0.000148   0.000552
    17  N    0.002764   0.000700  -0.115030   0.002477   0.002843   0.000207
    18  H    0.000015  -0.000021   0.000737   0.000432   0.000120  -0.000025
    19  C   -0.000042  -0.000005   0.002776  -0.000167   0.000071  -0.000037
    20  H    0.000000   0.000000  -0.000065   0.000008  -0.000002   0.000001
    21  C    0.000001   0.000000  -0.000112   0.000001   0.000024   0.000005
    22  H    0.000000   0.000000  -0.000055   0.000000   0.000041   0.000018
    23  H    0.000000   0.000000   0.000002   0.000000   0.000000   0.000000
    24  H    0.000000   0.000000  -0.000006   0.000000  -0.000007   0.000000
    25  C   -0.000007  -0.000010   0.000182  -0.000004  -0.000054  -0.000003
    26  O    0.000000   0.000006  -0.000103   0.000005   0.000000   0.000000
    27  N    0.000001   0.000013  -0.000136  -0.000001   0.000014   0.000003
    28  H    0.000000   0.000000  -0.000006   0.000000  -0.000004   0.000003
    29  C    0.000000  -0.000001   0.000004   0.000000  -0.000001   0.000000
    30  H   -0.000001   0.000000   0.000005   0.000000   0.000000   0.000000
    31  C    0.000000   0.000000   0.000000   0.000000   0.000000   0.000000
    32  H    0.000000   0.000000   0.000000   0.000000   0.000000   0.000000
    33  H    0.000000   0.000000   0.000000   0.000000   0.000000   0.000000
    34  H    0.000000   0.000000   0.000000   0.000000   0.000000   0.000000
    35  C    0.000000   0.000000   0.000000   0.000000   0.000000   0.000000
    36  O    0.000000   0.000000   0.000000   0.000000   0.000000   0.000000
    37  N    0.000000   0.000000   0.000000   0.000000   0.000000   0.000000
    38  H    0.000000   0.000000   0.000000   0.000000   0.000000   0.000000
    39  C    0.000000   0.000000   0.000000   0.000000   0.000000   0.000000
    40  H    0.000000   0.000000   0.000000   0.000000   0.000000   0.000000
    41  H    0.000000   0.000000   0.000000   0.000000   0.000000   0.000000
    42  H    0.000000   0.000000   0.000000   0.000000   0.000000   0.000000
             13         14         15         16         17         18
     1  H    0.000000   0.000001   0.000000   0.000000   0.000000   0.000000
     2  C    0.000007   0.000305   0.000007  -0.000040   0.000000   0.000000
     3  H    0.000000  -0.000005  -0.000011  -0.000001   0.000000   0.000000
     4  H   -0.000001  -0.000026  -0.000006  -0.000001   0.000000   0.000000
     5  C    0.000288   0.000471   0.004034   0.000279  -0.000085   0.000001
     6  O    0.000274   0.011309   0.000548  -0.000003  -0.000002   0.000001
     7  N    0.004949  -0.005672  -0.037236  -0.005897   0.002764   0.000015
     8  H   -0.000077  -0.000194  -0.005295   0.019623   0.000700  -0.000021
     9  C   -0.042439  -0.026352   0.377610  -0.070394  -0.115030   0.000737
    10  H    0.000293  -0.003894  -0.039172   0.000735   0.002477   0.000432
    11  C    0.377103   0.387153  -0.065500  -0.000148   0.002843   0.000120
    12  H   -0.024299  -0.019910  -0.002706   0.000552   0.000207  -0.000025
    13  H    0.572019  -0.020040  -0.007376   0.000024   0.000573   0.002921
    14  H   -0.020040   0.423111   0.004148  -0.000055   0.000041  -0.000075
    15  C   -0.007376   0.004148   4.174400   0.567480   0.271409  -0.018778
    16  O    0.000024  -0.000055   0.567480   8.271208  -0.098374   0.002346
    17  N    0.000573   0.000041   0.271409  -0.098374   7.410816   0.319194
    18  H    0.002921  -0.000075  -0.018778   0.002346   0.319194   0.308855
    19  C    0.000187  -0.000002  -0.032059  -0.005047   0.174049  -0.019395
    20  H    0.000002   0.000000   0.001713   0.000267  -0.040764  -0.001620
    21  C    0.000014  -0.000001   0.001236   0.000238  -0.076977  -0.001165
    22  H    0.000027   0.000001   0.000450  -0.000081   0.000776   0.000043
    23  H    0.000000   0.000000   0.000002   0.000003   0.004889  -0.000087
    24  H    0.000008   0.000000  -0.000188  -0.000007  -0.001775   0.002188
    25  C   -0.000016   0.000000  -0.005757   0.003825  -0.027407   0.002927
    26  O    0.000000   0.000000   0.001646  -0.019081   0.000666  -0.000124
    27  N    0.000001   0.000000   0.003112  -0.023757   0.001127  -0.000263
    28  H   -0.000001   0.000000  -0.000086   0.000698   0.000222  -0.000004
    29  C    0.000000   0.000000   0.000024   0.000629  -0.000203   0.000004
    30  H    0.000000   0.000000  -0.000157   0.002537   0.000026   0.000000
    31  C    0.000000   0.000000   0.000000   0.000014   0.000001   0.000000
    32  H    0.000000   0.000000  -0.000001   0.000000   0.000001   0.000000
    33  H    0.000000   0.000000   0.000000   0.000002   0.000000   0.000000
    34  H    0.000000   0.000000   0.000001   0.000017  -0.000003   0.000000
    35  C    0.000000   0.000000  -0.000002  -0.000156   0.000001   0.000000
    36  O    0.000000   0.000000  -0.000003   0.000001   0.000001   0.000000
    37  N    0.000000   0.000000   0.000000   0.000000   0.000000   0.000000
    38  H    0.000000   0.000000   0.000000   0.000000   0.000000   0.000000
    39  C    0.000000   0.000000   0.000000   0.000000   0.000000   0.000000
    40  H    0.000000   0.000000   0.000000   0.000000   0.000000   0.000000
    41  H    0.000000   0.000000   0.000000   0.000000   0.000000   0.000000
    42  H    0.000000   0.000000   0.000000   0.000000   0.000000   0.000000
             19         20         21         22         23         24
     1  H    0.000000   0.000000   0.000000   0.000000   0.000000   0.000000
     2  C    0.000000   0.000000   0.000000   0.000000   0.000000   0.000000
     3  H    0.000000   0.000000   0.000000   0.000000   0.000000   0.000000
     4  H    0.000000   0.000000   0.000000   0.000000   0.000000   0.000000
     5  C    0.000001   0.000000   0.000000   0.000000   0.000000   0.000000
     6  O    0.000000   0.000000   0.000000   0.000000   0.000000   0.000000
     7  N   -0.000042   0.000000   0.000001   0.000000   0.000000   0.000000
     8  H   -0.000005   0.000000   0.000000   0.000000   0.000000   0.000000
     9  C    0.002776  -0.000065  -0.000112  -0.000055   0.000002  -0.000006
    10  H   -0.000167   0.000008   0.000001   0.000000   0.000000   0.000000
    11  C    0.000071  -0.000002   0.000024   0.000041   0.000000  -0.000007
    12  H   -0.000037   0.000001   0.000005   0.000018   0.000000   0.000000
    13  H    0.000187   0.000002   0.000014   0.000027   0.000000   0.000008
    14  H   -0.000002   0.000000  -0.000001   0.000001   0.000000   0.000000
    15  C   -0.032059   0.001713   0.001236   0.000450   0.000002  -0.000188
    16  O   -0.005047   0.000267   0.000238  -0.000081   0.000003  -0.000007
    17  N    0.174049  -0.040764  -0.076977   0.000776   0.004889  -0.001775
    18  H   -0.019395  -0.001620  -0.001165   0.000043  -0.000087   0.002188
    19  C    5.007836   0.415707   0.331764  -0.031755  -0.040420  -0.035760
    20  H    0.415707   0.483330  -0.049217   0.004351   0.000134  -0.003772
    21  C    0.331764  -0.049217   5.212478   0.379177   0.389106   0.387131
    22  H   -0.031755   0.004351   0.379177   0.532205  -0.023026  -0.024464
    23  H   -0.040420   0.000134   0.389106  -0.023026   0.499821  -0.020708
    24  H   -0.035760  -0.003772   0.387131  -0.024464  -0.020708   0.522083
    25  C    0.392695  -0.036236  -0.067564  -0.010177  -0.000724   0.005356
    26  O   -0.062131   0.003002   0.002366  -0.000056   0.000075  -0.000064
    27  N   -0.111000   0.003641  -0.001453  -0.001313  -0.000811   0.000389
    28  H   -0.002445  -0.000012  -0.002630   0.004291  -0.000453   0.000093
    29  C    0.004756  -0.000042   0.000421   0.000647  -0.000237  -0.000003
    30  H   -0.000351  -0.000009   0.000032  -0.000026   0.000002   0.000001
    31  C   -0.000390   0.000012  -0.000091  -0.000009   0.000042  -0.000001
    32  H   -0.000079  -0.000003   0.000015  -0.000008   0.000057   0.000000
    33  H    0.000007   0.000000   0.000001   0.000000   0.000000   0.000000
    34  H    0.000324   0.000006  -0.000040   0.000001  -0.000001   0.000000
    35  C    0.000019   0.000000  -0.000088  -0.000057   0.000005   0.000000
    36  O   -0.000028   0.000000  -0.000102  -0.000190   0.000009  -0.000001
    37  N    0.000000   0.000000   0.000000  -0.000001   0.000000   0.000000
    38  H    0.000000   0.000000   0.000000   0.000000   0.000000   0.000000
    39  C    0.000000   0.000000   0.000000   0.000000   0.000000   0.000000
    40  H    0.000000   0.000000   0.000000   0.000000   0.000000   0.000000
    41  H    0.000000   0.000000   0.000000   0.000000   0.000000   0.000000
    42  H    0.000000   0.000000   0.000000   0.000000   0.000000   0.000000
             25         26         27         28         29         30
     1  H    0.000000   0.000000   0.000000   0.000000   0.000000   0.000000
     2  C    0.000000   0.000000   0.000000   0.000000   0.000000   0.000000
     3  H    0.000000   0.000000   0.000000   0.000000   0.000000   0.000000
     4  H    0.000000   0.000000   0.000000   0.000000   0.000000   0.000000
     5  C    0.000000   0.000000   0.000000   0.000000   0.000000   0.000000
     6  O    0.000000   0.000000   0.000000   0.000000   0.000000   0.000000
     7  N   -0.000007   0.000000   0.000001   0.000000   0.000000  -0.000001
     8  H   -0.000010   0.000006   0.000013   0.000000  -0.000001   0.000000
     9  C    0.000182  -0.000103  -0.000136  -0.000006   0.000004   0.000005
    10  H   -0.000004   0.000005  -0.000001   0.000000   0.000000   0.000000
    11  C   -0.000054   0.000000   0.000014  -0.000004  -0.000001   0.000000
    12  H   -0.000003   0.000000   0.000003   0.000003   0.000000   0.000000
    13  H   -0.000016   0.000000   0.000001  -0.000001   0.000000   0.000000
    14  H    0.000000   0.000000   0.000000   0.000000   0.000000   0.000000
    15  C   -0.005757   0.001646   0.003112  -0.000086   0.000024  -0.000157
    16  O    0.003825  -0.019081  -0.023757   0.000698   0.000629   0.002537
    17  N   -0.027407   0.000666   0.001127   0.000222  -0.000203   0.000026
    18  H    0.002927  -0.000124  -0.000263  -0.000004   0.000004   0.000000
    19  C    0.392695  -0.062131  -0.111000  -0.002445   0.004756  -0.000351
    20  H   -0.036236   0.003002   0.003641  -0.000012  -0.000042  -0.000009
    21  C   -0.067564   0.002366  -0.001453  -0.002630   0.000421   0.000032
    22  H   -0.010177  -0.000056  -0.001313   0.004291   0.000647  -0.000026
    23  H   -0.000724   0.000075  -0.000811  -0.000453  -0.000237   0.000002
    24  H    0.005356  -0.000064   0.000389   0.000093  -0.000003   0.000001
    25  C    4.183619   0.552183   0.242430  -0.014370  -0.034338  -0.001412
    26  O    0.552183   8.270921  -0.099474   0.002185   0.014322   0.002504
    27  N    0.242430  -0.099474   7.460085   0.297431   0.206111  -0.038920
    28  H   -0.014370   0.002185   0.297431   0.283635  -0.028408   0.002244
    29  C   -0.034338   0.014322   0.206111  -0.028408   5.021635   0.400490
    30  H   -0.001412   0.002504  -0.038920   0.002244   0.400490   0.487385
    31  C   -0.005000  -0.015567  -0.063256   0.003409   0.337933  -0.045276
    32  H   -0.000132   0.000027   0.002125   0.000250  -0.043107   0.004420
    33  H    0.000404   0.000268   0.005020  -0.000084  -0.043198   0.000649
    34  H    0.001057   0.011192  -0.005687  -0.000203  -0.026330  -0.003922
    35  C    0.004029   0.000546  -0.035901  -0.005925   0.376171  -0.036054
    36  O    0.000333  -0.000002  -0.007771   0.025376  -0.077654   0.000942
    37  N   -0.000102  -0.000002   0.002717   0.000838  -0.114713   0.001876
    38  H    0.000003   0.000001   0.000021  -0.000026   0.001099   0.000502
    39  C    0.000001   0.000000  -0.000051  -0.000011   0.003613  -0.000215
    40  H    0.000000   0.000000  -0.000004  -0.000011   0.000580  -0.000017
    41  H    0.000000   0.000000   0.000000   0.000000  -0.000105   0.000010
    42  H    0.000000   0.000000   0.000001   0.000000  -0.000005  -0.000002
             31         32         33         34         35         36
     1  H    0.000000   0.000000   0.000000   0.000000   0.000000   0.000000
     2  C    0.000000   0.000000   0.000000   0.000000   0.000000   0.000000
     3  H    0.000000   0.000000   0.000000   0.000000   0.000000   0.000000
     4  H    0.000000   0.000000   0.000000   0.000000   0.000000   0.000000
     5  C    0.000000   0.000000   0.000000   0.000000   0.000000   0.000000
     6  O    0.000000   0.000000   0.000000   0.000000   0.000000   0.000000
     7  N    0.000000   0.000000   0.000000   0.000000   0.000000   0.000000
     8  H    0.000000   0.000000   0.000000   0.000000   0.000000   0.000000
     9  C    0.000000   0.000000   0.000000   0.000000   0.000000   0.000000
    10  H    0.000000   0.000000   0.000000   0.000000   0.000000   0.000000
    11  C    0.000000   0.000000   0.000000   0.000000   0.000000   0.000000
    12  H    0.000000   0.000000   0.000000   0.000000   0.000000   0.000000
    13  H    0.000000   0.000000   0.000000   0.000000   0.000000   0.000000
    14  H    0.000000   0.000000   0.000000   0.000000   0.000000   0.000000
    15  C    0.000000  -0.000001   0.000000   0.000001  -0.000002  -0.000003
    16  O    0.000014   0.000000   0.000002   0.000017  -0.000156   0.000001
    17  N    0.000001   0.000001   0.000000  -0.000003   0.000001   0.000001
    18  H    0.000000   0.000000   0.000000   0.000000   0.000000   0.000000
    19  C   -0.000390  -0.000079   0.000007   0.000324   0.000019  -0.000028
    20  H    0.000012  -0.000003   0.000000   0.000006   0.000000   0.000000
    21  C   -0.000091   0.000015   0.000001  -0.000040  -0.000088  -0.000102
    22  H   -0.000009  -0.000008   0.000000   0.000001  -0.000057  -0.000190
    23  H    0.000042   0.000057   0.000000  -0.000001   0.000005   0.000009
    24  H   -0.000001   0.000000   0.000000   0.000000   0.000000  -0.000001
    25  C   -0.005000  -0.000132   0.000404   0.001057   0.004029   0.000333
    26  O   -0.015567   0.000027   0.000268   0.011192   0.000546  -0.000002
    27  N   -0.063256   0.002125   0.005020  -0.005687  -0.035901  -0.007771
    28  H    0.003409   0.000250  -0.000084  -0.000203  -0.005925   0.025376
    29  C    0.337933  -0.043107  -0.043198  -0.026330   0.376171  -0.077654
    30  H   -0.045276   0.004420   0.000649  -0.003922  -0.036054   0.000942
    31  C    5.209069   0.384369   0.377234   0.387084  -0.064132   0.000121
    32  H    0.384369   0.532027  -0.024381  -0.020769  -0.002656   0.000622
    33  H    0.377234  -0.024381   0.573366  -0.020323  -0.006683   0.000028
    34  H    0.387084  -0.020769  -0.020323   0.426789   0.003920  -0.000065
    35  C   -0.064132  -0.002656  -0.006683   0.003920   4.150133   0.591475
    36  O    0.000121   0.000622   0.000028  -0.000065   0.591475   8.219446
    37  N    0.002361   0.000228   0.000209   0.000085   0.285875  -0.098784
    38  H    0.000020   0.000003   0.002581  -0.000085  -0.020406   0.002376
    39  C   -0.000075  -0.000044   0.000161   0.000003  -0.025271  -0.004831
    40  H   -0.000050  -0.000002  -0.000009   0.000000  -0.001896   0.010247
    41  H   -0.000005   0.000001   0.000003   0.000000   0.000771   0.000363
    42  H    0.000015   0.000002  -0.000002  -0.000001   0.000915   0.000375
             37         38         39         40         41         42
     1  H    0.000000   0.000000   0.000000   0.000000   0.000000   0.000000
     2  C    0.000000   0.000000   0.000000   0.000000   0.000000   0.000000
     3  H    0.000000   0.000000   0.000000   0.000000   0.000000   0.000000
     4  H    0.000000   0.000000   0.000000   0.000000   0.000000   0.000000
     5  C    0.000000   0.000000   0.000000   0.000000   0.000000   0.000000
     6  O    0.000000   0.000000   0.000000   0.000000   0.000000   0.000000
     7  N    0.000000   0.000000   0.000000   0.000000   0.000000   0.000000
     8  H    0.000000   0.000000   0.000000   0.000000   0.000000   0.000000
     9  C    0.000000   0.000000   0.000000   0.000000   0.000000   0.000000
    10  H    0.000000   0.000000   0.000000   0.000000   0.000000   0.000000
    11  C    0.000000   0.000000   0.000000   0.000000   0.000000   0.000000
    12  H    0.000000   0.000000   0.000000   0.000000   0.000000   0.000000
    13  H    0.000000   0.000000   0.000000   0.000000   0.000000   0.000000
    14  H    0.000000   0.000000   0.000000   0.000000   0.000000   0.000000
    15  C    0.000000   0.000000   0.000000   0.000000   0.000000   0.000000
    16  O    0.000000   0.000000   0.000000   0.000000   0.000000   0.000000
    17  N    0.000000   0.000000   0.000000   0.000000   0.000000   0.000000
    18  H    0.000000   0.000000   0.000000   0.000000   0.000000   0.000000
    19  C    0.000000   0.000000   0.000000   0.000000   0.000000   0.000000
    20  H    0.000000   0.000000   0.000000   0.000000   0.000000   0.000000
    21  C    0.000000   0.000000   0.000000   0.000000   0.000000   0.000000
    22  H   -0.000001   0.000000   0.000000   0.000000   0.000000   0.000000
    23  H    0.000000   0.000000   0.000000   0.000000   0.000000   0.000000
    24  H    0.000000   0.000000   0.000000   0.000000   0.000000   0.000000
    25  C   -0.000102   0.000003   0.000001   0.000000   0.000000   0.000000
    26  O   -0.000002   0.000001   0.000000   0.000000   0.000000   0.000000
    27  N    0.002717   0.000021  -0.000051  -0.000004   0.000000   0.000001
    28  H    0.000838  -0.000026  -0.000011  -0.000011   0.000000   0.000000
    29  C   -0.114713   0.001099   0.003613   0.000580  -0.000105  -0.000005
    30  H    0.001876   0.000502  -0.000215  -0.000017   0.000010  -0.000002
    31  C    0.002361   0.000020  -0.000075  -0.000050  -0.000005   0.000015
    32  H    0.000228   0.000003  -0.000044  -0.000002   0.000001   0.000002
    33  H    0.000209   0.002581   0.000161  -0.000009   0.000003  -0.000002
    34  H    0.000085  -0.000085   0.000003   0.000000   0.000000  -0.000001
    35  C    0.285875  -0.020406  -0.025271  -0.001896   0.000771   0.000915
    36  O   -0.098784   0.002376  -0.004831   0.010247   0.000363   0.000375
    37  N    7.333085   0.322653   0.187488  -0.031934  -0.047269  -0.048357
[...]
    30  H    0.000000   0.000000  -0.000056   0.001063  -0.000013   0.000000
    31  C    0.000000   0.000000   0.000002   0.000024  -0.000001   0.000000
    32  H    0.000000   0.000000   0.000000   0.000000   0.000000   0.000000
    33  H    0.000000   0.000000   0.000000   0.000000   0.000000   0.000000
    34  H    0.000000   0.000000   0.000000   0.000000   0.000000   0.000000
    35  C    0.000000   0.000000   0.000043   0.000110  -0.000009   0.000000
    36  O    0.000000   0.000000   0.000002  -0.000032   0.000002   0.000000
    37  N    0.000000   0.000000  -0.000001  -0.000005   0.000000   0.000000
    38  H    0.000000   0.000000   0.000000  -0.000001   0.000000   0.000000
    39  C    0.000000   0.000000   0.000000   0.000000   0.000000   0.000000
    40  H    0.000000   0.000000   0.000000   0.000000   0.000000   0.000000
    41  H    0.000000   0.000000   0.000000   0.000000   0.000000   0.000000
    42  H    0.000000   0.000000   0.000000   0.000000   0.000000   0.000000
             19         20         21         22         23         24
     1  H    0.000000   0.000000   0.000000   0.000000   0.000000   0.000000
     2  C    0.000000   0.000000   0.000000   0.000000   0.000000   0.000000
     3  H    0.000000   0.000000   0.000000   0.000000   0.000000   0.000000
     4  H    0.000000   0.000000   0.000000   0.000000   0.000000   0.000000
     5  C    0.000001   0.000000   0.000000   0.000000   0.000000   0.000000
     6  O    0.000000   0.000000   0.000000   0.000000   0.000000   0.000000
     7  N   -0.000069   0.000003   0.000000   0.000000   0.000000   0.000000
     8  H   -0.000007   0.000000   0.000000   0.000000   0.000000   0.000000
     9  C    0.002896  -0.000043  -0.000193  -0.000019   0.000002  -0.000008
    10  H    0.000026  -0.000005   0.000000  -0.000001   0.000000  -0.000002
    11  C   -0.000201  -0.000004   0.000042   0.000007   0.000000  -0.000001
    12  H    0.000014   0.000000   0.000000  -0.000001   0.000000   0.000000
    13  H   -0.000053   0.000003   0.000014   0.000044   0.000000   0.000006
    14  H    0.000001   0.000000   0.000000   0.000000   0.000000   0.000000
    15  C   -0.023338   0.000479   0.001461   0.000103  -0.000004  -0.000137
    16  O    0.000194   0.000140  -0.000034  -0.000034   0.000001  -0.000003
    17  N    0.158601  -0.042456  -0.071873   0.000431   0.004601  -0.002641
    18  H   -0.021365  -0.002284  -0.001575   0.000080  -0.000098   0.002405
    19  C    5.026388   0.418023   0.332882  -0.030331  -0.037410  -0.034183
    20  H    0.418023   0.488746  -0.047634   0.003860   0.000605  -0.004679
    21  C    0.332882  -0.047634   5.160745   0.381554   0.389358   0.389357
    22  H   -0.030331   0.003860   0.381554   0.515730  -0.021537  -0.027515
    23  H   -0.037410   0.000605   0.389358  -0.021537   0.500119  -0.024420
    24  H   -0.034183  -0.004679   0.389357  -0.027515  -0.024420   0.530894
    25  C    0.396071  -0.045333  -0.047091  -0.004994  -0.001955   0.004128
    26  O   -0.066570   0.005697   0.001764  -0.000015   0.000087  -0.000067
    27  N   -0.112958   0.004540   0.003112   0.000989   0.000382   0.000082
    28  H   -0.001641   0.000102  -0.001062   0.002883  -0.000078  -0.000054
    29  C    0.004606  -0.000114  -0.000113   0.000040  -0.000117   0.000005
    30  H    0.000143  -0.000016   0.000006  -0.000002   0.000001   0.000001
    31  C   -0.000247   0.000011  -0.000010   0.000001   0.000018  -0.000001
    32  H   -0.000009   0.000000   0.000002   0.000000   0.000007   0.000000
    33  H    0.000003   0.000000   0.000000   0.000000   0.000000   0.000000
    34  H    0.000084  -0.000001  -0.000018   0.000000   0.000000   0.000000
    35  C    0.000075  -0.000001  -0.000026  -0.000024  -0.000001   0.000000
    36  O   -0.000050   0.000000  -0.000011  -0.000059   0.000001   0.000000
    37  N    0.000000   0.000000   0.000000   0.000000   0.000000   0.000000
    38  H    0.000000   0.000000   0.000000   0.000000   0.000000   0.000000
    39  C    0.000000   0.000000   0.000000   0.000000   0.000000   0.000000
    40  H    0.000000   0.000000   0.000000   0.000000   0.000000   0.000000
    41  H    0.000000   0.000000   0.000000   0.000000   0.000000   0.000000
    42  H    0.000000   0.000000   0.000000   0.000000   0.000000   0.000000
             25         26         27         28         29         30
     1  H    0.000000   0.000000   0.000000   0.000000   0.000000   0.000000
     2  C    0.000000   0.000000   0.000000   0.000000   0.000000   0.000000
     3  H    0.000000   0.000000   0.000000   0.000000   0.000000   0.000000
     4  H    0.000000   0.000000   0.000000   0.000000   0.000000   0.000000
     5  C    0.000000   0.000000   0.000000   0.000000   0.000000   0.000000
     6  O    0.000000   0.000000   0.000000   0.000000   0.000000   0.000000
     7  N   -0.000005   0.000000   0.000000   0.000000   0.000000   0.000000
     8  H   -0.000009   0.000001   0.000002   0.000000  -0.000001  -0.000001
     9  C    0.000211  -0.000019  -0.000033   0.000004   0.000004   0.000002
    10  H   -0.000009   0.000001   0.000000   0.000000   0.000000   0.000000
    11  C   -0.000017   0.000000   0.000002  -0.000003   0.000000   0.000000
    12  H   -0.000003   0.000000   0.000001   0.000003   0.000000   0.000000
    13  H   -0.000002   0.000000   0.000000   0.000000   0.000000   0.000000
    14  H    0.000000   0.000000   0.000000   0.000000   0.000000   0.000000
    15  C   -0.002331   0.001165   0.001905   0.000302  -0.000074  -0.000056
    16  O    0.007780  -0.003079  -0.006127   0.000912   0.000528   0.001063
    17  N   -0.028485   0.000938   0.001601   0.000279  -0.000151  -0.000013
    18  H    0.002917  -0.000144  -0.000202  -0.000008   0.000004   0.000000
    19  C    0.396071  -0.066570  -0.112958  -0.001641   0.004606   0.000143
    20  H   -0.045333   0.005697   0.004540   0.000102  -0.000114  -0.000016
    21  C   -0.047091   0.001764   0.003112  -0.001062  -0.000113   0.000006
    22  H   -0.004994  -0.000015   0.000989   0.002883   0.000040  -0.000002
    23  H   -0.001955   0.000087   0.000382  -0.000078  -0.000117   0.000001
    24  H    0.004128  -0.000067   0.000082  -0.000054   0.000005   0.000001
    25  C    4.117911   0.591061   0.265229  -0.014866  -0.028640  -0.000191
    26  O    0.591061   8.172498  -0.104178   0.002025   0.008821   0.006497
    27  N    0.265229  -0.104178   7.398644   0.305460   0.211486  -0.044507
    28  H   -0.014866   0.002025   0.305460   0.288822  -0.033836   0.002308
    29  C   -0.028640   0.008821   0.211486  -0.033836   5.040447   0.409625
    30  H   -0.000191   0.006497  -0.044507   0.002308   0.409625   0.477217
    31  C   -0.002029  -0.003787  -0.064356   0.003509   0.335143  -0.042308
    32  H    0.000267  -0.000014   0.000660   0.000189  -0.037459   0.003914
    33  H    0.000034   0.000025   0.004519  -0.000078  -0.038002   0.000305
    34  H    0.001586   0.004413  -0.005055  -0.000146  -0.030075  -0.003414
    35  C    0.003497   0.000610  -0.041259  -0.007354   0.382778  -0.039404
    36  O    0.000471  -0.000005  -0.011920   0.026454  -0.073257   0.001542
    37  N   -0.000071  -0.000001   0.002626   0.001179  -0.116866   0.002791
    38  H   -0.000008   0.000000   0.000023  -0.000038   0.000565   0.001312
    39  C    0.000002   0.000000  -0.000077  -0.000038   0.004280  -0.000119
    40  H    0.000000   0.000000  -0.000002  -0.000005   0.000167  -0.000002
    41  H    0.000000   0.000000   0.000004   0.000002  -0.000164   0.000001
    42  H    0.000000   0.000000   0.000000   0.000000   0.000005  -0.000009
             31         32         33         34         35         36
     1  H    0.000000   0.000000   0.000000   0.000000   0.000000   0.000000
     2  C    0.000000   0.000000   0.000000   0.000000   0.000000   0.000000
     3  H    0.000000   0.000000   0.000000   0.000000   0.000000   0.000000
     4  H    0.000000   0.000000   0.000000   0.000000   0.000000   0.000000
     5  C    0.000000   0.000000   0.000000   0.000000   0.000000   0.000000
     6  O    0.000000   0.000000   0.000000   0.000000   0.000000   0.000000
     7  N    0.000000   0.000000   0.000000   0.000000   0.000000   0.000000
     8  H    0.000000   0.000000   0.000000   0.000000   0.000000   0.000000
     9  C    0.000000   0.000000   0.000000   0.000000   0.000000   0.000000
    10  H    0.000000   0.000000   0.000000   0.000000   0.000000   0.000000
    11  C    0.000000   0.000000   0.000000   0.000000   0.000000   0.000000
    12  H    0.000000   0.000000   0.000000   0.000000   0.000001   0.000000
    13  H    0.000000   0.000000   0.000000   0.000000   0.000000   0.000000
    14  H    0.000000   0.000000   0.000000   0.000000   0.000000   0.000000
    15  C    0.000002   0.000000   0.000000   0.000000   0.000043   0.000002
    16  O    0.000024   0.000000   0.000000   0.000000   0.000110  -0.000032
    17  N   -0.000001   0.000000   0.000000   0.000000  -0.000009   0.000002
    18  H    0.000000   0.000000   0.000000   0.000000   0.000000   0.000000
    19  C   -0.000247  -0.000009   0.000003   0.000084   0.000075  -0.000050
    20  H    0.000011   0.000000   0.000000  -0.000001  -0.000001   0.000000
    21  C   -0.000010   0.000002   0.000000  -0.000018  -0.000026  -0.000011
    22  H    0.000001   0.000000   0.000000   0.000000  -0.000024  -0.000059
    23  H    0.000018   0.000007   0.000000   0.000000  -0.000001   0.000001
    24  H   -0.000001   0.000000   0.000000   0.000000   0.000000   0.000000
    25  C   -0.002029   0.000267   0.000034   0.001586   0.003497   0.000471
    26  O   -0.003787  -0.000014   0.000025   0.004413   0.000610  -0.000005
    27  N   -0.064356   0.000660   0.004519  -0.005055  -0.041259  -0.011920
    28  H    0.003509   0.000189  -0.000078  -0.000146  -0.007354   0.026454
    29  C    0.335143  -0.037459  -0.038002  -0.030075   0.382778  -0.073257
    30  H   -0.042308   0.003914   0.000305  -0.003414  -0.039404   0.001542
    31  C    5.142303   0.387661   0.381590   0.391514  -0.053406  -0.000707
    32  H    0.387661   0.518888  -0.025030  -0.023463  -0.003739   0.001194
    33  H    0.381590  -0.025030   0.545227  -0.023216  -0.003430   0.000016
    34  H    0.391514  -0.023463  -0.023216   0.477213   0.004190  -0.000072
    35  C   -0.053406  -0.003739  -0.003430   0.004190   4.155085   0.595841
    36  O   -0.000707   0.001194   0.000016  -0.000072   0.595841   8.183456
    37  N    0.002599   0.000409   0.002203  -0.000037   0.283430  -0.104034
    38  H    0.000294   0.000017   0.000622  -0.000046  -0.022383   0.002548
    39  C   -0.000243  -0.000014   0.000011   0.000003  -0.028484   0.007989
    40  H   -0.000011   0.000002  -0.000010   0.000000  -0.003149   0.003436
    41  H   -0.000004   0.000000   0.000003   0.000000  -0.003552   0.001199
    42  H    0.000003  -0.000001  -0.000008   0.000000   0.004440   0.000357
             37         38         39         40         41         42
     1  H    0.000000   0.000000   0.000000   0.000000   0.000000   0.000000
     2  C    0.000000   0.000000   0.000000   0.000000   0.000000   0.000000
     3  H    0.000000   0.000000   0.000000   0.000000   0.000000   0.000000
     4  H    0.000000   0.000000   0.000000   0.000000   0.000000   0.000000
     5  C    0.000000   0.000000   0.000000   0.000000   0.000000   0.000000
     6  O    0.000000   0.000000   0.000000   0.000000   0.000000   0.000000
     7  N    0.000000   0.000000   0.000000   0.000000   0.000000   0.000000
     8  H    0.000000   0.000000   0.000000   0.000000   0.000000   0.000000
     9  C    0.000000   0.000000   0.000000   0.000000   0.000000   0.000000
    10  H    0.000000   0.000000   0.000000   0.000000   0.000000   0.000000
    11  C    0.000000   0.000000   0.000000   0.000000   0.000000   0.000000
    12  H    0.000000   0.000000   0.000000   0.000000   0.000000   0.000000
    13  H    0.000000   0.000000   0.000000   0.000000   0.000000   0.000000
    14  H    0.000000   0.000000   0.000000   0.000000   0.000000   0.000000
    15  C   -0.000001   0.000000   0.000000   0.000000   0.000000   0.000000
    16  O   -0.000005  -0.000001   0.000000   0.000000   0.000000   0.000000
    17  N    0.000000   0.000000   0.000000   0.000000   0.000000   0.000000
    18  H    0.000000   0.000000   0.000000   0.000000   0.000000   0.000000
    19  C    0.000000   0.000000   0.000000   0.000000   0.000000   0.000000
    20  H    0.000000   0.000000   0.000000   0.000000   0.000000   0.000000
    21  C    0.000000   0.000000   0.000000   0.000000   0.000000   0.000000
    22  H    0.000000   0.000000   0.000000   0.000000   0.000000   0.000000
    23  H    0.000000   0.000000   0.000000   0.000000   0.000000   0.000000
    24  H    0.000000   0.000000   0.000000   0.000000   0.000000   0.000000
    25  C   -0.000071  -0.000008   0.000002   0.000000   0.000000   0.000000
    26  O   -0.000001   0.000000   0.000000   0.000000   0.000000   0.000000
    27  N    0.002626   0.000023  -0.000077  -0.000002   0.000004   0.000000
    28  H    0.001179  -0.000038  -0.000038  -0.000005   0.000002   0.000000
    29  C   -0.116866   0.000565   0.004280   0.000167  -0.000164   0.000005
    30  H    0.002791   0.001312  -0.000119  -0.000002   0.000001  -0.000009
    31  C    0.002599   0.000294  -0.000243  -0.000011  -0.000004   0.000003
    32  H    0.000409   0.000017  -0.000014   0.000002   0.000000  -0.000001
    33  H    0.002203   0.000622   0.000011  -0.000010   0.000003  -0.000008
    34  H   -0.000037  -0.000046   0.000003   0.000000   0.000000   0.000000
    35  C    0.283430  -0.022383  -0.028484  -0.003149  -0.003552   0.004440
    36  O   -0.104034   0.002548   0.007989   0.003436   0.001199   0.000357
    37  N    7.319447   0.328338   0.198031  -0.039735  -0.046469  -0.037823
    38  H    0.328338   0.323093  -0.022779   0.002647   0.001116  -0.004386
    39  C    0.198031  -0.022779   4.906205   0.403893   0.406312   0.397787
    40  H   -0.039735   0.002647   0.403893   0.486831  -0.032751  -0.024621
    41  H   -0.046469   0.001116   0.406312  -0.032751   0.524375  -0.031819
    42  H   -0.037823  -0.004386   0.397787  -0.024621  -0.031819   0.525460
 Mulliken atomic charges:
              1
     1  H    0.208511
     2  C   -0.575321
     3  H    0.172905
     4  H    0.202611
     5  C    0.757114
     6  O   -0.622927
     7  N   -0.823422
     8  H    0.418792
     9  C   -0.031634
    10  H    0.215165
    11  C   -0.486290
    12  H    0.181834
    13  H    0.157843
    14  H    0.211948
    15  C    0.802921
    16  O   -0.636552
    17  N   -0.841054
    18  H    0.389893
    19  C   -0.011575
    20  H    0.220361
    21  C   -0.490656
    22  H    0.178810
    23  H    0.190439
    24  H    0.166833
    25  C    0.784873
    26  O   -0.617726
    27  N   -0.810593
    28  H    0.424776
    29  C   -0.039635
    30  H    0.223315
    31  C   -0.477562
    32  H    0.176522
    33  H    0.155215
    34  H    0.206539
    35  C    0.776121
    36  O   -0.634360
    37  N   -0.796012
    38  H    0.389065
    39  C   -0.272759
    40  H    0.203310
    41  H    0.181748
    42  H    0.170614
 Sum of Mulliken atomic charges =   0.00000
 Mulliken charges with hydrogens summed into heavy atoms:
              1
     2  C    0.008707
     5  C    0.757114
     6  O   -0.622927
     7  N   -0.404629
     9  C    0.183532
    11  C    0.065335
    15  C    0.802921
    16  O   -0.636552
    17  N   -0.451161
    19  C    0.208785
    21  C    0.045425
    25  C    0.784873
    26  O   -0.617726
    27  N   -0.385817
    29  C    0.183679
    31  C    0.060714
    35  C    0.776121
    36  O   -0.634360
    37  N   -0.406947
    39  C    0.282913
 Sum of Mulliken charges with hydrogens summed into heavy atoms =   0.00000
 Electronic spatial extent (au):  <R**2>=           7809.5534
 Charge=              0.0000 electrons
 Dipole moment (field-independent basis, Debye):
    X=             -2.5108    Y=              1.2474    Z=              0.3870  Tot=              2.8302
 Quadrupole moment (field-independent basis, Debye-Ang):
   XX=           -134.6793   YY=            -96.9963   ZZ=           -127.6712
   XY=             -6.4696   XZ=              2.1797   YZ=            -13.1328
 Traceless Quadrupole moment (field-independent basis, Debye-Ang):
   XX=            -14.8970   YY=             22.7859   ZZ=             -7.8889
   XY=             -6.4696   XZ=              2.1797   YZ=            -13.1328
 Octapole moment (field-independent basis, Debye-Ang**2):
  XXX=           -201.2782  YYY=             16.9446  ZZZ=              4.6169  XYY=             -2.7845
  XXY=             58.1981  XXZ=            -51.2313  XZZ=             25.7762  YZZ=             17.8705
  YYZ=              6.6593  XYZ=              4.4273
 Hexadecapole moment (field-independent basis, Debye-Ang**3):
 XXXX=          -7969.5845 YYYY=          -2161.0947 ZZZZ=           -932.7510 XXXY=             -7.9276
 XXXZ=            -80.4401 YYYX=           -129.7196 YYYZ=            -16.2914 ZZZX=             -4.4468
 ZZZY=            -38.9910 XXYY=          -1296.5045 XXZZ=          -1263.8003 YYZZ=           -550.8507
 XXYZ=            -80.4526 YYXZ=            -14.3299 ZZXY=            -19.3841
 N-N= 1.657123180756D+03 E-N=-5.622453402380D+03  KE= 9.830873625387D+02
 1\1\GINC-NODE004\FOpt\RHF\6-31G(d)\C12H22N4O4\STEBOSS\26-Dec-2016\0\\#
  HF/6-31G* Opt=(ModRedundant, maxcycles=1000, calcfc) geom=nocrowd\\Ph
 i Psi fixed scan\\0,1\H,9.6756977848,1.4778055996,-1.1453631414\C,9.67
 16541394,2.0768503244,-0.2444219816\H,10.4328375488,2.844139686,-0.315
 8289\H,9.9092079992,1.4244298027,0.5887744103\C,8.2791685516,2.6323339
 449,-0.039233964\O,7.2995738422,1.9456188081,-0.1724929601\N,8.2107615
 659,3.9303028737,0.3198294537\H,9.0300450925,4.4890206218,0.4017402785
 \C,6.9527416315,4.597563003,0.5460293884\H,6.2451314629,4.2395727456,-
 0.1909054117\C,6.3953196409,4.3228697332,1.9495140805\H,7.08338642,4.6
 852639621,2.7053195051\H,5.4356672882,4.8080457567,2.096415127\H,6.262
 9726464,3.256494343,2.0752502605\C,7.1897729639,6.0950831114,0.3571920
 276\O,8.2811678938,6.5739546901,0.5201898786\N,6.0818474625,6.80471851
 54,0.0614751844\H,5.2530874118,6.2818590426,-0.1142543563\C,5.96274783
 71,8.233322584,-0.2303926957\H,5.6693462944,8.3275561158,-1.2676530855
 \C,4.8749128166,8.8545646478,0.6465051593\H,5.0923013018,8.7405562852,
 1.7018055386\H,4.7618243292,9.909898697,0.4265149279\H,3.9229393115,8.
 3697128594,0.4526050709\C,7.3081983047,8.9759959395,-0.1798467807\O,7.
 9197494714,9.1620678054,-1.1947539714\N,7.6727582963,9.4950093155,1.00
 99628504\H,7.2428195574,9.1611118213,1.8442452374\C,9.0119953529,10.00
 56907129,1.1963456379\H,9.6820705411,9.4598089237,0.5431694964\C,9.095
 4167637,11.5007362822,0.8673774165\H,8.4448319148,12.0684266387,1.5235
 619476\H,10.1077766546,11.8758019575,0.9758541966\H,8.7805140194,11.65
 51732253,-0.1562559848\C,9.4058657117,9.7432098836,2.6478958169\O,8.58
 60260973,9.4872398785,3.4919455041\N,10.7190166165,9.8567980847,2.9202
 880684\H,11.3586067727,9.9318946155,2.1636113919\C,11.2438270816,9.603
 6267713,4.245881609\H,10.6647438782,10.1460400333,4.9787838919\H,11.21
 293428,8.5489040541,4.4956056805\H,12.2693354488,9.9458263033,4.283714
 1966\\Version=EM64L-G09RevA.02\State=1-A\HF=-984.5521163\RMSD=4.987e-0
 9\RMSF=3.586e-04\Dipole=0.5154388,0.7741588,0.6122493\Quadrupole=19.96
 93133,-11.5781831,-8.3911302,-2.6999366,5.7788067,-0.9069431\PG=C01 [X
 (C12H22N4O4)]\\@


 WE TEND TO MEET ANY NEW SITUATION BY REORGANIZING. IT CAN BE A
 WONDERFUL METHOD FOR CREATING THE ILLUSION OF PROGRESS WHILE PRODUCING
 CONFUSION, INEFFICIENCY, AND DEMORALIZATION.
     -- PETRONIUS ARBITER, 210 B.C.
 Job cpu time:  0 days  3 hours 12 minutes  3.5 seconds.
 File lengths (MBytes):  RWF=    553 Int=      0 D2E=      0 Chk=     11 Scr=      1
 Normal termination of Gaussian 09 at Mon Dec 26 13:58:01 2016.
