 Entering Gaussian System, Link 0=g09
 Initial command:
 /home/steboss/Software/g09/l1.exe /tmp/Gau-1598.inp -scrdir=/tmp/
 Entering Link 1 = /home/steboss/Software/g09/l1.exe PID=      1600.
  
 Copyright (c) 1988,1990,1992,1993,1995,1998,2003,2009, Gaussian, Inc.
                  All Rights Reserved.
  
 This is part of the Gaussian(R) 09 program.  It is based on
 the Gaussian(R) 03 system (copyright 2003, Gaussian, Inc.),
 the Gaussian(R) 98 system (copyright 1998, Gaussian, Inc.),
 the Gaussian(R) 94 system (copyright 1995, Gaussian, Inc.),
 the Gaussian 92(TM) system (copyright 1992, Gaussian, Inc.),
 the Gaussian 90(TM) system (copyright 1990, Gaussian, Inc.),
 the Gaussian 88(TM) system (copyright 1988, Gaussian, Inc.),
 the Gaussian 86(TM) system (copyright 1986, Carnegie Mellon
 University), and the Gaussian 82(TM) system (copyright 1983,
 Carnegie Mellon University). Gaussian is a federally registered
 trademark of Gaussian, Inc.
  
 This software contains proprietary and confidential information,
 including trade secrets, belonging to Gaussian, Inc.
  
 This software is provided under written license and may be
 used, copied, transmitted, or stored only in accord with that
 written license.
  
 The following legend is applicable only to US Government
 contracts under FAR:
  
                    RESTRICTED RIGHTS LEGEND
  
 Use, reproduction and disclosure by the US Government is
 subject to restrictions as set forth in subparagraphs (a)
 and (c) of the Commercial Computer Software - Restricted
 Rights clause in FAR 52.227-19.
  
 Gaussian, Inc.
 340 Quinnipiac St., Bldg. 40, Wallingford CT 06492
  
  
 ---------------------------------------------------------------
 Warning -- This program may not be used in any manner that
 competes with the business of Gaussian, Inc. or will provide
 assistance to any competitor of Gaussian, Inc.  The licensee
 of this program is prohibited from giving any competitor of
 Gaussian, Inc. access to this program.  By using this program,
 the user acknowledges that Gaussian, Inc. is engaged in the
 business of creating and licensing software in the field of
 computational chemistry and represents and warrants to the
 licensee that it is not a competitor of Gaussian, Inc. and that
 it will not use this program in any manner prohibited above.
 ---------------------------------------------------------------
  

 Cite this work as:
 Gaussian 09, Revision A.02,
 M. J. Frisch, G. W. Trucks, H. B. Schlegel, G. E. Scuseria, 
 M. A. Robb, J. R. Cheeseman, G. Scalmani, V. Barone, B. Mennucci, 
 G. A. Petersson, H. Nakatsuji, M. Caricato, X. Li, H. P. Hratchian, 
 A. F. Izmaylov, J. Bloino, G. Zheng, J. L. Sonnenberg, M. Hada, 
 M. Ehara, K. Toyota, R. Fukuda, J. Hasegawa, M. Ishida, T. Nakajima, 
 Y. Honda, O. Kitao, H. Nakai, T. Vreven, J. A. Montgomery, Jr., 
 J. E. Peralta, F. Ogliaro, M. Bearpark, J. J. Heyd, E. Brothers, 
 K. N. Kudin, V. N. Staroverov, R. Kobayashi, J. Normand, 
 K. Raghavachari, A. Rendell, J. C. Burant, S. S. Iyengar, J. Tomasi, 
 M. Cossi, N. Rega, J. M. Millam, M. Klene, J. E. Knox, J. B. Cross, 
 V. Bakken, C. Adamo, J. Jaramillo, R. Gomperts, R. E. Stratmann, 
 O. Yazyev, A. J. Austin, R. Cammi, C. Pomelli, J. W. Ochterski, 
 R. L. Martin, K. Morokuma, V. G. Zakrzewski, G. A. Voth, 
 P. Salvador, J. J. Dannenberg, S. Dapprich, A. D. Daniels, 
 O. Farkas, J. B. Foresman, J. V. Ortiz, J. Cioslowski, 
 and D. J. Fox, Gaussian, Inc., Wallingford CT, 2009.
 
 ******************************************
 Gaussian 09:  EM64L-G09RevA.02 11-Jun-2009
                10-Feb-2017 
 ******************************************
 %chk=structure_105.chk
 %NProcShared=8
 Will use up to    8 processors via shared memory.
 -------------------------------------------
 # HF/6-31G* Opt=(ModRedundant) geom=nocrowd
 -------------------------------------------
 1/18=120,19=15,38=1/1,3;
 2/9=110,12=1,17=6,18=5,40=1/2;
 3/5=1,6=6,7=1,11=9,16=1,25=1,30=1,71=1/1,2,3;
 4//1;
 5/5=2,38=5/2;
 6/7=2,8=2,9=2,10=2,28=1/1;
 7//1,2,3,16;
 1/18=20,19=15/3(2);
 2/9=110,12=1/2;
 99//99;
 2/9=110,12=1/2;
 3/5=1,6=6,7=1,11=9,16=1,25=1,30=1,71=1/1,2,3;
 4/5=5,16=3/1;
 5/5=2,38=5/2;
 7//1,2,3,16;
 1/18=20,19=15/3(-5);
 2/9=110,12=1/2;
 6/7=2,8=2,9=2,10=2,19=2,28=1/1;
 99/9=1/99;
 ------------------
 Phi Psi fixed scan
 ------------------
 Symbolic Z-matrix:
 Charge =  0 Multiplicity = 1
 H                     1.7437    1.5164   -1.3919 
 C                     1.8708    2.3503   -0.7015 
 H                     1.709     2.0051    0.3197 
 H                     1.1495    3.1323   -0.9387 
 C                     3.2798    2.9381   -0.8014 
 O                     4.0982    2.4665   -1.5877 
 N                     3.5554    3.9697    0. 
 H                     2.8491    4.3224    0.63 
 C                     4.8533    4.6139    0. 
 H                     5.4076    4.3155    0.8898 
 C                     5.6613    4.2208   -1.2322 
 H                     5.1233    4.5214   -2.1312 
 H                     6.6305    4.7189   -1.2058 
 H                     5.8085    3.1409   -1.2414 
 C                     4.7127    6.1294    0. 
 O                     4.3822    6.7252   -1.0229 
 N                     4.9651    6.7532    1.153 
 H                     5.2337    6.2197    1.9675 
 C                     4.8663    8.193     1.2823 
 H                     4.5691    8.6246    0.3266 
 H                     4.1219    8.4401    2.0392 
 H                     5.8336    8.5989    1.5786 
 
 The following ModRedundant input section has been read:
 D    5    7    9   15 F                                                       
 D    7    9   15   17 F                                                       

 GradGradGradGradGradGradGradGradGradGradGradGradGradGradGradGradGradGrad
 Berny optimization.
 Initialization pass.
                           ----------------------------
                           !    Initial Parameters    !
                           ! (Angstroms and Degrees)  !
 --------------------------                            --------------------------
 ! Name  Definition              Value          Derivative Info.                !
 --------------------------------------------------------------------------------
 ! R1    R(1,2)                  1.09           estimate D2E/DX2                !
 ! R2    R(2,3)                  1.09           estimate D2E/DX2                !
 ! R3    R(2,4)                  1.09           estimate D2E/DX2                !
 ! R4    R(2,5)                  1.53           estimate D2E/DX2                !
 ! R5    R(5,6)                  1.229          estimate D2E/DX2                !
 ! R6    R(5,7)                  1.3351         estimate D2E/DX2                !
 ! R7    R(7,8)                  1.01           estimate D2E/DX2                !
 ! R8    R(7,9)                  1.449          estimate D2E/DX2                !
 ! R9    R(9,10)                 1.09           estimate D2E/DX2                !
 ! R10   R(9,11)                 1.525          estimate D2E/DX2                !
 ! R11   R(9,15)                 1.522          estimate D2E/DX2                !
 ! R12   R(11,12)                1.09           estimate D2E/DX2                !
 ! R13   R(11,13)                1.09           estimate D2E/DX2                !
 ! R14   R(11,14)                1.0899         estimate D2E/DX2                !
 ! R15   R(15,16)                1.229          estimate D2E/DX2                !
 ! R16   R(15,17)                1.335          estimate D2E/DX2                !
 ! R17   R(17,18)                1.01           estimate D2E/DX2                !
 ! R18   R(17,19)                1.449          estimate D2E/DX2                !
 ! R19   R(19,20)                1.0899         estimate D2E/DX2                !
 ! R20   R(19,21)                1.09           estimate D2E/DX2                !
 ! R21   R(19,22)                1.0901         estimate D2E/DX2                !
 ! A1    A(1,2,3)              109.4991         estimate D2E/DX2                !
 ! A2    A(1,2,4)              109.5033         estimate D2E/DX2                !
 ! A3    A(1,2,5)              111.0965         estimate D2E/DX2                !
 ! A4    A(3,2,4)              109.4419         estimate D2E/DX2                !
 ! A5    A(3,2,5)              108.6351         estimate D2E/DX2                !
 ! A6    A(4,2,5)              108.6381         estimate D2E/DX2                !
 ! A7    A(2,5,6)              120.5047         estimate D2E/DX2                !
 ! A8    A(2,5,7)              116.6015         estimate D2E/DX2                !
 ! A9    A(6,5,7)              122.8938         estimate D2E/DX2                !
 ! A10   A(5,7,8)              119.9924         estimate D2E/DX2                !
 ! A11   A(5,7,9)              121.9002         estimate D2E/DX2                !
 ! A12   A(8,7,9)              118.1074         estimate D2E/DX2                !
 ! A13   A(7,9,10)             109.5            estimate D2E/DX2                !
 ! A14   A(7,9,11)             111.0992         estimate D2E/DX2                !
 ! A15   A(7,9,15)             111.0966         estimate D2E/DX2                !
 ! A16   A(10,9,11)            108.6382         estimate D2E/DX2                !
 ! A17   A(10,9,15)            108.6373         estimate D2E/DX2                !
 ! A18   A(11,9,15)            107.7947         estimate D2E/DX2                !
 ! A19   A(9,11,12)            109.5007         estimate D2E/DX2                !
 ! A20   A(9,11,13)            109.4959         estimate D2E/DX2                !
 ! A21   A(9,11,14)            109.4978         estimate D2E/DX2                !
 ! A22   A(12,11,13)           109.441          estimate D2E/DX2                !
 ! A23   A(12,11,14)           109.4482         estimate D2E/DX2                !
 ! A24   A(13,11,14)           109.4436         estimate D2E/DX2                !
 ! A25   A(9,15,16)            120.5            estimate D2E/DX2                !
 ! A26   A(9,15,17)            116.6027         estimate D2E/DX2                !
 ! A27   A(16,15,17)           122.8974         estimate D2E/DX2                !
 ! A28   A(15,17,18)           119.9957         estimate D2E/DX2                !
 ! A29   A(15,17,19)           121.9032         estimate D2E/DX2                !
 ! A30   A(18,17,19)           118.1011         estimate D2E/DX2                !
 ! A31   A(17,19,20)           109.5012         estimate D2E/DX2                !
 ! A32   A(17,19,21)           109.4994         estimate D2E/DX2                !
 ! A33   A(17,19,22)           109.4971         estimate D2E/DX2                !
 ! A34   A(20,19,21)           109.4444         estimate D2E/DX2                !
 ! A35   A(20,19,22)           109.4425         estimate D2E/DX2                !
 ! A36   A(21,19,22)           109.4426         estimate D2E/DX2                !
 ! D1    D(1,2,5,6)              0.0029         estimate D2E/DX2                !
 ! D2    D(1,2,5,7)            179.998          estimate D2E/DX2                !
 ! D3    D(3,2,5,6)            120.5113         estimate D2E/DX2                !
 ! D4    D(3,2,5,7)            -59.4936         estimate D2E/DX2                !
 ! D5    D(4,2,5,6)           -120.5126         estimate D2E/DX2                !
 ! D6    D(4,2,5,7)             59.4825         estimate D2E/DX2                !
 ! D7    D(2,5,7,8)              0.0069         estimate D2E/DX2                !
 ! D8    D(2,5,7,9)            180.0            estimate D2E/DX2                !
 ! D9    D(6,5,7,8)           -179.9982         estimate D2E/DX2                !
 ! D10   D(6,5,7,9)             -0.0051         estimate D2E/DX2                !
 ! D11   D(5,7,9,10)          -104.9962         estimate D2E/DX2                !
 ! D12   D(5,7,9,11)            15.0064         estimate D2E/DX2                !
 ! D13   D(5,7,9,15)           135.004          Frozen                          !
 ! D14   D(8,7,9,10)            74.9971         estimate D2E/DX2                !
 ! D15   D(8,7,9,11)          -165.0003         estimate D2E/DX2                !
 ! D16   D(8,7,9,15)           -45.0028         estimate D2E/DX2                !
 ! D17   D(7,9,11,12)           60.0024         estimate D2E/DX2                !
 ! D18   D(7,9,11,13)          179.9986         estimate D2E/DX2                !
 ! D19   D(7,9,11,14)          -60.0038         estimate D2E/DX2                !
 ! D20   D(10,9,11,12)        -179.4843         estimate D2E/DX2                !
 ! D21   D(10,9,11,13)         -59.4881         estimate D2E/DX2                !
 ! D22   D(10,9,11,14)          60.5095         estimate D2E/DX2                !
 ! D23   D(15,9,11,12)         -61.938          estimate D2E/DX2                !
 ! D24   D(15,9,11,13)          58.0582         estimate D2E/DX2                !
 ! D25   D(15,9,11,14)         178.0558         estimate D2E/DX2                !
 ! D26   D(7,9,15,16)          -75.0019         estimate D2E/DX2                !
 ! D27   D(7,9,15,17)          105.0            Frozen                          !
 ! D28   D(10,9,15,16)         164.487          estimate D2E/DX2                !
 ! D29   D(10,9,15,17)         -15.5111         estimate D2E/DX2                !
 ! D30   D(11,9,15,16)          46.9401         estimate D2E/DX2                !
 ! D31   D(11,9,15,17)        -133.058          estimate D2E/DX2                !
 ! D32   D(9,15,17,18)          -0.0049         estimate D2E/DX2                !
 ! D33   D(9,15,17,19)        -179.9992         estimate D2E/DX2                !
 ! D34   D(16,15,17,18)        179.9971         estimate D2E/DX2                !
 ! D35   D(16,15,17,19)          0.0028         estimate D2E/DX2                !
 ! D36   D(15,17,19,20)         -0.0018         estimate D2E/DX2                !
 ! D37   D(15,17,19,21)        120.0011         estimate D2E/DX2                !
 ! D38   D(15,17,19,22)       -120.0008         estimate D2E/DX2                !
 ! D39   D(18,17,19,20)       -179.9962         estimate D2E/DX2                !
 ! D40   D(18,17,19,21)        -59.9933         estimate D2E/DX2                !
 ! D41   D(18,17,19,22)         60.0047         estimate D2E/DX2                !
 --------------------------------------------------------------------------------
 Trust Radius=3.00D-01 FncErr=1.00D-07 GrdErr=1.00D-07
 Number of steps in this run= 108 maximum allowed number of steps= 132.
 GradGradGradGradGradGradGradGradGradGradGradGradGradGradGradGradGradGrad

                          Input orientation:                          
 ---------------------------------------------------------------------
 Center     Atomic      Atomic             Coordinates (Angstroms)
 Number     Number       Type             X           Y           Z
 ---------------------------------------------------------------------
      1          1           0        1.743700    1.516400   -1.391900
      2          6           0        1.870800    2.350300   -0.701500
      3          1           0        1.709000    2.005100    0.319700
      4          1           0        1.149500    3.132300   -0.938700
      5          6           0        3.279800    2.938100   -0.801400
      6          8           0        4.098200    2.466500   -1.587700
      7          7           0        3.555400    3.969700    0.000000
      8          1           0        2.849100    4.322400    0.630000
      9          6           0        4.853300    4.613900    0.000000
     10          1           0        5.407600    4.315500    0.889800
     11          6           0        5.661300    4.220800   -1.232200
     12          1           0        5.123300    4.521400   -2.131200
     13          1           0        6.630500    4.718900   -1.205800
     14          1           0        5.808500    3.140900   -1.241400
     15          6           0        4.712700    6.129400    0.000000
     16          8           0        4.382200    6.725200   -1.022900
     17          7           0        4.965100    6.753200    1.153000
     18          1           0        5.233700    6.219700    1.967500
     19          6           0        4.866300    8.193000    1.282300
     20          1           0        4.569100    8.624600    0.326600
     21          1           0        4.121900    8.440100    2.039200
     22          1           0        5.833600    8.598900    1.578600
 ---------------------------------------------------------------------
                    Distance matrix (angstroms):
                    1          2          3          4          5
     1  H    0.000000
     2  C    1.090044   0.000000
     3  H    1.780339   1.090042   0.000000
     4  H    1.780336   1.089982   1.779660   0.000000
     5  C    2.174747   1.529957   2.143541   2.143535   0.000000
     6  O    2.546507   2.400034   3.091818   3.091815   1.229005
     7  N    3.352361   2.439761   2.714969   2.714913   1.335064
     8  H    3.630926   2.572769   2.601152   2.601115   2.037325
     9  C    4.604509   3.809369   4.098130   4.098101   2.434430
    10  H    5.144442   4.347781   4.398023   4.782760   3.047117
    11  C    4.763074   4.260083   4.789404   4.650518   2.739060
    12  H    4.582389   4.163709   4.898584   4.375242   2.770144
    13  H    5.845635   5.340349   5.823489   5.712268   3.816016
    14  H    4.379983   4.052409   4.531333   4.668831   2.574694
    15  C    5.659692   4.780177   5.112169   4.749754   3.588849
    16  O    5.850593   5.054718   5.588194   4.833877   3.950503
    17  N    6.654172   5.692046   5.817304   5.660824   4.605964
    18  H    6.751792   5.779698   5.735992   5.887166   4.717354
    19  C    7.840852   6.858981   7.013220   6.660190   5.871351
    20  H    7.839811   6.906856   7.210964   6.592420   5.938936
    21  H    8.084918   7.047308   7.084348   6.773167   6.249012
    22  H    8.701319   7.742586   7.878791   7.626356   6.650635
                    6          7          8          9         10
     6  O    0.000000
     7  N    2.252783   0.000000
     8  H    3.150049   1.010028   0.000000
     9  C    2.775301   1.448978   2.121012   0.000000
    10  H    3.357281   2.083739   2.571666   1.089970   0.000000
    11  C    2.376390   2.452791   3.374401   1.525027   2.139209
    12  H    2.359838   2.702720   3.582710   2.150225   3.041326
    13  H    3.410527   3.386959   4.222127   2.150214   2.459625
    14  H    1.870793   2.702673   3.695420   2.150165   2.466256
    15  C    4.039213   2.450234   2.671171   1.522008   2.136554
    16  O    4.305367   3.053310   3.294833   2.392874   3.242919
    17  N    5.161274   3.326340   3.264931   2.432799   2.491478
    18  H    5.292950   3.427863   3.327908   2.567947   2.194916
    19  C    6.451332   4.604239   4.413177   3.801897   3.934726
    20  H    6.465948   4.775181   4.643208   4.033999   4.425903
    21  H    6.988481   4.946083   4.534459   4.396941   4.470623
    22  H    7.116418   5.395523   5.300522   4.396952   4.359293
                   11         12         13         14         15
    11  C    0.000000
    12  H    1.089957   0.000000
    13  H    1.090023   1.779613   0.000000
    14  H    1.089925   1.779613   1.779617   0.000000
    15  C    2.461892   2.701161   2.668599   3.416575   0.000000
    16  O    2.819915   2.575712   3.018865   3.863843   1.229037
    17  N    3.547805   3.973906   3.532120   4.415109   1.335006
    18  H    3.796910   4.437990   3.778000   4.484021   2.037315
    19  C    4.767925   5.019828   4.623031   5.725427   2.434406
    20  H    4.797522   4.814994   4.674624   5.836583   2.520578
    21  H    5.556465   5.809582   5.538089   6.456661   3.137948
    22  H    5.205578   5.558161   4.841728   6.143516   3.137965
                   16         17         18         19         20
    16  O    0.000000
    17  N    2.252798   0.000000
    18  H    3.150091   1.010039   0.000000
    19  C    2.775380   1.448967   2.120942   0.000000
    20  H    2.337478   2.083720   2.986267   1.089940   0.000000
    21  H    3.519246   2.083739   2.484234   1.089994   1.779614
    22  H    3.519249   2.083755   2.484294   1.090054   1.779642
                   21         22
    21  H    0.000000
    22  H    1.779687   0.000000
 Stoichiometry    C6H12N2O2
 Framework group  C1[X(C6H12N2O2)]
 Deg. of freedom    60
 Full point group                 C1      NOp   1
 Largest Abelian subgroup         C1      NOp   1
 Largest concise Abelian subgroup C1      NOp   1
                         Standard orientation:                         
 ---------------------------------------------------------------------
 Center     Atomic      Atomic             Coordinates (Angstroms)
 Number     Number       Type             X           Y           Z
 ---------------------------------------------------------------------
      1          1           0       -4.148450   -1.070183    0.449827
      2          6           0       -3.144800   -1.431394    0.225305
      3          1           0       -3.175474   -2.062523   -0.662911
      4          1           0       -2.769213   -2.010375    1.068973
      5          6           0       -2.186072   -0.267766   -0.034659
      6          8           0       -2.584147    0.893516    0.023751
      7          7           0       -0.921955   -0.587349   -0.321489
      8          1           0       -0.642174   -1.557168   -0.357948
      9          6           0        0.081856    0.423190   -0.587407
     10          1           0        0.289270    0.457421   -1.656913
     11          6           0       -0.393858    1.800944   -0.138856
     12          1           0       -0.596848    1.784989    0.931913
     13          1           0        0.379343    2.539514   -0.350571
     14          1           0       -1.304346    2.064420   -0.676934
     15          6           0        1.377465    0.115699    0.149719
     16          8           0        1.465298    0.302597    1.361283
     17          7           0        2.385901   -0.357763   -0.585897
     18          1           0        2.265435   -0.494635   -1.579342
     19          6           0        3.670072   -0.688811   -0.002102
     20          1           0        3.645216   -0.488830    1.069046
     21          1           0        3.884489   -1.744351   -0.169275
     22          1           0        4.447948   -0.082576   -0.466436
 ---------------------------------------------------------------------
 Rotational constants (GHZ):      2.9039362      0.6848195      0.6241129
 Standard basis: 6-31G(d) (6D, 7F)
 There are   174 symmetry adapted basis functions of A   symmetry.
 Integral buffers will be    131072 words long.
 Raffenetti 1 integral format.
 Two-electron integral symmetry is turned on.
   174 basis functions,   328 primitive gaussians,   174 cartesian basis functions
    39 alpha electrons       39 beta electrons
       nuclear repulsion energy       558.4795896961 Hartrees.
 NAtoms=   22 NActive=   22 NUniq=   22 SFac= 7.50D-01 NAtFMM=   80 NAOKFM=F Big=F
 One-electron integrals computed using PRISM.
 NBasis=   174 RedAO= T  NBF=   174
 NBsUse=   174 1.00D-06 NBFU=   174
 Harris functional with IExCor=  205 diagonalized for initial guess.
 ExpMin= 1.61D-01 ExpMax= 5.48D+03 ExpMxC= 8.25D+02 IAcc=1 IRadAn=         1 AccDes= 0.00D+00
 HarFok:  IExCor=  205 AccDes= 0.00D+00 IRadAn=         1 IDoV= 1
 ScaDFX=  1.000000  1.000000  1.000000  1.000000
 FoFCou: FMM=F IPFlag=           0 FMFlag=      100000 FMFlg1=           0
         NFxFlg=           0 DoJE=T BraDBF=F KetDBF=T FulRan=T
         Omega=  0.000000  0.000000  1.000000  0.000000  0.000000 ICntrl=     500 IOpCl=  0
         NMat0=    1 NMatS0=    1 NMatT0=    0 NMatD0=    1 NMtDS0=    0 NMtDT0=    0
         I1Cent=           4 NGrid=           0.
 Petite list used in FoFCou.
 Initial guess orbital symmetries:
       Occupied  (A) (A) (A) (A) (A) (A) (A) (A) (A) (A) (A) (A)
                 (A) (A) (A) (A) (A) (A) (A) (A) (A) (A) (A) (A)
                 (A) (A) (A) (A) (A) (A) (A) (A) (A) (A) (A) (A)
                 (A) (A) (A)
       Virtual   (A) (A) (A) (A) (A) (A) (A) (A) (A) (A) (A) (A)
                 (A) (A) (A) (A) (A) (A) (A) (A) (A) (A) (A) (A)
                 (A) (A) (A) (A) (A) (A) (A) (A) (A) (A) (A) (A)
                 (A) (A) (A) (A) (A) (A) (A) (A) (A) (A) (A) (A)
                 (A) (A) (A) (A) (A) (A) (A) (A) (A) (A) (A) (A)
                 (A) (A) (A) (A) (A) (A) (A) (A) (A) (A) (A) (A)
                 (A) (A) (A) (A) (A) (A) (A) (A) (A) (A) (A) (A)
                 (A) (A) (A) (A) (A) (A) (A) (A) (A) (A) (A) (A)
                 (A) (A) (A) (A) (A) (A) (A) (A) (A) (A) (A) (A)
                 (A) (A) (A) (A) (A) (A) (A) (A) (A) (A) (A) (A)
                 (A) (A) (A) (A) (A) (A) (A) (A) (A) (A) (A) (A)
                 (A) (A) (A)
 The electronic state of the initial guess is 1-A.
 Requested convergence on RMS density matrix=1.00D-08 within 128 cycles.
 Requested convergence on MAX density matrix=1.00D-06.
 Requested convergence on             energy=1.00D-06.
 No special actions if energy rises.
 Integral accuracy reduced to 1.0D-05 until final iterations.
 Initial convergence to 1.0D-05 achieved.  Increase integral accuracy.
 SCF Done:  E(RHF) =  -492.817827805     A.U. after   15 cycles
             Convg  =    0.4638D-08             -V/T =  2.0017

 **********************************************************************

            Population analysis using the SCF density.

 **********************************************************************

 Orbital symmetries:
       Occupied  (A) (A) (A) (A) (A) (A) (A) (A) (A) (A) (A) (A)
                 (A) (A) (A) (A) (A) (A) (A) (A) (A) (A) (A) (A)
                 (A) (A) (A) (A) (A) (A) (A) (A) (A) (A) (A) (A)
                 (A) (A) (A)
       Virtual   (A) (A) (A) (A) (A) (A) (A) (A) (A) (A) (A) (A)
                 (A) (A) (A) (A) (A) (A) (A) (A) (A) (A) (A) (A)
                 (A) (A) (A) (A) (A) (A) (A) (A) (A) (A) (A) (A)
                 (A) (A) (A) (A) (A) (A) (A) (A) (A) (A) (A) (A)
                 (A) (A) (A) (A) (A) (A) (A) (A) (A) (A) (A) (A)
                 (A) (A) (A) (A) (A) (A) (A) (A) (A) (A) (A) (A)
                 (A) (A) (A) (A) (A) (A) (A) (A) (A) (A) (A) (A)
                 (A) (A) (A) (A) (A) (A) (A) (A) (A) (A) (A) (A)
                 (A) (A) (A) (A) (A) (A) (A) (A) (A) (A) (A) (A)
                 (A) (A) (A) (A) (A) (A) (A) (A) (A) (A) (A) (A)
                 (A) (A) (A) (A) (A) (A) (A) (A) (A) (A) (A) (A)
                 (A) (A) (A)
 The electronic state is 1-A.
 Alpha  occ. eigenvalues --  -20.51731 -20.50953 -15.60221 -15.59935 -11.35256
 Alpha  occ. eigenvalues --  -11.34747 -11.28143 -11.26555 -11.23687 -11.19203
 Alpha  occ. eigenvalues --   -1.38105  -1.37212  -1.24538  -1.23833  -1.05519
 Alpha  occ. eigenvalues --   -0.98741  -0.96095  -0.87455  -0.80198  -0.78257
 Alpha  occ. eigenvalues --   -0.73358  -0.69261  -0.66376  -0.63902  -0.62738
 Alpha  occ. eigenvalues --   -0.61458  -0.59101  -0.57596  -0.56287  -0.55469
 Alpha  occ. eigenvalues --   -0.53969  -0.52837  -0.51960  -0.50700  -0.49520
 Alpha  occ. eigenvalues --   -0.42611  -0.39594  -0.38691  -0.38077
 Alpha virt. eigenvalues --    0.18341   0.20352   0.20647   0.22729   0.26247
 Alpha virt. eigenvalues --    0.27481   0.28740   0.30412   0.31381   0.31635
 Alpha virt. eigenvalues --    0.32625   0.33192   0.34344   0.36473   0.37872
 Alpha virt. eigenvalues --    0.39140   0.41412   0.44665   0.44762   0.50047
 Alpha virt. eigenvalues --    0.53390   0.58799   0.63552   0.71582   0.72597
 Alpha virt. eigenvalues --    0.74144   0.74582   0.75910   0.78832   0.80471
 Alpha virt. eigenvalues --    0.81788   0.82310   0.83255   0.88149   0.89717
 Alpha virt. eigenvalues --    0.92508   0.94031   0.95284   0.96461   0.98736
 Alpha virt. eigenvalues --    1.01235   1.02151   1.03849   1.07536   1.08986
 Alpha virt. eigenvalues --    1.09197   1.13139   1.14322   1.15328   1.15664
 Alpha virt. eigenvalues --    1.16536   1.16686   1.18205   1.20118   1.20414
 Alpha virt. eigenvalues --    1.21280   1.22481   1.23189   1.24146   1.29527
 Alpha virt. eigenvalues --    1.32765   1.34685   1.39693   1.41823   1.44599
 Alpha virt. eigenvalues --    1.47883   1.51744   1.56474   1.60085   1.62419
 Alpha virt. eigenvalues --    1.66206   1.68560   1.71074   1.73707   1.74945
 Alpha virt. eigenvalues --    1.78297   1.83193   1.85101   1.90651   1.95792
 Alpha virt. eigenvalues --    2.01512   2.05119   2.07275   2.13127   2.13204
 Alpha virt. eigenvalues --    2.14433   2.17598   2.19395   2.22986   2.23389
 Alpha virt. eigenvalues --    2.25732   2.27210   2.29707   2.33912   2.36617
 Alpha virt. eigenvalues --    2.37031   2.39116   2.47082   2.49563   2.51909
 Alpha virt. eigenvalues --    2.53669   2.58709   2.60329   2.62713   2.63651
 Alpha virt. eigenvalues --    2.66380   2.69178   2.70137   2.73110   2.77136
 Alpha virt. eigenvalues --    2.77815   2.80313   2.85648   2.95558   2.97237
 Alpha virt. eigenvalues --    3.01433   3.03974   3.06786   3.13522   3.27140
 Alpha virt. eigenvalues --    3.28279   3.36262   3.37354   3.53664   3.58134
 Alpha virt. eigenvalues --    4.36698   4.40754   4.50813   4.62241   4.64376
 Alpha virt. eigenvalues --    4.68589   4.72222   4.82343   4.89407   5.10130
          Condensed to atoms (all electrons):
              1          2          3          4          5          6
     1  H    0.452187   0.385278  -0.018642  -0.017765  -0.029784   0.003714
     2  C    0.385278   5.249875   0.373136   0.375169   0.376560  -0.063918
     3  H   -0.018642   0.373136   0.521338  -0.024247  -0.035920   0.001161
     4  H   -0.017765   0.375169  -0.024247   0.508477  -0.036334   0.001070
     5  C   -0.029784   0.376560  -0.035920  -0.036334   4.183999   0.581189
     6  O    0.003714  -0.063918   0.001161   0.001070   0.581189   8.294768
     7  N    0.003804  -0.122013   0.004022   0.004210   0.251611  -0.101115
     8  H   -0.000021  -0.000161   0.000473   0.000403  -0.017288   0.002373
     9  C   -0.000058   0.002537  -0.000115  -0.000046  -0.026732   0.003424
    10  H    0.000002  -0.000105   0.000012   0.000000  -0.000352   0.000250
    11  C    0.000006  -0.000277   0.000017   0.000006  -0.003001  -0.067943
    12  H    0.000005  -0.000166   0.000002   0.000007   0.000896  -0.006892
    13  H    0.000000   0.000021   0.000000  -0.000001   0.000323   0.003540
    14  H    0.000010  -0.000068  -0.000010   0.000006  -0.002340  -0.018936
    15  C    0.000001  -0.000097  -0.000004   0.000023   0.000984  -0.000272
    16  O    0.000000  -0.000003   0.000000   0.000001   0.000146   0.000006
    17  N    0.000000   0.000000   0.000000   0.000000  -0.000058  -0.000003
    18  H    0.000000   0.000000   0.000000   0.000000   0.000003   0.000000
    19  C    0.000000   0.000000   0.000000   0.000000   0.000000   0.000000
    20  H    0.000000   0.000000   0.000000   0.000000   0.000000   0.000000
    21  H    0.000000   0.000000   0.000000   0.000000   0.000000   0.000000
    22  H    0.000000   0.000000   0.000000   0.000000   0.000000   0.000000
              7          8          9         10         11         12
     1  H    0.003804  -0.000021  -0.000058   0.000002   0.000006   0.000005
     2  C   -0.122013  -0.000161   0.002537  -0.000105  -0.000277  -0.000166
     3  H    0.004022   0.000473  -0.000115   0.000012   0.000017   0.000002
     4  H    0.004210   0.000403  -0.000046   0.000000   0.000006   0.000007
     5  C    0.251611  -0.017288  -0.026732  -0.000352  -0.003001   0.000896
     6  O   -0.101115   0.002373   0.003424   0.000250  -0.067943  -0.006892
     7  N    7.394304   0.321206   0.177570  -0.052315  -0.043948  -0.001126
     8  H    0.321206   0.324036  -0.022606   0.000749   0.002906  -0.000102
     9  C    0.177570  -0.022606   5.057008   0.411772   0.355894  -0.035590
    10  H   -0.052315   0.000749   0.411772   0.564890  -0.038296   0.004206
    11  C   -0.043948   0.002906   0.355894  -0.038296   5.155573   0.399426
    12  H   -0.001126  -0.000102  -0.035590   0.004206   0.399426   0.472419
    13  H    0.004162  -0.000071  -0.034669  -0.000727   0.367133  -0.023288
    14  H   -0.001457  -0.000182  -0.034279  -0.002706   0.405239  -0.017947
    15  C   -0.047106  -0.003148   0.342502  -0.068588  -0.049099  -0.007053
    16  O    0.003182   0.000261  -0.083710   0.002882  -0.000312   0.005994
    17  N    0.000151   0.001829  -0.100112   0.007799   0.000508   0.000373
    18  H    0.000048   0.000040   0.000759   0.002832  -0.000008  -0.000007
    19  C   -0.000131  -0.000046   0.004470  -0.000080  -0.000131   0.000000
    20  H   -0.000014  -0.000002   0.000581  -0.000034  -0.000011  -0.000004
    21  H    0.000017  -0.000008  -0.000113  -0.000002  -0.000003   0.000000
    22  H   -0.000002   0.000002  -0.000108  -0.000018   0.000018   0.000000
             13         14         15         16         17         18
     1  H    0.000000   0.000010   0.000001   0.000000   0.000000   0.000000
     2  C    0.000021  -0.000068  -0.000097  -0.000003   0.000000   0.000000
     3  H    0.000000  -0.000010  -0.000004   0.000000   0.000000   0.000000
     4  H   -0.000001   0.000006   0.000023   0.000001   0.000000   0.000000
     5  C    0.000323  -0.002340   0.000984   0.000146  -0.000058   0.000003
     6  O    0.003540  -0.018936  -0.000272   0.000006  -0.000003   0.000000
     7  N    0.004162  -0.001457  -0.047106   0.003182   0.000151   0.000048
     8  H   -0.000071  -0.000182  -0.003148   0.000261   0.001829   0.000040
     9  C   -0.034669  -0.034279   0.342502  -0.083710  -0.100112   0.000759
    10  H   -0.000727  -0.002706  -0.068588   0.002882   0.007799   0.002832
    11  C    0.367133   0.405239  -0.049099  -0.000312   0.000508  -0.000008
    12  H   -0.023288  -0.017947  -0.007053   0.005994   0.000373  -0.000007
    13  H    0.574457  -0.028416  -0.005673  -0.000314   0.000499  -0.000004
    14  H   -0.028416   0.461489   0.005014   0.000253  -0.000065  -0.000007
    15  C   -0.005673   0.005014   4.249954   0.591467   0.267385  -0.018372
    16  O   -0.000314   0.000253   0.591467   8.207917  -0.099574   0.002395
    17  N    0.000499  -0.000065   0.267385  -0.099574   7.333180   0.322508
    18  H   -0.000004  -0.000007  -0.018372   0.002395   0.322508   0.324762
    19  C   -0.000035   0.000002  -0.027900  -0.004844   0.183854  -0.022412
    20  H   -0.000004   0.000000  -0.001591   0.011107  -0.031721   0.002308
    21  H    0.000001   0.000000   0.000890   0.000384  -0.047756  -0.001138
    22  H   -0.000002   0.000000   0.001175   0.000377  -0.047212  -0.000958
             19         20         21         22
     1  H    0.000000   0.000000   0.000000   0.000000
     2  C    0.000000   0.000000   0.000000   0.000000
     3  H    0.000000   0.000000   0.000000   0.000000
     4  H    0.000000   0.000000   0.000000   0.000000
     5  C    0.000000   0.000000   0.000000   0.000000
     6  O    0.000000   0.000000   0.000000   0.000000
     7  N   -0.000131  -0.000014   0.000017  -0.000002
     8  H   -0.000046  -0.000002  -0.000008   0.000002
     9  C    0.004470   0.000581  -0.000113  -0.000108
    10  H   -0.000080  -0.000034  -0.000002  -0.000018
    11  C   -0.000131  -0.000011  -0.000003   0.000018
    12  H    0.000000  -0.000004   0.000000   0.000000
    13  H   -0.000035  -0.000004   0.000001  -0.000002
    14  H    0.000002   0.000000   0.000000   0.000000
    15  C   -0.027900  -0.001591   0.000890   0.001175
    16  O   -0.004844   0.011107   0.000384   0.000377
    17  N    0.183854  -0.031721  -0.047756  -0.047212
    18  H   -0.022412   0.002308  -0.001138  -0.000958
    19  C    4.961118   0.395667   0.402244   0.402346
    20  H    0.395667   0.426704  -0.022341  -0.021926
    21  H    0.402244  -0.022341   0.535607  -0.036159
    22  H    0.402346  -0.021926  -0.036159   0.528906
 Mulliken atomic charges:
              1
     1  H    0.221265
     2  C   -0.575769
     3  H    0.178776
     4  H    0.189020
     5  C    0.756100
     6  O   -0.632416
     7  N   -0.795061
     8  H    0.389359
     9  C   -0.018381
    10  H    0.167830
    11  C   -0.483698
    12  H    0.208849
    13  H    0.143068
    14  H    0.234399
    15  C    0.769508
    16  O   -0.637616
    17  N   -0.791584
    18  H    0.387251
    19  C   -0.294120
    20  H    0.241281
    21  H    0.168377
    22  H    0.173560
 Sum of Mulliken atomic charges =   0.00000
 Mulliken charges with hydrogens summed into heavy atoms:
              1
     2  C    0.013293
     5  C    0.756100
     6  O   -0.632416
     7  N   -0.405703
     9  C    0.149449
    11  C    0.102618
    15  C    0.769508
    16  O   -0.637616
    17  N   -0.404332
    19  C    0.289098
 Sum of Mulliken charges with hydrogens summed into heavy atoms =   0.00000
 Electronic spatial extent (au):  <R**2>=           1901.7274
 Charge=              0.0000 electrons
 Dipole moment (field-independent basis, Debye):
    X=              2.3142    Y=             -4.4275    Z=             -3.9783  Tot=              6.3863
 Quadrupole moment (field-independent basis, Debye-Ang):
   XX=            -57.8887   YY=            -59.0547   ZZ=            -62.2365
   XY=              5.2057   XZ=             -6.1054   YZ=             -0.5136
 Traceless Quadrupole moment (field-independent basis, Debye-Ang):
   XX=              1.8380   YY=              0.6719   ZZ=             -2.5098
   XY=              5.2057   XZ=             -6.1054   YZ=             -0.5136
 Octapole moment (field-independent basis, Debye-Ang**2):
  XXX=             39.5261  YYY=             -7.0950  ZZZ=             -9.0881  XYY=              2.0768
  XXY=            -29.5469  XXZ=             -6.5487  XZZ=             -1.4265  YZZ=             -3.1241
  YYZ=             -0.6165  XYZ=              0.3368
 Hexadecapole moment (field-independent basis, Debye-Ang**3):
 XXXX=          -1755.3842 YYYY=           -412.3011 ZZZZ=           -184.2066 XXXY=             33.1464
 XXXZ=            -12.2912 YYYX=             -3.1198 YYYZ=              4.7478 ZZZX=            -17.8014
 ZZZY=              3.1765 XXYY=           -385.4521 XXZZ=           -333.4135 YYZZ=            -98.8345
 XXYZ=             -2.5382 YYXZ=              0.7450 ZZXY=             -7.1950
 N-N= 5.584795896961D+02 E-N=-2.272498680789D+03  KE= 4.919816790320D+02
 Calling FoFJK, ICntrl=      2127 FMM=F ISym2X=0 I1Cent= 0 IOpClX= 0 NMat=1 NMatS=1 NMatT=0.
 ***** Axes restored to original set *****
 -------------------------------------------------------------------
 Center     Atomic                   Forces (Hartrees/Bohr)
 Number     Number              X              Y              Z
 -------------------------------------------------------------------
      1        1           0.005090113    0.007166796    0.004224052
      2        6           0.005585129    0.007242847    0.003304205
      3        1          -0.003672807    0.001074386   -0.003282408
      4        1          -0.000816302   -0.004231396    0.002643426
      5        6           0.011300008   -0.041905365   -0.043973912
      6        8          -0.062468722   -0.008083079    0.026822885
      7        7          -0.005223270    0.016764808    0.014845539
      8        1           0.008511375   -0.007098140   -0.010168783
      9        6           0.012416614    0.000209411    0.000630550
     10        1          -0.002323288   -0.001080900    0.000559249
     11        6           0.023490159   -0.000468861   -0.003197801
     12        1           0.008800976   -0.002551622    0.006508401
     13        1          -0.003283355    0.004625045    0.001793354
     14        1           0.010988624    0.022824427   -0.001473071
     15        6          -0.020192571    0.018200859   -0.045401782
     16        8           0.009677883   -0.020139649    0.037565411
     17        7           0.003260768   -0.000922801    0.015358472
     18        1          -0.003550172    0.007359184   -0.013759350
     19        6           0.001117143    0.003965660    0.002653665
     20        1           0.002779531   -0.005999990    0.008073196
     21        1           0.003488093    0.001917311   -0.002913614
     22        1          -0.004975930    0.001131067   -0.000811684
 -------------------------------------------------------------------
 Cartesian Forces:  Max     0.062468722 RMS     0.015776707

 GradGradGradGradGradGradGradGradGradGradGradGradGradGradGradGradGradGrad
 Berny optimization.
 Internal  Forces:  Max     0.137065920 RMS     0.025026036
 Search for a local minimum.
 Step number   1 out of a maximum of  108
 All quantities printed in internal units (Hartrees-Bohrs-Radians)
 Mixed Optimization -- RFO/linear search
 Second derivative matrix not updated -- first step.
     Eigenvalues ---    0.00370   0.00435   0.00999   0.01044   0.01269
     Eigenvalues ---    0.01422   0.01660   0.02551   0.02552   0.03503
     Eigenvalues ---    0.05232   0.05841   0.05844   0.05844   0.07166
     Eigenvalues ---    0.07464   0.07686   0.07686   0.15421   0.16000
     Eigenvalues ---    0.16000   0.16000   0.16000   0.16000   0.16000
     Eigenvalues ---    0.16000   0.16000   0.16000   0.16000   0.16000
     Eigenvalues ---    0.16180   0.22000   0.22000   0.25000   0.25000
     Eigenvalues ---    0.25000   0.25000   0.29427   0.29887   0.30174
     Eigenvalues ---    0.34806   0.34808   0.34808   0.34810   0.34813
     Eigenvalues ---    0.34815   0.34816   0.34818   0.34820   0.34821
     Eigenvalues ---    0.38379   0.38381   0.45966   0.45968   0.58325
     Eigenvalues ---    0.58339   0.91489   0.915021000.000001000.00000
     Eigenvalues --- 1000.000001000.000001000.000001000.000001000.00000
     Eigenvalues --- 1000.000001000.000001000.000001000.000001000.00000
     Eigenvalues --- 1000.000001000.000001000.000001000.000001000.00000
     Eigenvalues --- 1000.000001000.000001000.000001000.000001000.00000
     Eigenvalues --- 1000.000001000.000001000.000001000.000001000.00000
     Eigenvalues --- 1000.000001000.000001000.000001000.000001000.00000
     Eigenvalues --- 1000.000001000.000001000.000001000.000001000.00000
     Eigenvalues --- 1000.000001000.000001000.00000
 RFO step:  Lambda=-1.52151117D-01 EMin= 3.69667584D-03
 Linear search not attempted -- first point.
 Maximum step size (   0.300) exceeded in Quadratic search.
    -- Step size scaled by   0.461
 Iteration  1 RMS(Cart)=  0.19323533 RMS(Int)=  0.00907172
 Iteration  2 RMS(Cart)=  0.02259774 RMS(Int)=  0.00032753
 Iteration  3 RMS(Cart)=  0.00026079 RMS(Int)=  0.00031385
 Iteration  4 RMS(Cart)=  0.00000008 RMS(Int)=  0.00031385
 Iteration  1 RMS(Cart)=  0.00012336 RMS(Int)=  0.00006462
 Iteration  2 RMS(Cart)=  0.00008316 RMS(Int)=  0.00007143
 Iteration  3 RMS(Cart)=  0.00005630 RMS(Int)=  0.00008211
 Iteration  4 RMS(Cart)=  0.00003817 RMS(Int)=  0.00009104
 Iteration  5 RMS(Cart)=  0.00002587 RMS(Int)=  0.00009759
 Iteration  6 RMS(Cart)=  0.00001752 RMS(Int)=  0.00010217
 Iteration  7 RMS(Cart)=  0.00001185 RMS(Int)=  0.00010532
 Iteration  8 RMS(Cart)=  0.00000801 RMS(Int)=  0.00010746
 Iteration  9 RMS(Cart)=  0.00000540 RMS(Int)=  0.00010891
 Iteration 10 RMS(Cart)=  0.00000364 RMS(Int)=  0.00010989
 Iteration 11 RMS(Cart)=  0.00000245 RMS(Int)=  0.00011055
 Iteration 12 RMS(Cart)=  0.00000165 RMS(Int)=  0.00011100
 Iteration 13 RMS(Cart)=  0.00000111 RMS(Int)=  0.00011129
 Iteration 14 RMS(Cart)=  0.00000075 RMS(Int)=  0.00011149
 Variable       Old X    -DE/DX   Delta X   Delta X   Delta X     New X
                                 (Linear)    (Quad)   (Total)
    R1        2.05988  -0.00875   0.00000  -0.00807  -0.00807   2.05182
    R2        2.05988  -0.00287   0.00000  -0.00265  -0.00265   2.05724
    R3        2.05977  -0.00307   0.00000  -0.00283  -0.00283   2.05694
    R4        2.89120  -0.00957   0.00000  -0.00988  -0.00988   2.88132
    R5        2.32248  -0.05566   0.00000  -0.02405  -0.02405   2.29844
    R6        2.52291   0.04538   0.00000   0.02845   0.02845   2.55135
    R7        1.90868  -0.01477   0.00000  -0.01113  -0.01113   1.89754
    R8        2.73817   0.05027   0.00000   0.04325   0.04325   2.78142
    R9        2.05975  -0.00043   0.00000  -0.00040  -0.00040   2.05935
   R10        2.88188   0.01196   0.00000   0.01223   0.01223   2.89411
   R11        2.87618   0.00626   0.00000   0.00636   0.00636   2.88254
   R12        2.05972  -0.01042   0.00000  -0.00960  -0.00960   2.05012
   R13        2.05984  -0.00076   0.00000  -0.00070  -0.00070   2.05914
   R14        2.05966  -0.02112   0.00000  -0.01946  -0.01946   2.04020
   R15        2.32254  -0.04363   0.00000  -0.01885  -0.01885   2.30369
   R16        2.52280   0.01131   0.00000   0.00709   0.00709   2.52989
   R17        1.90870  -0.01593   0.00000  -0.01200  -0.01200   1.89669
   R18        2.73815   0.00147   0.00000   0.00126   0.00126   2.73941
   R19        2.05969  -0.01021   0.00000  -0.00941  -0.00941   2.05028
   R20        2.05979  -0.00397   0.00000  -0.00366  -0.00366   2.05613
   R21        2.05990  -0.00422   0.00000  -0.00388  -0.00388   2.05602
    A1        1.91112   0.00047   0.00000   0.00046   0.00049   1.91161
    A2        1.91119   0.00059   0.00000   0.00062   0.00065   1.91184
    A3        1.93900  -0.00834   0.00000  -0.01255  -0.01253   1.92647
    A4        1.91012  -0.00455   0.00000  -0.00622  -0.00627   1.90385
    A5        1.89604   0.00606   0.00000   0.00907   0.00906   1.90510
    A6        1.89609   0.00581   0.00000   0.00870   0.00869   1.90478
    A7        2.10320  -0.02513   0.00000  -0.02881  -0.02881   2.07439
    A8        2.03508  -0.04175   0.00000  -0.04787  -0.04787   1.98721
    A9        2.14490   0.06688   0.00000   0.07668   0.07667   2.22158
   A10        2.09426  -0.07123   0.00000  -0.08888  -0.08889   2.00538
   A11        2.12756   0.13707   0.00000   0.16980   0.16980   2.29736
   A12        2.06136  -0.06584   0.00000  -0.08092  -0.08092   1.98044
   A13        1.91114  -0.01503   0.00000  -0.00757  -0.00803   1.90311
   A14        1.93905   0.08076   0.00000   0.10548   0.10496   2.04400
   A15        1.93900  -0.03928   0.00000  -0.05233  -0.05128   1.88773
   A16        1.89609  -0.01830   0.00000  -0.02534  -0.02625   1.86985
   A17        1.89608   0.01591   0.00000   0.01626   0.01500   1.91107
   A18        1.88137  -0.02486   0.00000  -0.03797  -0.03642   1.84495
   A19        1.91115   0.00566   0.00000   0.00917   0.00903   1.92018
   A20        1.91106  -0.01168   0.00000  -0.01924  -0.01917   1.89189
   A21        1.91110   0.01430   0.00000   0.02231   0.02223   1.93333
   A22        1.91011  -0.00116   0.00000  -0.00410  -0.00409   1.90602
   A23        1.91023  -0.00298   0.00000  -0.00040  -0.00068   1.90955
   A24        1.91015  -0.00415   0.00000  -0.00775  -0.00762   1.90253
   A25        2.10312   0.00430   0.00000   0.00493   0.00485   2.10798
   A26        2.03510  -0.00537   0.00000  -0.00615  -0.00623   2.02887
   A27        2.14496   0.00107   0.00000   0.00123   0.00115   2.14611
   A28        2.09432  -0.00502   0.00000  -0.00653  -0.00653   2.08779
   A29        2.12761   0.00751   0.00000   0.00930   0.00930   2.13691
   A30        2.06125  -0.00248   0.00000  -0.00277  -0.00277   2.05848
   A31        1.91116  -0.00479   0.00000  -0.00733  -0.00732   1.90384
   A32        1.91113   0.00426   0.00000   0.00642   0.00641   1.91754
   A33        1.91109   0.00436   0.00000   0.00657   0.00656   1.91764
   A34        1.91017  -0.00033   0.00000  -0.00074  -0.00073   1.90944
   A35        1.91013  -0.00041   0.00000  -0.00088  -0.00086   1.90927
   A36        1.91013  -0.00309   0.00000  -0.00405  -0.00408   1.90606
    D1        0.00005  -0.00077   0.00000  -0.00216  -0.00209  -0.00204
    D2        3.14156   0.00077   0.00000   0.00217   0.00210  -3.13952
    D3        2.10332  -0.00143   0.00000  -0.00349  -0.00345   2.09987
    D4       -1.03836   0.00012   0.00000   0.00084   0.00075  -1.03761
    D5       -2.10334  -0.00010   0.00000  -0.00079  -0.00069  -2.10403
    D6        1.03817   0.00145   0.00000   0.00354   0.00350   1.04167
    D7        0.00012   0.00226   0.00000   0.00168   0.00179   0.00191
    D8        3.14159   0.00100   0.00000   0.00646   0.00616  -3.13543
    D9       -3.14156   0.00384   0.00000   0.00611   0.00640  -3.13516
   D10       -0.00009   0.00258   0.00000   0.01089   0.01078   0.01069
   D11       -1.83253  -0.00776   0.00000  -0.01774  -0.01751  -1.85004
   D12        0.26191   0.01071   0.00000   0.01244   0.01372   0.27563
   D13        2.35626   0.00703   0.00000   0.00000   0.00000   2.35626
   D14        1.30895  -0.00900   0.00000  -0.01305  -0.01319   1.29576
   D15       -2.87980   0.00947   0.00000   0.01713   0.01804  -2.86175
   D16       -0.78545   0.00579   0.00000   0.00469   0.00432  -0.78113
   D17        1.04724  -0.00974   0.00000  -0.01961  -0.01973   1.02751
   D18        3.14157  -0.01486   0.00000  -0.03081  -0.03098   3.11059
   D19       -1.04726  -0.01834   0.00000  -0.03842  -0.03873  -1.08599
   D20       -3.13259   0.00980   0.00000   0.01991   0.01978  -3.11281
   D21       -1.03826   0.00468   0.00000   0.00871   0.00854  -1.02973
   D22        1.05609   0.00120   0.00000   0.00110   0.00079   1.05688
   D23       -1.08102   0.00518   0.00000   0.00474   0.00522  -1.07580
   D24        1.01331   0.00006   0.00000  -0.00646  -0.00603   1.00728
   D25        3.10766  -0.00341   0.00000  -0.01407  -0.01378   3.09388
   D26       -1.30903  -0.02932   0.00000  -0.02184  -0.02212  -1.33115
   D27        1.83260  -0.02970   0.00000   0.00000   0.00000   1.83259
   D28        2.87084   0.00331   0.00000   0.00940   0.00937   2.88021
   D29       -0.27072   0.00293   0.00000   0.03124   0.03148  -0.23924
   D30        0.81926   0.03004   0.00000   0.05147   0.05204   0.87130
   D31       -2.32230   0.02967   0.00000   0.07331   0.07416  -2.24814
   D32       -0.00009   0.00047   0.00000  -0.01046  -0.01058  -0.01067
   D33       -3.14158  -0.00008   0.00000  -0.01194  -0.01206   3.12955
   D34        3.14154   0.00008   0.00000   0.01195   0.01207  -3.12958
   D35        0.00005  -0.00046   0.00000   0.01047   0.01059   0.01064
   D36       -0.00003   0.00025   0.00000   0.00070   0.00070   0.00067
   D37        2.09441  -0.00047   0.00000  -0.00076  -0.00078   2.09364
   D38       -2.09441   0.00102   0.00000   0.00224   0.00226  -2.09215
   D39       -3.14153  -0.00028   0.00000  -0.00075  -0.00075   3.14091
   D40       -1.04708  -0.00101   0.00000  -0.00221  -0.00223  -1.04931
   D41        1.04728   0.00049   0.00000   0.00079   0.00081   1.04809
         Item               Value     Threshold  Converged?
 Maximum Force            0.137066     0.000450     NO 
 RMS     Force            0.024827     0.000300     NO 
 Maximum Displacement     0.700911     0.001800     NO 
 RMS     Displacement     0.207583     0.001200     NO 
 Predicted change in Energy=-6.082283D-02
 GradGradGradGradGradGradGradGradGradGradGradGradGradGradGradGradGradGrad

                          Input orientation:                          
 ---------------------------------------------------------------------
 Center     Atomic      Atomic             Coordinates (Angstroms)
 Number     Number       Type             X           Y           Z
 ---------------------------------------------------------------------
      1          1           0        1.444611    1.645673   -1.189380
      2          6           0        1.749814    2.481802   -0.567570
      3          1           0        1.650484    2.210096    0.481930
      4          1           0        1.113894    3.340618   -0.774550
      5          6           0        3.200666    2.853860   -0.852867
      6          8           0        3.816954    2.217144   -1.686006
      7          7           0        3.654874    3.887894   -0.113079
      8          1           0        2.985499    4.276077    0.526877
      9          6           0        4.962720    4.561967   -0.073806
     10          1           0        5.487560    4.267012    0.834557
     11          6           0        5.914006    4.308659   -1.246996
     12          1           0        5.446652    4.615000   -2.176886
     13          1           0        6.818139    4.896131   -1.089649
     14          1           0        6.179406    3.263826   -1.306018
     15          6           0        4.720986    6.067959   -0.055881
     16          8           0        4.399173    6.660233   -1.071636
     17          7           0        4.908346    6.683709    1.118009
     18          1           0        5.183208    6.147889    1.920965
     19          6           0        4.730716    8.112878    1.283427
     20          1           0        4.436727    8.546098    0.333148
     21          1           0        3.956954    8.306098    2.023581
     22          1           0        5.663211    8.565677    1.613830
 ---------------------------------------------------------------------
                    Distance matrix (angstroms):
                    1          2          3          4          5
     1  H    0.000000
     2  C    1.085776   0.000000
     3  H    1.776017   1.088642   0.000000
     4  H    1.776034   1.088485   1.773345   0.000000
     5  C    2.157935   1.524727   2.144570   2.144221   0.000000
     6  O    2.490226   2.365166   3.064896   3.065857   1.216281
     7  N    3.327347   2.410998   2.680787   2.682095   1.350118
     8  H    3.498414   2.438064   2.460195   2.464082   1.993161
     9  C    4.703867   3.859230   4.100128   4.098317   2.574763
    10  H    5.226201   4.373064   4.367883   4.751462   3.174002
    11  C    5.202913   4.597773   5.056755   4.919490   3.103867
    12  H    5.080197   4.561474   5.221471   4.728994   3.146282
    13  H    6.280942   5.638215   6.032355   5.920922   4.160895
    14  H    5.005028   4.558306   4.981791   5.093895   3.040775
    15  C    5.619258   4.685105   4.959872   4.578863   3.643761
    16  O    5.821436   4.973175   5.456426   4.679868   3.996593
    17  N    6.534777   5.520283   5.570590   5.399621   4.633386
    18  H    6.627315   5.605461   5.482442   5.630798   4.740807
    19  C    7.664072   6.634831   6.706196   6.331756   5.878952
    20  H    7.673768   6.693764   6.923164   6.274172   5.944413
    21  H    7.810010   6.745958   6.697591   6.369342   6.210703
    22  H    8.575607   7.555575   7.601091   7.328157   6.691307
                    6          7          8          9         10
     6  O    0.000000
     7  N    2.300386   0.000000
     8  H    3.134864   1.004137   0.000000
     9  C    3.067600   1.471863   2.086135   0.000000
    10  H    3.653235   2.097734   2.520924   1.089761   0.000000
    11  C    2.994127   2.562516   3.424009   1.531497   2.125195
    12  H    2.940509   2.828154   3.671849   2.158691   3.031759
    13  H    4.066907   3.460705   4.205562   2.141537   2.422560
    14  H    2.611727   2.861089   3.819057   2.164218   2.463147
    15  C    4.278242   2.427457   2.561711   1.525375   2.150332
    16  O    4.522994   3.026331   3.199675   2.390810   3.247409
    17  N    5.385522   3.302022   3.137431   2.434167   2.501251
    18  H    5.507055   3.403046   3.205790   2.557905   2.193311
    19  C    6.664247   4.578008   4.282429   3.808527   3.945248
    20  H    6.672088   4.744394   4.514053   4.039255   4.434663
    21  H    7.131339   4.917021   4.407371   4.407847   4.480039
    22  H    7.389280   5.375620   5.172261   4.400966   4.372258
                   11         12         13         14         15
    11  C    0.000000
    12  H    1.084877   0.000000
    13  H    1.089651   1.772596   0.000000
    14  H    1.079628   1.766638   1.766130   0.000000
    15  C    2.436634   2.671393   2.615321   3.398969   0.000000
    16  O    2.802743   2.549857   2.993957   3.841841   1.219061
    17  N    3.499352   3.927552   3.422937   4.380308   1.338758
    18  H    3.735346   4.383097   3.647423   4.441131   2.031738
    19  C    4.719671   4.972071   4.509577   5.684825   2.444491
    20  H    4.757635   4.772185   4.584510   5.798809   2.524544
    21  H    5.523246   5.786824   5.431984   6.438169   3.149155
    22  H    5.135117   5.479442   4.701938   6.074668   3.148702
                   16         17         18         19         20
    16  O    0.000000
    17  N    2.248190   0.000000
    18  H    3.135741   1.003688   0.000000
    19  C    2.786830   1.449635   2.114802   0.000000
    20  H    2.351874   2.075313   2.971498   1.084960   0.000000
    21  H    3.533383   2.087428   2.484370   1.088058   1.773512
    22  H    3.527072   2.087454   2.484036   1.087998   1.773356
                   21         22
    21  H    0.000000
    22  H    1.773863   0.000000
 Stoichiometry    C6H12N2O2
 Framework group  C1[X(C6H12N2O2)]
 Deg. of freedom    60
 Full point group                 C1      NOp   1
 Largest Abelian subgroup         C1      NOp   1
 Largest concise Abelian subgroup C1      NOp   1
                         Standard orientation:                         
 ---------------------------------------------------------------------
 Center     Atomic      Atomic             Coordinates (Angstroms)
 Number     Number       Type             X           Y           Z
 ---------------------------------------------------------------------
      1          1           0       -4.039029   -1.400253    0.400605
      2          6           0       -2.998158   -1.583787    0.151982
      3          1           0       -2.940215   -2.154502   -0.773257
      4          1           0       -2.527850   -2.153365    0.951476
      5          6           0       -2.254338   -0.264808   -0.026393
      6          8           0       -2.864863    0.777357    0.116749
      7          7           0       -0.949576   -0.411836   -0.340716
      8          1           0       -0.637964   -1.363256   -0.418108
      9          6           0        0.113551    0.575276   -0.589212
     10          1           0        0.323962    0.609722   -1.657912
     11          6           0       -0.149594    2.013864   -0.134565
     12          1           0       -0.336730    2.037347    0.933793
     13          1           0        0.733739    2.611847   -0.356998
     14          1           0       -0.997415    2.431362   -0.656571
     15          6           0        1.363419    0.126989    0.161545
     16          8           0        1.452085    0.273013    1.368577
     17          7           0        2.343576   -0.400486   -0.582321
     18          1           0        2.220968   -0.488023   -1.574638
     19          6           0        3.594726   -0.856634   -0.009614
     20          1           0        3.573515   -0.695240    1.063066
     21          1           0        3.729674   -1.916960   -0.213007
     22          1           0        4.423937   -0.300780   -0.442250
 ---------------------------------------------------------------------
 Rotational constants (GHZ):      2.5987668      0.6848779      0.6091631
 Standard basis: 6-31G(d) (6D, 7F)
 There are   174 symmetry adapted basis functions of A   symmetry.
 Integral buffers will be    131072 words long.
 Raffenetti 1 integral format.
 Two-electron integral symmetry is turned on.
   174 basis functions,   328 primitive gaussians,   174 cartesian basis functions
    39 alpha electrons       39 beta electrons
       nuclear repulsion energy       551.5007716893 Hartrees.
 NAtoms=   22 NActive=   22 NUniq=   22 SFac= 7.50D-01 NAtFMM=   80 NAOKFM=F Big=F
 One-electron integrals computed using PRISM.
 NBasis=   174 RedAO= T  NBF=   174
 NBsUse=   174 1.00D-06 NBFU=   174
 Initial guess read from the read-write file.
 B after Tr=     0.000000    0.000000    0.000000
         Rot=    1.000000    0.000000    0.000000    0.000000 Ang=   0.00 deg.
 Initial guess orbital symmetries:
       Occupied  (A) (A) (A) (A) (A) (A) (A) (A) (A) (A) (A) (A)
                 (A) (A) (A) (A) (A) (A) (A) (A) (A) (A) (A) (A)
                 (A) (A) (A) (A) (A) (A) (A) (A) (A) (A) (A) (A)
                 (A) (A) (A)
       Virtual   (A) (A) (A) (A) (A) (A) (A) (A) (A) (A) (A) (A)
                 (A) (A) (A) (A) (A) (A) (A) (A) (A) (A) (A) (A)
                 (A) (A) (A) (A) (A) (A) (A) (A) (A) (A) (A) (A)
                 (A) (A) (A) (A) (A) (A) (A) (A) (A) (A) (A) (A)
                 (A) (A) (A) (A) (A) (A) (A) (A) (A) (A) (A) (A)
                 (A) (A) (A) (A) (A) (A) (A) (A) (A) (A) (A) (A)
                 (A) (A) (A) (A) (A) (A) (A) (A) (A) (A) (A) (A)
                 (A) (A) (A) (A) (A) (A) (A) (A) (A) (A) (A) (A)
                 (A) (A) (A) (A) (A) (A) (A) (A) (A) (A) (A) (A)
                 (A) (A) (A) (A) (A) (A) (A) (A) (A) (A) (A) (A)
                 (A) (A) (A) (A) (A) (A) (A) (A) (A) (A) (A) (A)
                 (A) (A) (A)
 Harris functional with IExCor=  205 diagonalized for initial guess.
 ExpMin= 1.61D-01 ExpMax= 5.48D+03 ExpMxC= 8.25D+02 IAcc=1 IRadAn=         1 AccDes= 0.00D+00
 HarFok:  IExCor=  205 AccDes= 0.00D+00 IRadAn=         1 IDoV= 1
 ScaDFX=  1.000000  1.000000  1.000000  1.000000
 FoFCou: FMM=F IPFlag=           0 FMFlag=      100000 FMFlg1=           0
         NFxFlg=           0 DoJE=T BraDBF=F KetDBF=T FulRan=T
         Omega=  0.000000  0.000000  1.000000  0.000000  0.000000 ICntrl=     500 IOpCl=  0
         NMat0=    1 NMatS0=    1 NMatT0=    0 NMatD0=    1 NMtDS0=    0 NMtDT0=    0
         I1Cent=           4 NGrid=           0.
 Petite list used in FoFCou.
 Requested convergence on RMS density matrix=1.00D-08 within 128 cycles.
 Requested convergence on MAX density matrix=1.00D-06.
 Requested convergence on             energy=1.00D-06.
 No special actions if energy rises.
 Integral accuracy reduced to 1.0D-05 until final iterations.
 Initial convergence to 1.0D-05 achieved.  Increase integral accuracy.
 SCF Done:  E(RHF) =  -492.838714788     A.U. after   15 cycles
             Convg  =    0.4803D-08             -V/T =  2.0020
 Calling FoFJK, ICntrl=      2127 FMM=F ISym2X=0 I1Cent= 0 IOpClX= 0 NMat=1 NMatS=1 NMatT=0.
 ***** Axes restored to original set *****
 -------------------------------------------------------------------
 Center     Atomic                   Forces (Hartrees/Bohr)
 Number     Number              X              Y              Z
 -------------------------------------------------------------------
      1        1           0.004417467    0.004269769    0.002035004
      2        6           0.002560949    0.006044120    0.003801446
      3        1          -0.003462159    0.000694748   -0.001933284
      4        1          -0.001494385   -0.002995146    0.002128944
      5        6           0.002763193   -0.031475516   -0.030691601
      6        8          -0.003653142    0.022928269    0.023569236
      7        7           0.006033602    0.013586581    0.008711683
      8        1           0.005087579   -0.003726930   -0.005657619
      9        6           0.003319641   -0.003779696   -0.004193536
     10        1          -0.004490422   -0.000545546    0.000580972
     11        6          -0.005507985   -0.007285673   -0.003451562
     12        1           0.003259894   -0.001585838    0.003135822
     13        1          -0.003422996   -0.001303658   -0.000265238
     14        1           0.000215834   -0.000049276   -0.001260042
     15        6          -0.010855509    0.015141467   -0.030419336
     16        8           0.004997205   -0.014665354    0.026147861
     17        7           0.001020603    0.000174819    0.011938286
     18        1          -0.002225949    0.004459655   -0.008600316
     19        6           0.000671819    0.001761073    0.002183545
     20        1           0.001790747   -0.003729576    0.004923469
     21        1           0.002270367    0.001498375   -0.001960315
     22        1          -0.003296355    0.000583334   -0.000723419
 -------------------------------------------------------------------
 Cartesian Forces:  Max     0.031475516 RMS     0.009726016

 GradGradGradGradGradGradGradGradGradGradGradGradGradGradGradGradGradGrad
 Berny optimization.
 Using GEDIIS/GDIIS optimizer.
 Internal  Forces:  Max     0.030231371 RMS     0.006337913
 Search for a local minimum.
 Step number   2 out of a maximum of  108
 All quantities printed in internal units (Hartrees-Bohrs-Radians)
 Mixed Optimization -- RFO/linear search
 Update second derivatives using D2CorX and points    1    2
 DE= -2.09D-02 DEPred=-6.08D-02 R= 3.43D-01
 Trust test= 3.43D-01 RLast= 3.00D-01 DXMaxT set to 3.00D-01
 Use linear search instead of GDIIS.
     Eigenvalues ---    0.00370   0.00437   0.00999   0.01044   0.01345
     Eigenvalues ---    0.01418   0.01659   0.02552   0.02553   0.03537
     Eigenvalues ---    0.04956   0.05704   0.05923   0.06121   0.07212
     Eigenvalues ---    0.07383   0.07623   0.07706   0.15834   0.15974
     Eigenvalues ---    0.16000   0.16000   0.16000   0.16000   0.16000
     Eigenvalues ---    0.16000   0.16000   0.16000   0.16000   0.16431
     Eigenvalues ---    0.17058   0.21980   0.24285   0.24906   0.24994
     Eigenvalues ---    0.25000   0.29409   0.29861   0.30148   0.34579
     Eigenvalues ---    0.34732   0.34807   0.34808   0.34809   0.34812
     Eigenvalues ---    0.34814   0.34815   0.34816   0.34818   0.36999
     Eigenvalues ---    0.38380   0.45742   0.45967   0.56611   0.58241
     Eigenvalues ---    0.88406   0.89897   0.935071000.000001000.00000
     Eigenvalues --- 1000.000001000.000001000.000001000.000001000.00000
     Eigenvalues --- 1000.000001000.000001000.000001000.000001000.00000
     Eigenvalues --- 1000.000001000.000001000.000001000.000001000.00000
     Eigenvalues --- 1000.000001000.000001000.000001000.000001000.00000
     Eigenvalues --- 1000.000001000.000001000.000001000.000001000.00000
     Eigenvalues --- 1000.000001000.000001000.000001000.000001000.00000
     Eigenvalues --- 1000.000001000.000001000.000001000.000001000.00000
     Eigenvalues --- 1000.000001000.000001000.00000
 RFO step:  Lambda=-6.56760158D-03 EMin= 3.69667577D-03
 Quartic linear search produced a step of -0.21075.
 Iteration  1 RMS(Cart)=  0.05586935 RMS(Int)=  0.00111043
 Iteration  2 RMS(Cart)=  0.00189219 RMS(Int)=  0.00025320
 Iteration  3 RMS(Cart)=  0.00000141 RMS(Int)=  0.00025320
 Iteration  4 RMS(Cart)=  0.00000000 RMS(Int)=  0.00025320
 Iteration  1 RMS(Cart)=  0.00006154 RMS(Int)=  0.00003013
 Iteration  2 RMS(Cart)=  0.00003733 RMS(Int)=  0.00003340
 Iteration  3 RMS(Cart)=  0.00002357 RMS(Int)=  0.00003821
 Iteration  4 RMS(Cart)=  0.00001534 RMS(Int)=  0.00004201
 Iteration  5 RMS(Cart)=  0.00001019 RMS(Int)=  0.00004470
 Iteration  6 RMS(Cart)=  0.00000684 RMS(Int)=  0.00004653
 Iteration  7 RMS(Cart)=  0.00000462 RMS(Int)=  0.00004775
 Iteration  8 RMS(Cart)=  0.00000312 RMS(Int)=  0.00004857
 Iteration  9 RMS(Cart)=  0.00000211 RMS(Int)=  0.00004912
 Iteration 10 RMS(Cart)=  0.00000142 RMS(Int)=  0.00004948
 Iteration 11 RMS(Cart)=  0.00000096 RMS(Int)=  0.00004972
 Variable       Old X    -DE/DX   Delta X   Delta X   Delta X     New X
                                 (Linear)    (Quad)   (Total)
    R1        2.05182  -0.00570   0.00170  -0.01648  -0.01478   2.03704
    R2        2.05724  -0.00172   0.00056  -0.00508  -0.00452   2.05272
    R3        2.05694  -0.00189   0.00060  -0.00555  -0.00495   2.05198
    R4        2.88132  -0.00275   0.00208  -0.01164  -0.00956   2.87176
    R5        2.29844  -0.03000   0.00507  -0.03903  -0.03396   2.26448
    R6        2.55135   0.00063  -0.00600   0.01580   0.00981   2.56116
    R7        1.89754  -0.00844   0.00235  -0.01989  -0.01755   1.88000
    R8        2.78142  -0.01521  -0.00911  -0.00977  -0.01889   2.76253
    R9        2.05935  -0.00153   0.00008  -0.00359  -0.00351   2.05584
   R10        2.89411  -0.00029  -0.00258   0.00477   0.00219   2.89630
   R11        2.88254   0.00609  -0.00134   0.01846   0.01712   2.89966
   R12        2.05012  -0.00454   0.00202  -0.01463  -0.01261   2.03752
   R13        2.05914  -0.00358   0.00015  -0.00830  -0.00815   2.05099
   R14        2.04020   0.00017   0.00410  -0.00881  -0.00471   2.03549
   R15        2.30369  -0.03023   0.00397  -0.03635  -0.03237   2.27132
   R16        2.52989   0.00902  -0.00149   0.01579   0.01430   2.54418
   R17        1.89669  -0.00987   0.00253  -0.02276  -0.02023   1.87647
   R18        2.73941   0.00044  -0.00027   0.00150   0.00124   2.74065
   R19        2.05028  -0.00629   0.00198  -0.01842  -0.01644   2.03384
   R20        2.05613  -0.00268   0.00077  -0.00769  -0.00692   2.04921
   R21        2.05602  -0.00280   0.00082  -0.00807  -0.00725   2.04877
    A1        1.91161  -0.00009  -0.00010  -0.00227  -0.00218   1.90942
    A2        1.91184   0.00003  -0.00014  -0.00170  -0.00165   1.91019
    A3        1.92647  -0.00634   0.00264  -0.03605  -0.03322   1.89325
    A4        1.90385  -0.00389   0.00132  -0.01625  -0.01539   1.88846
    A5        1.90510   0.00530  -0.00191   0.02903   0.02697   1.93207
    A6        1.90478   0.00503  -0.00183   0.02757   0.02558   1.93036
    A7        2.07439   0.01599   0.00607   0.03703   0.04310   2.11750
    A8        1.98721   0.00001   0.01009  -0.02012  -0.01003   1.97718
    A9        2.22158  -0.01600  -0.01616  -0.01692  -0.03308   2.18850
   A10        2.00538   0.00616   0.01873  -0.01439   0.00432   2.00970
   A11        2.29736  -0.01375  -0.03579   0.01936  -0.01644   2.28092
   A12        1.98044   0.00760   0.01705  -0.00501   0.01203   1.99248
   A13        1.90311   0.00246   0.00169  -0.01506  -0.01330   1.88981
   A14        2.04400  -0.01063  -0.02212  -0.02289  -0.04473   1.99927
   A15        1.88773  -0.00266   0.01081  -0.02807  -0.01666   1.87107
   A16        1.86985   0.00172   0.00553   0.00732   0.01164   1.88149
   A17        1.91107  -0.00334  -0.00316   0.02154   0.01779   1.92887
   A18        1.84495   0.01274   0.00768   0.04194   0.04859   1.89354
   A19        1.92018   0.00202  -0.00190   0.01115   0.00926   1.92944
   A20        1.89189  -0.00151   0.00404  -0.01146  -0.00742   1.88447
   A21        1.93333   0.00152  -0.00468   0.01384   0.00916   1.94248
   A22        1.90602  -0.00062   0.00086  -0.00329  -0.00241   1.90361
   A23        1.90955  -0.00155   0.00014  -0.01117  -0.01100   1.89855
   A24        1.90253   0.00010   0.00161   0.00069   0.00229   1.90482
   A25        2.10798   0.00285  -0.00102   0.01127   0.00971   2.11769
   A26        2.02887  -0.00435   0.00131  -0.01562  -0.01484   2.01403
   A27        2.14611   0.00153  -0.00024   0.00547   0.00469   2.15081
   A28        2.08779  -0.00333   0.00138  -0.01529  -0.01393   2.07386
   A29        2.13691   0.00464  -0.00196   0.01984   0.01787   2.15478
   A30        2.05848  -0.00132   0.00058  -0.00456  -0.00399   2.05449
   A31        1.90384  -0.00310   0.00154  -0.01852  -0.01692   1.88692
   A32        1.91754   0.00294  -0.00135   0.01676   0.01535   1.93289
   A33        1.91764   0.00284  -0.00138   0.01622   0.01478   1.93242
   A34        1.90944  -0.00031   0.00015  -0.00305  -0.00284   1.90660
   A35        1.90927  -0.00034   0.00018  -0.00349  -0.00325   1.90602
   A36        1.90606  -0.00203   0.00086  -0.00804  -0.00735   1.89871
    D1       -0.00204  -0.00013   0.00044   0.00008   0.00050  -0.00154
    D2       -3.13952   0.00014  -0.00044   0.00147   0.00105  -3.13847
    D3        2.09987  -0.00081   0.00073  -0.00669  -0.00625   2.09362
    D4       -1.03761  -0.00055  -0.00016  -0.00530  -0.00570  -1.04331
    D5       -2.10403   0.00058   0.00015   0.00705   0.00743  -2.09660
    D6        1.04167   0.00084  -0.00074   0.00844   0.00798   1.04965
    D7        0.00191   0.00054  -0.00038   0.00413   0.00369   0.00560
    D8       -3.13543   0.00059  -0.00130   0.01607   0.01488  -3.12055
    D9       -3.13516   0.00074  -0.00135   0.00552   0.00405  -3.13111
   D10        0.01069   0.00079  -0.00227   0.01745   0.01524   0.02593
   D11       -1.85004   0.00017   0.00369   0.00115   0.00445  -1.84558
   D12        0.27563  -0.00321  -0.00289  -0.01792  -0.02124   0.25440
   D13        2.35626   0.00432   0.00000   0.00000   0.00000   2.35627
   D14        1.29576   0.00022   0.00278   0.01297   0.01557   1.31133
   D15       -2.86175  -0.00316  -0.00380  -0.00610  -0.01012  -2.87187
   D16       -0.78113   0.00437  -0.00091   0.01182   0.01112  -0.77000
   D17        1.02751   0.00111   0.00416   0.04022   0.04420   1.07171
   D18        3.11059   0.00063   0.00653   0.03583   0.04217  -3.13043
   D19       -1.08599   0.00072   0.00816   0.03779   0.04577  -1.04022
   D20       -3.11281  -0.00165  -0.00417   0.01029   0.00592  -3.10689
   D21       -1.02973  -0.00213  -0.00180   0.00590   0.00389  -1.02584
   D22        1.05688  -0.00204  -0.00017   0.00786   0.00749   1.06437
   D23       -1.07580   0.00153  -0.00110   0.05886   0.05814  -1.01766
   D24        1.00728   0.00104   0.00127   0.05446   0.05611   1.06339
   D25        3.09388   0.00113   0.00290   0.05642   0.05972  -3.12959
   D26       -1.33115   0.00354   0.00466   0.05508   0.05988  -1.27127
   D27        1.83259   0.00217   0.00000   0.00000   0.00000   1.83260
   D28        2.88021   0.00403  -0.00197   0.07734   0.07568   2.95589
   D29       -0.23924   0.00267  -0.00663   0.02225   0.01581  -0.22343
   D30        0.87130  -0.00303  -0.01097   0.03664   0.02525   0.89655
   D31       -2.24814  -0.00440  -0.01563  -0.01845  -0.03463  -2.28277
   D32       -0.01067   0.00086   0.00223   0.03258   0.03477   0.02411
   D33        3.12955   0.00049   0.00254   0.02221   0.02475  -3.12889
   D34       -3.12958  -0.00056  -0.00254  -0.02390  -0.02643   3.12717
   D35        0.01064  -0.00093  -0.00223  -0.03427  -0.03646  -0.02583
   D36        0.00067   0.00015  -0.00015   0.00493   0.00479   0.00546
   D37        2.09364  -0.00036   0.00016  -0.00003   0.00005   2.09369
   D38       -2.09215   0.00076  -0.00048   0.01076   0.01038  -2.08177
   D39        3.14091  -0.00021   0.00016  -0.00529  -0.00514   3.13577
   D40       -1.04931  -0.00072   0.00047  -0.01025  -0.00988  -1.05919
   D41        1.04809   0.00040  -0.00017   0.00054   0.00045   1.04853
         Item               Value     Threshold  Converged?
 Maximum Force            0.030231     0.000450     NO 
 RMS     Force            0.006347     0.000300     NO 
 Maximum Displacement     0.229212     0.001800     NO 
 RMS     Displacement     0.055600     0.001200     NO 
 Predicted change in Energy=-3.297040D-03
 GradGradGradGradGradGradGradGradGradGradGradGradGradGradGradGradGradGrad

                          Input orientation:                          
 ---------------------------------------------------------------------
 Center     Atomic      Atomic             Coordinates (Angstroms)
 Number     Number       Type             X           Y           Z
 ---------------------------------------------------------------------
      1          1           0        1.508942    1.678690   -1.197956
      2          6           0        1.779628    2.514998   -0.574011
      3          1           0        1.638307    2.247496    0.469258
      4          1           0        1.132919    3.357856   -0.798638
      5          6           0        3.232423    2.868351   -0.845896
      6          8           0        3.884382    2.254406   -1.642117
      7          7           0        3.677657    3.912082   -0.104779
      8          1           0        3.008056    4.304941    0.517336
      9          6           0        4.980766    4.574047   -0.077048
     10          1           0        5.497044    4.273134    0.832042
     11          6           0        5.890086    4.240042   -1.264741
     12          1           0        5.434080    4.553064   -2.190271
     13          1           0        6.825067    4.774838   -1.131455
     14          1           0        6.092124    3.183354   -1.317718
     15          6           0        4.721550    6.086420   -0.072785
     16          8           0        4.335346    6.657164   -1.057534
     17          7           0        4.912772    6.701677    1.109366
     18          1           0        5.222109    6.163690    1.884543
     19          6           0        4.703822    8.122088    1.314570
     20          1           0        4.378743    8.550573    0.382335
     21          1           0        3.945371    8.293535    2.070395
     22          1           0        5.623406    8.603852    1.627104
 ---------------------------------------------------------------------
                    Distance matrix (angstroms):
                    1          2          3          4          5
     1  H    0.000000
     2  C    1.077956   0.000000
     3  H    1.766318   1.086250   0.000000
     4  H    1.766479   1.085863   1.759511   0.000000
     5  C    2.123589   1.519669   2.157846   2.156332   0.000000
     6  O    2.484239   2.374605   3.082662   3.082143   1.198309
     7  N    3.299455   2.403027   2.694312   2.695237   1.355309
     8  H    3.476602   2.429808   2.472166   2.478891   1.993122
     9  C    4.657584   3.838481   4.108932   4.099481   2.560708
    10  H    5.172716   4.345942   4.373177   4.747888   3.149190
    11  C    5.075373   4.510959   5.005459   4.860673   3.019956
    12  H    4.965222   4.485647   5.176547   4.676019   3.081054
    13  H    6.152377   5.556444   5.987672   5.875301   4.077171
    14  H    4.825340   4.426897   4.889335   4.989350   2.915429
    15  C    5.569106   4.654158   4.953538   4.566202   3.629210
    16  O    5.726560   4.891117   5.389832   4.605215   3.951751
    17  N    6.491547   5.493507   5.565212   5.395267   4.619633
    18  H    6.588219   5.586422   5.493927   5.638585   4.719471
    19  C    7.618230   6.599781   6.680028   6.317825   5.868082
    20  H    7.612874   6.640644   6.873596   6.236536   5.925390
    21  H    7.770102   6.713778   6.666391   6.364131   6.200457
    22  H    8.536255   7.529520   7.591106   7.319097   6.687937
                    6          7          8          9         10
     6  O    0.000000
     7  N    2.270249   0.000000
     8  H    3.104171   0.994852   0.000000
     9  C    3.005367   1.461868   2.077810   0.000000
    10  H    3.577346   2.078019   2.509006   1.087905   0.000000
    11  C    2.847457   2.519506   3.389115   1.532657   2.133559
    12  H    2.825928   2.800921   3.643939   2.161399   3.035903
    13  H    3.906530   3.421198   4.184362   2.133902   2.422947
    14  H    2.417085   2.798555   3.759901   2.169886   2.482581
    15  C    4.224687   2.412153   2.541254   1.534432   2.169817
    16  O    4.464234   2.979223   3.126478   2.391087   3.256324
    17  N    5.329771   3.283519   3.118138   2.437008   2.513186
    18  H    5.432250   3.378235   3.197848   2.536346   2.181180
    19  C    6.621418   4.559793   4.252272   3.821242   3.959354
    20  H    6.632082   4.716397   4.463451   4.047990   4.444020
    21  H    7.089255   4.898998   4.381716   4.417934   4.483841
    22  H    7.350339   5.366383   5.152890   4.422268   4.404908
                   11         12         13         14         15
    11  C    0.000000
    12  H    1.078207   0.000000
    13  H    1.085339   1.762135   0.000000
    14  H    1.077133   1.752277   1.762022   0.000000
    15  C    2.489045   2.709729   2.695517   3.443272   0.000000
    16  O    2.881429   2.630123   3.122071   3.901452   1.201930
    17  N    3.556848   3.971889   3.520065   4.433983   1.346323
    18  H    3.750280   4.386703   3.687090   4.460247   2.021796
    19  C    4.809402   5.055207   4.656909   5.766057   2.463536
    20  H    4.855686   4.869509   4.746813   5.884972   2.529170
[...]
    13  H    6.148560   5.513479   5.986614   5.736031   4.068078
    14  H    4.878587   4.471542   5.048015   4.912970   2.961501
    15  C    5.558073   4.594368   4.741304   4.593266   3.613070
    16  O    5.714171   4.758446   5.052628   4.490386   3.932925
    17  N    6.489206   5.488147   5.399048   5.558231   4.614388
    18  H    6.669540   5.721182   5.545553   5.967008   4.778528
    19  C    7.637337   6.592556   6.467175   6.493137   5.868081
    20  H    7.442396   6.374464   6.251142   6.115132   5.850552
    21  H    8.238971   7.191613   6.922202   7.167664   6.532751
    22  H    8.321103   7.303702   7.295817   7.171734   6.451063
                    6          7          8          9         10
     6  O    0.000000
     7  N    2.267286   0.000000
     8  H    3.104374   0.994999   0.000000
     9  C    2.966829   1.459457   2.082312   0.000000
    10  H    3.506505   2.075515   2.583663   1.087452   0.000000
    11  C    2.839653   2.531509   3.370935   1.528465   2.136327
    12  H    2.825812   2.793481   3.562059   2.160749   3.040328
    13  H    3.903941   3.428552   4.161211   2.132317   2.450168
    14  H    2.434389   2.849176   3.810882   2.168544   2.469703
    15  C    4.230926   2.400712   2.461490   1.534797   2.153344
    16  O    4.521911   2.965316   2.969930   2.394608   3.245888
    17  N    5.315674   3.276355   3.098089   2.441393   2.490591
    18  H    5.421429   3.439653   3.343060   2.549358   2.158914
    19  C    6.617778   4.558945   4.227065   3.809757   3.930892
    20  H    6.693918   4.622987   4.146882   4.141057   4.474499
    21  H    7.332103   5.186354   4.769819   4.502364   4.406162
    22  H    7.065796   5.188281   5.008306   4.226482   4.379760
                   11         12         13         14         15
    11  C    0.000000
    12  H    1.080121   0.000000
    13  H    1.086198   1.757407   0.000000
    14  H    1.077408   1.756830   1.762238   0.000000
    15  C    2.486212   2.740468   2.657239   3.441580   0.000000
    16  O    2.899129   2.690314   3.087242   3.932141   1.199215
    17  N    3.550453   4.003880   3.484905   4.413814   1.351034
    18  H    3.701140   4.378684   3.587188   4.394072   2.025725
    19  C    4.762587   5.049728   4.554028   5.712537   2.441877
    20  H    5.119513   5.211315   5.066054   6.108058   2.675089
    21  H    5.574960   5.978390   5.350265   6.448503   3.308299
    22  H    4.872592   5.111972   4.450543   5.862006   2.850947
                   16         17         18         19         20
    16  O    0.000000
    17  N    2.239323   0.000000
    18  H    3.106711   0.993250   0.000000
    19  C    2.765835   1.448439   2.109252   0.000000
    20  H    2.620141   2.077947   2.910707   1.079997   0.000000
    21  H    3.792585   2.068123   2.312086   1.081872   1.760986
    22  H    2.984235   2.107591   2.704037   1.084506   1.755225
                   21         22
    21  H    0.000000
    22  H    1.764425   0.000000
 Stoichiometry    C6H12N2O2
 Framework group  C1[X(C6H12N2O2)]
 Deg. of freedom    60
 Full point group                 C1      NOp   1
 Largest Abelian subgroup         C1      NOp   1
 Largest concise Abelian subgroup C1      NOp   1
                         Standard orientation:                         
 ---------------------------------------------------------------------
 Center     Atomic      Atomic             Coordinates (Angstroms)
 Number     Number       Type             X           Y           Z
 ---------------------------------------------------------------------
      1          1           0       -3.986677   -1.455135    0.136112
      2          6           0       -2.917435   -1.602064    0.171217
      3          1           0       -2.631799   -2.363545   -0.546741
      4          1           0       -2.642424   -1.951008    1.161837
      5          6           0       -2.233876   -0.276050   -0.102579
      6          8           0       -2.827086    0.762221   -0.036353
      7          7           0       -0.917675   -0.395957   -0.427959
      8          1           0       -0.560574   -1.324607   -0.417410
      9          6           0        0.097840    0.648207   -0.519963
     10          1           0        0.325472    0.810780   -1.570822
     11          6           0       -0.271958    1.993030    0.105261
     12          1           0       -0.515929    1.873433    1.150649
     13          1           0        0.589639    2.649755    0.026585
     14          1           0       -1.107858    2.446735   -0.400930
     15          6           0        1.346818    0.107912    0.189780
     16          8           0        1.397568   -0.003386    1.382741
     17          7           0        2.350986   -0.286129   -0.623653
     18          1           0        2.302345   -0.056721   -1.588822
     19          6           0        3.614843   -0.752217   -0.091298
     20          1           0        3.435990   -1.490391    0.676494
     21          1           0        4.184077   -1.205314   -0.891999
     22          1           0        4.193313    0.057036    0.340716
 ---------------------------------------------------------------------
 Rotational constants (GHZ):      2.6465210      0.6946809      0.6215410

 **********************************************************************

            Population analysis using the SCF density.

 **********************************************************************

 Orbital symmetries:
       Occupied  (A) (A) (A) (A) (A) (A) (A) (A) (A) (A) (A) (A)
                 (A) (A) (A) (A) (A) (A) (A) (A) (A) (A) (A) (A)
                 (A) (A) (A) (A) (A) (A) (A) (A) (A) (A) (A) (A)
                 (A) (A) (A)
       Virtual   (A) (A) (A) (A) (A) (A) (A) (A) (A) (A) (A) (A)
                 (A) (A) (A) (A) (A) (A) (A) (A) (A) (A) (A) (A)
                 (A) (A) (A) (A) (A) (A) (A) (A) (A) (A) (A) (A)
                 (A) (A) (A) (A) (A) (A) (A) (A) (A) (A) (A) (A)
                 (A) (A) (A) (A) (A) (A) (A) (A) (A) (A) (A) (A)
                 (A) (A) (A) (A) (A) (A) (A) (A) (A) (A) (A) (A)
                 (A) (A) (A) (A) (A) (A) (A) (A) (A) (A) (A) (A)
                 (A) (A) (A) (A) (A) (A) (A) (A) (A) (A) (A) (A)
                 (A) (A) (A) (A) (A) (A) (A) (A) (A) (A) (A) (A)
                 (A) (A) (A) (A) (A) (A) (A) (A) (A) (A) (A) (A)
                 (A) (A) (A) (A) (A) (A) (A) (A) (A) (A) (A) (A)
                 (A) (A) (A)
 The electronic state is 1-A.
 Alpha  occ. eigenvalues --  -20.52970 -20.51933 -15.59791 -15.58766 -11.35014
 Alpha  occ. eigenvalues --  -11.34810 -11.28630 -11.26581 -11.22955 -11.21110
 Alpha  occ. eigenvalues --   -1.40064  -1.38733  -1.24551  -1.23491  -1.05603
 Alpha  occ. eigenvalues --   -0.98898  -0.96643  -0.88190  -0.80076  -0.77199
 Alpha  occ. eigenvalues --   -0.73109  -0.68907  -0.66515  -0.64327  -0.63029
 Alpha  occ. eigenvalues --   -0.62001  -0.60267  -0.58640  -0.56531  -0.56223
 Alpha  occ. eigenvalues --   -0.54665  -0.53706  -0.52772  -0.51252  -0.50671
 Alpha  occ. eigenvalues --   -0.43417  -0.40800  -0.39873  -0.38547
 Alpha virt. eigenvalues --    0.18714   0.20406   0.21056   0.23020   0.25915
 Alpha virt. eigenvalues --    0.27995   0.28900   0.30771   0.31198   0.31350
 Alpha virt. eigenvalues --    0.32534   0.33545   0.34101   0.35999   0.37232
 Alpha virt. eigenvalues --    0.39456   0.40571   0.43584   0.45316   0.49384
 Alpha virt. eigenvalues --    0.52147   0.59046   0.63496   0.71149   0.73430
 Alpha virt. eigenvalues --    0.74142   0.74752   0.75049   0.76660   0.79219
 Alpha virt. eigenvalues --    0.80854   0.81556   0.83007   0.87597   0.90460
 Alpha virt. eigenvalues --    0.92477   0.94061   0.95048   0.98524   1.00192
 Alpha virt. eigenvalues --    1.00967   1.02585   1.03223   1.06216   1.08809
 Alpha virt. eigenvalues --    1.10398   1.12491   1.13612   1.14335   1.15180
 Alpha virt. eigenvalues --    1.17419   1.17918   1.18653   1.20692   1.21433
 Alpha virt. eigenvalues --    1.21922   1.22380   1.23466   1.24970   1.26894
 Alpha virt. eigenvalues --    1.31398   1.34179   1.37739   1.40704   1.41266
 Alpha virt. eigenvalues --    1.45052   1.46437   1.52400   1.57040   1.61441
 Alpha virt. eigenvalues --    1.62666   1.68930   1.69480   1.73747   1.74005
 Alpha virt. eigenvalues --    1.79806   1.84389   1.86317   1.90193   1.93536
 Alpha virt. eigenvalues --    2.02591   2.04007   2.06105   2.11316   2.13791
 Alpha virt. eigenvalues --    2.14298   2.15568   2.19096   2.20491   2.23641
 Alpha virt. eigenvalues --    2.24454   2.26173   2.28544   2.33146   2.35393
 Alpha virt. eigenvalues --    2.37162   2.39779   2.41591   2.48654   2.51280
 Alpha virt. eigenvalues --    2.53212   2.55469   2.59602   2.61224   2.65777
 Alpha virt. eigenvalues --    2.67835   2.69182   2.70067   2.73507   2.76716
 Alpha virt. eigenvalues --    2.80055   2.81430   2.87303   2.93655   2.96134
 Alpha virt. eigenvalues --    3.00862   3.04206   3.09214   3.14400   3.27550
 Alpha virt. eigenvalues --    3.30149   3.38144   3.38879   3.53618   3.58715
 Alpha virt. eigenvalues --    4.35582   4.39410   4.50692   4.60855   4.64156
 Alpha virt. eigenvalues --    4.68109   4.75405   4.79467   4.91201   5.10473
          Condensed to atoms (all electrons):
              1          2          3          4          5          6
     1  H    0.463194   0.383919  -0.020690  -0.016971  -0.032319   0.003763
     2  C    0.383919   5.280805   0.374463   0.374942   0.377016  -0.072084
     3  H   -0.020690   0.374463   0.525542  -0.025054  -0.035540   0.001854
     4  H   -0.016971   0.374942  -0.025054   0.491201  -0.027625   0.000505
     5  C   -0.032319   0.377016  -0.035540  -0.027625   4.124110   0.622049
     6  O    0.003763  -0.072084   0.001854   0.000505   0.622049   8.140077
     7  N    0.004448  -0.129001   0.004813   0.001116   0.251331  -0.098797
     8  H    0.000061  -0.000375   0.000428   0.000085  -0.019990   0.002507
     9  C   -0.000086   0.003027   0.000131  -0.000166  -0.019182   0.004090
    10  H    0.000005  -0.000124  -0.000002  -0.000002  -0.001178   0.000029
    11  C    0.000000  -0.000012  -0.000004   0.000001  -0.001485  -0.008051
    12  H    0.000003  -0.000104   0.000001   0.000000   0.000754  -0.001024
    13  H    0.000000   0.000010   0.000000  -0.000001   0.000227   0.000572
    14  H    0.000000   0.000074  -0.000004   0.000000  -0.000090   0.003319
    15  C    0.000000  -0.000088  -0.000017   0.000039   0.001873   0.000021
    16  O    0.000000  -0.000024   0.000000   0.000009   0.000180   0.000003
    17  N    0.000000  -0.000001  -0.000001   0.000000  -0.000059  -0.000001
    18  H    0.000000   0.000000   0.000000   0.000000  -0.000001   0.000000
    19  C    0.000000   0.000000   0.000000   0.000000   0.000000   0.000000
    20  H    0.000000   0.000000   0.000000   0.000000   0.000000   0.000000
    21  H    0.000000   0.000000   0.000000   0.000000   0.000000   0.000000
    22  H    0.000000   0.000000   0.000000   0.000000   0.000000   0.000000
              7          8          9         10         11         12
     1  H    0.004448   0.000061  -0.000086   0.000005   0.000000   0.000003
     2  C   -0.129001  -0.000375   0.003027  -0.000124  -0.000012  -0.000104
     3  H    0.004813   0.000428   0.000131  -0.000002  -0.000004   0.000001
     4  H    0.001116   0.000085  -0.000166  -0.000002   0.000001   0.000000
     5  C    0.251331  -0.019990  -0.019182  -0.001178  -0.001485   0.000754
     6  O   -0.098797   0.002507   0.004090   0.000029  -0.008051  -0.001024
     7  N    7.422963   0.324571   0.175384  -0.051223  -0.040913  -0.000410
     8  H    0.324571   0.331819  -0.029176   0.001681   0.002881  -0.000020
     9  C    0.175384  -0.029176   5.005584   0.416832   0.350666  -0.033857
    10  H   -0.051223   0.001681   0.416832   0.558387  -0.040257   0.004200
    11  C   -0.040913   0.002881   0.350666  -0.040257   5.106405   0.392737
    12  H   -0.000410  -0.000020  -0.033857   0.004200   0.392737   0.476515
    13  H    0.003854  -0.000083  -0.038695  -0.000497   0.377314  -0.024255
    14  H   -0.002366  -0.000103  -0.031667  -0.003595   0.394442  -0.020447
    15  C   -0.046014  -0.004145   0.359724  -0.068226  -0.045726  -0.006427
    16  O    0.001448   0.000871  -0.080032   0.002717   0.001834   0.005180
    17  N    0.000096   0.002808  -0.104930   0.007745   0.000553   0.000364
    18  H    0.000216   0.000012   0.000060   0.002820  -0.000196  -0.000009
    19  C   -0.000141  -0.000081   0.004944  -0.000057  -0.000146  -0.000006
    20  H    0.000017  -0.000022   0.000025  -0.000013  -0.000015  -0.000001
    21  H    0.000004  -0.000002  -0.000011  -0.000026  -0.000001   0.000000
    22  H   -0.000006   0.000004  -0.000171  -0.000001   0.000051  -0.000001
             13         14         15         16         17         18
     1  H    0.000000   0.000000   0.000000   0.000000   0.000000   0.000000
     2  C    0.000010   0.000074  -0.000088  -0.000024  -0.000001   0.000000
     3  H    0.000000  -0.000004  -0.000017   0.000000  -0.000001   0.000000
     4  H   -0.000001   0.000000   0.000039   0.000009   0.000000   0.000000
     5  C    0.000227  -0.000090   0.001873   0.000180  -0.000059  -0.000001
     6  O    0.000572   0.003319   0.000021   0.000003  -0.000001   0.000000
     7  N    0.003854  -0.002366  -0.046014   0.001448   0.000096   0.000216
     8  H   -0.000083  -0.000103  -0.004145   0.000871   0.002808   0.000012
     9  C   -0.038695  -0.031667   0.359724  -0.080032  -0.104930   0.000060
    10  H   -0.000497  -0.003595  -0.068226   0.002717   0.007745   0.002820
    11  C    0.377314   0.394442  -0.045726   0.001834   0.000553  -0.000196
    12  H   -0.024255  -0.020447  -0.006427   0.005180   0.000364  -0.000009
    13  H    0.558442  -0.025456  -0.005367   0.000008   0.000728   0.000033
    14  H   -0.025456   0.465589   0.004590   0.000111  -0.000075  -0.000008
    15  C   -0.005367   0.004590   4.269922   0.603413   0.260111  -0.019066
    16  O    0.000008   0.000111   0.603413   8.158196  -0.106979   0.002571
    17  N    0.000728  -0.000075   0.260111  -0.106979   7.335218   0.325172
    18  H    0.000033  -0.000008  -0.019066   0.002571   0.325172   0.324671
    19  C   -0.000050   0.000002  -0.030766   0.008053   0.194925  -0.022914
    20  H    0.000002   0.000000  -0.003477   0.004007  -0.039032   0.002695
    21  H    0.000000   0.000000   0.004325   0.000363  -0.037774  -0.004289
    22  H   -0.000009   0.000000  -0.002396   0.001175  -0.046860   0.001040
             19         20         21         22
     1  H    0.000000   0.000000   0.000000   0.000000
     2  C    0.000000   0.000000   0.000000   0.000000
     3  H    0.000000   0.000000   0.000000   0.000000
     4  H    0.000000   0.000000   0.000000   0.000000
     5  C    0.000000   0.000000   0.000000   0.000000
     6  O    0.000000   0.000000   0.000000   0.000000
     7  N   -0.000141   0.000017   0.000004  -0.000006
     8  H   -0.000081  -0.000022  -0.000002   0.000004
     9  C    0.004944   0.000025  -0.000011  -0.000171
    10  H   -0.000057  -0.000013  -0.000026  -0.000001
    11  C   -0.000146  -0.000015  -0.000001   0.000051
    12  H   -0.000006  -0.000001   0.000000  -0.000001
    13  H   -0.000050   0.000002   0.000000  -0.000009
    14  H    0.000002   0.000000   0.000000   0.000000
    15  C   -0.030766  -0.003477   0.004325  -0.002396
    16  O    0.008053   0.004007   0.000363   0.001175
    17  N    0.194925  -0.039032  -0.037774  -0.046860
    18  H   -0.022914   0.002695  -0.004289   0.001040
    19  C    4.915222   0.403565   0.397059   0.406340
    20  H    0.403565   0.483460  -0.024547  -0.031980
    21  H    0.397059  -0.024547   0.526299  -0.031754
    22  H    0.406340  -0.031980  -0.031754   0.522196
 Mulliken atomic charges:
              1
     1  H    0.214673
     2  C   -0.592442
     3  H    0.174080
     4  H    0.201922
     5  C    0.759929
     6  O   -0.598835
     7  N   -0.821391
     8  H    0.386270
     9  C    0.017507
    10  H    0.170784
    11  C   -0.490077
    12  H    0.206805
    13  H    0.153221
    14  H    0.215682
    15  C    0.727701
    16  O   -0.603106
    17  N   -0.792009
    18  H    0.387191
    19  C   -0.275951
    20  H    0.205317
    21  H    0.170354
    22  H    0.182373
 Sum of Mulliken atomic charges =   0.00000
 Mulliken charges with hydrogens summed into heavy atoms:
              1
     2  C   -0.001767
     5  C    0.759929
     6  O   -0.598835
     7  N   -0.435121
     9  C    0.188292
    11  C    0.085632
    15  C    0.727701
    16  O   -0.603106
    17  N   -0.404818
    19  C    0.282092
 Sum of Mulliken charges with hydrogens summed into heavy atoms =   0.00000
 Electronic spatial extent (au):  <R**2>=           1907.4979
 Charge=              0.0000 electrons
 Dipole moment (field-independent basis, Debye):
    X=              3.2731    Y=             -2.6517    Z=             -3.5581  Tot=              5.5141
 Quadrupole moment (field-independent basis, Debye-Ang):
   XX=            -60.7184   YY=            -57.4801   ZZ=            -62.5880
   XY=              6.8101   XZ=             -6.8700   YZ=             -0.4375
 Traceless Quadrupole moment (field-independent basis, Debye-Ang):
   XX=             -0.4562   YY=              2.7821   ZZ=             -2.3258
   XY=              6.8101   XZ=             -6.8700   YZ=             -0.4375
 Octapole moment (field-independent basis, Debye-Ang**2):
  XXX=             54.0603  YYY=             -3.1948  ZZZ=             -9.4807  XYY=              1.3629
  XXY=            -28.8958  XXZ=             -8.9764  XZZ=             -1.2724  YZZ=              0.1252
  YYZ=              1.0499  XYZ=              0.1656
 Hexadecapole moment (field-independent basis, Debye-Ang**3):
 XXXX=          -1755.6695 YYYY=           -460.4319 ZZZZ=           -186.9105 XXXY=             37.2236
 XXXZ=            -19.2650 YYYX=             -3.9189 YYYZ=              0.3145 ZZZX=            -24.5958
 ZZZY=             -1.1110 XXYY=           -377.0084 XXZZ=           -325.7632 YYZZ=           -106.6247
 XXYZ=             -0.5712 YYXZ=              3.6941 ZZXY=             -3.3275
 N-N= 5.548234409647D+02 E-N=-2.265020723712D+03  KE= 4.921108938009D+02
 1\1\GINC-RODAN\FOpt\RHF\6-31G(d)\C6H12N2O2\STEBOSS\10-Feb-2017\0\\# HF
 /6-31G* Opt=(ModRedundant) geom=nocrowd\\Phi Psi fixed scan\\0,1\H,1.5
 761155238,1.5712818073,-1.0996174844\C,1.7761219834,2.5614311049,-0.71
 790813\H,1.3955162837,2.6439656846,0.2946296288\H,1.2565047376,3.28811
 63476,-1.3348747075\C,3.26929685,2.8184649955,-0.787847804\O,3.9936609
 563,2.1370823016,-1.4551598222\N,3.6796576887,3.8699004361,-0.02710960
 83\H,2.9554902919,4.3549771877,0.4527922191\C,4.9717130364,4.548573420
 8,-0.0303102112\H,5.502582058,4.2753870468,0.8785893439\C,5.8776586448
 ,4.2491723843,-1.2243900011\H,5.3818396658,4.4979576461,-2.1511757145\
 H,6.7678842041,4.8650761583,-1.1350144178\H,6.1681294412,3.2119451051,
 -1.2487497858\C,4.6753266959,6.054330247,-0.0090489584\O,4.2376394396,
 6.6260552715,-0.9680471544\N,4.8838350309,6.6695458706,1.1755725936\H,
 5.3608951472,6.1757171444,1.8932716912\C,4.7115873281,8.1000472528,1.3
 238006776\H,3.7624637512,8.3975867452,0.9030544721\H,4.7238303128,8.34
 49075962,2.3775271805\H,5.4968509284,8.6547782459,0.8220159929\\Versio
 n=EM64L-G09RevA.02\State=1-A\HF=-492.8440669\RMSD=3.296e-09\RMSF=7.449
 e-04\Dipole=-0.1107514,0.7320573,2.0391607\Quadrupole=5.5505292,-5.905
 4279,0.3548986,4.0604793,1.7492963,1.7520329\PG=C01 [X(C6H12N2O2)]\\@


 UNDER MOST GREENE GRASSE LY MOST GREATE SNAKES.
 -- PROVERBS AND REASONS OF THE YEAR 1585
           AS REPRINTED IN PAISLEY MAGAZINE 1828.
 Job cpu time:  0 days  0 hours 23 minutes 32.3 seconds.
 File lengths (MBytes):  RWF=     25 Int=      0 D2E=      0 Chk=      3 Scr=      1
 Normal termination of Gaussian 09 at Fri Feb 10 01:08:01 2017.
