 Entering Gaussian System, Link 0=g09
 Initial command:
 /home/steboss/Software/g09/l1.exe /home/steboss/projects/phi_psi_scan/alanine/MP2/150/5285/Gau-1776.inp -scrdir=/home/steboss/projects/phi_psi_scan/alanine/MP2/150/5285/
 Entering Link 1 = /home/steboss/Software/g09/l1.exe PID=      1778.
  
 Copyright (c) 1988,1990,1992,1993,1995,1998,2003,2009, Gaussian, Inc.
                  All Rights Reserved.
  
 This is part of the Gaussian(R) 09 program.  It is based on
 the Gaussian(R) 03 system (copyright 2003, Gaussian, Inc.),
 the Gaussian(R) 98 system (copyright 1998, Gaussian, Inc.),
 the Gaussian(R) 94 system (copyright 1995, Gaussian, Inc.),
 the Gaussian 92(TM) system (copyright 1992, Gaussian, Inc.),
 the Gaussian 90(TM) system (copyright 1990, Gaussian, Inc.),
 the Gaussian 88(TM) system (copyright 1988, Gaussian, Inc.),
 the Gaussian 86(TM) system (copyright 1986, Carnegie Mellon
 University), and the Gaussian 82(TM) system (copyright 1983,
 Carnegie Mellon University). Gaussian is a federally registered
 trademark of Gaussian, Inc.
  
 This software contains proprietary and confidential information,
 including trade secrets, belonging to Gaussian, Inc.
  
 This software is provided under written license and may be
 used, copied, transmitted, or stored only in accord with that
 written license.
  
 The following legend is applicable only to US Government
 contracts under FAR:
  
                    RESTRICTED RIGHTS LEGEND
  
 Use, reproduction and disclosure by the US Government is
 subject to restrictions as set forth in subparagraphs (a)
 and (c) of the Commercial Computer Software - Restricted
 Rights clause in FAR 52.227-19.
  
 Gaussian, Inc.
 340 Quinnipiac St., Bldg. 40, Wallingford CT 06492
  
  
 ---------------------------------------------------------------
 Warning -- This program may not be used in any manner that
 competes with the business of Gaussian, Inc. or will provide
 assistance to any competitor of Gaussian, Inc.  The licensee
 of this program is prohibited from giving any competitor of
 Gaussian, Inc. access to this program.  By using this program,
 the user acknowledges that Gaussian, Inc. is engaged in the
 business of creating and licensing software in the field of
 computational chemistry and represents and warrants to the
 licensee that it is not a competitor of Gaussian, Inc. and that
 it will not use this program in any manner prohibited above.
 ---------------------------------------------------------------
  

 Cite this work as:
 Gaussian 09, Revision A.02,
 M. J. Frisch, G. W. Trucks, H. B. Schlegel, G. E. Scuseria, 
 M. A. Robb, J. R. Cheeseman, G. Scalmani, V. Barone, B. Mennucci, 
 G. A. Petersson, H. Nakatsuji, M. Caricato, X. Li, H. P. Hratchian, 
 A. F. Izmaylov, J. Bloino, G. Zheng, J. L. Sonnenberg, M. Hada, 
 M. Ehara, K. Toyota, R. Fukuda, J. Hasegawa, M. Ishida, T. Nakajima, 
 Y. Honda, O. Kitao, H. Nakai, T. Vreven, J. A. Montgomery, Jr., 
 J. E. Peralta, F. Ogliaro, M. Bearpark, J. J. Heyd, E. Brothers, 
 K. N. Kudin, V. N. Staroverov, R. Kobayashi, J. Normand, 
 K. Raghavachari, A. Rendell, J. C. Burant, S. S. Iyengar, J. Tomasi, 
 M. Cossi, N. Rega, J. M. Millam, M. Klene, J. E. Knox, J. B. Cross, 
 V. Bakken, C. Adamo, J. Jaramillo, R. Gomperts, R. E. Stratmann, 
 O. Yazyev, A. J. Austin, R. Cammi, C. Pomelli, J. W. Ochterski, 
 R. L. Martin, K. Morokuma, V. G. Zakrzewski, G. A. Voth, 
 P. Salvador, J. J. Dannenberg, S. Dapprich, A. D. Daniels, 
 O. Farkas, J. B. Foresman, J. V. Ortiz, J. Cioslowski, 
 and D. J. Fox, Gaussian, Inc., Wallingford CT, 2009.
 
 ******************************************
 Gaussian 09:  EM64L-G09RevA.02 11-Jun-2009
                12-Feb-2017 
 ******************************************
 %chk=structure_210.chk
 %NProcShared=8
 Will use up to    8 processors via shared memory.
 -------------------
 #SP MP2/aug-cc-pVDZ
 -------------------
 1/38=1/1;
 2/12=2,17=6,18=5,40=1/2;
 3/5=16,7=10,11=9,16=1,25=1,30=1/1,2,3;
 4//1;
 5/5=2,38=5/2;
 8/10=1/1;
 9/16=-3/6;
 6/7=2,8=2,9=2,10=2/1;
 99/5=1,9=1/99;
 -------------------------------
 Single Point calculation at MP2
 -------------------------------
 Symbolic Z-matrix:
 Charge =  0 Multiplicity = 1
 H                    -4.0931   -1.2349   -0.1036 
 C                    -3.15     -1.2769    0.4485 
 H                    -2.6663   -2.2406    0.262 
 H                    -3.3927   -1.2049    1.5141 
 C                    -2.3039   -0.0681    0.0588 
 O                    -2.7714    1.0658    0.101 
 N                    -1.0358   -0.3809   -0.3393 
 H                    -0.7486   -1.3534   -0.3292 
 C                     0.0876    0.5105   -0.6229 
 H                     0.1432    0.6868   -1.7099 
 C                     0.0054    1.8741    0.0768 
 H                     0.0902    1.7708    1.1639 
 H                     0.803     2.5341   -0.2859 
 H                    -0.9533    2.3431   -0.1377 
 C                     1.3493   -0.3196   -0.2648 
 O                     1.3357   -1.5429   -0.3936 
 N                     2.4354    0.3667    0.1703 
 H                     2.3635    1.3652    0.2906 
 C                     3.6957   -0.2825    0.4933 
 H                     3.5701   -1.3511    0.3177 
 H                     4.5061    0.0955   -0.1406 
 H                     3.9619   -0.1191    1.5439 
 
                          Input orientation:                          
 ---------------------------------------------------------------------
 Center     Atomic      Atomic             Coordinates (Angstroms)
 Number     Number       Type             X           Y           Z
 ---------------------------------------------------------------------
      1          1           0       -4.093100   -1.234900   -0.103600
      2          6           0       -3.150000   -1.276900    0.448500
      3          1           0       -2.666300   -2.240600    0.262000
      4          1           0       -3.392700   -1.204900    1.514100
      5          6           0       -2.303900   -0.068100    0.058800
      6          8           0       -2.771400    1.065800    0.101000
      7          7           0       -1.035800   -0.380900   -0.339300
      8          1           0       -0.748600   -1.353400   -0.329200
      9          6           0        0.087600    0.510500   -0.622900
     10          1           0        0.143200    0.686800   -1.709900
     11          6           0        0.005400    1.874100    0.076800
     12          1           0        0.090200    1.770800    1.163900
     13          1           0        0.803000    2.534100   -0.285900
     14          1           0       -0.953300    2.343100   -0.137700
     15          6           0        1.349300   -0.319600   -0.264800
     16          8           0        1.335700   -1.542900   -0.393600
     17          7           0        2.435400    0.366700    0.170300
     18          1           0        2.363500    1.365200    0.290600
     19          6           0        3.695700   -0.282500    0.493300
     20          1           0        3.570100   -1.351100    0.317700
     21          1           0        4.506100    0.095500   -0.140600
     22          1           0        3.961900   -0.119100    1.543900
 ---------------------------------------------------------------------
                    Distance matrix (angstroms):
                    1          2          3          4          5
     1  H    0.000000
     2  C    1.093625   0.000000
     3  H    1.783495   1.094288   0.000000
     4  H    1.763069   1.095258   1.779912   0.000000
     5  C    2.142203   1.526089   2.211873   2.143758   0.000000
     6  O    2.661198   2.398403   3.311986   2.745714   1.227219
     7  N    3.183073   2.427609   2.545305   3.109509   1.365432
     8  H    3.354194   2.525350   2.194132   3.226619   2.054628
     9  C    4.560082   3.850292   3.991937   4.429656   2.553187
    10  H    4.921318   4.399997   4.511247   5.145415   3.112310
    11  C    5.147439   4.474764   4.909484   4.805534   3.017504
    12  H    5.304789   4.505460   4.950055   4.594347   3.214734
    13  H    6.181455   5.539790   5.927394   5.901188   4.067320
    14  H    4.760419   4.274754   4.909627   4.611661   2.770671
    15  C    5.521184   4.654989   4.482500   5.141479   3.676117
    16  O    5.445258   4.571804   4.114924   5.109925   3.953023
    17  N    6.727663   5.828851   5.730075   6.184050   4.760509
    18  H    6.971628   6.115906   6.188821   6.421542   4.888016
    19  C    7.869483   6.917691   6.660533   7.220683   6.019133
    20  H    7.675652   6.721782   6.299762   7.066352   6.018056
    21  H    8.701585   7.800409   7.553990   8.174357   6.814883
    22  H    8.297125   7.288314   7.076515   7.434379   6.439594
                    6          7          8          9         10
     6  O    0.000000
     7  N    2.301980   0.000000
     8  H    3.182659   1.014072   0.000000
     9  C    3.001045   1.461865   2.063883   0.000000
    10  H    3.452230   2.099659   2.619934   1.102607   0.000000
    11  C    2.892154   2.518385   3.339178   1.534843   2.149643
    12  H    3.132976   2.856099   3.562802   2.186554   3.071904
    13  H    3.883546   3.446921   4.185928   2.172630   2.423970
    14  H    2.234717   2.732696   3.707113   2.162710   2.533270
    15  C    4.362718   2.387050   2.339674   1.552156   2.134440
    16  O    4.890625   2.641440   2.093887   2.413873   2.850660
    17  N    5.253980   3.587175   3.653231   2.482340   2.981912
    18  H    5.147114   3.873097   4.178529   2.597059   3.064630
    19  C    6.617794   4.805205   4.644904   3.859163   4.291141
    20  H    6.789918   4.752605   4.366882   4.059321   4.473013
    21  H    7.345874   5.565887   5.454058   4.464077   4.674103
    22  H    6.987366   5.347148   5.217357   4.483483   5.081256
                   11         12         13         14         15
    11  C    0.000000
    12  H    1.095285   0.000000
    13  H    1.096958   1.786793   0.000000
    14  H    1.088612   1.763684   1.772860   0.000000
    15  C    2.595203   2.827771   2.905597   3.522512   0.000000
    16  O    3.696872   3.867517   4.113064   4.517300   1.230137
    17  N    2.861101   2.908385   2.751449   3.935011   1.356441
    18  H    2.421843   2.468817   2.033185   3.484378   2.043434
    19  C    4.294498   4.203020   4.111946   5.376350   2.466107
    20  H    4.813215   4.751002   4.807905   5.857956   2.516992
    21  H    4.844273   4.899849   4.436308   5.903962   3.186396
    22  H    4.666811   4.325064   4.512902   5.748861   3.183909
                   16         17         18         19         20
    16  O    0.000000
    17  N    2.274620   0.000000
    18  H    3.159359   1.008288   0.000000
    19  C    2.818652   1.454010   2.128558   0.000000
    20  H    2.352717   2.064003   2.972357   1.090191   0.000000
    21  H    3.577681   2.111399   2.527609   1.096112   1.782915
    22  H    3.560623   2.110209   2.515709   1.096049   1.781824
                   21         22
    21  H    0.000000
    22  H    1.783185   0.000000
 Stoichiometry    C6H12N2O2
 Framework group  C1[X(C6H12N2O2)]
 Deg. of freedom    60
 Full point group                 C1      NOp   1
 Largest Abelian subgroup         C1      NOp   1
 Largest concise Abelian subgroup C1      NOp   1
                         Standard orientation:                         
 ---------------------------------------------------------------------
 Center     Atomic      Atomic             Coordinates (Angstroms)
 Number     Number       Type             X           Y           Z
 ---------------------------------------------------------------------
      1          1           0       -4.093099   -1.234917   -0.103596
      2          6           0       -3.149999   -1.276914    0.448504
      3          1           0       -2.666296   -2.240612    0.262004
      4          1           0       -3.392699   -1.204914    1.514104
      5          6           0       -2.303902   -0.068111    0.058804
      6          8           0       -2.771406    1.065788    0.101004
      7          7           0       -1.035801   -0.380907   -0.339296
      8          1           0       -0.748598   -1.353406   -0.329196
      9          6           0        0.087596    0.510496   -0.622896
     10          1           0        0.143195    0.686797   -1.709896
     11          6           0        0.005392    1.874096    0.076804
     12          1           0        0.090192    1.770796    1.163904
     13          1           0        0.802990    2.534099   -0.285896
     14          1           0       -0.953310    2.343093   -0.137696
     15          6           0        1.349298   -0.319600   -0.264796
     16          8           0        1.335702   -1.542900   -0.393596
     17          7           0        2.435396    0.366704    0.170304
     18          1           0        2.363493    1.365204    0.290604
     19          6           0        3.695698   -0.282492    0.493304
     20          1           0        3.570102   -1.351093    0.317704
     21          1           0        4.506097    0.095510   -0.140596
     22          1           0        3.961898   -0.119091    1.543904
 ---------------------------------------------------------------------
 Rotational constants (GHZ):      2.7887564      0.6866768      0.5828336
 Standard basis: Aug-CC-pVDZ (5D, 7F)
 There are   338 symmetry adapted basis functions of A   symmetry.
 Integral buffers will be    131072 words long.
 Raffenetti 1 integral format.
 Two-electron integral symmetry is turned on.
   338 basis functions,   562 primitive gaussians,   358 cartesian basis functions
    39 alpha electrons       39 beta electrons
       nuclear repulsion energy       550.2890300713 Hartrees.
 NAtoms=   22 NActive=   22 NUniq=   22 SFac= 7.50D-01 NAtFMM=   80 NAOKFM=F Big=F
 One-electron integrals computed using PRISM.
 NBasis=   338 RedAO= T  NBF=   338
 NBsUse=   338 1.00D-06 NBFU=   338
 Harris functional with IExCor=  205 diagonalized for initial guess.
 ExpMin= 2.97D-02 ExpMax= 1.17D+04 ExpMxC= 4.01D+02 IAcc=3 IRadAn=         0 AccDes= 0.00D+00
 HarFok:  IExCor=  205 AccDes= 0.00D+00 IRadAn=         0 IDoV= 1
 ScaDFX=  1.000000  1.000000  1.000000  1.000000
 FoFCou: FMM=F IPFlag=           0 FMFlag=      100000 FMFlg1=           0
         NFxFlg=           0 DoJE=T BraDBF=F KetDBF=T FulRan=T
         Omega=  0.000000  0.000000  1.000000  0.000000  0.000000 ICntrl=     500 IOpCl=  0
         NMat0=    1 NMatS0=    1 NMatT0=    0 NMatD0=    1 NMtDS0=    0 NMtDT0=    0
         I1Cent=           4 NGrid=           0.
 Petite list used in FoFCou.
 Initial guess orbital symmetries:
       Occupied  (A) (A) (A) (A) (A) (A) (A) (A) (A) (A) (A) (A)
                 (A) (A) (A) (A) (A) (A) (A) (A) (A) (A) (A) (A)
                 (A) (A) (A) (A) (A) (A) (A) (A) (A) (A) (A) (A)
                 (A) (A) (A)
       Virtual   (A) (A) (A) (A) (A) (A) (A) (A) (A) (A) (A) (A)
                 (A) (A) (A) (A) (A) (A) (A) (A) (A) (A) (A) (A)
                 (A) (A) (A) (A) (A) (A) (A) (A) (A) (A) (A) (A)
                 (A) (A) (A) (A) (A) (A) (A) (A) (A) (A) (A) (A)
                 (A) (A) (A) (A) (A) (A) (A) (A) (A) (A) (A) (A)
                 (A) (A) (A) (A) (A) (A) (A) (A) (A) (A) (A) (A)
                 (A) (A) (A) (A) (A) (A) (A) (A) (A) (A) (A) (A)
                 (A) (A) (A) (A) (A) (A) (A) (A) (A) (A) (A) (A)
                 (A) (A) (A) (A) (A) (A) (A) (A) (A) (A) (A) (A)
                 (A) (A) (A) (A) (A) (A) (A) (A) (A) (A) (A) (A)
                 (A) (A) (A) (A) (A) (A) (A) (A) (A) (A) (A) (A)
                 (A) (A) (A) (A) (A) (A) (A) (A) (A) (A) (A) (A)
                 (A) (A) (A) (A) (A) (A) (A) (A) (A) (A) (A) (A)
                 (A) (A) (A) (A) (A) (A) (A) (A) (A) (A) (A) (A)
                 (A) (A) (A) (A) (A) (A) (A) (A) (A) (A) (A) (A)
                 (A) (A) (A) (A) (A) (A) (A) (A) (A) (A) (A) (A)
                 (A) (A) (A) (A) (A) (A) (A) (A) (A) (A) (A) (A)
                 (A) (A) (A) (A) (A) (A) (A) (A) (A) (A) (A) (A)
                 (A) (A) (A) (A) (A) (A) (A) (A) (A) (A) (A) (A)
                 (A) (A) (A) (A) (A) (A) (A) (A) (A) (A) (A) (A)
                 (A) (A) (A) (A) (A) (A) (A) (A) (A) (A) (A) (A)
                 (A) (A) (A) (A) (A) (A) (A) (A) (A) (A) (A) (A)
                 (A) (A) (A) (A) (A) (A) (A) (A) (A) (A) (A) (A)
                 (A) (A) (A) (A) (A) (A) (A) (A) (A) (A) (A) (A)
                 (A) (A) (A) (A) (A) (A) (A) (A) (A) (A) (A)
 The electronic state of the initial guess is 1-A.
 Requested convergence on RMS density matrix=1.00D-08 within 128 cycles.
 Requested convergence on MAX density matrix=1.00D-06.
 Requested convergence on             energy=1.00D-06.
 No special actions if energy rises.
 Initial convergence to 1.0D-05 achieved.  Increase integral accuracy.
 SCF Done:  E(RHF) =  -492.918082321     A.U. after   14 cycles
             Convg  =    0.6997D-08             -V/T =  2.0017
 ExpMin= 2.97D-02 ExpMax= 1.17D+04 ExpMxC= 4.01D+02 IAcc=3 IRadAn=         5 AccDes= 0.00D+00
 HarFok:  IExCor=  205 AccDes= 0.00D+00 IRadAn=         5 IDoV=-2
 ScaDFX=  1.000000  1.000000  1.000000  1.000000
 Range of M.O.s used for correlation:    11   338
 NBasis=   338 NAE=    39 NBE=    39 NFC=    10 NFV=     0
 NROrb=    328 NOA=    29 NOB=    29 NVA=   299 NVB=   299

 **** Warning!!: The largest alpha MO coefficient is  0.86639586D+02

 Disk-based method using OVN memory for 29 occupieds at a time.
 Estimated scratch disk usage=  1372871912 words.
 Actual    scratch disk usage=  1359864262 words.
 JobTyp=1 Pass  1:  I=   1 to  29 NPSUse=  8 ParTrn=T ParDer=T DoDerP=F.
 Spin components of T(2) and E(2):
     alpha-alpha T2 =       0.6799289315D-01 E2=     -0.2061075841D+00
     alpha-beta  T2 =       0.3761635874D+00 E2=     -0.1189946664D+01
     beta-beta   T2 =       0.6799289315D-01 E2=     -0.2061075841D+00
 ANorm=    0.1229694830D+01
 E2 =    -0.1602161832D+01 EUMP2 =    -0.49452024415324D+03

 **********************************************************************

            Population analysis using the SCF density.

 **********************************************************************

 Orbital symmetries:
       Occupied  (A) (A) (A) (A) (A) (A) (A) (A) (A) (A) (A) (A)
                 (A) (A) (A) (A) (A) (A) (A) (A) (A) (A) (A) (A)
                 (A) (A) (A) (A) (A) (A) (A) (A) (A) (A) (A) (A)
                 (A) (A) (A)
       Virtual   (A) (A) (A) (A) (A) (A) (A) (A) (A) (A) (A) (A)
                 (A) (A) (A) (A) (A) (A) (A) (A) (A) (A) (A) (A)
                 (A) (A) (A) (A) (A) (A) (A) (A) (A) (A) (A) (A)
                 (A) (A) (A) (A) (A) (A) (A) (A) (A) (A) (A) (A)
                 (A) (A) (A) (A) (A) (A) (A) (A) (A) (A) (A) (A)
                 (A) (A) (A) (A) (A) (A) (A) (A) (A) (A) (A) (A)
                 (A) (A) (A) (A) (A) (A) (A) (A) (A) (A) (A) (A)
                 (A) (A) (A) (A) (A) (A) (A) (A) (A) (A) (A) (A)
                 (A) (A) (A) (A) (A) (A) (A) (A) (A) (A) (A) (A)
                 (A) (A) (A) (A) (A) (A) (A) (A) (A) (A) (A) (A)
                 (A) (A) (A) (A) (A) (A) (A) (A) (A) (A) (A) (A)
                 (A) (A) (A) (A) (A) (A) (A) (A) (A) (A) (A) (A)
                 (A) (A) (A) (A) (A) (A) (A) (A) (A) (A) (A) (A)
                 (A) (A) (A) (A) (A) (A) (A) (A) (A) (A) (A) (A)
                 (A) (A) (A) (A) (A) (A) (A) (A) (A) (A) (A) (A)
                 (A) (A) (A) (A) (A) (A) (A) (A) (A) (A) (A) (A)
                 (A) (A) (A) (A) (A) (A) (A) (A) (A) (A) (A) (A)
                 (A) (A) (A) (A) (A) (A) (A) (A) (A) (A) (A) (A)
                 (A) (A) (A) (A) (A) (A) (A) (A) (A) (A) (A) (A)
                 (A) (A) (A) (A) (A) (A) (A) (A) (A) (A) (A) (A)
                 (A) (A) (A) (A) (A) (A) (A) (A) (A) (A) (A) (A)
                 (A) (A) (A) (A) (A) (A) (A) (A) (A) (A) (A) (A)
                 (A) (A) (A) (A) (A) (A) (A) (A) (A) (A) (A) (A)
                 (A) (A) (A) (A) (A) (A) (A) (A) (A) (A) (A) (A)
                 (A) (A) (A) (A) (A) (A) (A) (A) (A) (A) (A)
 The electronic state is 1-A.
 Alpha  occ. eigenvalues --  -20.54248 -20.52157 -15.60921 -15.58998 -11.37320
 Alpha  occ. eigenvalues --  -11.35956 -11.30277 -11.27770 -11.24004 -11.23684
 Alpha  occ. eigenvalues --   -1.39915  -1.37484  -1.24703  -1.23405  -1.05835
 Alpha  occ. eigenvalues --   -0.98793  -0.96100  -0.89691  -0.80897  -0.76679
 Alpha  occ. eigenvalues --   -0.73186  -0.68204  -0.66390  -0.65603  -0.62725
 Alpha  occ. eigenvalues --   -0.61750  -0.59403  -0.58660  -0.56644  -0.56122
 Alpha  occ. eigenvalues --   -0.55478  -0.54669  -0.53009  -0.52494  -0.49938
 Alpha  occ. eigenvalues --   -0.43973  -0.41236  -0.40641  -0.38739
 Alpha virt. eigenvalues --    0.02727   0.04035   0.04198   0.04523   0.05708
 Alpha virt. eigenvalues --    0.06273   0.06437   0.06462   0.07425   0.07945
 Alpha virt. eigenvalues --    0.09594   0.10103   0.10896   0.11554   0.13263
 Alpha virt. eigenvalues --    0.13701   0.13861   0.14557   0.14981   0.15314
 Alpha virt. eigenvalues --    0.15442   0.15915   0.16193   0.16426   0.17057
 Alpha virt. eigenvalues --    0.17755   0.18002   0.18523   0.18944   0.19174
 Alpha virt. eigenvalues --    0.19897   0.20039   0.20275   0.21487   0.22807
 Alpha virt. eigenvalues --    0.23090   0.23696   0.25182   0.25996   0.26151
 Alpha virt. eigenvalues --    0.27229   0.27819   0.28716   0.29975   0.30881
 Alpha virt. eigenvalues --    0.31108   0.31532   0.31953   0.33070   0.33482
 Alpha virt. eigenvalues --    0.34165   0.34743   0.35178   0.35349   0.36533
 Alpha virt. eigenvalues --    0.36863   0.37683   0.38238   0.39171   0.39914
 Alpha virt. eigenvalues --    0.40288   0.41233   0.41855   0.42608   0.43076
 Alpha virt. eigenvalues --    0.43825   0.44245   0.44689   0.44852   0.45423
 Alpha virt. eigenvalues --    0.45867   0.46848   0.47100   0.48235   0.48481
 Alpha virt. eigenvalues --    0.49139   0.50300   0.50766   0.51710   0.51954
 Alpha virt. eigenvalues --    0.52702   0.53597   0.54235   0.55111   0.55691
 Alpha virt. eigenvalues --    0.56540   0.57130   0.57345   0.58403   0.59480
 Alpha virt. eigenvalues --    0.59837   0.60932   0.61073   0.61743   0.62556
 Alpha virt. eigenvalues --    0.62875   0.63080   0.63662   0.64742   0.65477
 Alpha virt. eigenvalues --    0.65910   0.66434   0.67635   0.68100   0.68463
 Alpha virt. eigenvalues --    0.69452   0.70196   0.70873   0.71696   0.72030
 Alpha virt. eigenvalues --    0.72834   0.73693   0.74883   0.75292   0.75978
 Alpha virt. eigenvalues --    0.76421   0.76991   0.78697   0.79281   0.79536
 Alpha virt. eigenvalues --    0.80329   0.81256   0.81803   0.82499   0.82754
 Alpha virt. eigenvalues --    0.84874   0.85467   0.86097   0.87068   0.87487
 Alpha virt. eigenvalues --    0.89102   0.90160   0.91077   0.93137   0.93816
 Alpha virt. eigenvalues --    0.94388   0.95153   0.96226   0.97072   0.99107
 Alpha virt. eigenvalues --    1.00109   1.01242   1.03488   1.04176   1.05432
 Alpha virt. eigenvalues --    1.06429   1.06903   1.07279   1.08817   1.09508
 Alpha virt. eigenvalues --    1.12009   1.13649   1.14150   1.14823   1.16170
 Alpha virt. eigenvalues --    1.17715   1.18387   1.18940   1.19870   1.21255
 Alpha virt. eigenvalues --    1.22276   1.24098   1.25262   1.27719   1.30108
 Alpha virt. eigenvalues --    1.31459   1.32667   1.33757   1.37032   1.38997
 Alpha virt. eigenvalues --    1.40432   1.42025   1.44018   1.46353   1.47340
 Alpha virt. eigenvalues --    1.49313   1.51193   1.51862   1.52314   1.53921
 Alpha virt. eigenvalues --    1.54946   1.56465   1.59198   1.60505   1.65953
 Alpha virt. eigenvalues --    1.66776   1.69924   1.71099   1.71875   1.72737
 Alpha virt. eigenvalues --    1.74893   1.75236   1.77791   1.78020   1.81067
 Alpha virt. eigenvalues --    1.82488   1.83827   1.85752   1.87435   1.88385
 Alpha virt. eigenvalues --    1.89304   1.89631   1.90449   1.92615   1.93477
 Alpha virt. eigenvalues --    1.94733   1.97209   1.98042   1.98636   1.99223
 Alpha virt. eigenvalues --    2.01799   2.04706   2.05296   2.05772   2.08890
 Alpha virt. eigenvalues --    2.10503   2.10836   2.11698   2.12287   2.15304
 Alpha virt. eigenvalues --    2.17386   2.17909   2.20486   2.21025   2.21674
 Alpha virt. eigenvalues --    2.24097   2.25545   2.27564   2.28857   2.29252
 Alpha virt. eigenvalues --    2.30944   2.31647   2.32874   2.34616   2.35979
 Alpha virt. eigenvalues --    2.37756   2.40129   2.40612   2.41739   2.43732
 Alpha virt. eigenvalues --    2.45913   2.46524   2.47117   2.51325   2.52536
 Alpha virt. eigenvalues --    2.53977   2.55778   2.57017   2.57933   2.60389
 Alpha virt. eigenvalues --    2.61720   2.62807   2.66501   2.69153   2.69674
 Alpha virt. eigenvalues --    2.70912   2.71898   2.73305   2.77412   2.78695
 Alpha virt. eigenvalues --    2.81150   2.83915   2.85302   2.87427   2.89121
 Alpha virt. eigenvalues --    2.89338   2.89585   2.92515   2.96352   2.98254
 Alpha virt. eigenvalues --    2.99894   3.01310   3.04107   3.06301   3.07083
 Alpha virt. eigenvalues --    3.08754   3.12492   3.16422   3.20664   3.25299
 Alpha virt. eigenvalues --    3.29926   3.34981   3.45611   3.46686   3.51989
 Alpha virt. eigenvalues --    3.63136   3.69290   3.72054   3.82258   3.83683
 Alpha virt. eigenvalues --    3.84937   3.85835   3.94335   4.01595   4.02748
 Alpha virt. eigenvalues --    4.07742   4.10700   4.20280   4.21536
          Condensed to atoms (all electrons):
              1          2          3          4          5          6
     1  H    0.750668   0.398327  -0.085374  -0.054886  -0.101783   0.021694
     2  C    0.398327   4.471980   0.315408   0.321014   0.186340  -0.018109
     3  H   -0.085374   0.315408   1.080021  -0.060808   0.155971  -0.009478
     4  H   -0.054886   0.321014  -0.060808   0.754357  -0.063329   0.014994
     5  C   -0.101783   0.186340   0.155971  -0.063329   5.562339   0.151723
     6  O    0.021694  -0.018109  -0.009478   0.014994   0.151723   8.766019
     7  N    0.054524  -0.027182  -0.182254   0.041094   0.021597  -0.119723
     8  H   -0.004509  -0.046643   0.004217  -0.006992  -0.136010  -0.004352
     9  C   -0.013604  -0.002691  -0.040397   0.017916  -0.330152   0.119700
    10  H   -0.003689   0.000044   0.000183   0.001269   0.004801   0.009965
    11  C    0.007212  -0.007861  -0.003721  -0.004535  -0.042852  -0.020919
    12  H   -0.000010  -0.006110  -0.000153  -0.001317  -0.001910   0.020752
    13  H    0.000278  -0.003429  -0.002206   0.000072  -0.068413   0.009973
    14  H   -0.000424   0.013456   0.003771  -0.000333   0.085511  -0.061183
    15  C    0.000260   0.005111  -0.001344   0.004335   0.010441  -0.019622
    16  O   -0.000311   0.003489  -0.001218   0.000350  -0.017153   0.001621
    17  N   -0.000099   0.000773   0.000167   0.000512   0.001624  -0.001807
    18  H   -0.000030  -0.001939   0.000114  -0.000078   0.004238  -0.001077
    19  C   -0.000073   0.000457   0.000071   0.000148  -0.003148  -0.000209
    20  H    0.000016   0.000172  -0.000156   0.000016  -0.002238  -0.000006
    21  H    0.000001   0.000063  -0.000039   0.000018   0.001528  -0.000009
    22  H   -0.000007   0.000086   0.000124  -0.000013  -0.000516   0.000026
              7          8          9         10         11         12
     1  H    0.054524  -0.004509  -0.013604  -0.003689   0.007212  -0.000010
     2  C   -0.027182  -0.046643  -0.002691   0.000044  -0.007861  -0.006110
     3  H   -0.182254   0.004217  -0.040397   0.000183  -0.003721  -0.000153
     4  H    0.041094  -0.006992   0.017916   0.001269  -0.004535  -0.001317
     5  C    0.021597  -0.136010  -0.330152   0.004801  -0.042852  -0.001910
     6  O   -0.119723  -0.004352   0.119700   0.009965  -0.020919   0.020752
     7  N    7.650232   0.357875  -0.470927  -0.095875   0.075248  -0.058956
     8  H    0.357875   0.942042  -0.099194   0.019336   0.025921  -0.000065
     9  C   -0.470927  -0.099194   6.929175   0.298762   0.119282   0.045878
    10  H   -0.095875   0.019336   0.298762   0.946112  -0.034675   0.069738
    11  C    0.075248   0.025921   0.119282  -0.034675   4.255411   0.242778
    12  H   -0.058956  -0.000065   0.045878   0.069738   0.242778   1.157435
    13  H    0.066663   0.012382  -0.060849  -0.079944   0.273350  -0.172095
    14  H   -0.026096  -0.011950  -0.047407  -0.016441   0.361543  -0.200860
    15  C    0.079860  -0.078002  -0.276501  -0.131591  -0.043804  -0.064487
    16  O   -0.052586   0.050734   0.041256   0.004973   0.005346  -0.002445
    17  N    0.047497   0.011791  -0.103253   0.019076   0.031304   0.000277
    18  H    0.003561   0.002993  -0.016202  -0.006827  -0.030976  -0.004129
    19  C   -0.001743  -0.005768  -0.002170   0.002380  -0.005738  -0.006871
    20  H   -0.002476  -0.000221  -0.014244   0.001407  -0.002463   0.000320
    21  H    0.003159   0.001437   0.003128  -0.002400  -0.004118  -0.001486
    22  H   -0.000644  -0.002117  -0.009474  -0.000173   0.013047  -0.000412
             13         14         15         16         17         18
     1  H    0.000278  -0.000424   0.000260  -0.000311  -0.000099  -0.000030
     2  C   -0.003429   0.013456   0.005111   0.003489   0.000773  -0.001939
     3  H   -0.002206   0.003771  -0.001344  -0.001218   0.000167   0.000114
     4  H    0.000072  -0.000333   0.004335   0.000350   0.000512  -0.000078
     5  C   -0.068413   0.085511   0.010441  -0.017153   0.001624   0.004238
     6  O    0.009973  -0.061183  -0.019622   0.001621  -0.001807  -0.001077
     7  N    0.066663  -0.026096   0.079860  -0.052586   0.047497   0.003561
     8  H    0.012382  -0.011950  -0.078002   0.050734   0.011791   0.002993
     9  C   -0.060849  -0.047407  -0.276501   0.041256  -0.103253  -0.016202
    10  H   -0.079944  -0.016441  -0.131591   0.004973   0.019076  -0.006827
    11  C    0.273350   0.361543  -0.043804   0.005346   0.031304  -0.030976
    12  H   -0.172095  -0.200860  -0.064487  -0.002445   0.000277  -0.004129
    13  H    1.351993  -0.318965   0.043990   0.002648  -0.031590   0.024635
    14  H   -0.318965   1.231999   0.056949  -0.000424   0.005623   0.000215
    15  C    0.043990   0.056949   5.186456   0.249365   0.128928   0.000540
    16  O    0.002648  -0.000424   0.249365   8.788771  -0.177819   0.009020
    17  N   -0.031590   0.005623   0.128928  -0.177819   7.147963   0.243596
    18  H    0.024635   0.000215   0.000540   0.009020   0.243596   1.031146
    19  C   -0.013889   0.007666  -0.131080  -0.013773   0.313126  -0.143049
    20  H    0.001603   0.000019   0.008598  -0.001348  -0.048830   0.000106
    21  H   -0.000895   0.000286   0.009837   0.009868  -0.046017   0.004724
    22  H   -0.002780   0.001732  -0.026565   0.006836  -0.020053  -0.000401
             19         20         21         22
     1  H   -0.000073   0.000016   0.000001  -0.000007
     2  C    0.000457   0.000172   0.000063   0.000086
     3  H    0.000071  -0.000156  -0.000039   0.000124
     4  H    0.000148   0.000016   0.000018  -0.000013
     5  C   -0.003148  -0.002238   0.001528  -0.000516
     6  O   -0.000209  -0.000006  -0.000009   0.000026
     7  N   -0.001743  -0.002476   0.003159  -0.000644
     8  H   -0.005768  -0.000221   0.001437  -0.002117
     9  C   -0.002170  -0.014244   0.003128  -0.009474
    10  H    0.002380   0.001407  -0.002400  -0.000173
    11  C   -0.005738  -0.002463  -0.004118   0.013047
    12  H   -0.006871   0.000320  -0.001486  -0.000412
    13  H   -0.013889   0.001603  -0.000895  -0.002780
    14  H    0.007666   0.000019   0.000286   0.001732
    15  C   -0.131080   0.008598   0.009837  -0.026565
    16  O   -0.013773  -0.001348   0.009868   0.006836
    17  N    0.313126  -0.048830  -0.046017  -0.020053
    18  H   -0.143049   0.000106   0.004724  -0.000401
    19  C    4.122961   0.491771   0.303331   0.349381
    20  H    0.491771   0.982077  -0.122992  -0.136539
    21  H    0.303331  -0.122992   1.087953  -0.141882
    22  H    0.349381  -0.136539  -0.141882   1.066309
 Mulliken atomic charges:
              1
     1  H    0.031818
     2  C    0.397243
     3  H   -0.172900
     4  H    0.036194
     5  C    0.581393
     6  O   -0.859972
     7  N   -0.362850
     8  H   -0.032907
     9  C   -0.088033
    10  H   -0.006431
    11  C    0.791219
    12  H   -0.015872
    13  H   -0.032533
    14  H   -0.084687
    15  C    0.988325
    16  O   -0.907200
    17  N   -0.522789
    18  H   -0.120180
    19  C    0.736217
    20  H   -0.154593
    21  H   -0.105494
    22  H   -0.095967
 Sum of Mulliken atomic charges =   0.00000
 Mulliken charges with hydrogens summed into heavy atoms:
              1
     2  C    0.292355
     5  C    0.581393
     6  O   -0.859972
     7  N   -0.395757
     9  C   -0.094464
    11  C    0.658127
    15  C    0.988325
    16  O   -0.907200
    17  N   -0.642969
    19  C    0.380163
 Sum of Mulliken charges with hydrogens summed into heavy atoms =   0.00000
 Electronic spatial extent (au):  <R**2>=           1961.6155
 Charge=              0.0000 electrons
 Dipole moment (field-independent basis, Debye):
    X=              3.3595    Y=              0.5089    Z=              0.6217  Tot=              3.4542
 Quadrupole moment (field-independent basis, Debye-Ang):
   XX=            -59.7775   YY=            -64.5232   ZZ=            -60.4908
   XY=             14.8593   XZ=              1.8738   YZ=             -2.0045
 Traceless Quadrupole moment (field-independent basis, Debye-Ang):
   XX=              1.8197   YY=             -2.9261   ZZ=              1.1064
   XY=             14.8593   XZ=              1.8738   YZ=             -2.0045
 Octapole moment (field-independent basis, Debye-Ang**2):
  XXX=             52.6639  YYY=              5.4944  ZZZ=              0.4815  XYY=              2.5674
  XXY=            -23.1535  XXZ=              6.6709  XZZ=             -0.6606  YZZ=              0.9316
  YYZ=              1.7198  XYZ=              0.4262
 Hexadecapole moment (field-independent basis, Debye-Ang**3):
 XXXX=          -1864.8828 YYYY=           -493.0123 ZZZZ=           -132.0838 XXXY=             86.1674
 XXXZ=             20.9465 YYYX=             21.2196 YYYZ=             -1.7975 ZZZX=             -2.2088
 ZZZY=             -0.4014 XXYY=           -420.4795 XXZZ=           -340.1856 YYZZ=           -108.6623
 XXYZ=             -7.1298 YYXZ=              6.2850 ZZXY=              0.0074
 N-N= 5.502890300713D+02 E-N=-2.255736025370D+03  KE= 4.920757244121D+02
 1\1\GINC-NODE012\SP\RMP2-FC\Aug-CC-pVDZ\C6H12N2O2\MANAGER\12-Feb-2017\
 0\\#SP MP2/aug-cc-pVDZ\\Single Point calculation at MP2\\0,1\H,0,-4.09
 31,-1.2349,-0.1036\C,0,-3.15,-1.2769,0.4485\H,0,-2.6663,-2.2406,0.262\
 H,0,-3.3927,-1.2049,1.5141\C,0,-2.3039,-0.0681,0.0588\O,0,-2.7714,1.06
 58,0.101\N,0,-1.0358,-0.3809,-0.3393\H,0,-0.7486,-1.3534,-0.3292\C,0,0
 .0876,0.5105,-0.6229\H,0,0.1432,0.6868,-1.7099\C,0,0.0054,1.8741,0.076
 8\H,0,0.0902,1.7708,1.1639\H,0,0.803,2.5341,-0.2859\H,0,-0.9533,2.3431
 ,-0.1377\C,0,1.3493,-0.3196,-0.2648\O,0,1.3357,-1.5429,-0.3936\N,0,2.4
 354,0.3667,0.1703\H,0,2.3635,1.3652,0.2906\C,0,3.6957,-0.2825,0.4933\H
 ,0,3.5701,-1.3511,0.3177\H,0,4.5061,0.0955,-0.1406\H,0,3.9619,-0.1191,
 1.5439\\Version=EM64L-G09RevA.02\State=1-A\HF=-492.9180823\MP2=-494.52
 02442\RMSD=6.997e-09\PG=C01 [X(C6H12N2O2)]\\@


 Human beings, who are almost unique in having the
 ability to learn from the experience of others, are
 also remarkable for their apparent disinclination to do so.
                               -- Douglas Adams,
                                Last Chance to See
 Job cpu time:  0 days 10 hours 47 minutes 30.2 seconds.
 File lengths (MBytes):  RWF=  10491 Int=      0 D2E=      0 Chk=      7 Scr=      2
 Normal termination of Gaussian 09 at Sun Feb 12 21:46:36 2017.
