 Entering Gaussian System, Link 0=g09
 Initial command:
 /home/steboss/Software/g09/l1.exe /home/steboss/projects/phi_psi_scan/alanine/MP2/150/5282/Gau-30610.inp -scrdir=/home/steboss/projects/phi_psi_scan/alanine/MP2/150/5282/
 Entering Link 1 = /home/steboss/Software/g09/l1.exe PID=     30612.
  
 Copyright (c) 1988,1990,1992,1993,1995,1998,2003,2009, Gaussian, Inc.
                  All Rights Reserved.
  
 This is part of the Gaussian(R) 09 program.  It is based on
 the Gaussian(R) 03 system (copyright 2003, Gaussian, Inc.),
 the Gaussian(R) 98 system (copyright 1998, Gaussian, Inc.),
 the Gaussian(R) 94 system (copyright 1995, Gaussian, Inc.),
 the Gaussian 92(TM) system (copyright 1992, Gaussian, Inc.),
 the Gaussian 90(TM) system (copyright 1990, Gaussian, Inc.),
 the Gaussian 88(TM) system (copyright 1988, Gaussian, Inc.),
 the Gaussian 86(TM) system (copyright 1986, Carnegie Mellon
 University), and the Gaussian 82(TM) system (copyright 1983,
 Carnegie Mellon University). Gaussian is a federally registered
 trademark of Gaussian, Inc.
  
 This software contains proprietary and confidential information,
 including trade secrets, belonging to Gaussian, Inc.
  
 This software is provided under written license and may be
 used, copied, transmitted, or stored only in accord with that
 written license.
  
 The following legend is applicable only to US Government
 contracts under FAR:
  
                    RESTRICTED RIGHTS LEGEND
  
 Use, reproduction and disclosure by the US Government is
 subject to restrictions as set forth in subparagraphs (a)
 and (c) of the Commercial Computer Software - Restricted
 Rights clause in FAR 52.227-19.
  
 Gaussian, Inc.
 340 Quinnipiac St., Bldg. 40, Wallingford CT 06492
  
  
 ---------------------------------------------------------------
 Warning -- This program may not be used in any manner that
 competes with the business of Gaussian, Inc. or will provide
 assistance to any competitor of Gaussian, Inc.  The licensee
 of this program is prohibited from giving any competitor of
 Gaussian, Inc. access to this program.  By using this program,
 the user acknowledges that Gaussian, Inc. is engaged in the
 business of creating and licensing software in the field of
 computational chemistry and represents and warrants to the
 licensee that it is not a competitor of Gaussian, Inc. and that
 it will not use this program in any manner prohibited above.
 ---------------------------------------------------------------
  

 Cite this work as:
 Gaussian 09, Revision A.02,
 M. J. Frisch, G. W. Trucks, H. B. Schlegel, G. E. Scuseria, 
 M. A. Robb, J. R. Cheeseman, G. Scalmani, V. Barone, B. Mennucci, 
 G. A. Petersson, H. Nakatsuji, M. Caricato, X. Li, H. P. Hratchian, 
 A. F. Izmaylov, J. Bloino, G. Zheng, J. L. Sonnenberg, M. Hada, 
 M. Ehara, K. Toyota, R. Fukuda, J. Hasegawa, M. Ishida, T. Nakajima, 
 Y. Honda, O. Kitao, H. Nakai, T. Vreven, J. A. Montgomery, Jr., 
 J. E. Peralta, F. Ogliaro, M. Bearpark, J. J. Heyd, E. Brothers, 
 K. N. Kudin, V. N. Staroverov, R. Kobayashi, J. Normand, 
 K. Raghavachari, A. Rendell, J. C. Burant, S. S. Iyengar, J. Tomasi, 
 M. Cossi, N. Rega, J. M. Millam, M. Klene, J. E. Knox, J. B. Cross, 
 V. Bakken, C. Adamo, J. Jaramillo, R. Gomperts, R. E. Stratmann, 
 O. Yazyev, A. J. Austin, R. Cammi, C. Pomelli, J. W. Ochterski, 
 R. L. Martin, K. Morokuma, V. G. Zakrzewski, G. A. Voth, 
 P. Salvador, J. J. Dannenberg, S. Dapprich, A. D. Daniels, 
 O. Farkas, J. B. Foresman, J. V. Ortiz, J. Cioslowski, 
 and D. J. Fox, Gaussian, Inc., Wallingford CT, 2009.
 
 ******************************************
 Gaussian 09:  EM64L-G09RevA.02 11-Jun-2009
                12-Feb-2017 
 ******************************************
 %chk=structure_165.chk
 %NProcShared=8
 Will use up to    8 processors via shared memory.
 -------------------
 #SP MP2/aug-cc-pVDZ
 -------------------
 1/38=1/1;
 2/12=2,17=6,18=5,40=1/2;
 3/5=16,7=10,11=9,16=1,25=1,30=1/1,2,3;
 4//1;
 5/5=2,38=5/2;
 8/10=1/1;
 9/16=-3/6;
 6/7=2,8=2,9=2,10=2/1;
 99/5=1,9=1/99;
 -------------------------------
 Single Point calculation at MP2
 -------------------------------
 Symbolic Z-matrix:
 Charge =  0 Multiplicity = 1
 H                    -4.216    -1.0704   -0.1747 
 C                    -3.203    -1.2622    0.1851 
 H                    -2.8277   -2.1912   -0.2554 
 H                    -3.2515   -1.3927    1.2729 
 C                    -2.333    -0.0522   -0.1365 
 O                    -2.7904    1.0846   -0.1445 
 N                    -1.0305   -0.3617   -0.4399 
 H                    -0.7284   -1.306    -0.2125 
 C                     0.0962    0.5646   -0.4061 
 H                     0.2392    1.0124   -1.4002 
 C                    -0.0387    1.6984    0.6329 
 H                    -0.1099    1.2794    1.6425 
 H                     0.8376    2.355     0.5954 
 H                    -0.9372    2.2813    0.4348 
 C                     1.338    -0.2872   -0.0573 
 O                     1.2352   -1.4262    0.392 
 N                     2.5318    0.32     -0.287 
 H                     2.5294    1.2586   -0.6605 
 C                     3.8087   -0.2961    0.0336 
 H                     3.6041   -1.3055    0.3916 
 H                     4.4486   -0.3514   -0.854 
 H                     4.3348    0.2625    0.8168 
 
                          Input orientation:                          
 ---------------------------------------------------------------------
 Center     Atomic      Atomic             Coordinates (Angstroms)
 Number     Number       Type             X           Y           Z
 ---------------------------------------------------------------------
      1          1           0       -4.216000   -1.070400   -0.174700
      2          6           0       -3.203000   -1.262200    0.185100
      3          1           0       -2.827700   -2.191200   -0.255400
      4          1           0       -3.251500   -1.392700    1.272900
      5          6           0       -2.333000   -0.052200   -0.136500
      6          8           0       -2.790400    1.084600   -0.144500
      7          7           0       -1.030500   -0.361700   -0.439900
      8          1           0       -0.728400   -1.306000   -0.212500
      9          6           0        0.096200    0.564600   -0.406100
     10          1           0        0.239200    1.012400   -1.400200
     11          6           0       -0.038700    1.698400    0.632900
     12          1           0       -0.109900    1.279400    1.642500
     13          1           0        0.837600    2.355000    0.595400
     14          1           0       -0.937200    2.281300    0.434800
     15          6           0        1.338000   -0.287200   -0.057300
     16          8           0        1.235200   -1.426200    0.392000
     17          7           0        2.531800    0.320000   -0.287000
     18          1           0        2.529400    1.258600   -0.660500
     19          6           0        3.808700   -0.296100    0.033600
     20          1           0        3.604100   -1.305500    0.391600
     21          1           0        4.448600   -0.351400   -0.854000
     22          1           0        4.334800    0.262500    0.816800
 ---------------------------------------------------------------------
                    Distance matrix (angstroms):
                    1          2          3          4          5
     1  H    0.000000
     2  C    1.091976   0.000000
     3  H    1.786080   1.094500   0.000000
     4  H    1.769091   1.096673   1.775643   0.000000
     5  C    2.141000   1.524607   2.198678   2.151044   0.000000
     6  O    2.584042   2.405482   3.277889   2.891133   1.225395
     7  N    3.274141   2.433368   2.571194   2.988225   1.372716
     8  H    3.495753   2.506721   2.278701   2.929158   2.037776
     9  C    4.617558   3.817255   4.020738   4.225773   2.520742
    10  H    5.068403   4.419923   4.580338   5.011482   3.057208
    11  C    5.076249   4.356429   4.867914   4.504063   2.986702
    12  H    5.067922   4.260401   4.799326   4.140818   3.143274
    13  H    6.153478   5.438652   5.901374   5.587933   4.047591
    14  H    4.728204   4.213382   4.904449   4.422293   2.778464
    15  C    5.610178   4.650813   4.584486   4.904597   3.679367
    16  O    5.492115   4.446046   4.184675   4.572481   3.859953
    17  N    6.890474   5.967761   5.918730   6.230023   4.881338
    18  H    7.152668   6.319010   6.384649   6.647273   5.063172
    19  C    8.064660   7.079565   6.907730   7.251539   6.148894
    20  H    7.844102   6.810369   6.524655   6.912564   6.090879
    21  H    8.720877   7.775363   7.529125   8.056026   6.826011
    22  H    8.710676   7.716358   7.646677   7.778153   6.742950
                    6          7          8          9         10
     6  O    0.000000
     7  N    2.297018   0.000000
     8  H    3.157758   1.017191   0.000000
     9  C    2.944706   1.458982   2.053434   0.000000
    10  H    3.280316   2.102966   2.778823   1.099640   0.000000
    11  C    2.924543   2.525585   3.196374   1.543769   2.163636
    12  H    3.227444   2.806618   3.241583   2.179490   3.074278
    13  H    3.914556   3.455735   4.063001   2.181332   2.478523
    14  H    2.280796   2.785544   3.651207   2.173036   2.522152
    15  C    4.351221   2.400359   2.309123   1.545733   2.167880
    16  O    4.774663   2.637919   2.058056   2.428491   3.186027
    17  N    5.378730   3.630162   3.643944   2.450747   2.640956
    18  H    5.347598   3.917515   4.170268   2.542994   2.419253
    19  C    6.744344   4.862753   4.654647   3.836248   4.063162
    20  H    6.847599   4.802257   4.374413   4.054499   4.461587
    21  H    7.414082   5.494736   5.303217   4.470241   4.458400
    22  H    7.236603   5.545752   5.399597   4.421818   4.717137
                   11         12         13         14         15
    11  C    0.000000
    12  H    1.095410   0.000000
    13  H    1.095642   1.775131   0.000000
    14  H    1.089182   1.773913   1.783575   0.000000
    15  C    2.512824   2.727631   2.767244   3.466394   0.000000
    16  O    3.382895   3.270064   3.807484   4.297291   1.228723
    17  N    3.058377   3.409105   2.791087   4.049896   1.358901
    18  H    2.908856   3.502877   2.375198   3.776627   2.042739
    19  C    4.374892   4.519534   4.021366   5.415489   2.472388
    20  H    4.727751   4.694705   4.592855   5.787090   2.524610
    21  H    5.152515   5.447196   4.739692   6.131799   3.211648
    22  H    4.606857   4.633705   4.081419   5.658221   3.169705
                   16         17         18         19         20
    16  O    0.000000
    17  N    2.278470   0.000000
    18  H    3.160832   1.010187   0.000000
    19  C    2.833457   1.453560   2.129666   0.000000
    20  H    2.371973   2.062177   2.972626   1.090373   0.000000
    21  H    3.610215   2.108646   2.512543   1.095611   1.781855
    22  H    3.555233   2.114826   2.536553   1.096457   1.781388
                   21         22
    21  H    0.000000
    22  H    1.783647   0.000000
 Stoichiometry    C6H12N2O2
 Framework group  C1[X(C6H12N2O2)]
 Deg. of freedom    60
 Full point group                 C1      NOp   1
 Largest Abelian subgroup         C1      NOp   1
 Largest concise Abelian subgroup C1      NOp   1
                         Standard orientation:                         
 ---------------------------------------------------------------------
 Center     Atomic      Atomic             Coordinates (Angstroms)
 Number     Number       Type             X           Y           Z
 ---------------------------------------------------------------------
      1          1           0       -4.215996   -1.070388   -0.174682
      2          6           0       -3.202996   -1.262188    0.185118
      3          1           0       -2.827697   -2.191188   -0.255382
      4          1           0       -3.251496   -1.392688    1.272918
      5          6           0       -2.332996   -0.052188   -0.136482
      6          8           0       -2.790396    1.084612   -0.144482
      7          7           0       -1.030496   -0.361688   -0.439882
      8          1           0       -0.728396   -1.305988   -0.212482
      9          6           0        0.096204    0.564612   -0.406082
     10          1           0        0.239204    1.012411   -1.400182
     11          6           0       -0.038696    1.698412    0.632918
     12          1           0       -0.109896    1.279412    1.642518
     13          1           0        0.837604    2.355011    0.595418
     14          1           0       -0.937196    2.281312    0.434818
     15          6           0        1.338004   -0.287189   -0.057282
     16          8           0        1.235204   -1.426189    0.392018
     17          7           0        2.531804    0.320011   -0.286982
     18          1           0        2.529404    1.258611   -0.660482
     19          6           0        3.808704   -0.296089    0.033618
     20          1           0        3.604104   -1.305489    0.391618
     21          1           0        4.448604   -0.351389   -0.853982
     22          1           0        4.334804    0.262511    0.816818
 ---------------------------------------------------------------------
 Rotational constants (GHZ):      3.0869021      0.6664861      0.5770498
 Standard basis: Aug-CC-pVDZ (5D, 7F)
 There are   338 symmetry adapted basis functions of A   symmetry.
 Integral buffers will be    131072 words long.
 Raffenetti 1 integral format.
 Two-electron integral symmetry is turned on.
   338 basis functions,   562 primitive gaussians,   358 cartesian basis functions
    39 alpha electrons       39 beta electrons
       nuclear repulsion energy       550.6311227607 Hartrees.
 NAtoms=   22 NActive=   22 NUniq=   22 SFac= 7.50D-01 NAtFMM=   80 NAOKFM=F Big=F
 One-electron integrals computed using PRISM.
 NBasis=   338 RedAO= T  NBF=   338
 NBsUse=   338 1.00D-06 NBFU=   338
 Harris functional with IExCor=  205 diagonalized for initial guess.
 ExpMin= 2.97D-02 ExpMax= 1.17D+04 ExpMxC= 4.01D+02 IAcc=3 IRadAn=         0 AccDes= 0.00D+00
 HarFok:  IExCor=  205 AccDes= 0.00D+00 IRadAn=         0 IDoV= 1
 ScaDFX=  1.000000  1.000000  1.000000  1.000000
 FoFCou: FMM=F IPFlag=           0 FMFlag=      100000 FMFlg1=           0
         NFxFlg=           0 DoJE=T BraDBF=F KetDBF=T FulRan=T
         Omega=  0.000000  0.000000  1.000000  0.000000  0.000000 ICntrl=     500 IOpCl=  0
         NMat0=    1 NMatS0=    1 NMatT0=    0 NMatD0=    1 NMtDS0=    0 NMtDT0=    0
         I1Cent=           4 NGrid=           0.
 Petite list used in FoFCou.
 Initial guess orbital symmetries:
       Occupied  (A) (A) (A) (A) (A) (A) (A) (A) (A) (A) (A) (A)
                 (A) (A) (A) (A) (A) (A) (A) (A) (A) (A) (A) (A)
                 (A) (A) (A) (A) (A) (A) (A) (A) (A) (A) (A) (A)
                 (A) (A) (A)
       Virtual   (A) (A) (A) (A) (A) (A) (A) (A) (A) (A) (A) (A)
                 (A) (A) (A) (A) (A) (A) (A) (A) (A) (A) (A) (A)
                 (A) (A) (A) (A) (A) (A) (A) (A) (A) (A) (A) (A)
                 (A) (A) (A) (A) (A) (A) (A) (A) (A) (A) (A) (A)
                 (A) (A) (A) (A) (A) (A) (A) (A) (A) (A) (A) (A)
                 (A) (A) (A) (A) (A) (A) (A) (A) (A) (A) (A) (A)
                 (A) (A) (A) (A) (A) (A) (A) (A) (A) (A) (A) (A)
                 (A) (A) (A) (A) (A) (A) (A) (A) (A) (A) (A) (A)
                 (A) (A) (A) (A) (A) (A) (A) (A) (A) (A) (A) (A)
                 (A) (A) (A) (A) (A) (A) (A) (A) (A) (A) (A) (A)
                 (A) (A) (A) (A) (A) (A) (A) (A) (A) (A) (A) (A)
                 (A) (A) (A) (A) (A) (A) (A) (A) (A) (A) (A) (A)
                 (A) (A) (A) (A) (A) (A) (A) (A) (A) (A) (A) (A)
                 (A) (A) (A) (A) (A) (A) (A) (A) (A) (A) (A) (A)
                 (A) (A) (A) (A) (A) (A) (A) (A) (A) (A) (A) (A)
                 (A) (A) (A) (A) (A) (A) (A) (A) (A) (A) (A) (A)
                 (A) (A) (A) (A) (A) (A) (A) (A) (A) (A) (A) (A)
                 (A) (A) (A) (A) (A) (A) (A) (A) (A) (A) (A) (A)
                 (A) (A) (A) (A) (A) (A) (A) (A) (A) (A) (A) (A)
                 (A) (A) (A) (A) (A) (A) (A) (A) (A) (A) (A) (A)
                 (A) (A) (A) (A) (A) (A) (A) (A) (A) (A) (A) (A)
                 (A) (A) (A) (A) (A) (A) (A) (A) (A) (A) (A) (A)
                 (A) (A) (A) (A) (A) (A) (A) (A) (A) (A) (A) (A)
                 (A) (A) (A) (A) (A) (A) (A) (A) (A) (A) (A) (A)
                 (A) (A) (A) (A) (A) (A) (A) (A) (A) (A) (A)
 The electronic state of the initial guess is 1-A.
 Requested convergence on RMS density matrix=1.00D-08 within 128 cycles.
 Requested convergence on MAX density matrix=1.00D-06.
 Requested convergence on             energy=1.00D-06.
 No special actions if energy rises.
 Initial convergence to 1.0D-05 achieved.  Increase integral accuracy.
 SCF Done:  E(RHF) =  -492.921112945     A.U. after   14 cycles
             Convg  =    0.5339D-08             -V/T =  2.0017
 ExpMin= 2.97D-02 ExpMax= 1.17D+04 ExpMxC= 4.01D+02 IAcc=3 IRadAn=         5 AccDes= 0.00D+00
 HarFok:  IExCor=  205 AccDes= 0.00D+00 IRadAn=         5 IDoV=-2
 ScaDFX=  1.000000  1.000000  1.000000  1.000000
 Range of M.O.s used for correlation:    11   338
 NBasis=   338 NAE=    39 NBE=    39 NFC=    10 NFV=     0
 NROrb=    328 NOA=    29 NOB=    29 NVA=   299 NVB=   299

 **** Warning!!: The largest alpha MO coefficient is  0.10148135D+03

 Disk-based method using OVN memory for 29 occupieds at a time.
 Estimated scratch disk usage=  1372035152 words.
 Actual    scratch disk usage=  1358879404 words.
 JobTyp=1 Pass  1:  I=   1 to  29 NPSUse=  8 ParTrn=T ParDer=T DoDerP=F.
 Spin components of T(2) and E(2):
     alpha-alpha T2 =       0.6797572475D-01 E2=     -0.2059964765D+00
     alpha-beta  T2 =       0.3761751619D+00 E2=     -0.1189819172D+01
     beta-beta   T2 =       0.6797572475D-01 E2=     -0.2059964765D+00
 ANorm=    0.1229685574D+01
 E2 =    -0.1601812125D+01 EUMP2 =    -0.49452292506996D+03

 **********************************************************************

            Population analysis using the SCF density.

 **********************************************************************

 Orbital symmetries:
       Occupied  (A) (A) (A) (A) (A) (A) (A) (A) (A) (A) (A) (A)
                 (A) (A) (A) (A) (A) (A) (A) (A) (A) (A) (A) (A)
                 (A) (A) (A) (A) (A) (A) (A) (A) (A) (A) (A) (A)
                 (A) (A) (A)
       Virtual   (A) (A) (A) (A) (A) (A) (A) (A) (A) (A) (A) (A)
                 (A) (A) (A) (A) (A) (A) (A) (A) (A) (A) (A) (A)
                 (A) (A) (A) (A) (A) (A) (A) (A) (A) (A) (A) (A)
                 (A) (A) (A) (A) (A) (A) (A) (A) (A) (A) (A) (A)
                 (A) (A) (A) (A) (A) (A) (A) (A) (A) (A) (A) (A)
                 (A) (A) (A) (A) (A) (A) (A) (A) (A) (A) (A) (A)
                 (A) (A) (A) (A) (A) (A) (A) (A) (A) (A) (A) (A)
                 (A) (A) (A) (A) (A) (A) (A) (A) (A) (A) (A) (A)
                 (A) (A) (A) (A) (A) (A) (A) (A) (A) (A) (A) (A)
                 (A) (A) (A) (A) (A) (A) (A) (A) (A) (A) (A) (A)
                 (A) (A) (A) (A) (A) (A) (A) (A) (A) (A) (A) (A)
                 (A) (A) (A) (A) (A) (A) (A) (A) (A) (A) (A) (A)
                 (A) (A) (A) (A) (A) (A) (A) (A) (A) (A) (A) (A)
                 (A) (A) (A) (A) (A) (A) (A) (A) (A) (A) (A) (A)
                 (A) (A) (A) (A) (A) (A) (A) (A) (A) (A) (A) (A)
                 (A) (A) (A) (A) (A) (A) (A) (A) (A) (A) (A) (A)
                 (A) (A) (A) (A) (A) (A) (A) (A) (A) (A) (A) (A)
                 (A) (A) (A) (A) (A) (A) (A) (A) (A) (A) (A) (A)
                 (A) (A) (A) (A) (A) (A) (A) (A) (A) (A) (A) (A)
                 (A) (A) (A) (A) (A) (A) (A) (A) (A) (A) (A) (A)
                 (A) (A) (A) (A) (A) (A) (A) (A) (A) (A) (A) (A)
                 (A) (A) (A) (A) (A) (A) (A) (A) (A) (A) (A) (A)
                 (A) (A) (A) (A) (A) (A) (A) (A) (A) (A) (A) (A)
                 (A) (A) (A) (A) (A) (A) (A) (A) (A) (A) (A) (A)
                 (A) (A) (A) (A) (A) (A) (A) (A) (A) (A) (A)
 The electronic state is 1-A.
 Alpha  occ. eigenvalues --  -20.54685 -20.52546 -15.60886 -15.58589 -11.37410
 Alpha  occ. eigenvalues --  -11.35798 -11.29942 -11.27862 -11.23969 -11.23413
 Alpha  occ. eigenvalues --   -1.40185  -1.37728  -1.24746  -1.23220  -1.05611
 Alpha  occ. eigenvalues --   -0.98813  -0.96232  -0.88819  -0.80716  -0.76689
 Alpha  occ. eigenvalues --   -0.73193  -0.67924  -0.66362  -0.64549  -0.63265
 Alpha  occ. eigenvalues --   -0.61929  -0.60061  -0.58498  -0.56580  -0.55780
 Alpha  occ. eigenvalues --   -0.55719  -0.54831  -0.52579  -0.52170  -0.49722
 Alpha  occ. eigenvalues --   -0.43885  -0.41650  -0.40969  -0.38961
 Alpha virt. eigenvalues --    0.02652   0.04145   0.04192   0.04396   0.05807
 Alpha virt. eigenvalues --    0.05976   0.06557   0.06749   0.07497   0.08033
 Alpha virt. eigenvalues --    0.09210   0.09574   0.11220   0.12074   0.12676
 Alpha virt. eigenvalues --    0.13659   0.13939   0.14234   0.14935   0.15110
 Alpha virt. eigenvalues --    0.15324   0.15998   0.16198   0.16727   0.17084
 Alpha virt. eigenvalues --    0.17667   0.18265   0.18644   0.18992   0.19102
 Alpha virt. eigenvalues --    0.20018   0.20326   0.21259   0.21734   0.22838
 Alpha virt. eigenvalues --    0.23349   0.23926   0.24671   0.25393   0.25923
 Alpha virt. eigenvalues --    0.27207   0.28472   0.28864   0.29503   0.30618
 Alpha virt. eigenvalues --    0.30908   0.31400   0.32373   0.33003   0.33651
 Alpha virt. eigenvalues --    0.33743   0.34981   0.35384   0.35820   0.36898
 Alpha virt. eigenvalues --    0.37634   0.38161   0.38280   0.38818   0.39315
 Alpha virt. eigenvalues --    0.39910   0.40675   0.41786   0.41880   0.43615
 Alpha virt. eigenvalues --    0.43657   0.44086   0.44149   0.45492   0.45825
 Alpha virt. eigenvalues --    0.46157   0.46963   0.47755   0.47983   0.48829
 Alpha virt. eigenvalues --    0.49822   0.50084   0.50971   0.51437   0.52402
 Alpha virt. eigenvalues --    0.52843   0.53196   0.54598   0.55314   0.56285
 Alpha virt. eigenvalues --    0.56567   0.56843   0.57545   0.57831   0.58842
 Alpha virt. eigenvalues --    0.59624   0.60564   0.61399   0.62454   0.62580
 Alpha virt. eigenvalues --    0.63589   0.63660   0.64853   0.65240   0.65374
 Alpha virt. eigenvalues --    0.65779   0.66146   0.67426   0.68248   0.68418
 Alpha virt. eigenvalues --    0.69057   0.69359   0.70918   0.71405   0.71986
 Alpha virt. eigenvalues --    0.72137   0.72521   0.72837   0.73802   0.74756
 Alpha virt. eigenvalues --    0.75556   0.77287   0.77483   0.78528   0.79381
 Alpha virt. eigenvalues --    0.79988   0.81480   0.82629   0.82807   0.83455
 Alpha virt. eigenvalues --    0.84133   0.84804   0.85738   0.86318   0.87898
 Alpha virt. eigenvalues --    0.88197   0.90256   0.91169   0.92959   0.93108
 Alpha virt. eigenvalues --    0.94336   0.95443   0.96872   0.97542   0.99543
 Alpha virt. eigenvalues --    1.00756   1.00995   1.02060   1.04183   1.04346
 Alpha virt. eigenvalues --    1.05602   1.06468   1.08097   1.10768   1.10871
 Alpha virt. eigenvalues --    1.11638   1.12625   1.12958   1.15091   1.16366
 Alpha virt. eigenvalues --    1.17013   1.18625   1.19251   1.20340   1.21728
 Alpha virt. eigenvalues --    1.22837   1.24600   1.25810   1.27711   1.30645
 Alpha virt. eigenvalues --    1.32368   1.33866   1.35987   1.36730   1.37673
 Alpha virt. eigenvalues --    1.40029   1.41851   1.43008   1.45116   1.48385
 Alpha virt. eigenvalues --    1.50267   1.51468   1.51994   1.53341   1.54489
 Alpha virt. eigenvalues --    1.56576   1.59047   1.59619   1.60809   1.63113
 Alpha virt. eigenvalues --    1.65314   1.67358   1.70613   1.70761   1.73058
 Alpha virt. eigenvalues --    1.73765   1.75130   1.77897   1.78406   1.78662
 Alpha virt. eigenvalues --    1.81765   1.83263   1.83902   1.86464   1.87757
 Alpha virt. eigenvalues --    1.89028   1.89740   1.90553   1.92124   1.93362
 Alpha virt. eigenvalues --    1.95246   1.96218   1.97853   1.99343   1.99599
 Alpha virt. eigenvalues --    2.01167   2.03288   2.05800   2.06193   2.07304
 Alpha virt. eigenvalues --    2.08884   2.10927   2.12328   2.14660   2.14982
 Alpha virt. eigenvalues --    2.17749   2.18855   2.20306   2.21708   2.23489
 Alpha virt. eigenvalues --    2.23940   2.25383   2.27612   2.28156   2.29314
 Alpha virt. eigenvalues --    2.30854   2.31381   2.32591   2.34742   2.36286
 Alpha virt. eigenvalues --    2.37151   2.39458   2.41669   2.43056   2.44863
 Alpha virt. eigenvalues --    2.45607   2.46417   2.49007   2.51604   2.51854
 Alpha virt. eigenvalues --    2.52937   2.54298   2.58145   2.59162   2.60919
 Alpha virt. eigenvalues --    2.61584   2.62622   2.63248   2.68307   2.69599
 Alpha virt. eigenvalues --    2.72301   2.72704   2.74580   2.77441   2.78942
 Alpha virt. eigenvalues --    2.80503   2.83727   2.84823   2.87027   2.88510
 Alpha virt. eigenvalues --    2.90204   2.92088   2.94682   2.96346   2.98263
 Alpha virt. eigenvalues --    3.00668   3.00946   3.03657   3.04044   3.08174
 Alpha virt. eigenvalues --    3.09771   3.13520   3.15295   3.17307   3.25937
 Alpha virt. eigenvalues --    3.27925   3.33554   3.43975   3.48197   3.50332
 Alpha virt. eigenvalues --    3.60482   3.66103   3.76755   3.83601   3.83989
 Alpha virt. eigenvalues --    3.84443   3.87223   3.95328   4.00011   4.05011
 Alpha virt. eigenvalues --    4.07016   4.10493   4.20018   4.22237
          Condensed to atoms (all electrons):
              1          2          3          4          5          6
     1  H    0.796471   0.376688  -0.107674  -0.055262  -0.057583   0.027579
     2  C    0.376688   4.525354   0.351305   0.347532   0.189765  -0.017103
     3  H   -0.107674   0.351305   0.970079  -0.056623   0.053878  -0.003537
     4  H   -0.055262   0.347532  -0.056623   0.731565  -0.062434   0.012523
     5  C   -0.057583   0.189765   0.053878  -0.062434   5.228776   0.192969
     6  O    0.027579  -0.017103  -0.003537   0.012523   0.192969   8.724451
     7  N    0.053096  -0.037907  -0.132959   0.019573   0.222195  -0.154269
     8  H   -0.005833  -0.075046   0.019854  -0.007848  -0.076345   0.001048
     9  C   -0.018399   0.054654   0.006273   0.014632  -0.339634   0.135788
    10  H   -0.002748   0.003728   0.003748  -0.000002   0.041889   0.010857
    11  C    0.007475  -0.028262  -0.005453  -0.006621   0.017399  -0.036753
    12  H   -0.000086   0.007887   0.002084  -0.001306   0.019195   0.009008
    13  H   -0.000024  -0.004121  -0.001268   0.000114  -0.053146   0.005424
    14  H    0.000639   0.002626   0.001328  -0.000580   0.044837  -0.031827
    15  C    0.003240  -0.030592  -0.031537   0.007995  -0.025516  -0.034227
    16  O   -0.000225   0.003316   0.004496  -0.000150  -0.011715   0.000835
    17  N   -0.000185   0.001437   0.001632  -0.000066   0.002935   0.001525
    18  H   -0.000015  -0.001340  -0.000216  -0.000132   0.003529  -0.000243
    19  C   -0.000001   0.001165   0.000042   0.000144  -0.001663   0.000242
    20  H    0.000023   0.000242  -0.000110   0.000099  -0.000737  -0.000053
    21  H    0.000006   0.000094   0.000003  -0.000006  -0.000339   0.000044
    22  H    0.000001   0.000087   0.000012   0.000019   0.000908  -0.000039
              7          8          9         10         11         12
     1  H    0.053096  -0.005833  -0.018399  -0.002748   0.007475  -0.000086
     2  C   -0.037907  -0.075046   0.054654   0.003728  -0.028262   0.007887
     3  H   -0.132959   0.019854   0.006273   0.003748  -0.005453   0.002084
     4  H    0.019573  -0.007848   0.014632  -0.000002  -0.006621  -0.001306
     5  C    0.222195  -0.076345  -0.339634   0.041889   0.017399   0.019195
     6  O   -0.154269   0.001048   0.135788   0.010857  -0.036753   0.009008
     7  N    7.527316   0.285933  -0.504234  -0.225211   0.105755  -0.089007
     8  H    0.285933   0.887957   0.029313   0.014858   0.000603   0.001627
     9  C   -0.504234   0.029313   7.870901   0.216362  -0.086294   0.164859
    10  H   -0.225211   0.014858   0.216362   1.275662   0.028233   0.081749
    11  C    0.105755   0.000603  -0.086294   0.028233   4.338741   0.274159
    12  H   -0.089007   0.001627   0.164859   0.081749   0.274159   1.044503
    13  H    0.051406   0.005749  -0.180726  -0.067465   0.290096  -0.144264
    14  H    0.044835  -0.011593  -0.162055  -0.026396   0.409053  -0.174925
    15  C    0.330174  -0.127569  -1.083479  -0.213975   0.031815  -0.196943
    16  O   -0.076983   0.064817   0.111654  -0.004080  -0.000171   0.017670
    17  N   -0.052276   0.002926   0.173496  -0.006000   0.007503   0.009565
    18  H    0.006122   0.004243  -0.096681   0.026237  -0.016472   0.005284
    19  C   -0.004372  -0.009185  -0.007175  -0.001419  -0.005839  -0.009276
    20  H   -0.001769  -0.000904   0.022404   0.001931  -0.011649  -0.003069
    21  H    0.000669  -0.000959  -0.013620  -0.002425  -0.000358   0.000368
    22  H    0.002314   0.000178  -0.018935  -0.002552   0.015481  -0.000337
             13         14         15         16         17         18
     1  H   -0.000024   0.000639   0.003240  -0.000225  -0.000185  -0.000015
     2  C   -0.004121   0.002626  -0.030592   0.003316   0.001437  -0.001340
     3  H   -0.001268   0.001328  -0.031537   0.004496   0.001632  -0.000216
     4  H    0.000114  -0.000580   0.007995  -0.000150  -0.000066  -0.000132
     5  C   -0.053146   0.044837  -0.025516  -0.011715   0.002935   0.003529
     6  O    0.005424  -0.031827  -0.034227   0.000835   0.001525  -0.000243
     7  N    0.051406   0.044835   0.330174  -0.076983  -0.052276   0.006122
     8  H    0.005749  -0.011593  -0.127569   0.064817   0.002926   0.004243
     9  C   -0.180726  -0.162055  -1.083479   0.111654   0.173496  -0.096681
    10  H   -0.067465  -0.026396  -0.213975  -0.004080  -0.006000   0.026237
    11  C    0.290096   0.409053   0.031815  -0.000171   0.007503  -0.016472
    12  H   -0.144264  -0.174925  -0.196943   0.017670   0.009565   0.005284
    13  H    1.377484  -0.244382   0.187345  -0.012646  -0.081746   0.001869
    14  H   -0.244382   1.019901   0.058127  -0.000535   0.028098  -0.002305
    15  C    0.187345   0.058127   5.769452   0.204298  -0.052714   0.028480
    16  O   -0.012646  -0.000535   0.204298   8.741700  -0.183660   0.007580
    17  N   -0.081746   0.028098  -0.052714  -0.183660   7.285684   0.224141
    18  H    0.001869  -0.002305   0.028480   0.007580   0.224141   1.031492
    19  C   -0.006556   0.006717  -0.123495  -0.000923   0.286930  -0.118028
    20  H    0.002623  -0.000084  -0.012088   0.001995  -0.033394  -0.003526
    21  H   -0.001200  -0.000030   0.007915   0.007494  -0.090468   0.013607
    22  H   -0.000509   0.001493  -0.021717   0.011076  -0.008533   0.002195
             19         20         21         22
     1  H   -0.000001   0.000023   0.000006   0.000001
     2  C    0.001165   0.000242   0.000094   0.000087
     3  H    0.000042  -0.000110   0.000003   0.000012
     4  H    0.000144   0.000099  -0.000006   0.000019
     5  C   -0.001663  -0.000737  -0.000339   0.000908
     6  O    0.000242  -0.000053   0.000044  -0.000039
     7  N   -0.004372  -0.001769   0.000669   0.002314
     8  H   -0.009185  -0.000904  -0.000959   0.000178
     9  C   -0.007175   0.022404  -0.013620  -0.018935
    10  H   -0.001419   0.001931  -0.002425  -0.002552
    11  C   -0.005839  -0.011649  -0.000358   0.015481
    12  H   -0.009276  -0.003069   0.000368  -0.000337
    13  H   -0.006556   0.002623  -0.001200  -0.000509
    14  H    0.006717  -0.000084  -0.000030   0.001493
    15  C   -0.123495  -0.012088   0.007915  -0.021717
    16  O   -0.000923   0.001995   0.007494   0.011076
    17  N    0.286930  -0.033394  -0.090468  -0.008533
    18  H   -0.118028  -0.003526   0.013607   0.002195
    19  C    4.117410   0.470052   0.367163   0.321587
    20  H    0.470052   0.942572  -0.120795  -0.115259
    21  H    0.367163  -0.120795   1.070780  -0.139996
    22  H    0.321587  -0.115259  -0.139996   1.047965
 Mulliken atomic charges:
              1
     1  H   -0.017183
     2  C    0.328490
     3  H   -0.075356
     4  H    0.056836
     5  C    0.610836
     6  O   -0.844239
     7  N   -0.370399
     8  H   -0.003826
     9  C   -0.289105
    10  H   -0.152978
    11  C    0.671558
    12  H   -0.018743
    13  H   -0.124056
    14  H    0.037058
    15  C    1.325009
    16  O   -0.885841
    17  N   -0.516830
    18  H   -0.115821
    19  C    0.716479
    20  H   -0.138504
    21  H   -0.097946
    22  H   -0.095438
 Sum of Mulliken atomic charges =   0.00000
 Mulliken charges with hydrogens summed into heavy atoms:
              1
     2  C    0.292787
     5  C    0.610836
     6  O   -0.844239
     7  N   -0.374225
     9  C   -0.442083
    11  C    0.565817
    15  C    1.325009
    16  O   -0.885841
    17  N   -0.632652
    19  C    0.384591
 Sum of Mulliken charges with hydrogens summed into heavy atoms =   0.00000
 Electronic spatial extent (au):  <R**2>=           1975.2697
 Charge=              0.0000 electrons
 Dipole moment (field-independent basis, Debye):
    X=              3.6869    Y=              0.2662    Z=             -0.5920  Tot=              3.7436
 Quadrupole moment (field-independent basis, Debye-Ang):
   XX=            -57.8984   YY=            -64.0507   ZZ=            -61.3162
   XY=             14.3447   XZ=             -3.5033   YZ=              0.4167
 Traceless Quadrupole moment (field-independent basis, Debye-Ang):
   XX=              3.1900   YY=             -2.9623   ZZ=             -0.2277
   XY=             14.3447   XZ=             -3.5033   YZ=              0.4167
 Octapole moment (field-independent basis, Debye-Ang**2):
  XXX=             56.3845  YYY=              2.8249  ZZZ=              1.1391  XYY=              4.7514
  XXY=            -24.0142  XXZ=             -0.0973  XZZ=              0.1600  YZZ=              1.4807
  YYZ=             -3.8213  XYZ=             -1.2554
 Hexadecapole moment (field-independent basis, Debye-Ang**3):
 XXXX=          -1906.4399 YYYY=           -449.4632 ZZZZ=           -132.0068 XXXY=             85.2546
 XXXZ=             -9.1435 YYYX=             18.8793 YYYZ=             -0.6063 ZZZX=             -5.1882
 ZZZY=             -5.8648 XXYY=           -421.7256 XXZZ=           -352.2205 YYZZ=            -98.1176
 XXYZ=             -2.9384 YYXZ=             -6.8146 ZZXY=              1.5145
 N-N= 5.506311227607D+02 E-N=-2.256452334594D+03  KE= 4.920775482942D+02
 1\1\GINC-NODE012\SP\RMP2-FC\Aug-CC-pVDZ\C6H12N2O2\MANAGER\12-Feb-2017\
 0\\#SP MP2/aug-cc-pVDZ\\Single Point calculation at MP2\\0,1\H,0,-4.21
 6,-1.0704,-0.1747\C,0,-3.203,-1.2622,0.1851\H,0,-2.8277,-2.1912,-0.255
 4\H,0,-3.2515,-1.3927,1.2729\C,0,-2.333,-0.0522,-0.1365\O,0,-2.7904,1.
 0846,-0.1445\N,0,-1.0305,-0.3617,-0.4399\H,0,-0.7284,-1.306,-0.2125\C,
 0,0.0962,0.5646,-0.4061\H,0,0.2392,1.0124,-1.4002\C,0,-0.0387,1.6984,0
 .6329\H,0,-0.1099,1.2794,1.6425\H,0,0.8376,2.355,0.5954\H,0,-0.9372,2.
 2813,0.4348\C,0,1.338,-0.2872,-0.0573\O,0,1.2352,-1.4262,0.392\N,0,2.5
 318,0.32,-0.287\H,0,2.5294,1.2586,-0.6605\C,0,3.8087,-0.2961,0.0336\H,
 0,3.6041,-1.3055,0.3916\H,0,4.4486,-0.3514,-0.854\H,0,4.3348,0.2625,0.
 8168\\Version=EM64L-G09RevA.02\State=1-A\HF=-492.9211129\MP2=-494.5229
 251\RMSD=5.339e-09\PG=C01 [X(C6H12N2O2)]\\@


 HO!  SUCH BUGS AND GOBLINS IN MY LIFE!

                            -- HAMLET, ACT 5, SCENE 2
 Job cpu time:  0 days  9 hours 57 minutes 20.5 seconds.
 File lengths (MBytes):  RWF=  10484 Int=      0 D2E=      0 Chk=      7 Scr=      2
 Normal termination of Gaussian 09 at Sun Feb 12 21:16:41 2017.
