 Entering Gaussian System, Link 0=g09
 Initial command:
 /home/steboss/Software/g09/l1.exe /home/steboss/projects/phi_psi_scan/alanine/MP2/240/5441/Gau-6758.inp -scrdir=/home/steboss/projects/phi_psi_scan/alanine/MP2/240/5441/
 Entering Link 1 = /home/steboss/Software/g09/l1.exe PID=      6761.
  
 Copyright (c) 1988,1990,1992,1993,1995,1998,2003,2009, Gaussian, Inc.
                  All Rights Reserved.
  
 This is part of the Gaussian(R) 09 program.  It is based on
 the Gaussian(R) 03 system (copyright 2003, Gaussian, Inc.),
 the Gaussian(R) 98 system (copyright 1998, Gaussian, Inc.),
 the Gaussian(R) 94 system (copyright 1995, Gaussian, Inc.),
 the Gaussian 92(TM) system (copyright 1992, Gaussian, Inc.),
 the Gaussian 90(TM) system (copyright 1990, Gaussian, Inc.),
 the Gaussian 88(TM) system (copyright 1988, Gaussian, Inc.),
 the Gaussian 86(TM) system (copyright 1986, Carnegie Mellon
 University), and the Gaussian 82(TM) system (copyright 1983,
 Carnegie Mellon University). Gaussian is a federally registered
 trademark of Gaussian, Inc.
  
 This software contains proprietary and confidential information,
 including trade secrets, belonging to Gaussian, Inc.
  
 This software is provided under written license and may be
 used, copied, transmitted, or stored only in accord with that
 written license.
  
 The following legend is applicable only to US Government
 contracts under FAR:
  
                    RESTRICTED RIGHTS LEGEND
  
 Use, reproduction and disclosure by the US Government is
 subject to restrictions as set forth in subparagraphs (a)
 and (c) of the Commercial Computer Software - Restricted
 Rights clause in FAR 52.227-19.
  
 Gaussian, Inc.
 340 Quinnipiac St., Bldg. 40, Wallingford CT 06492
  
  
 ---------------------------------------------------------------
 Warning -- This program may not be used in any manner that
 competes with the business of Gaussian, Inc. or will provide
 assistance to any competitor of Gaussian, Inc.  The licensee
 of this program is prohibited from giving any competitor of
 Gaussian, Inc. access to this program.  By using this program,
 the user acknowledges that Gaussian, Inc. is engaged in the
 business of creating and licensing software in the field of
 computational chemistry and represents and warrants to the
 licensee that it is not a competitor of Gaussian, Inc. and that
 it will not use this program in any manner prohibited above.
 ---------------------------------------------------------------
  

 Cite this work as:
 Gaussian 09, Revision A.02,
 M. J. Frisch, G. W. Trucks, H. B. Schlegel, G. E. Scuseria, 
 M. A. Robb, J. R. Cheeseman, G. Scalmani, V. Barone, B. Mennucci, 
 G. A. Petersson, H. Nakatsuji, M. Caricato, X. Li, H. P. Hratchian, 
 A. F. Izmaylov, J. Bloino, G. Zheng, J. L. Sonnenberg, M. Hada, 
 M. Ehara, K. Toyota, R. Fukuda, J. Hasegawa, M. Ishida, T. Nakajima, 
 Y. Honda, O. Kitao, H. Nakai, T. Vreven, J. A. Montgomery, Jr., 
 J. E. Peralta, F. Ogliaro, M. Bearpark, J. J. Heyd, E. Brothers, 
 K. N. Kudin, V. N. Staroverov, R. Kobayashi, J. Normand, 
 K. Raghavachari, A. Rendell, J. C. Burant, S. S. Iyengar, J. Tomasi, 
 M. Cossi, N. Rega, J. M. Millam, M. Klene, J. E. Knox, J. B. Cross, 
 V. Bakken, C. Adamo, J. Jaramillo, R. Gomperts, R. E. Stratmann, 
 O. Yazyev, A. J. Austin, R. Cammi, C. Pomelli, J. W. Ochterski, 
 R. L. Martin, K. Morokuma, V. G. Zakrzewski, G. A. Voth, 
 P. Salvador, J. J. Dannenberg, S. Dapprich, A. D. Daniels, 
 O. Farkas, J. B. Foresman, J. V. Ortiz, J. Cioslowski, 
 and D. J. Fox, Gaussian, Inc., Wallingford CT, 2009.
 
 ******************************************
 Gaussian 09:  EM64L-G09RevA.02 11-Jun-2009
                13-Feb-2017 
 ******************************************
 %chk=structure_60.chk
 %NProcShared=8
 Will use up to    8 processors via shared memory.
 -------------------
 #SP MP2/aug-cc-pVDZ
 -------------------
 1/38=1/1;
 2/12=2,17=6,18=5,40=1/2;
 3/5=16,7=10,11=9,16=1,25=1,30=1/1,2,3;
 4//1;
 5/5=2,38=5/2;
 8/10=1/1;
 9/16=-3/6;
 6/7=2,8=2,9=2,10=2/1;
 99/5=1,9=1/99;
 -------------------------------
 Single Point calculation at MP2
 -------------------------------
 Symbolic Z-matrix:
 Charge =  0 Multiplicity = 1
 H                     3.4599   -1.7697   -0.7026 
 C                     3.1676   -0.7269   -0.8498 
 H                     2.9259   -0.5646   -1.905 
 H                     4.0307   -0.1044   -0.589 
 C                     2.0228   -0.399     0.0957 
 O                     2.0329   -0.7412    1.2738 
 N                     0.9738    0.2854   -0.4602 
 H                     1.0485    0.5873   -1.4227 
 C                    -0.0803    0.9011    0.3481 
 H                     0.1571    0.6196    1.3793 
 C                    -0.091     2.4216    0.2034 
 H                    -0.3022    2.7169   -0.8297 
 H                    -0.8763    2.8558    0.8277 
 H                     0.8757    2.8354    0.5065 
 C                    -1.4543    0.2939   -0.0198 
 O                    -2.379     0.9703   -0.4546 
 N                    -1.5256   -1.0519    0.186 
 H                    -0.7083   -1.5176    0.5579 
 C                    -2.7144   -1.8333   -0.099 
 H                    -3.4772   -1.1448   -0.4655 
 H                    -2.5189   -2.5931   -0.8657 
 H                    -3.0859   -2.3326    0.8037 
 
                          Input orientation:                          
 ---------------------------------------------------------------------
 Center     Atomic      Atomic             Coordinates (Angstroms)
 Number     Number       Type             X           Y           Z
 ---------------------------------------------------------------------
      1          1           0        3.459900   -1.769700   -0.702600
      2          6           0        3.167600   -0.726900   -0.849800
      3          1           0        2.925900   -0.564600   -1.905000
      4          1           0        4.030700   -0.104400   -0.589000
      5          6           0        2.022800   -0.399000    0.095700
      6          8           0        2.032900   -0.741200    1.273800
      7          7           0        0.973800    0.285400   -0.460200
      8          1           0        1.048500    0.587300   -1.422700
      9          6           0       -0.080300    0.901100    0.348100
     10          1           0        0.157100    0.619600    1.379300
     11          6           0       -0.091000    2.421600    0.203400
     12          1           0       -0.302200    2.716900   -0.829700
     13          1           0       -0.876300    2.855800    0.827700
     14          1           0        0.875700    2.835400    0.506500
     15          6           0       -1.454300    0.293900   -0.019800
     16          8           0       -2.379000    0.970300   -0.454600
     17          7           0       -1.525600   -1.051900    0.186000
     18          1           0       -0.708300   -1.517600    0.557900
     19          6           0       -2.714400   -1.833300   -0.099000
     20          1           0       -3.477200   -1.144800   -0.465500
     21          1           0       -2.518900   -2.593100   -0.865700
     22          1           0       -3.085900   -2.332600    0.803700
 ---------------------------------------------------------------------
                    Distance matrix (angstroms):
                    1          2          3          4          5
     1  H    0.000000
     2  C    1.092950   0.000000
     3  H    1.784149   1.094627   0.000000
     4  H    1.764070   1.095657   1.778826   0.000000
     5  C    2.140411   1.520545   2.201321   2.141790   0.000000
     6  O    2.645808   2.407784   3.306570   2.804771   1.226834
     7  N    3.234639   2.447304   2.573061   3.084343   1.370339
     8  H    3.448020   2.558500   2.254799   3.172857   2.056110
     9  C    4.557429   3.825468   4.032614   4.334687   2.485356
    10  H    4.577286   3.980585   4.455918   4.404902   2.483145
    11  C    5.567470   4.651963   4.739665   4.898672   3.526405
    12  H    5.856546   4.888729   4.727065   5.176069   3.996351
    13  H    6.522246   5.657108   5.798578   5.903259   4.419766
    14  H    5.417283   4.447734   4.645283   4.449334   3.456290
    15  C    5.373455   4.805506   4.845323   5.528821   3.547348
    16  O    6.454600   5.813901   5.709776   6.500561   4.642591
    17  N    5.114690   4.817119   4.942226   5.689539   3.609096
    18  H    4.361915   4.198741   4.492382   5.076479   2.987273
    19  C    6.204060   6.032060   6.056750   6.980370   4.953402
    20  H    6.969223   6.669010   6.588511   7.580649   5.578635
    21  H    6.037436   5.984918   5.902610   7.011951   5.134725
    22  H    6.740422   6.664728   6.826758   7.586204   5.508075
                    6          7          8          9         10
     6  O    0.000000
     7  N    2.276479   0.000000
     8  H    3.163079   1.011499   0.000000
     9  C    2.831905   1.464091   2.123298   0.000000
    10  H    2.319813   2.040208   2.940551   1.094977   0.000000
    11  C    3.957273   2.477401   2.703205   1.527407   2.165987
    12  H    4.672886   2.770722   2.590605   2.175680   3.080472
    13  H    4.647672   3.418847   3.730315   2.164367   2.524434
    14  H    3.836656   2.728852   2.967428   2.163456   2.487556
    15  C    3.860751   2.467731   2.884132   1.546583   2.158743
    16  O    5.038002   3.422044   3.582131   2.435803   3.149283
    17  N    3.734001   2.907395   3.449766   2.435031   2.655062
    18  H    2.937599   2.667733   3.382266   2.507690   2.447701
    19  C    5.061039   4.268744   4.665930   3.822999   4.055564
    20  H    5.792172   4.675136   4.939470   4.048034   4.441231
    21  H    5.359653   4.544133   4.811604   4.430521   4.745782
    22  H    5.381046   4.993249   5.529551   4.438245   4.423104
                   11         12         13         14         15
    11  C    0.000000
    12  H    1.095036   0.000000
    13  H    1.093150   1.759505   0.000000
    14  H    1.094353   1.785195   1.781317   0.000000
    15  C    2.536831   2.802535   2.759651   3.487852   0.000000
    16  O    2.788222   2.739418   2.730844   3.872387   1.225413
    17  N    3.758135   4.090502   4.012915   4.580400   1.363310
    18  H    4.003002   4.474521   4.384934   4.632527   2.042495
    19  C    5.007779   5.201630   5.121039   5.920491   2.473682
    20  H    4.963163   5.012584   4.943870   5.977835   2.522029
    21  H    5.673173   5.754229   5.937697   6.547889   3.191189
    22  H    5.650859   5.992865   5.639362   6.518499   3.199808
                   16         17         18         19         20
    16  O    0.000000
    17  N    2.286472   0.000000
    18  H    3.163233   1.011516   0.000000
    19  C    2.845895   1.450881   2.134390   0.000000
    20  H    2.383235   2.059569   2.975422   1.090971   0.000000
    21  H    3.589762   2.113768   2.541970   1.096971   1.782154
    22  H    3.604466   2.110991   2.525396   1.096440   1.781812
                   21         22
    21  H    0.000000
    22  H    1.782202   0.000000
 Stoichiometry    C6H12N2O2
 Framework group  C1[X(C6H12N2O2)]
 Deg. of freedom    60
 Full point group                 C1      NOp   1
 Largest Abelian subgroup         C1      NOp   1
 Largest concise Abelian subgroup C1      NOp   1
                         Standard orientation:                         
 ---------------------------------------------------------------------
 Center     Atomic      Atomic             Coordinates (Angstroms)
 Number     Number       Type             X           Y           Z
 ---------------------------------------------------------------------
      1          1           0        3.459906   -1.769688   -0.702609
      2          6           0        3.167602   -0.726888   -0.849809
      3          1           0        2.925902   -0.564589   -1.905009
      4          1           0        4.030700   -0.104386   -0.589009
      5          6           0        2.022801   -0.398992    0.095691
      6          8           0        2.032902   -0.741192    1.273791
      7          7           0        0.973799    0.285404   -0.460209
      8          1           0        1.048498    0.587305   -1.422709
      9          6           0       -0.080303    0.901101    0.348091
     10          1           0        0.157098    0.619602    1.379291
     11          6           0       -0.091008    2.421601    0.203391
     12          1           0       -0.302209    2.716900   -0.829709
     13          1           0       -0.876309    2.855798    0.827691
     14          1           0        0.875691    2.835404    0.506491
     15          6           0       -1.454301    0.293897   -0.019809
     16          8           0       -2.379003    0.970294   -0.454609
     17          7           0       -1.525597   -1.051904    0.185991
     18          1           0       -0.708295   -1.517601    0.557891
     19          6           0       -2.714394   -1.833307   -0.099009
     20          1           0       -3.477196   -1.144810   -0.465509
     21          1           0       -2.518892   -2.593107   -0.865709
     22          1           0       -3.085892   -2.332609    0.803691
 ---------------------------------------------------------------------
 Rotational constants (GHZ):      1.8780234      0.8281363      0.6572783
 Standard basis: Aug-CC-pVDZ (5D, 7F)
 There are   338 symmetry adapted basis functions of A   symmetry.
 Integral buffers will be    131072 words long.
 Raffenetti 1 integral format.
 Two-electron integral symmetry is turned on.
   338 basis functions,   562 primitive gaussians,   358 cartesian basis functions
    39 alpha electrons       39 beta electrons
       nuclear repulsion energy       552.4252503773 Hartrees.
 NAtoms=   22 NActive=   22 NUniq=   22 SFac= 7.50D-01 NAtFMM=   80 NAOKFM=F Big=F
 One-electron integrals computed using PRISM.
 NBasis=   338 RedAO= T  NBF=   338
 NBsUse=   338 1.00D-06 NBFU=   338
 Harris functional with IExCor=  205 diagonalized for initial guess.
 ExpMin= 2.97D-02 ExpMax= 1.17D+04 ExpMxC= 4.01D+02 IAcc=3 IRadAn=         0 AccDes= 0.00D+00
 HarFok:  IExCor=  205 AccDes= 0.00D+00 IRadAn=         0 IDoV= 1
 ScaDFX=  1.000000  1.000000  1.000000  1.000000
 FoFCou: FMM=F IPFlag=           0 FMFlag=      100000 FMFlg1=           0
         NFxFlg=           0 DoJE=T BraDBF=F KetDBF=T FulRan=T
         Omega=  0.000000  0.000000  1.000000  0.000000  0.000000 ICntrl=     500 IOpCl=  0
         NMat0=    1 NMatS0=    1 NMatT0=    0 NMatD0=    1 NMtDS0=    0 NMtDT0=    0
         I1Cent=           4 NGrid=           0.
 Petite list used in FoFCou.
 Initial guess orbital symmetries:
       Occupied  (A) (A) (A) (A) (A) (A) (A) (A) (A) (A) (A) (A)
                 (A) (A) (A) (A) (A) (A) (A) (A) (A) (A) (A) (A)
                 (A) (A) (A) (A) (A) (A) (A) (A) (A) (A) (A) (A)
                 (A) (A) (A)
       Virtual   (A) (A) (A) (A) (A) (A) (A) (A) (A) (A) (A) (A)
                 (A) (A) (A) (A) (A) (A) (A) (A) (A) (A) (A) (A)
                 (A) (A) (A) (A) (A) (A) (A) (A) (A) (A) (A) (A)
                 (A) (A) (A) (A) (A) (A) (A) (A) (A) (A) (A) (A)
                 (A) (A) (A) (A) (A) (A) (A) (A) (A) (A) (A) (A)
                 (A) (A) (A) (A) (A) (A) (A) (A) (A) (A) (A) (A)
                 (A) (A) (A) (A) (A) (A) (A) (A) (A) (A) (A) (A)
                 (A) (A) (A) (A) (A) (A) (A) (A) (A) (A) (A) (A)
                 (A) (A) (A) (A) (A) (A) (A) (A) (A) (A) (A) (A)
                 (A) (A) (A) (A) (A) (A) (A) (A) (A) (A) (A) (A)
                 (A) (A) (A) (A) (A) (A) (A) (A) (A) (A) (A) (A)
                 (A) (A) (A) (A) (A) (A) (A) (A) (A) (A) (A) (A)
                 (A) (A) (A) (A) (A) (A) (A) (A) (A) (A) (A) (A)
                 (A) (A) (A) (A) (A) (A) (A) (A) (A) (A) (A) (A)
                 (A) (A) (A) (A) (A) (A) (A) (A) (A) (A) (A) (A)
                 (A) (A) (A) (A) (A) (A) (A) (A) (A) (A) (A) (A)
                 (A) (A) (A) (A) (A) (A) (A) (A) (A) (A) (A) (A)
                 (A) (A) (A) (A) (A) (A) (A) (A) (A) (A) (A) (A)
                 (A) (A) (A) (A) (A) (A) (A) (A) (A) (A) (A) (A)
                 (A) (A) (A) (A) (A) (A) (A) (A) (A) (A) (A) (A)
                 (A) (A) (A) (A) (A) (A) (A) (A) (A) (A) (A) (A)
                 (A) (A) (A) (A) (A) (A) (A) (A) (A) (A) (A) (A)
                 (A) (A) (A) (A) (A) (A) (A) (A) (A) (A) (A) (A)
                 (A) (A) (A) (A) (A) (A) (A) (A) (A) (A) (A) (A)
                 (A) (A) (A) (A) (A) (A) (A) (A) (A) (A) (A)
 The electronic state of the initial guess is 1-A.
 Requested convergence on RMS density matrix=1.00D-08 within 128 cycles.
 Requested convergence on MAX density matrix=1.00D-06.
 Requested convergence on             energy=1.00D-06.
 No special actions if energy rises.
 Initial convergence to 1.0D-05 achieved.  Increase integral accuracy.
 SCF Done:  E(RHF) =  -492.925413689     A.U. after   14 cycles
             Convg  =    0.7321D-08             -V/T =  2.0017
 ExpMin= 2.97D-02 ExpMax= 1.17D+04 ExpMxC= 4.01D+02 IAcc=3 IRadAn=         5 AccDes= 0.00D+00
 HarFok:  IExCor=  205 AccDes= 0.00D+00 IRadAn=         5 IDoV=-2
 ScaDFX=  1.000000  1.000000  1.000000  1.000000
 Range of M.O.s used for correlation:    11   338
 NBasis=   338 NAE=    39 NBE=    39 NFC=    10 NFV=     0
 NROrb=    328 NOA=    29 NOB=    29 NVA=   299 NVB=   299

 **** Warning!!: The largest alpha MO coefficient is  0.65986972D+02

 Disk-based method using OVN memory for 29 occupieds at a time.
 Estimated scratch disk usage=  1379648248 words.
 Actual    scratch disk usage=  1366501774 words.
 JobTyp=1 Pass  1:  I=   1 to  29 NPSUse=  8 ParTrn=T ParDer=T DoDerP=F.
 Spin components of T(2) and E(2):
     alpha-alpha T2 =       0.6788418148D-01 E2=     -0.2057133679D+00
     alpha-beta  T2 =       0.3762388923D+00 E2=     -0.1189532673D+01
     beta-beta   T2 =       0.6788418148D-01 E2=     -0.2057133679D+00
 ANorm=    0.1229637042D+01
 E2 =    -0.1600959409D+01 EUMP2 =    -0.49452637309795D+03

 **********************************************************************

            Population analysis using the SCF density.

 **********************************************************************

 Orbital symmetries:
       Occupied  (A) (A) (A) (A) (A) (A) (A) (A) (A) (A) (A) (A)
                 (A) (A) (A) (A) (A) (A) (A) (A) (A) (A) (A) (A)
                 (A) (A) (A) (A) (A) (A) (A) (A) (A) (A) (A) (A)
                 (A) (A) (A)
       Virtual   (A) (A) (A) (A) (A) (A) (A) (A) (A) (A) (A) (A)
                 (A) (A) (A) (A) (A) (A) (A) (A) (A) (A) (A) (A)
                 (A) (A) (A) (A) (A) (A) (A) (A) (A) (A) (A) (A)
                 (A) (A) (A) (A) (A) (A) (A) (A) (A) (A) (A) (A)
                 (A) (A) (A) (A) (A) (A) (A) (A) (A) (A) (A) (A)
                 (A) (A) (A) (A) (A) (A) (A) (A) (A) (A) (A) (A)
                 (A) (A) (A) (A) (A) (A) (A) (A) (A) (A) (A) (A)
                 (A) (A) (A) (A) (A) (A) (A) (A) (A) (A) (A) (A)
                 (A) (A) (A) (A) (A) (A) (A) (A) (A) (A) (A) (A)
                 (A) (A) (A) (A) (A) (A) (A) (A) (A) (A) (A) (A)
                 (A) (A) (A) (A) (A) (A) (A) (A) (A) (A) (A) (A)
                 (A) (A) (A) (A) (A) (A) (A) (A) (A) (A) (A) (A)
                 (A) (A) (A) (A) (A) (A) (A) (A) (A) (A) (A) (A)
                 (A) (A) (A) (A) (A) (A) (A) (A) (A) (A) (A) (A)
                 (A) (A) (A) (A) (A) (A) (A) (A) (A) (A) (A) (A)
                 (A) (A) (A) (A) (A) (A) (A) (A) (A) (A) (A) (A)
                 (A) (A) (A) (A) (A) (A) (A) (A) (A) (A) (A) (A)
                 (A) (A) (A) (A) (A) (A) (A) (A) (A) (A) (A) (A)
                 (A) (A) (A) (A) (A) (A) (A) (A) (A) (A) (A) (A)
                 (A) (A) (A) (A) (A) (A) (A) (A) (A) (A) (A) (A)
                 (A) (A) (A) (A) (A) (A) (A) (A) (A) (A) (A) (A)
                 (A) (A) (A) (A) (A) (A) (A) (A) (A) (A) (A) (A)
                 (A) (A) (A) (A) (A) (A) (A) (A) (A) (A) (A) (A)
                 (A) (A) (A) (A) (A) (A) (A) (A) (A) (A) (A) (A)
                 (A) (A) (A) (A) (A) (A) (A) (A) (A) (A) (A)
 The electronic state is 1-A.
 Alpha  occ. eigenvalues --  -20.54064 -20.53256 -15.60820 -15.59131 -11.37482
 Alpha  occ. eigenvalues --  -11.35850 -11.29223 -11.26649 -11.25720 -11.23228
 Alpha  occ. eigenvalues --   -1.39526  -1.38392  -1.25175  -1.22650  -1.05779
 Alpha  occ. eigenvalues --   -0.99808  -0.96147  -0.87410  -0.80757  -0.78639
 Alpha  occ. eigenvalues --   -0.72969  -0.68322  -0.66351  -0.64770  -0.62276
 Alpha  occ. eigenvalues --   -0.61698  -0.60264  -0.59204  -0.58031  -0.55474
 Alpha  occ. eigenvalues --   -0.54514  -0.53197  -0.53082  -0.52027  -0.51137
 Alpha  occ. eigenvalues --   -0.44163  -0.43508  -0.39965  -0.38530
 Alpha virt. eigenvalues --    0.02630   0.03859   0.04345   0.04639   0.05728
 Alpha virt. eigenvalues --    0.05876   0.06329   0.06672   0.07315   0.08037
 Alpha virt. eigenvalues --    0.09164   0.09446   0.11191   0.11958   0.12353
 Alpha virt. eigenvalues --    0.13457   0.13551   0.14400   0.15061   0.15331
 Alpha virt. eigenvalues --    0.15663   0.15807   0.16391   0.16881   0.17121
 Alpha virt. eigenvalues --    0.17836   0.18013   0.18151   0.18482   0.19089
 Alpha virt. eigenvalues --    0.19669   0.19729   0.19919   0.21639   0.21977
 Alpha virt. eigenvalues --    0.22734   0.24107   0.24879   0.25189   0.25849
 Alpha virt. eigenvalues --    0.26965   0.27429   0.28827   0.30363   0.30476
 Alpha virt. eigenvalues --    0.30882   0.32227   0.32535   0.33140   0.33632
 Alpha virt. eigenvalues --    0.34145   0.34696   0.35543   0.35672   0.35907
 Alpha virt. eigenvalues --    0.37151   0.37940   0.38723   0.39167   0.39509
 Alpha virt. eigenvalues --    0.40396   0.40583   0.41609   0.41739   0.42442
 Alpha virt. eigenvalues --    0.43791   0.44402   0.44668   0.44812   0.45375
 Alpha virt. eigenvalues --    0.45971   0.46595   0.47216   0.47864   0.49539
 Alpha virt. eigenvalues --    0.49780   0.50661   0.51002   0.51947   0.52032
 Alpha virt. eigenvalues --    0.52988   0.53640   0.53809   0.53922   0.55166
 Alpha virt. eigenvalues --    0.55940   0.56389   0.57675   0.58170   0.58888
 Alpha virt. eigenvalues --    0.59160   0.60015   0.60211   0.61078   0.61747
 Alpha virt. eigenvalues --    0.62691   0.63118   0.63975   0.64314   0.64549
 Alpha virt. eigenvalues --    0.65196   0.65877   0.66892   0.67767   0.68087
 Alpha virt. eigenvalues --    0.69502   0.69946   0.70688   0.71080   0.71534
 Alpha virt. eigenvalues --    0.71973   0.73007   0.73073   0.73979   0.74718
 Alpha virt. eigenvalues --    0.75044   0.76734   0.77234   0.78137   0.79064
 Alpha virt. eigenvalues --    0.79620   0.80824   0.81718   0.81916   0.83246
 Alpha virt. eigenvalues --    0.84303   0.85075   0.86049   0.86886   0.89097
 Alpha virt. eigenvalues --    0.89293   0.90039   0.90833   0.92366   0.92590
 Alpha virt. eigenvalues --    0.93378   0.94839   0.96826   0.97705   0.98204
 Alpha virt. eigenvalues --    0.99951   1.01442   1.01952   1.03833   1.04788
 Alpha virt. eigenvalues --    1.05342   1.06360   1.08138   1.08740   1.10077
 Alpha virt. eigenvalues --    1.11630   1.12912   1.14255   1.15375   1.16170
 Alpha virt. eigenvalues --    1.16999   1.17774   1.19402   1.19763   1.20853
 Alpha virt. eigenvalues --    1.23169   1.23750   1.24816   1.27448   1.28621
 Alpha virt. eigenvalues --    1.30765   1.31973   1.33023   1.34824   1.35506
 Alpha virt. eigenvalues --    1.39931   1.42139   1.45220   1.46223   1.46924
 Alpha virt. eigenvalues --    1.47753   1.49561   1.50016   1.50927   1.53577
 Alpha virt. eigenvalues --    1.56297   1.57430   1.59494   1.62170   1.64125
 Alpha virt. eigenvalues --    1.65219   1.68329   1.70234   1.71569   1.73800
 Alpha virt. eigenvalues --    1.75060   1.75667   1.76786   1.77663   1.80139
 Alpha virt. eigenvalues --    1.81534   1.83025   1.84621   1.86688   1.87173
 Alpha virt. eigenvalues --    1.88214   1.89129   1.90056   1.91251   1.92893
 Alpha virt. eigenvalues --    1.95025   1.96631   1.97742   1.99983   2.00412
 Alpha virt. eigenvalues --    2.02539   2.03944   2.04966   2.06838   2.08363
 Alpha virt. eigenvalues --    2.11101   2.12573   2.13405   2.15672   2.17458
 Alpha virt. eigenvalues --    2.18073   2.19599   2.19981   2.21373   2.22726
 Alpha virt. eigenvalues --    2.24436   2.26435   2.27355   2.28886   2.29617
 Alpha virt. eigenvalues --    2.32442   2.32766   2.34044   2.34752   2.36786
 Alpha virt. eigenvalues --    2.37928   2.38857   2.39419   2.41126   2.42409
 Alpha virt. eigenvalues --    2.44153   2.46364   2.47139   2.49017   2.50261
 Alpha virt. eigenvalues --    2.53297   2.55522   2.56873   2.59969   2.61051
 Alpha virt. eigenvalues --    2.62395   2.63979   2.65541   2.66905   2.68105
 Alpha virt. eigenvalues --    2.72652   2.73671   2.76376   2.78618   2.79139
 Alpha virt. eigenvalues --    2.82901   2.83643   2.85568   2.86824   2.88889
 Alpha virt. eigenvalues --    2.91093   2.91219   2.94549   2.95898   2.99285
 Alpha virt. eigenvalues --    3.00399   3.00909   3.02749   3.03428   3.09485
 Alpha virt. eigenvalues --    3.11163   3.14582   3.16528   3.18307   3.24791
 Alpha virt. eigenvalues --    3.32785   3.36191   3.41266   3.46673   3.48366
 Alpha virt. eigenvalues --    3.62328   3.68192   3.75557   3.82711   3.84151
 Alpha virt. eigenvalues --    3.85267   3.85586   3.87422   3.98745   4.02250
 Alpha virt. eigenvalues --    4.06031   4.18879   4.20211   4.25897
          Condensed to atoms (all electrons):
              1          2          3          4          5          6
     1  H    0.730391   0.365018  -0.085562  -0.040243  -0.080292   0.028075
     2  C    0.365018   4.555845   0.400667   0.345329   0.231507  -0.060020
     3  H   -0.085562   0.400667   1.063951  -0.069051   0.053070  -0.012557
     4  H   -0.040243   0.345329  -0.069051   0.707769  -0.045268   0.012538
     5  C   -0.080292   0.231507   0.053070  -0.045268   5.521156   0.147163
     6  O    0.028075  -0.060020  -0.012557   0.012538   0.147163   8.743848
     7  N    0.054761  -0.065923  -0.197021   0.029992   0.011410  -0.097434
     8  H   -0.004244  -0.070951   0.011615  -0.004023  -0.128627   0.006615
     9  C    0.004441  -0.017162  -0.013117  -0.004605  -0.304402   0.100956
    10  H    0.000507  -0.003010  -0.000766  -0.000502   0.088900  -0.028032
    11  C    0.000033  -0.014071  -0.003342   0.002224  -0.014041  -0.001701
    12  H   -0.000052  -0.006559  -0.000845  -0.000458  -0.004835  -0.000470
    13  H   -0.000120   0.001394  -0.000233   0.000420  -0.020177   0.001266
    14  H   -0.000257   0.005291   0.001866   0.000770   0.047018  -0.004061
    15  C   -0.004463  -0.029665  -0.019762   0.003707  -0.165011   0.036560
    16  O    0.000290   0.001186   0.000629   0.000053   0.030025  -0.002352
    17  N    0.001134   0.000835   0.000851  -0.000312   0.041008  -0.010965
    18  H    0.000797   0.001661  -0.001286  -0.001265  -0.001664   0.018272
    19  C    0.000482   0.000040   0.000278   0.000196   0.005515  -0.005184
    20  H    0.000082   0.000774  -0.000056   0.000050  -0.001026   0.000181
    21  H    0.000103  -0.000802  -0.000128   0.000026   0.005282   0.000399
    22  H   -0.000199  -0.000290   0.000123   0.000014  -0.002652   0.000053
              7          8          9         10         11         12
     1  H    0.054761  -0.004244   0.004441   0.000507   0.000033  -0.000052
     2  C   -0.065923  -0.070951  -0.017162  -0.003010  -0.014071  -0.006559
     3  H   -0.197021   0.011615  -0.013117  -0.000766  -0.003342  -0.000845
     4  H    0.029992  -0.004023  -0.004605  -0.000502   0.002224  -0.000458
     5  C    0.011410  -0.128627  -0.304402   0.088900  -0.014041  -0.004835
     6  O   -0.097434   0.006615   0.100956  -0.028032  -0.001701  -0.000470
     7  N    7.470378   0.314600  -0.162534   0.132259  -0.125269  -0.006359
     8  H    0.314600   1.017766  -0.030996  -0.001672  -0.006634   0.006512
     9  C   -0.162534  -0.030996   7.372473  -0.355266   0.191955  -0.101049
    10  H    0.132259  -0.001672  -0.355266   1.396749  -0.011775   0.059210
    11  C   -0.125269  -0.006634   0.191955  -0.011775   4.375601   0.378925
    12  H   -0.006359   0.006512  -0.101049   0.059210   0.378925   1.008173
    13  H    0.007283  -0.000072  -0.029347  -0.032776   0.249234  -0.116575
    14  H   -0.032725  -0.005806   0.154064  -0.067268   0.210903  -0.225416
    15  C    0.004371   0.003193  -0.483374  -0.030725  -0.039816   0.011635
    16  O    0.031123  -0.001856  -0.078113  -0.007530  -0.020757   0.018605
    17  N   -0.065148   0.011594   0.145714  -0.024544  -0.016696   0.004724
    18  H    0.035505   0.000942  -0.081585   0.012614   0.013658  -0.001154
    19  C   -0.005666   0.002327  -0.015620   0.009138   0.000755   0.002967
    20  H   -0.000269  -0.000508   0.001320   0.001713  -0.006080  -0.000629
    21  H    0.004617  -0.000023  -0.013318  -0.000604   0.001730  -0.000224
    22  H   -0.008056  -0.000187   0.022240   0.000212   0.005592   0.000701
             13         14         15         16         17         18
     1  H   -0.000120  -0.000257  -0.004463   0.000290   0.001134   0.000797
     2  C    0.001394   0.005291  -0.029665   0.001186   0.000835   0.001661
     3  H   -0.000233   0.001866  -0.019762   0.000629   0.000851  -0.001286
     4  H    0.000420   0.000770   0.003707   0.000053  -0.000312  -0.001265
     5  C   -0.020177   0.047018  -0.165011   0.030025   0.041008  -0.001664
     6  O    0.001266  -0.004061   0.036560  -0.002352  -0.010965   0.018272
     7  N    0.007283  -0.032725   0.004371   0.031123  -0.065148   0.035505
     8  H   -0.000072  -0.005806   0.003193  -0.001856   0.011594   0.000942
     9  C   -0.029347   0.154064  -0.483374  -0.078113   0.145714  -0.081585
    10  H   -0.032776  -0.067268  -0.030725  -0.007530  -0.024544   0.012614
    11  C    0.249234   0.210903  -0.039816  -0.020757  -0.016696   0.013658
    12  H   -0.116575  -0.225416   0.011635   0.018605   0.004724  -0.001154
    13  H    1.086898  -0.148450   0.058886  -0.002765  -0.017228  -0.000287
    14  H   -0.148450   1.157664  -0.090611   0.009790   0.014298  -0.000039
    15  C    0.058886  -0.090611   5.488715   0.226676   0.032228  -0.064728
    16  O   -0.002765   0.009790   0.226676   8.735909  -0.153682   0.012886
    17  N   -0.017228   0.014298   0.032228  -0.153682   7.160353   0.271940
    18  H   -0.000287  -0.000039  -0.064728   0.012886   0.271940   0.995346
    19  C   -0.002317  -0.000102  -0.108638  -0.002796   0.272874  -0.113730
    20  H   -0.000739   0.000217   0.007353  -0.003996  -0.048097   0.000803
    21  H    0.000316   0.000035  -0.003299   0.006576  -0.013552   0.001281
    22  H   -0.000024   0.000072  -0.025345   0.008011  -0.055488   0.005223
             19         20         21         22
     1  H    0.000482   0.000082   0.000103  -0.000199
     2  C    0.000040   0.000774  -0.000802  -0.000290
     3  H    0.000278  -0.000056  -0.000128   0.000123
     4  H    0.000196   0.000050   0.000026   0.000014
     5  C    0.005515  -0.001026   0.005282  -0.002652
     6  O   -0.005184   0.000181   0.000399   0.000053
     7  N   -0.005666  -0.000269   0.004617  -0.008056
     8  H    0.002327  -0.000508  -0.000023  -0.000187
     9  C   -0.015620   0.001320  -0.013318   0.022240
    10  H    0.009138   0.001713  -0.000604   0.000212
    11  C    0.000755  -0.006080   0.001730   0.005592
    12  H    0.002967  -0.000629  -0.000224   0.000701
    13  H   -0.002317  -0.000739   0.000316  -0.000024
    14  H   -0.000102   0.000217   0.000035   0.000072
    15  C   -0.108638   0.007353  -0.003299  -0.025345
    16  O   -0.002796  -0.003996   0.006576   0.008011
    17  N    0.272874  -0.048097  -0.013552  -0.055488
    18  H   -0.113730   0.000803   0.001281   0.005223
    19  C    4.087328   0.477977   0.312094   0.347350
    20  H    0.477977   0.980983  -0.126210  -0.127188
    21  H    0.312094  -0.126210   1.061923  -0.141254
    22  H    0.347350  -0.127188  -0.141254   1.067627
 Mulliken atomic charges:
              1
     1  H    0.029317
     2  C    0.358907
     3  H   -0.129325
     4  H    0.062636
     5  C    0.585942
     6  O   -0.873149
     7  N   -0.329897
     8  H   -0.119565
     9  C   -0.302676
    10  H   -0.136832
    11  C    0.829572
    12  H   -0.026828
    13  H   -0.034588
    14  H   -0.027253
    15  C    1.192112
    16  O   -0.807914
    17  N   -0.551839
    18  H   -0.105191
    19  C    0.734732
    20  H   -0.156655
    21  H   -0.094969
    22  H   -0.096536
 Sum of Mulliken atomic charges =   0.00000
 Mulliken charges with hydrogens summed into heavy atoms:
              1
     2  C    0.321534
     5  C    0.585942
     6  O   -0.873149
     7  N   -0.449463
     9  C   -0.439508
    11  C    0.740903
    15  C    1.192112
    16  O   -0.807914
    17  N   -0.657030
    19  C    0.386572
 Sum of Mulliken charges with hydrogens summed into heavy atoms =   0.00000
 Electronic spatial extent (au):  <R**2>=           1829.9113
 Charge=              0.0000 electrons
 Dipole moment (field-independent basis, Debye):
    X=              2.1467    Y=             -1.0886    Z=             -2.2798  Tot=              3.3152
 Quadrupole moment (field-independent basis, Debye-Ang):
   XX=            -65.6198   YY=            -58.9640   ZZ=            -62.9534
   XY=              8.8466   XZ=            -10.8346   YZ=              3.1851
 Traceless Quadrupole moment (field-independent basis, Debye-Ang):
   XX=             -3.1074   YY=              3.5484   ZZ=             -0.4410
   XY=              8.8466   XZ=            -10.8346   YZ=              3.1851
 Octapole moment (field-independent basis, Debye-Ang**2):
  XXX=             28.1015  YYY=             -8.7633  ZZZ=             -8.4906  XYY=             -0.8040
  XXY=            -19.1323  XXZ=            -11.7236  XZZ=             -5.9749  YZZ=              4.5520
  YYZ=              1.1682  XYZ=              2.6956
 Hexadecapole moment (field-independent basis, Debye-Ang**3):
 XXXX=          -1488.8178 YYYY=           -662.6776 ZZZZ=           -207.1708 XXXY=             49.8115
 XXXZ=            -45.4862 YYYX=              2.9713 YYYZ=              0.3375 ZZZX=            -14.4462
 ZZZY=             -2.5732 XXYY=           -363.1681 XXZZ=           -309.1754 YYZZ=           -146.8606
 XXYZ=             21.9346 YYXZ=             -8.0235 ZZXY=              8.8573
 N-N= 5.524252503773D+02 E-N=-2.259994775505D+03  KE= 4.920772138499D+02
 1\1\GINC-NODE010\SP\RMP2-FC\Aug-CC-pVDZ\C6H12N2O2\MANAGER\13-Feb-2017\
 0\\#SP MP2/aug-cc-pVDZ\\Single Point calculation at MP2\\0,1\H,0,3.459
 9,-1.7697,-0.7026\C,0,3.1676,-0.7269,-0.8498\H,0,2.9259,-0.5646,-1.905
 \H,0,4.0307,-0.1044,-0.589\C,0,2.0228,-0.399,0.0957\O,0,2.0329,-0.7412
 ,1.2738\N,0,0.9738,0.2854,-0.4602\H,0,1.0485,0.5873,-1.4227\C,0,-0.080
 3,0.9011,0.3481\H,0,0.1571,0.6196,1.3793\C,0,-0.091,2.4216,0.2034\H,0,
 -0.3022,2.7169,-0.8297\H,0,-0.8763,2.8558,0.8277\H,0,0.8757,2.8354,0.5
 065\C,0,-1.4543,0.2939,-0.0198\O,0,-2.379,0.9703,-0.4546\N,0,-1.5256,-
 1.0519,0.186\H,0,-0.7083,-1.5176,0.5579\C,0,-2.7144,-1.8333,-0.099\H,0
 ,-3.4772,-1.1448,-0.4655\H,0,-2.5189,-2.5931,-0.8657\H,0,-3.0859,-2.33
 26,0.8037\\Version=EM64L-G09RevA.02\State=1-A\HF=-492.9254137\MP2=-494
 .5263731\RMSD=7.321e-09\PG=C01 [X(C6H12N2O2)]\\@


 GOD GAVE US TWO ENDS... ONE TO SIT ON...    
 AND THE OTHER TO THINK WITH...              
 YOUR SUCCESS DEPENDS UPON WHICH END YOU     
 USE THE MOST...                             
                                             
 IT'S A CASE OF HEADS YOU WIN TAILS YOU LOSE.
          SOURCE UNKNOWN(IT'S JUST AS WELL.) 
 Job cpu time:  0 days 14 hours  4 minutes 36.5 seconds.
 File lengths (MBytes):  RWF=  10542 Int=      0 D2E=      0 Chk=      7 Scr=      2
 Normal termination of Gaussian 09 at Mon Feb 13 09:18:11 2017.
