 Entering Gaussian System, Link 0=g09
 Initial command:
 /home/steboss/Software/g09/l1.exe /tmp/Gau-15358.inp -scrdir=/tmp/
 Entering Link 1 = /home/steboss/Software/g09/l1.exe PID=     15360.
  
 Copyright (c) 1988,1990,1992,1993,1995,1998,2003,2009, Gaussian, Inc.
                  All Rights Reserved.
  
 This is part of the Gaussian(R) 09 program.  It is based on
 the Gaussian(R) 03 system (copyright 2003, Gaussian, Inc.),
 the Gaussian(R) 98 system (copyright 1998, Gaussian, Inc.),
 the Gaussian(R) 94 system (copyright 1995, Gaussian, Inc.),
 the Gaussian 92(TM) system (copyright 1992, Gaussian, Inc.),
 the Gaussian 90(TM) system (copyright 1990, Gaussian, Inc.),
 the Gaussian 88(TM) system (copyright 1988, Gaussian, Inc.),
 the Gaussian 86(TM) system (copyright 1986, Carnegie Mellon
 University), and the Gaussian 82(TM) system (copyright 1983,
 Carnegie Mellon University). Gaussian is a federally registered
 trademark of Gaussian, Inc.
  
 This software contains proprietary and confidential information,
 including trade secrets, belonging to Gaussian, Inc.
  
 This software is provided under written license and may be
 used, copied, transmitted, or stored only in accord with that
 written license.
  
 The following legend is applicable only to US Government
 contracts under FAR:
  
                    RESTRICTED RIGHTS LEGEND
  
 Use, reproduction and disclosure by the US Government is
 subject to restrictions as set forth in subparagraphs (a)
 and (c) of the Commercial Computer Software - Restricted
 Rights clause in FAR 52.227-19.
  
 Gaussian, Inc.
 340 Quinnipiac St., Bldg. 40, Wallingford CT 06492
  
  
 ---------------------------------------------------------------
 Warning -- This program may not be used in any manner that
 competes with the business of Gaussian, Inc. or will provide
 assistance to any competitor of Gaussian, Inc.  The licensee
 of this program is prohibited from giving any competitor of
 Gaussian, Inc. access to this program.  By using this program,
 the user acknowledges that Gaussian, Inc. is engaged in the
 business of creating and licensing software in the field of
 computational chemistry and represents and warrants to the
 licensee that it is not a competitor of Gaussian, Inc. and that
 it will not use this program in any manner prohibited above.
 ---------------------------------------------------------------
  

 Cite this work as:
 Gaussian 09, Revision A.02,
 M. J. Frisch, G. W. Trucks, H. B. Schlegel, G. E. Scuseria, 
 M. A. Robb, J. R. Cheeseman, G. Scalmani, V. Barone, B. Mennucci, 
 G. A. Petersson, H. Nakatsuji, M. Caricato, X. Li, H. P. Hratchian, 
 A. F. Izmaylov, J. Bloino, G. Zheng, J. L. Sonnenberg, M. Hada, 
 M. Ehara, K. Toyota, R. Fukuda, J. Hasegawa, M. Ishida, T. Nakajima, 
 Y. Honda, O. Kitao, H. Nakai, T. Vreven, J. A. Montgomery, Jr., 
 J. E. Peralta, F. Ogliaro, M. Bearpark, J. J. Heyd, E. Brothers, 
 K. N. Kudin, V. N. Staroverov, R. Kobayashi, J. Normand, 
 K. Raghavachari, A. Rendell, J. C. Burant, S. S. Iyengar, J. Tomasi, 
 M. Cossi, N. Rega, J. M. Millam, M. Klene, J. E. Knox, J. B. Cross, 
 V. Bakken, C. Adamo, J. Jaramillo, R. Gomperts, R. E. Stratmann, 
 O. Yazyev, A. J. Austin, R. Cammi, C. Pomelli, J. W. Ochterski, 
 R. L. Martin, K. Morokuma, V. G. Zakrzewski, G. A. Voth, 
 P. Salvador, J. J. Dannenberg, S. Dapprich, A. D. Daniels, 
 O. Farkas, J. B. Foresman, J. V. Ortiz, J. Cioslowski, 
 and D. J. Fox, Gaussian, Inc., Wallingford CT, 2009.
 
 ******************************************
 Gaussian 09:  EM64L-G09RevA.02 11-Jun-2009
                10-Feb-2017 
 ******************************************
 %chk=structure_180.chk
 %NProcShared=8
 Will use up to    8 processors via shared memory.
 -------------------------------------------
 # HF/6-31G* Opt=(ModRedundant) geom=nocrowd
 -------------------------------------------
 1/18=120,19=15,38=1/1,3;
 2/9=110,12=1,17=6,18=5,40=1/2;
 3/5=1,6=6,7=1,11=9,16=1,25=1,30=1,71=1/1,2,3;
 4//1;
 5/5=2,38=5/2;
 6/7=2,8=2,9=2,10=2,28=1/1;
 7//1,2,3,16;
 1/18=20,19=15/3(2);
 2/9=110,12=1/2;
 99//99;
 2/9=110,12=1/2;
 3/5=1,6=6,7=1,11=9,16=1,25=1,30=1,71=1/1,2,3;
 4/5=5,16=3/1;
 5/5=2,38=5/2;
 7//1,2,3,16;
 1/18=20,19=15/3(-5);
 2/9=110,12=1/2;
 6/7=2,8=2,9=2,10=2,19=2,28=1/1;
 99/9=1/99;
 ------------------
 Phi Psi fixed scan
 ------------------
 Symbolic Z-matrix:
 Charge =  0 Multiplicity = 1
 H                     1.8827    1.2362   -0.9842 
 C                     1.9409    2.209    -0.496 
 H                     1.658     2.1079    0.5517 
 H                     1.2624    2.9049   -0.9895 
 C                     3.3599    2.7768   -0.5667 
 O                     4.2568    2.1469   -1.1227 
 N                     3.5554    3.9697    0. 
 H                     2.7862    4.4492    0.4455 
 C                     4.8533    4.6139    0. 
 H                     5.4076    4.3155    0.8898 
 C                     5.6613    4.2208   -1.2322 
 H                     5.1233    4.5214   -2.1312 
 H                     6.6305    4.7189   -1.2058 
 H                     5.8085    3.1409   -1.2414 
 C                     4.7127    6.1294    0. 
 O                     3.6006    6.6527    0. 
 N                     5.846     6.8349    0. 
 H                     6.737     6.3592    0. 
 C                     5.8461    8.2839    0. 
 H                     4.8186    8.6477    0. 
 H                     6.3598    8.6477    0.8898 
 H                     6.3598    8.6477   -0.8898 
 
 The following ModRedundant input section has been read:
 D    5    7    9   15 F                                                       
 D    7    9   15   17 F                                                       

 GradGradGradGradGradGradGradGradGradGradGradGradGradGradGradGradGradGrad
 Berny optimization.
 Initialization pass.
                           ----------------------------
                           !    Initial Parameters    !
                           ! (Angstroms and Degrees)  !
 --------------------------                            --------------------------
 ! Name  Definition              Value          Derivative Info.                !
 --------------------------------------------------------------------------------
 ! R1    R(1,2)                  1.09           estimate D2E/DX2                !
 ! R2    R(2,3)                  1.0899         estimate D2E/DX2                !
 ! R3    R(2,4)                  1.09           estimate D2E/DX2                !
 ! R4    R(2,5)                  1.53           estimate D2E/DX2                !
 ! R5    R(5,6)                  1.229          estimate D2E/DX2                !
 ! R6    R(5,7)                  1.3351         estimate D2E/DX2                !
 ! R7    R(7,8)                  1.01           estimate D2E/DX2                !
 ! R8    R(7,9)                  1.449          estimate D2E/DX2                !
 ! R9    R(9,10)                 1.09           estimate D2E/DX2                !
 ! R10   R(9,11)                 1.525          estimate D2E/DX2                !
 ! R11   R(9,15)                 1.522          estimate D2E/DX2                !
 ! R12   R(11,12)                1.09           estimate D2E/DX2                !
 ! R13   R(11,13)                1.09           estimate D2E/DX2                !
 ! R14   R(11,14)                1.0899         estimate D2E/DX2                !
 ! R15   R(15,16)                1.2291         estimate D2E/DX2                !
 ! R16   R(15,17)                1.335          estimate D2E/DX2                !
 ! R17   R(17,18)                1.01           estimate D2E/DX2                !
 ! R18   R(17,19)                1.449          estimate D2E/DX2                !
 ! R19   R(19,20)                1.09           estimate D2E/DX2                !
 ! R20   R(19,21)                1.0899         estimate D2E/DX2                !
 ! R21   R(19,22)                1.0899         estimate D2E/DX2                !
 ! A1    A(1,2,3)              109.5057         estimate D2E/DX2                !
 ! A2    A(1,2,4)              109.4976         estimate D2E/DX2                !
 ! A3    A(1,2,5)              111.1022         estimate D2E/DX2                !
 ! A4    A(3,2,4)              109.442          estimate D2E/DX2                !
 ! A5    A(3,2,5)              108.6368         estimate D2E/DX2                !
 ! A6    A(4,2,5)              108.6296         estimate D2E/DX2                !
 ! A7    A(2,5,6)              120.5005         estimate D2E/DX2                !
 ! A8    A(2,5,7)              116.6018         estimate D2E/DX2                !
 ! A9    A(6,5,7)              122.8977         estimate D2E/DX2                !
 ! A10   A(5,7,8)              119.9947         estimate D2E/DX2                !
 ! A11   A(5,7,9)              121.8985         estimate D2E/DX2                !
 ! A12   A(8,7,9)              118.1068         estimate D2E/DX2                !
 ! A13   A(7,9,10)             109.5            estimate D2E/DX2                !
 ! A14   A(7,9,11)             111.0992         estimate D2E/DX2                !
 ! A15   A(7,9,15)             111.0966         estimate D2E/DX2                !
 ! A16   A(10,9,11)            108.6382         estimate D2E/DX2                !
 ! A17   A(10,9,15)            108.6373         estimate D2E/DX2                !
 ! A18   A(11,9,15)            107.7947         estimate D2E/DX2                !
 ! A19   A(9,11,12)            109.5007         estimate D2E/DX2                !
 ! A20   A(9,11,13)            109.4959         estimate D2E/DX2                !
 ! A21   A(9,11,14)            109.4978         estimate D2E/DX2                !
 ! A22   A(12,11,13)           109.441          estimate D2E/DX2                !
 ! A23   A(12,11,14)           109.4482         estimate D2E/DX2                !
 ! A24   A(13,11,14)           109.4436         estimate D2E/DX2                !
 ! A25   A(9,15,16)            120.4998         estimate D2E/DX2                !
 ! A26   A(9,15,17)            116.6026         estimate D2E/DX2                !
 ! A27   A(16,15,17)           122.8976         estimate D2E/DX2                !
 ! A28   A(15,17,18)           119.9995         estimate D2E/DX2                !
 ! A29   A(15,17,19)           121.907          estimate D2E/DX2                !
 ! A30   A(18,17,19)           118.0936         estimate D2E/DX2                !
 ! A31   A(17,19,20)           109.4932         estimate D2E/DX2                !
 ! A32   A(17,19,21)           109.5002         estimate D2E/DX2                !
 ! A33   A(17,19,22)           109.5002         estimate D2E/DX2                !
 ! A34   A(20,19,21)           109.4437         estimate D2E/DX2                !
 ! A35   A(20,19,22)           109.4437         estimate D2E/DX2                !
 ! A36   A(21,19,22)           109.4463         estimate D2E/DX2                !
 ! D1    D(1,2,5,6)             -0.0047         estimate D2E/DX2                !
 ! D2    D(1,2,5,7)            179.9966         estimate D2E/DX2                !
 ! D3    D(3,2,5,6)            120.5165         estimate D2E/DX2                !
 ! D4    D(3,2,5,7)            -59.4823         estimate D2E/DX2                !
 ! D5    D(4,2,5,6)           -120.5112         estimate D2E/DX2                !
 ! D6    D(4,2,5,7)             59.4901         estimate D2E/DX2                !
 ! D7    D(2,5,7,8)              0.0022         estimate D2E/DX2                !
 ! D8    D(2,5,7,9)            179.9961         estimate D2E/DX2                !
 ! D9    D(6,5,7,8)           -179.9965         estimate D2E/DX2                !
 ! D10   D(6,5,7,9)             -0.0027         estimate D2E/DX2                !
 ! D11   D(5,7,9,10)           -89.9989         estimate D2E/DX2                !
 ! D12   D(5,7,9,11)            30.0037         estimate D2E/DX2                !
 ! D13   D(5,7,9,15)           150.0013         Frozen                          !
 ! D14   D(8,7,9,10)            89.9951         estimate D2E/DX2                !
 ! D15   D(8,7,9,11)          -150.0023         estimate D2E/DX2                !
 ! D16   D(8,7,9,15)           -30.0047         estimate D2E/DX2                !
 ! D17   D(7,9,11,12)           60.0024         estimate D2E/DX2                !
 ! D18   D(7,9,11,13)          179.9986         estimate D2E/DX2                !
 ! D19   D(7,9,11,14)          -60.0038         estimate D2E/DX2                !
 ! D20   D(10,9,11,12)        -179.4843         estimate D2E/DX2                !
 ! D21   D(10,9,11,13)         -59.4881         estimate D2E/DX2                !
 ! D22   D(10,9,11,14)          60.5095         estimate D2E/DX2                !
 ! D23   D(15,9,11,12)         -61.938          estimate D2E/DX2                !
 ! D24   D(15,9,11,13)          58.0582         estimate D2E/DX2                !
 ! D25   D(15,9,11,14)         178.0558         estimate D2E/DX2                !
 ! D26   D(7,9,15,16)            0.0            estimate D2E/DX2                !
 ! D27   D(7,9,15,17)          180.0            Frozen                          !
 ! D28   D(10,9,15,16)        -120.5111         estimate D2E/DX2                !
 ! D29   D(10,9,15,17)          59.4889         estimate D2E/DX2                !
 ! D30   D(11,9,15,16)         121.942          estimate D2E/DX2                !
 ! D31   D(11,9,15,17)         -58.058          estimate D2E/DX2                !
 ! D32   D(9,15,17,18)           0.0            estimate D2E/DX2                !
 ! D33   D(9,15,17,19)         180.0            estimate D2E/DX2                !
 ! D34   D(16,15,17,18)        180.0            estimate D2E/DX2                !
 ! D35   D(16,15,17,19)          0.0            estimate D2E/DX2                !
 ! D36   D(15,17,19,20)          0.0            estimate D2E/DX2                !
 ! D37   D(15,17,19,21)        119.9975         estimate D2E/DX2                !
 ! D38   D(15,17,19,22)       -119.9975         estimate D2E/DX2                !
 ! D39   D(18,17,19,20)        180.0            estimate D2E/DX2                !
 ! D40   D(18,17,19,21)        -60.0025         estimate D2E/DX2                !
 ! D41   D(18,17,19,22)         60.0025         estimate D2E/DX2                !
 --------------------------------------------------------------------------------
 Trust Radius=3.00D-01 FncErr=1.00D-07 GrdErr=1.00D-07
 Number of steps in this run= 108 maximum allowed number of steps= 132.
 GradGradGradGradGradGradGradGradGradGradGradGradGradGradGradGradGradGrad

                          Input orientation:                          
 ---------------------------------------------------------------------
 Center     Atomic      Atomic             Coordinates (Angstroms)
 Number     Number       Type             X           Y           Z
 ---------------------------------------------------------------------
      1          1           0        1.882700    1.236200   -0.984200
      2          6           0        1.940900    2.209000   -0.496000
      3          1           0        1.658000    2.107900    0.551700
      4          1           0        1.262400    2.904900   -0.989500
      5          6           0        3.359900    2.776800   -0.566700
      6          8           0        4.256800    2.146900   -1.122700
      7          7           0        3.555400    3.969700    0.000000
      8          1           0        2.786200    4.449200    0.445500
      9          6           0        4.853300    4.613900    0.000000
     10          1           0        5.407600    4.315500    0.889800
     11          6           0        5.661300    4.220800   -1.232200
     12          1           0        5.123300    4.521400   -2.131200
     13          1           0        6.630500    4.718900   -1.205800
     14          1           0        5.808500    3.140900   -1.241400
     15          6           0        4.712700    6.129400    0.000000
     16          8           0        3.600600    6.652700    0.000000
     17          7           0        5.846000    6.834900    0.000000
     18          1           0        6.737000    6.359200    0.000000
     19          6           0        5.846100    8.283900    0.000000
     20          1           0        4.818600    8.647700    0.000000
     21          1           0        6.359800    8.647700    0.889800
     22          1           0        6.359800    8.647700   -0.889800
 ---------------------------------------------------------------------
                    Distance matrix (angstroms):
                    1          2          3          4          5
     1  H    0.000000
     2  C    1.089985   0.000000
     3  H    1.780264   1.089922   0.000000
     4  H    1.780270   1.090037   1.779608   0.000000
     5  C    2.174827   1.530018   2.143527   2.143519   0.000000
     6  O    2.546548   2.400000   3.091747   3.091721   1.228959
     7  N    3.352402   2.439814   2.714922   2.714914   1.335058
     8  H    3.630940   2.572829   2.601115   2.601164   2.037303
     9  C    4.604560   3.809414   4.098091   4.098092   2.434405
    10  H    5.041714   4.286700   4.364322   4.764897   2.946534
    11  C    4.821531   4.293100   4.865497   4.597914   2.797225
    12  H    4.754959   4.260134   5.003123   4.338560   2.932724
    13  H    5.892360   5.366168   5.884886   5.670439   3.857075
    14  H    4.371034   4.047516   4.637774   4.559186   2.565820
    15  C    5.737679   4.826844   5.080160   4.825047   3.659391
    16  O    5.767001   4.769391   4.973256   4.526842   3.924498
    17  N    6.929779   6.074107   6.339420   6.118284   4.792705
    18  H    7.125869   6.361820   6.646365   6.548476   4.955759
    19  C    8.145383   7.238854   7.482482   7.136039   6.068813
    20  H    8.032340   7.069939   7.284418   6.826816   6.075889
    21  H    8.859268   7.931203   8.061651   7.905378   6.751908
    22  H    8.659311   7.819118   8.182532   7.679400   6.600853
                    6          7          8          9         10
     6  O    0.000000
     7  N    2.252780   0.000000
     8  H    3.150000   1.009980   0.000000
     9  C    2.775312   1.448978   2.120966   0.000000
    10  H    3.174480   2.083739   2.662145   1.089970   0.000000
    11  C    2.507124   2.452791   3.336622   1.525027   2.139209
    12  H    2.721423   2.702720   3.479459   2.150225   3.041326
    13  H    3.500934   3.386959   4.192633   2.150214   2.459625
    14  H    1.846591   2.702673   3.700213   2.150165   2.466256
    15  C    4.162764   2.450234   2.594792   1.522008   2.136554
    16  O    4.689700   2.683381   2.391052   2.392898   3.085368
    17  N    5.075762   3.668272   3.905433   2.432754   2.707640
    18  H    5.015508   3.978981   4.410827   2.567956   2.595334
    19  C    6.438097   4.884632   4.926092   3.801914   4.090504
    20  H    6.620912   4.845550   4.685779   4.033949   4.461684
    21  H    7.122722   5.526309   5.531313   4.396911   4.435611
    22  H    6.836465   5.526309   5.672834   4.396911   4.779291
                   11         12         13         14         15
    11  C    0.000000
    12  H    1.089957   0.000000
    13  H    1.090023   1.779613   0.000000
    14  H    1.089925   1.779613   1.779617   0.000000
    15  C    2.461892   2.701161   2.668599   3.416575   0.000000
    16  O    3.417446   3.376843   3.791283   4.329969   1.229068
    17  N    2.895850   3.227474   2.558681   3.897193   1.334953
    18  H    2.692248   3.244002   2.038598   3.572204   2.037302
    19  C    4.249853   4.384160   3.844277   5.290835   2.434433
    20  H    4.671820   4.654160   4.491370   5.731127   2.520526
    21  H    4.958652   5.261343   4.460974   5.930497   3.137916
    22  H    4.494728   4.482896   3.950773   5.545485   3.137916
                   16         17         18         19         20
    16  O    0.000000
    17  N    2.252780   0.000000
    18  H    3.150103   1.010035   0.000000
    19  C    2.775443   1.449000   2.120890   0.000000
    20  H    2.337424   2.083697   2.986217   1.090003   0.000000
    21  H    3.519226   2.083741   2.484201   1.089946   1.779618
    22  H    3.519226   2.083741   2.484201   1.089946   1.779618
                   21         22
    21  H    0.000000
    22  H    1.779600   0.000000
 Stoichiometry    C6H12N2O2
 Framework group  C1[X(C6H12N2O2)]
 Deg. of freedom    60
 Full point group                 C1      NOp   1
 Largest Abelian subgroup         C1      NOp   1
 Largest concise Abelian subgroup C1      NOp   1
                         Standard orientation:                         
 ---------------------------------------------------------------------
 Center     Atomic      Atomic             Coordinates (Angstroms)
 Number     Number       Type             X           Y           Z
 ---------------------------------------------------------------------
      1          1           0        4.353493   -0.574578   -0.357939
      2          6           0        3.405800   -1.060005   -0.124903
      3          1           0        3.501891   -1.617545    0.806678
      4          1           0        3.139285   -1.743606   -0.931030
      5          6           0        2.284479   -0.031304    0.034374
      6          8           0        2.514719    1.168311   -0.100732
      7          7           0        1.071454   -0.508943    0.322143
      8          1           0        0.931646   -1.504042    0.423590
      9          6           0       -0.072752    0.362558    0.497694
     10          1           0       -0.150699    0.654178    1.545032
     11          6           0        0.061816    1.622832   -0.350427
     12          1           0        0.131682    1.347500   -1.402718
     13          1           0       -0.810787    2.258230   -0.198830
     14          1           0        0.960677    2.164759   -0.056658
     15          6           0       -1.361707   -0.336825    0.090303
     16          8           0       -1.339656   -1.493912   -0.323546
     17          7           0       -2.488253    0.369581    0.208559
     18          1           0       -2.455618    1.318163    0.553956
     19          6           0       -3.779736   -0.183297   -0.146401
     20          1           0       -3.652686   -1.206686   -0.499446
     21          1           0       -4.430046   -0.179336    0.728278
     22          1           0       -4.229157    0.419546   -0.935441
 ---------------------------------------------------------------------
 Rotational constants (GHZ):      3.3213167      0.6766188      0.5843935
 Standard basis: 6-31G(d) (6D, 7F)
 There are   174 symmetry adapted basis functions of A   symmetry.
 Integral buffers will be    131072 words long.
 Raffenetti 1 integral format.
 Two-electron integral symmetry is turned on.
   174 basis functions,   328 primitive gaussians,   174 cartesian basis functions
    39 alpha electrons       39 beta electrons
       nuclear repulsion energy       557.5579138685 Hartrees.
 NAtoms=   22 NActive=   22 NUniq=   22 SFac= 7.50D-01 NAtFMM=   80 NAOKFM=F Big=F
 One-electron integrals computed using PRISM.
 NBasis=   174 RedAO= T  NBF=   174
 NBsUse=   174 1.00D-06 NBFU=   174
 Harris functional with IExCor=  205 diagonalized for initial guess.
 ExpMin= 1.61D-01 ExpMax= 5.48D+03 ExpMxC= 8.25D+02 IAcc=1 IRadAn=         1 AccDes= 0.00D+00
 HarFok:  IExCor=  205 AccDes= 0.00D+00 IRadAn=         1 IDoV= 1
 ScaDFX=  1.000000  1.000000  1.000000  1.000000
 FoFCou: FMM=F IPFlag=           0 FMFlag=      100000 FMFlg1=           0
         NFxFlg=           0 DoJE=T BraDBF=F KetDBF=T FulRan=T
         Omega=  0.000000  0.000000  1.000000  0.000000  0.000000 ICntrl=     500 IOpCl=  0
         NMat0=    1 NMatS0=    1 NMatT0=    0 NMatD0=    1 NMtDS0=    0 NMtDT0=    0
         I1Cent=           4 NGrid=           0.
 Petite list used in FoFCou.
 Initial guess orbital symmetries:
       Occupied  (A) (A) (A) (A) (A) (A) (A) (A) (A) (A) (A) (A)
                 (A) (A) (A) (A) (A) (A) (A) (A) (A) (A) (A) (A)
                 (A) (A) (A) (A) (A) (A) (A) (A) (A) (A) (A) (A)
                 (A) (A) (A)
       Virtual   (A) (A) (A) (A) (A) (A) (A) (A) (A) (A) (A) (A)
                 (A) (A) (A) (A) (A) (A) (A) (A) (A) (A) (A) (A)
                 (A) (A) (A) (A) (A) (A) (A) (A) (A) (A) (A) (A)
                 (A) (A) (A) (A) (A) (A) (A) (A) (A) (A) (A) (A)
                 (A) (A) (A) (A) (A) (A) (A) (A) (A) (A) (A) (A)
                 (A) (A) (A) (A) (A) (A) (A) (A) (A) (A) (A) (A)
                 (A) (A) (A) (A) (A) (A) (A) (A) (A) (A) (A) (A)
                 (A) (A) (A) (A) (A) (A) (A) (A) (A) (A) (A) (A)
                 (A) (A) (A) (A) (A) (A) (A) (A) (A) (A) (A) (A)
                 (A) (A) (A) (A) (A) (A) (A) (A) (A) (A) (A) (A)
                 (A) (A) (A) (A) (A) (A) (A) (A) (A) (A) (A) (A)
                 (A) (A) (A)
 The electronic state of the initial guess is 1-A.
 Requested convergence on RMS density matrix=1.00D-08 within 128 cycles.
 Requested convergence on MAX density matrix=1.00D-06.
 Requested convergence on             energy=1.00D-06.
 No special actions if energy rises.
 Integral accuracy reduced to 1.0D-05 until final iterations.
 Initial convergence to 1.0D-05 achieved.  Increase integral accuracy.
 SCF Done:  E(RHF) =  -492.832176420     A.U. after   15 cycles
             Convg  =    0.4141D-08             -V/T =  2.0018

 **********************************************************************

            Population analysis using the SCF density.

 **********************************************************************

 Orbital symmetries:
       Occupied  (A) (A) (A) (A) (A) (A) (A) (A) (A) (A) (A) (A)
                 (A) (A) (A) (A) (A) (A) (A) (A) (A) (A) (A) (A)
                 (A) (A) (A) (A) (A) (A) (A) (A) (A) (A) (A) (A)
                 (A) (A) (A)
       Virtual   (A) (A) (A) (A) (A) (A) (A) (A) (A) (A) (A) (A)
                 (A) (A) (A) (A) (A) (A) (A) (A) (A) (A) (A) (A)
                 (A) (A) (A) (A) (A) (A) (A) (A) (A) (A) (A) (A)
                 (A) (A) (A) (A) (A) (A) (A) (A) (A) (A) (A) (A)
                 (A) (A) (A) (A) (A) (A) (A) (A) (A) (A) (A) (A)
                 (A) (A) (A) (A) (A) (A) (A) (A) (A) (A) (A) (A)
                 (A) (A) (A) (A) (A) (A) (A) (A) (A) (A) (A) (A)
                 (A) (A) (A) (A) (A) (A) (A) (A) (A) (A) (A) (A)
                 (A) (A) (A) (A) (A) (A) (A) (A) (A) (A) (A) (A)
                 (A) (A) (A) (A) (A) (A) (A) (A) (A) (A) (A) (A)
                 (A) (A) (A) (A) (A) (A) (A) (A) (A) (A) (A) (A)
                 (A) (A) (A)
 The electronic state is 1-A.
 Alpha  occ. eigenvalues --  -20.52528 -20.50989 -15.59825 -15.58842 -11.35385
 Alpha  occ. eigenvalues --  -11.34892 -11.28356 -11.26494 -11.23310 -11.20806
 Alpha  occ. eigenvalues --   -1.38528  -1.37231  -1.24136  -1.23593  -1.06019
 Alpha  occ. eigenvalues --   -0.98823  -0.95463  -0.88420  -0.80429  -0.77303
 Alpha  occ. eigenvalues --   -0.73498  -0.68851  -0.66246  -0.64063  -0.62791
 Alpha  occ. eigenvalues --   -0.61594  -0.59476  -0.57345  -0.55925  -0.55706
 Alpha  occ. eigenvalues --   -0.55360  -0.53938  -0.52163  -0.51805  -0.49693
 Alpha  occ. eigenvalues --   -0.42290  -0.40066  -0.38973  -0.38363
 Alpha virt. eigenvalues --    0.19179   0.20352   0.21524   0.23771   0.26298
 Alpha virt. eigenvalues --    0.28638   0.28785   0.30054   0.31195   0.31344
 Alpha virt. eigenvalues --    0.32222   0.33197   0.34176   0.36380   0.37818
 Alpha virt. eigenvalues --    0.38699   0.41906   0.43412   0.47754   0.52130
 Alpha virt. eigenvalues --    0.53224   0.59427   0.61714   0.71802   0.73039
 Alpha virt. eigenvalues --    0.74544   0.74817   0.75999   0.77806   0.79674
 Alpha virt. eigenvalues --    0.80321   0.82633   0.83242   0.87722   0.91899
 Alpha virt. eigenvalues --    0.92275   0.94369   0.94781   0.97431   0.97659
 Alpha virt. eigenvalues --    1.00272   1.01630   1.05949   1.06434   1.09676
 Alpha virt. eigenvalues --    1.11166   1.13060   1.14445   1.14647   1.15500
 Alpha virt. eigenvalues --    1.16708   1.17672   1.18774   1.19959   1.20320
 Alpha virt. eigenvalues --    1.21719   1.22373   1.22710   1.24571   1.30427
 Alpha virt. eigenvalues --    1.31698   1.35407   1.37197   1.39001   1.47620
 Alpha virt. eigenvalues --    1.51499   1.53308   1.58048   1.58757   1.62242
 Alpha virt. eigenvalues --    1.63311   1.65300   1.69105   1.74431   1.75081
 Alpha virt. eigenvalues --    1.79416   1.80379   1.89124   1.92886   1.98250
 Alpha virt. eigenvalues --    2.00882   2.03354   2.07393   2.09733   2.12811
 Alpha virt. eigenvalues --    2.14765   2.15384   2.17154   2.19170   2.21613
 Alpha virt. eigenvalues --    2.23558   2.25468   2.29835   2.31088   2.35497
 Alpha virt. eigenvalues --    2.37747   2.38626   2.43278   2.46312   2.51320
 Alpha virt. eigenvalues --    2.52568   2.58953   2.59757   2.61988   2.63339
 Alpha virt. eigenvalues --    2.64164   2.65539   2.70026   2.73041   2.75820
 Alpha virt. eigenvalues --    2.77166   2.80107   2.90424   2.94398   2.96335
 Alpha virt. eigenvalues --    2.99815   3.03015   3.08598   3.14122   3.24741
 Alpha virt. eigenvalues --    3.30680   3.34963   3.39952   3.52773   3.60623
 Alpha virt. eigenvalues --    4.39330   4.41894   4.49659   4.50769   4.62940
 Alpha virt. eigenvalues --    4.66407   4.73601   4.83883   4.88067   5.06497
          Condensed to atoms (all electrons):
              1          2          3          4          5          6
     1  H    0.458470   0.385465  -0.018920  -0.018417  -0.030794   0.003574
     2  C    0.385465   5.244577   0.374214   0.375244   0.377108  -0.064717
     3  H   -0.018920   0.374214   0.514261  -0.023361  -0.034641   0.001177
     4  H   -0.018417   0.375244  -0.023361   0.505651  -0.035387   0.001137
     5  C   -0.030794   0.377108  -0.034641  -0.035387   4.184582   0.575181
     6  O    0.003574  -0.064717   0.001177   0.001137   0.575181   8.285583
     7  N    0.003842  -0.118391   0.003626   0.003811   0.261277  -0.103080
     8  H   -0.000017  -0.000975   0.000542   0.000387  -0.017040   0.002179
     9  C   -0.000062   0.003078  -0.000190   0.000011  -0.031132   0.006285
    10  H    0.000002  -0.000128   0.000013   0.000000  -0.001641   0.000586
    11  C    0.000005  -0.000508   0.000017  -0.000007  -0.003167  -0.052979
    12  H    0.000002  -0.000126   0.000001   0.000009   0.000222  -0.002089
    13  H    0.000000   0.000018   0.000000  -0.000001   0.000505   0.002235
    14  H    0.000007   0.000211  -0.000015   0.000001  -0.003611  -0.004323
    15  C    0.000000  -0.000044  -0.000008   0.000007   0.002614   0.000229
    16  O    0.000000  -0.000045   0.000000   0.000000   0.000352  -0.000001
    17  N    0.000000   0.000000   0.000000   0.000000  -0.000064  -0.000002
    18  H    0.000000   0.000000   0.000000   0.000000   0.000003   0.000002
    19  C    0.000000   0.000000   0.000000   0.000000   0.000001   0.000000
    20  H    0.000000   0.000000   0.000000   0.000000   0.000000   0.000000
    21  H    0.000000   0.000000   0.000000   0.000000   0.000000   0.000000
    22  H    0.000000   0.000000   0.000000   0.000000   0.000000   0.000000
              7          8          9         10         11         12
     1  H    0.003842  -0.000017  -0.000062   0.000002   0.000005   0.000002
     2  C   -0.118391  -0.000975   0.003078  -0.000128  -0.000508  -0.000126
     3  H    0.003626   0.000542  -0.000190   0.000013   0.000017   0.000001
     4  H    0.003811   0.000387   0.000011   0.000000  -0.000007   0.000009
     5  C    0.261277  -0.017040  -0.031132  -0.001641  -0.003167   0.000222
     6  O   -0.103080   0.002179   0.006285   0.000586  -0.052979  -0.002089
     7  N    7.378205   0.315472   0.196324  -0.047196  -0.049145   0.000450
     8  H    0.315472   0.296515  -0.025796   0.001221   0.003264  -0.000037
     9  C    0.196324  -0.025796   5.039717   0.407603   0.336343  -0.042923
    10  H   -0.047196   0.001221   0.407603   0.528543  -0.042376   0.004630
    11  C   -0.049145   0.003264   0.336343  -0.042376   5.226984   0.392176
    12  H    0.000450  -0.000037  -0.042923   0.004630   0.392176   0.515808
    13  H    0.004413  -0.000075  -0.040311  -0.000878   0.368547  -0.025469
    14  H   -0.001885  -0.000186  -0.027579  -0.002818   0.392604  -0.016307
    15  C   -0.042614  -0.003052   0.378679  -0.046208  -0.056992  -0.003695
    16  O   -0.004383   0.014796  -0.080187   0.000949   0.000004   0.000643
    17  N    0.003075   0.000496  -0.117886   0.003451   0.001282   0.000248
    18  H    0.000029  -0.000017   0.001193   0.000628   0.000152  -0.000025
    19  C   -0.000060  -0.000005   0.003681  -0.000263  -0.000027  -0.000048
    20  H   -0.000007  -0.000007   0.000600  -0.000019  -0.000052  -0.000002
    21  H    0.000000   0.000000  -0.000103   0.000013  -0.000004   0.000001
    22  H    0.000001   0.000000  -0.000003  -0.000001   0.000012   0.000002
             13         14         15         16         17         18
     1  H    0.000000   0.000007   0.000000   0.000000   0.000000   0.000000
     2  C    0.000018   0.000211  -0.000044  -0.000045   0.000000   0.000000
     3  H    0.000000  -0.000015  -0.000008   0.000000   0.000000   0.000000
     4  H   -0.000001   0.000001   0.000007   0.000000   0.000000   0.000000
     5  C    0.000505  -0.003611   0.002614   0.000352  -0.000064   0.000003
     6  O    0.002235  -0.004323   0.000229  -0.000001  -0.000002   0.000002
     7  N    0.004413  -0.001885  -0.042614  -0.004383   0.003075   0.000029
     8  H   -0.000075  -0.000186  -0.003052   0.014796   0.000496  -0.000017
     9  C   -0.040311  -0.027579   0.378679  -0.080187  -0.117886   0.001193
    10  H   -0.000878  -0.002818  -0.046208   0.000949   0.003451   0.000628
    11  C    0.368547   0.392604  -0.056992   0.000004   0.001282   0.000152
    12  H   -0.025469  -0.016307  -0.003695   0.000643   0.000248  -0.000025
    13  H    0.590971  -0.022325  -0.009518   0.000023   0.000221   0.003209
    14  H   -0.022325   0.403469   0.003740  -0.000064   0.000098  -0.000084
    15  C   -0.009518   0.003740   4.158097   0.600306   0.285245  -0.020521
    16  O    0.000023  -0.000064   0.600306   8.213673  -0.100036   0.002391
    17  N    0.000221   0.000098   0.285245  -0.100036   7.334691   0.322167
    18  H    0.003209  -0.000084  -0.020521   0.002391   0.322167   0.317908
    19  C    0.000166   0.000003  -0.025933  -0.005023   0.188085  -0.021746
    20  H   -0.000011   0.000000  -0.001908   0.010365  -0.031952   0.002277
    21  H    0.000000   0.000000   0.000753   0.000368  -0.047430  -0.001529
    22  H    0.000011  -0.000001   0.000985   0.000375  -0.048298  -0.000597
             19         20         21         22
     1  H    0.000000   0.000000   0.000000   0.000000
     2  C    0.000000   0.000000   0.000000   0.000000
     3  H    0.000000   0.000000   0.000000   0.000000
     4  H    0.000000   0.000000   0.000000   0.000000
     5  C    0.000001   0.000000   0.000000   0.000000
     6  O    0.000000   0.000000   0.000000   0.000000
     7  N   -0.000060  -0.000007   0.000000   0.000001
     8  H   -0.000005  -0.000007   0.000000   0.000000
     9  C    0.003681   0.000600  -0.000103  -0.000003
    10  H   -0.000263  -0.000019   0.000013  -0.000001
    11  C   -0.000027  -0.000052  -0.000004   0.000012
    12  H   -0.000048  -0.000002   0.000001   0.000002
    13  H    0.000166  -0.000011   0.000000   0.000011
    14  H    0.000003   0.000000   0.000000  -0.000001
    15  C   -0.025933  -0.001908   0.000753   0.000985
    16  O   -0.005023   0.010365   0.000368   0.000375
    17  N    0.188085  -0.031952  -0.047430  -0.048298
    18  H   -0.021746   0.002277  -0.001529  -0.000597
    19  C    4.950565   0.396640   0.402367   0.403012
    20  H    0.396640   0.431872  -0.022320  -0.022507
    21  H    0.402367  -0.022320   0.533738  -0.036668
    22  H    0.403012  -0.022507  -0.036668   0.530159
 Mulliken atomic charges:
              1
     1  H    0.216842
     2  C   -0.574984
     3  H    0.183286
     4  H    0.190915
     5  C    0.755632
     6  O   -0.650978
     7  N   -0.803765
     8  H    0.412334
     9  C   -0.007343
    10  H    0.193888
    11  C   -0.516134
    12  H    0.176529
    13  H    0.128268
    14  H    0.279065
    15  C    0.779836
    16  O   -0.654507
    17  N   -0.793389
    18  H    0.394560
    19  C   -0.291413
    20  H    0.237029
    21  H    0.170812
    22  H    0.173519
 Sum of Mulliken atomic charges =   0.00000
 Mulliken charges with hydrogens summed into heavy atoms:
              1
     2  C    0.016059
     5  C    0.755632
     6  O   -0.650978
     7  N   -0.391432
     9  C    0.186545
    11  C    0.067728
    15  C    0.779836
    16  O   -0.654507
    17  N   -0.398830
    19  C    0.289947
 Sum of Mulliken charges with hydrogens summed into heavy atoms =   0.00000
 Electronic spatial extent (au):  <R**2>=           1942.2843
 Charge=              0.0000 electrons
 Dipole moment (field-independent basis, Debye):
    X=             -2.3329    Y=             -0.0130    Z=              1.7005  Tot=              2.8869
 Quadrupole moment (field-independent basis, Debye-Ang):
   XX=            -54.3894   YY=            -64.5006   ZZ=            -59.9883
   XY=            -14.3045   XZ=             -0.9918   YZ=             -0.1760
 Traceless Quadrupole moment (field-independent basis, Debye-Ang):
   XX=              5.2367   YY=             -4.8745   ZZ=             -0.3622
   XY=            -14.3045   XZ=             -0.9918   YZ=             -0.1760
 Octapole moment (field-independent basis, Debye-Ang**2):
  XXX=            -37.0553  YYY=              1.1939  ZZZ=              0.0661  XYY=             -3.2598
  XXY=            -17.6288  XXZ=              1.6236  XZZ=              0.5809  YZZ=             -0.2764
  YYZ=              5.4277  XYZ=             -0.3859
 Hexadecapole moment (field-independent basis, Debye-Ang**3):
 XXXX=          -1833.2824 YYYY=           -421.7056 ZZZZ=           -110.1028 XXXY=            -58.6389
 XXXZ=              0.8560 YYYX=            -19.4326 YYYZ=              1.5333 ZZZX=             -0.4042
 ZZZY=              1.9361 XXYY=           -414.4336 XXZZ=           -346.6079 YYZZ=            -86.6492
 XXYZ=              7.0040 YYXZ=             -2.7390 ZZXY=             -0.7794
 N-N= 5.575579138685D+02 E-N=-2.270534988444D+03  KE= 4.919451320304D+02
 Calling FoFJK, ICntrl=      2127 FMM=F ISym2X=0 I1Cent= 0 IOpClX= 0 NMat=1 NMatS=1 NMatT=0.
 ***** Axes restored to original set *****
 -------------------------------------------------------------------
 Center     Atomic                   Forces (Hartrees/Bohr)
 Number     Number              X              Y              Z
 -------------------------------------------------------------------
      1        1           0.004610792    0.007772766    0.002973920
      2        6           0.005526559    0.007770467    0.001545791
      3        1          -0.003068718    0.000402971   -0.004039376
      4        1          -0.001057247   -0.003501441    0.003753089
      5        6           0.016410170   -0.041786053   -0.024310534
      6        8          -0.048701224   -0.001778260    0.021941655
      7        7          -0.006476998    0.015963556    0.009558033
      8        1           0.011798938   -0.003417557   -0.008645362
      9        6           0.007393691   -0.001458517   -0.002408799
     10        1          -0.000761395    0.001957554    0.000031825
     11        6           0.021101242   -0.005238638   -0.004406062
     12        1           0.004703937   -0.002163054    0.002005381
     13        1          -0.004141907   -0.000211978   -0.003147653
     14        1           0.006544540    0.022438225   -0.004664331
     15        6          -0.051755834    0.010726633    0.005435261
     16        8           0.033436425   -0.015717027    0.001208093
     17        7           0.013224731   -0.000905043    0.002698201
     18        1          -0.015416733    0.007773438    0.000322833
     19        6           0.001902480    0.003871370    0.000121522
     20        1           0.009090104   -0.005079118   -0.000015008
     21        1          -0.002156709    0.001337816   -0.004316553
     22        1          -0.002206844    0.001241892    0.004358072
 -------------------------------------------------------------------
 Cartesian Forces:  Max     0.051755834 RMS     0.013677757

 GradGradGradGradGradGradGradGradGradGradGradGradGradGradGradGradGradGrad
 Berny optimization.
 Internal  Forces:  Max     0.097256526 RMS     0.018221387
 Search for a local minimum.
 Step number   1 out of a maximum of  108
 All quantities printed in internal units (Hartrees-Bohrs-Radians)
 Mixed Optimization -- RFO/linear search
 Second derivative matrix not updated -- first step.
     Eigenvalues ---    0.00369   0.00435   0.00999   0.01044   0.01269
     Eigenvalues ---    0.01422   0.01660   0.02551   0.02552   0.03503
     Eigenvalues ---    0.05232   0.05841   0.05844   0.05844   0.07165
     Eigenvalues ---    0.07464   0.07685   0.07686   0.15421   0.16000
     Eigenvalues ---    0.16000   0.16000   0.16000   0.16000   0.16000
     Eigenvalues ---    0.16000   0.16000   0.16000   0.16000   0.16000
     Eigenvalues ---    0.16180   0.22000   0.22000   0.25000   0.25000
     Eigenvalues ---    0.25000   0.25000   0.29422   0.29887   0.30174
     Eigenvalues ---    0.34808   0.34810   0.34812   0.34814   0.34816
     Eigenvalues ---    0.34818   0.34819   0.34819   0.34821   0.34822
     Eigenvalues ---    0.38376   0.38379   0.45967   0.45976   0.58327
     Eigenvalues ---    0.58351   0.91476   0.915221000.000001000.00000
     Eigenvalues --- 1000.000001000.000001000.000001000.000001000.00000
     Eigenvalues --- 1000.000001000.000001000.000001000.000001000.00000
     Eigenvalues --- 1000.000001000.000001000.000001000.000001000.00000
     Eigenvalues --- 1000.000001000.000001000.000001000.000001000.00000
     Eigenvalues --- 1000.000001000.000001000.000001000.000001000.00000
     Eigenvalues --- 1000.000001000.000001000.000001000.000001000.00000
     Eigenvalues --- 1000.000001000.000001000.000001000.000001000.00000
     Eigenvalues --- 1000.000001000.000001000.00000
 RFO step:  Lambda=-9.36963188D-02 EMin= 3.68861443D-03
 Linear search not attempted -- first point.
 Maximum step size (   0.300) exceeded in Quadratic search.
    -- Step size scaled by   0.529
 Iteration  1 RMS(Cart)=  0.19394389 RMS(Int)=  0.00927618
 Iteration  2 RMS(Cart)=  0.02480525 RMS(Int)=  0.00044413
 Iteration  3 RMS(Cart)=  0.00029032 RMS(Int)=  0.00043086
 Iteration  4 RMS(Cart)=  0.00000010 RMS(Int)=  0.00043086
 Iteration  1 RMS(Cart)=  0.00013410 RMS(Int)=  0.00008999
 Iteration  2 RMS(Cart)=  0.00008748 RMS(Int)=  0.00009951
 Iteration  3 RMS(Cart)=  0.00005777 RMS(Int)=  0.00011438
 Iteration  4 RMS(Cart)=  0.00003845 RMS(Int)=  0.00012677
 Iteration  5 RMS(Cart)=  0.00002569 RMS(Int)=  0.00013581
 Iteration  6 RMS(Cart)=  0.00001721 RMS(Int)=  0.00014212
 Iteration  7 RMS(Cart)=  0.00001154 RMS(Int)=  0.00014644
 Iteration  8 RMS(Cart)=  0.00000774 RMS(Int)=  0.00014937
 Iteration  9 RMS(Cart)=  0.00000519 RMS(Int)=  0.00015135
 Iteration 10 RMS(Cart)=  0.00000348 RMS(Int)=  0.00015267
 Iteration 11 RMS(Cart)=  0.00000233 RMS(Int)=  0.00015356
 Iteration 12 RMS(Cart)=  0.00000156 RMS(Int)=  0.00015416
 Iteration 13 RMS(Cart)=  0.00000105 RMS(Int)=  0.00015456
 Iteration 14 RMS(Cart)=  0.00000070 RMS(Int)=  0.00015483
 Variable       Old X    -DE/DX   Delta X   Delta X   Delta X     New X
                                 (Linear)    (Quad)   (Total)
    R1        2.05977  -0.00852   0.00000  -0.01019  -0.01019   2.04959
    R2        2.05965  -0.00312   0.00000  -0.00374  -0.00374   2.05592
    R3        2.05987  -0.00328   0.00000  -0.00392  -0.00392   2.05595
    R4        2.89132  -0.01000   0.00000  -0.01362  -0.01362   2.87769
    R5        2.32240  -0.04456   0.00000  -0.02334  -0.02334   2.29905
    R6        2.52289   0.03086   0.00000   0.02410   0.02410   2.54699
    R7        1.90859  -0.01442   0.00000  -0.01377  -0.01377   1.89481
    R8        2.73817   0.02703   0.00000   0.02992   0.02992   2.76809
    R9        2.05975  -0.00090   0.00000  -0.00107  -0.00107   2.05867
   R10        2.88188   0.01938   0.00000   0.02609   0.02609   2.90797
   R11        2.87618   0.00452   0.00000   0.00604   0.00604   2.88222
   R12        2.05972  -0.00457   0.00000  -0.00547  -0.00547   2.05425
   R13        2.05984  -0.00386   0.00000  -0.00461  -0.00461   2.05523
   R14        2.05966  -0.02131   0.00000  -0.02549  -0.02549   2.03417
   R15        2.32260  -0.03695   0.00000  -0.01936  -0.01936   2.30324
   R16        2.52270   0.00812   0.00000   0.00634   0.00634   2.52903
   R17        1.90869  -0.01726   0.00000  -0.01649  -0.01649   1.89220
   R18        2.73821   0.00137   0.00000   0.00152   0.00152   2.73973
   R19        2.05981  -0.01026   0.00000  -0.01228  -0.01228   2.04753
   R20        2.05970  -0.00409   0.00000  -0.00490  -0.00490   2.05480
   R21        2.05970  -0.00418   0.00000  -0.00500  -0.00500   2.05470
    A1        1.91123   0.00054   0.00000   0.00067   0.00072   1.91195
    A2        1.91109   0.00069   0.00000   0.00116   0.00121   1.91230
    A3        1.93910  -0.00812   0.00000  -0.01729  -0.01724   1.92186
    A4        1.91012  -0.00458   0.00000  -0.00877  -0.00886   1.90127
    A5        1.89607   0.00572   0.00000   0.01206   0.01204   1.90811
    A6        1.89594   0.00579   0.00000   0.01228   0.01226   1.90820
    A7        2.10313  -0.01658   0.00000  -0.02550  -0.02554   2.07759
    A8        2.03508  -0.03213   0.00000  -0.04941  -0.04945   1.98563
    A9        2.14497   0.04871   0.00000   0.07492   0.07487   2.21984
   A10        2.09430  -0.04619   0.00000  -0.07685  -0.07689   2.01741
   A11        2.12753   0.09726   0.00000   0.16387   0.16383   2.29136
   A12        2.06135  -0.05107   0.00000  -0.08702  -0.08706   1.97429
   A13        1.91114  -0.00597   0.00000   0.00576   0.00458   1.91572
   A14        1.93905   0.05205   0.00000   0.09341   0.09210   2.03115
   A15        1.93900  -0.03652   0.00000  -0.07242  -0.07134   1.86767
   A16        1.89609  -0.01022   0.00000  -0.01189  -0.01325   1.88284
   A17        1.89608   0.00764   0.00000   0.01376   0.01288   1.90896
   A18        1.88137  -0.00729   0.00000  -0.02937  -0.02706   1.85432
   A19        1.91115   0.00242   0.00000   0.00523   0.00511   1.91626
   A20        1.91106  -0.00116   0.00000  -0.00413  -0.00412   1.90694
   A21        1.91110   0.01316   0.00000   0.02894   0.02882   1.93992
   A22        1.91011  -0.00335   0.00000  -0.00999  -0.00999   1.90012
   A23        1.91023  -0.00473   0.00000  -0.00645  -0.00668   1.90355
   A24        1.91015  -0.00635   0.00000  -0.01363  -0.01362   1.89653
   A25        2.10312  -0.00062   0.00000  -0.00095  -0.00099   2.10213
   A26        2.03510   0.00127   0.00000   0.00196   0.00192   2.03702
   A27        2.14497  -0.00065   0.00000  -0.00101  -0.00105   2.14392
   A28        2.09439  -0.00353   0.00000  -0.00609  -0.00609   2.08829
   A29        2.12768   0.00628   0.00000   0.01058   0.01058   2.13826
   A30        2.06112  -0.00275   0.00000  -0.00449  -0.00449   2.05663
   A31        1.91102  -0.00416   0.00000  -0.00913  -0.00911   1.90190
   A32        1.91114   0.00416   0.00000   0.00891   0.00890   1.92004
   A33        1.91114   0.00402   0.00000   0.00861   0.00859   1.91973
   A34        1.91015  -0.00055   0.00000  -0.00159  -0.00158   1.90858
   A35        1.91015  -0.00054   0.00000  -0.00161  -0.00159   1.90856
   A36        1.91020  -0.00294   0.00000  -0.00519  -0.00524   1.90495
    D1       -0.00008  -0.00156   0.00000  -0.00791  -0.00768  -0.00776
    D2        3.14153   0.00167   0.00000   0.00813   0.00789  -3.13376
    D3        2.10341  -0.00222   0.00000  -0.00998  -0.00980   2.09361
    D4       -1.03816   0.00101   0.00000   0.00605   0.00577  -1.03239
    D5       -2.10332  -0.00114   0.00000  -0.00659  -0.00630  -2.10962
    D6        1.03830   0.00209   0.00000   0.00945   0.00927   1.04757
    D7        0.00004   0.00453   0.00000   0.00300   0.00294   0.00298
    D8        3.14152   0.00154   0.00000   0.02217   0.02159  -3.12007
    D9       -3.14153   0.00784   0.00000   0.01945   0.02003  -3.12150
   D10       -0.00005   0.00485   0.00000   0.03862   0.03868   0.03863
   D11       -1.57078  -0.00223   0.00000  -0.02488  -0.02460  -1.59538
   D12        0.52366   0.01405   0.00000   0.02307   0.02492   0.54859
   D13        2.61802   0.01521   0.00000   0.00000   0.00000   2.61801
   D14        1.57071  -0.00517   0.00000  -0.00606  -0.00631   1.56440
   D15       -2.61803   0.01111   0.00000   0.04190   0.04321  -2.57482
   D16       -0.52368   0.01228   0.00000   0.01883   0.01829  -0.50539
   D17        1.04724  -0.01143   0.00000  -0.03757  -0.03781   1.00943
   D18        3.14157  -0.01476   0.00000  -0.04914  -0.04945   3.09212
   D19       -1.04726  -0.01518   0.00000  -0.05062  -0.05099  -1.09825
   D20       -3.13259   0.00679   0.00000   0.01968   0.01984  -3.11275
   D21       -1.03826   0.00345   0.00000   0.00811   0.00820  -1.03006
   D22        1.05609   0.00303   0.00000   0.00663   0.00666   1.06275
   D23       -1.08102   0.00634   0.00000   0.01349   0.01376  -1.06726
   D24        1.01331   0.00301   0.00000   0.00192   0.00213   1.01544
   D25        3.10766   0.00259   0.00000   0.00044   0.00059   3.10825
   D26        0.00000  -0.02062   0.00000  -0.01596  -0.01632  -0.01632
   D27        3.14159  -0.02253   0.00000   0.00000   0.00000   3.14159
   D28       -2.10332   0.00443   0.00000   0.01284   0.01281  -2.09051
   D29        1.03828   0.00252   0.00000   0.02879   0.02913   1.06741
   D30        2.12829   0.01643   0.00000   0.03561   0.03639   2.16468
   D31       -1.01330   0.01451   0.00000   0.05157   0.05272  -0.96059
   D32        0.00000   0.00083   0.00000  -0.00889  -0.00908  -0.00908
   D33        3.14159   0.00098   0.00000  -0.00816  -0.00834   3.13325
   D34        3.14159  -0.00114   0.00000   0.00748   0.00767  -3.13392
   D35        0.00000  -0.00098   0.00000   0.00822   0.00840   0.00840
   D36        0.00000  -0.00010   0.00000  -0.00042  -0.00042  -0.00042
   D37        2.09435  -0.00077   0.00000  -0.00251  -0.00253   2.09182
   D38       -2.09435   0.00065   0.00000   0.00188   0.00191  -2.09244
   D39        3.14159   0.00006   0.00000   0.00030   0.00030  -3.14129
   D40       -1.04724  -0.00062   0.00000  -0.00178  -0.00181  -1.04905
   D41        1.04724   0.00080   0.00000   0.00260   0.00263   1.04987
         Item               Value     Threshold  Converged?
 Maximum Force            0.097257     0.000450     NO 
 RMS     Force            0.017961     0.000300     NO 
 Maximum Displacement     0.697368     0.001800     NO 
 RMS     Displacement     0.210313     0.001200     NO 
 Predicted change in Energy=-4.069695D-02
 GradGradGradGradGradGradGradGradGradGradGradGradGradGradGradGradGradGrad

                          Input orientation:                          
 ---------------------------------------------------------------------
 Center     Atomic      Atomic             Coordinates (Angstroms)
 Number     Number       Type             X           Y           Z
 ---------------------------------------------------------------------
      1          1           0        1.569972    1.415300   -0.858404
      2          6           0        1.815224    2.375893   -0.418565
      3          1           0        1.579531    2.360783    0.643435
      4          1           0        1.229622    3.156818   -0.899074
      5          6           0        3.297598    2.672537   -0.601643
      6          8           0        3.997121    1.856510   -1.171642
      7          7           0        3.685601    3.849408   -0.071530
      8          1           0        2.963546    4.381592    0.376583
      9          6           0        4.990132    4.515199   -0.047119
     10          1           0        5.532117    4.230624    0.854028
     11          6           0        5.911084    4.259035   -1.253035
     12          1           0        5.410145    4.560711   -2.169417
     13          1           0        6.820791    4.844339   -1.140407
     14          1           0        6.177531    3.218520   -1.324120
     15          6           0        4.724280    6.016887   -0.024697
     16          8           0        3.582305    6.442267   -0.046353
     17          7           0        5.796531    6.817358   -0.000392
     18          1           0        6.713957    6.416307    0.010132
     19          6           0        5.689525    8.263150    0.012509
     20          1           0        4.641795    8.538942   -0.001039
     21          1           0        6.155754    8.662756    0.909887
     22          1           0        6.183236    8.680264   -0.861838
 ---------------------------------------------------------------------
                    Distance matrix (angstroms):
                    1          2          3          4          5
     1  H    0.000000
     2  C    1.084594   0.000000
     3  H    1.774696   1.087944   0.000000
     4  H    1.774930   1.087963   1.770718   0.000000
     5  C    2.152036   1.522809   2.144567   2.144649   0.000000
     6  O    2.486732   2.365916   3.064888   3.069877   1.216606
     7  N    3.319628   2.406240   2.676324   2.682600   1.347810
     8  H    3.502303   2.444122   2.463814   2.476664   1.997345
     9  C    4.686688   3.846380   4.092747   4.088087   2.562727
    10  H    5.153355   4.344516   4.377625   4.768426   3.088639
    11  C    5.204595   4.584608   5.095322   4.822473   3.125954
    12  H    5.134130   4.556575   5.236930   4.589277   3.238205
    13  H    6.277653   5.627609   6.068027   5.845266   4.173712
    14  H    4.969717   4.534289   5.074307   4.966516   3.018954
    15  C    5.640862   4.677027   4.868568   4.599692   3.681435
    16  O    5.475336   4.449328   4.598416   4.129943   3.821030
    17  N    6.912468   5.979322   6.169171   5.921473   4.877060
    18  H    7.226686   6.364457   6.573483   6.444288   5.105055
    19  C    8.038797   7.060867   7.219977   6.840786   6.111747
    20  H    7.804962   6.793159   6.925493   6.435576   6.048330
    21  H    8.756818   7.754330   7.792797   7.606213   6.807092
    22  H    8.605923   7.682520   7.962147   7.419443   6.669887
                    6          7          8          9         10
     6  O    0.000000
     7  N    2.297592   0.000000
     8  H    3.137087   1.002691   0.000000
     9  C    3.052744   1.464812   2.074711   0.000000
    10  H    3.477926   2.100383   2.616926   1.089402   0.000000
    11  C    3.072784   2.552748   3.370260   1.538832   2.141060
    12  H    3.210124   2.807336   3.535541   2.163939   3.043855
    13  H    4.111107   3.458584   4.170579   2.157527   2.452569
    14  H    2.575366   2.859496   3.817700   2.173022   2.487015
    15  C    4.376412   2.403958   2.436268   1.525204   2.148370
    16  O    4.739991   2.595038   2.192742   2.386539   3.082826
    17  N    5.405526   3.642776   3.755113   2.439754   2.736995
    18  H    5.437787   3.970715   4.282515   2.566917   2.624140
    19  C    6.731380   4.848082   4.757101   3.813115   4.122402
    20  H    6.814749   4.786544   4.499186   4.039055   4.481675
    21  H    7.437570   5.498469   5.366840   4.413249   4.476141
    22  H    7.172077   5.495447   5.511685   4.408518   4.813257
                   11         12         13         14         15
    11  C    0.000000
    12  H    1.087062   0.000000
    13  H    1.087581   1.768962   0.000000
    14  H    1.076438   1.762069   1.758073   0.000000
    15  C    2.450992   2.681545   2.648591   3.410469   0.000000
    16  O    3.412594   3.374709   3.773344   4.331332   1.218821
    17  N    2.850834   3.153794   2.498309   3.853447   1.338307
    18  H    2.625647   3.145409   1.950958   3.506255   2.029670
    19  C    4.205191   4.306613   3.781170   5.241472   2.445154
    20  H    4.636398   4.595492   4.438048   5.693498   2.523514
    21  H    4.912317   5.183128   4.384779   5.884808   3.150109
    22  H    4.446838   4.390689   3.898513   5.481276   3.150068
                   16         17         18         19         20
    16  O    0.000000
    17  N    2.246242   0.000000
    18  H    3.132269   1.001311   0.000000
    19  C    2.785580   1.449804   2.111942   0.000000
    20  H    2.349599   2.072985   2.966405   1.083505   0.000000
    21  H    3.530950   2.088814   2.483482   1.087355   1.771211
    22  H    3.526824   2.088551   2.483445   1.087298   1.771154
                   21         22
    21  H    0.000000
    22  H    1.772024   0.000000
 Stoichiometry    C6H12N2O2
 Framework group  C1[X(C6H12N2O2)]
 Deg. of freedom    60
 Full point group                 C1      NOp   1
 Largest Abelian subgroup         C1      NOp   1
 Largest concise Abelian subgroup C1      NOp   1
                         Standard orientation:                         
 ---------------------------------------------------------------------
 Center     Atomic      Atomic             Coordinates (Angstroms)
 Number     Number       Type             X           Y           Z
 ---------------------------------------------------------------------
      1          1           0        4.262241   -0.929059   -0.344213
      2          6           0        3.251939   -1.240381   -0.101909
      3          1           0        3.254343   -1.781873    0.841703
      4          1           0        2.875183   -1.895954   -0.884177
      5          6           0        2.343531   -0.024025    0.017349
      6          8           0        2.815812    1.084473   -0.150913
      7          7           0        1.067425   -0.327369    0.327389
      8          1           0        0.870368   -1.303583    0.443858
      9          6           0       -0.111312    0.523009    0.509351
     10          1           0       -0.201389    0.808520    1.556809
     11          6           0       -0.164966    1.807286   -0.336674
     12          1           0       -0.106806    1.555249   -1.392514
     13          1           0       -1.104782    2.321464   -0.149057
     14          1           0        0.645933    2.470187   -0.088229
     15          6           0       -1.326081   -0.305657    0.104510
     16          8           0       -1.188242   -1.448041   -0.297341
     17          7           0       -2.519958    0.291949    0.197200
     18          1           0       -2.577338    1.235354    0.527832
     19          6           0       -3.755423   -0.375037   -0.164304
     20          1           0       -3.528135   -1.379994   -0.499542
     21          1           0       -4.417787   -0.423540    0.696661
     22          1           0       -4.250785    0.168545   -0.965150
 ---------------------------------------------------------------------
 Rotational constants (GHZ):      3.0954410      0.6719307      0.5734938
 Standard basis: 6-31G(d) (6D, 7F)
 There are   174 symmetry adapted basis functions of A   symmetry.
 Integral buffers will be    131072 words long.
 Raffenetti 1 integral format.
 Two-electron integral symmetry is turned on.
   174 basis functions,   328 primitive gaussians,   174 cartesian basis functions
    39 alpha electrons       39 beta electrons
       nuclear repulsion energy       552.6655109711 Hartrees.
 NAtoms=   22 NActive=   22 NUniq=   22 SFac= 7.50D-01 NAtFMM=   80 NAOKFM=F Big=F
 One-electron integrals computed using PRISM.
 NBasis=   174 RedAO= T  NBF=   174
 NBsUse=   174 1.00D-06 NBFU=   174
 Initial guess read from the read-write file.
 B after Tr=     0.000000    0.000000    0.000000
         Rot=    1.000000    0.000000    0.000000    0.000000 Ang=   0.00 deg.
 Initial guess orbital symmetries:
       Occupied  (A) (A) (A) (A) (A) (A) (A) (A) (A) (A) (A) (A)
                 (A) (A) (A) (A) (A) (A) (A) (A) (A) (A) (A) (A)
                 (A) (A) (A) (A) (A) (A) (A) (A) (A) (A) (A) (A)
                 (A) (A) (A)
       Virtual   (A) (A) (A) (A) (A) (A) (A) (A) (A) (A) (A) (A)
                 (A) (A) (A) (A) (A) (A) (A) (A) (A) (A) (A) (A)
                 (A) (A) (A) (A) (A) (A) (A) (A) (A) (A) (A) (A)
                 (A) (A) (A) (A) (A) (A) (A) (A) (A) (A) (A) (A)
                 (A) (A) (A) (A) (A) (A) (A) (A) (A) (A) (A) (A)
                 (A) (A) (A) (A) (A) (A) (A) (A) (A) (A) (A) (A)
                 (A) (A) (A) (A) (A) (A) (A) (A) (A) (A) (A) (A)
                 (A) (A) (A) (A) (A) (A) (A) (A) (A) (A) (A) (A)
                 (A) (A) (A) (A) (A) (A) (A) (A) (A) (A) (A) (A)
                 (A) (A) (A) (A) (A) (A) (A) (A) (A) (A) (A) (A)
                 (A) (A) (A) (A) (A) (A) (A) (A) (A) (A) (A) (A)
                 (A) (A) (A)
 Harris functional with IExCor=  205 diagonalized for initial guess.
 ExpMin= 1.61D-01 ExpMax= 5.48D+03 ExpMxC= 8.25D+02 IAcc=1 IRadAn=         1 AccDes= 0.00D+00
 HarFok:  IExCor=  205 AccDes= 0.00D+00 IRadAn=         1 IDoV= 1
 ScaDFX=  1.000000  1.000000  1.000000  1.000000
 FoFCou: FMM=F IPFlag=           0 FMFlag=      100000 FMFlg1=           0
         NFxFlg=           0 DoJE=T BraDBF=F KetDBF=T FulRan=T
         Omega=  0.000000  0.000000  1.000000  0.000000  0.000000 ICntrl=     500 IOpCl=  0
         NMat0=    1 NMatS0=    1 NMatT0=    0 NMatD0=    1 NMtDS0=    0 NMtDT0=    0
         I1Cent=           4 NGrid=           0.
 Petite list used in FoFCou.
 Requested convergence on RMS density matrix=1.00D-08 within 128 cycles.
 Requested convergence on MAX density matrix=1.00D-06.
 Requested convergence on             energy=1.00D-06.
 No special actions if energy rises.
 Integral accuracy reduced to 1.0D-05 until final iterations.
 Initial convergence to 1.0D-05 achieved.  Increase integral accuracy.
 SCF Done:  E(RHF) =  -492.844858005     A.U. after   15 cycles
             Convg  =    0.7138D-08             -V/T =  2.0019
 Calling FoFJK, ICntrl=      2127 FMM=F ISym2X=0 I1Cent= 0 IOpClX= 0 NMat=1 NMatS=1 NMatT=0.
 ***** Axes restored to original set *****
 -------------------------------------------------------------------
 Center     Atomic                   Forces (Hartrees/Bohr)
 Number     Number              X              Y              Z
 -------------------------------------------------------------------
      1        1           0.003496972    0.003645349    0.001270657
      2        6           0.001629796    0.006153932    0.001637187
      3        1          -0.002769521    0.000292607   -0.002189419
      4        1          -0.001572377   -0.001998591    0.002581244
      5        6           0.007358675   -0.032521874   -0.014414549
      6        8          -0.003000931    0.025117630    0.012654558
      7        7           0.005758971    0.009806732    0.004832471
      8        1           0.006094379   -0.000066556   -0.006771335
      9        6           0.001064515   -0.006552461   -0.007055270
     10        1          -0.002065834    0.001914398    0.000025546
     11        6          -0.005284576   -0.006985914   -0.001203381
     12        1           0.002741610   -0.001344868    0.001030137
     13        1          -0.002907592   -0.005100655   -0.002690946
     14        1          -0.000876152   -0.002235764   -0.001416302
     15        6          -0.035136483    0.007784644    0.003962413
     16        8           0.022484038   -0.005193887    0.002942111
     17        7           0.008315341    0.002484810    0.003257910
     18        1          -0.008709195    0.004352320    0.001256239
     19        6           0.001282989    0.001526109    0.000325186
     20        1           0.004846654   -0.002140368    0.000020371
     21        1          -0.001330150    0.000572237   -0.002395348
     22        1          -0.001421127    0.000490170    0.002340519
 -------------------------------------------------------------------
 Cartesian Forces:  Max     0.035136483 RMS     0.008504223

 GradGradGradGradGradGradGradGradGradGradGradGradGradGradGradGradGradGrad
 Berny optimization.
 Using GEDIIS/GDIIS optimizer.
 Internal  Forces:  Max     0.024501733 RMS     0.006921581
 Search for a local minimum.
 Step number   2 out of a maximum of  108
 All quantities printed in internal units (Hartrees-Bohrs-Radians)
 Mixed Optimization -- RFO/linear search
 Update second derivatives using D2CorX and points    1    2
 DE= -1.27D-02 DEPred=-4.07D-02 R= 3.12D-01
 Trust test= 3.12D-01 RLast= 3.00D-01 DXMaxT set to 3.00D-01
 Use linear search instead of GDIIS.
     Eigenvalues ---    0.00369   0.00437   0.01001   0.01044   0.01346
     Eigenvalues ---    0.01428   0.01660   0.02552   0.02571   0.03646
     Eigenvalues ---    0.04970   0.05652   0.05844   0.06116   0.07228
     Eigenvalues ---    0.07354   0.07599   0.07709   0.15391   0.15948
     Eigenvalues ---    0.15999   0.16000   0.16000   0.16000   0.16000
     Eigenvalues ---    0.16000   0.16000   0.16000   0.16000   0.16275
     Eigenvalues ---    0.16901   0.21982   0.24201   0.24859   0.24997
     Eigenvalues ---    0.25000   0.29378   0.29773   0.30016   0.34454
     Eigenvalues ---    0.34645   0.34808   0.34811   0.34814   0.34816
     Eigenvalues ---    0.34817   0.34818   0.34819   0.34822   0.36959
     Eigenvalues ---    0.38376   0.45585   0.45972   0.56310   0.58245
     Eigenvalues ---    0.76538   0.88314   0.915351000.000001000.00000
     Eigenvalues --- 1000.000001000.000001000.000001000.000001000.00000
     Eigenvalues --- 1000.000001000.000001000.000001000.000001000.00000
     Eigenvalues --- 1000.000001000.000001000.000001000.000001000.00000
     Eigenvalues --- 1000.000001000.000001000.000001000.000001000.00000
     Eigenvalues --- 1000.000001000.000001000.000001000.000001000.00000
     Eigenvalues --- 1000.000001000.000001000.000001000.000001000.00000
     Eigenvalues --- 1000.000001000.000001000.000001000.000001000.00000
     Eigenvalues --- 1000.000001000.000001000.00000
 RFO step:  Lambda=-8.03322206D-03 EMin= 3.68861410D-03
 Quartic linear search produced a step of -0.31019.
 Maximum step size (   0.300) exceeded in Quadratic search.
    -- Step size scaled by   0.965
 Iteration  1 RMS(Cart)=  0.07649259 RMS(Int)=  0.00260507
 Iteration  2 RMS(Cart)=  0.00400003 RMS(Int)=  0.00038152
 Iteration  3 RMS(Cart)=  0.00000673 RMS(Int)=  0.00038147
 Iteration  4 RMS(Cart)=  0.00000000 RMS(Int)=  0.00038147
 Iteration  1 RMS(Cart)=  0.00013426 RMS(Int)=  0.00005060
 Iteration  2 RMS(Cart)=  0.00007281 RMS(Int)=  0.00005629
 Iteration  3 RMS(Cart)=  0.00004007 RMS(Int)=  0.00006397
 Iteration  4 RMS(Cart)=  0.00002252 RMS(Int)=  0.00006960
 Iteration  5 RMS(Cart)=  0.00001301 RMS(Int)=  0.00007333
 Iteration  6 RMS(Cart)=  0.00000775 RMS(Int)=  0.00007572
 Iteration  7 RMS(Cart)=  0.00000477 RMS(Int)=  0.00007726
 Iteration  8 RMS(Cart)=  0.00000302 RMS(Int)=  0.00007824
 Iteration  9 RMS(Cart)=  0.00000195 RMS(Int)=  0.00007887
 Iteration 10 RMS(Cart)=  0.00000128 RMS(Int)=  0.00007928
 Iteration 11 RMS(Cart)=  0.00000085 RMS(Int)=  0.00007955
 Variable       Old X    -DE/DX   Delta X   Delta X   Delta X     New X
                                 (Linear)    (Quad)   (Total)
    R1        2.04959  -0.00453   0.00316  -0.01506  -0.01190   2.03769
    R2        2.05592  -0.00154   0.00116  -0.00529  -0.00414   2.05178
    R3        2.05595  -0.00173   0.00122  -0.00576  -0.00455   2.05140
    R4        2.87769  -0.00194   0.00423  -0.01272  -0.00849   2.86920
    R5        2.29905  -0.02450   0.00724  -0.03498  -0.02774   2.27131
    R6        2.54699  -0.00269  -0.00747   0.01408   0.00660   2.55359
    R7        1.89481  -0.00745   0.00427  -0.02001  -0.01574   1.87907
    R8        2.76809  -0.01987  -0.00928  -0.01389  -0.02317   2.74492
    R9        2.05867  -0.00151   0.00033  -0.00351  -0.00317   2.05550
   R10        2.90797   0.00218  -0.00809   0.02096   0.01286   2.92084
   R11        2.88222   0.01158  -0.00187   0.02861   0.02674   2.90895
   R12        2.05425  -0.00251   0.00170  -0.00821  -0.00652   2.04773
   R13        2.05523  -0.00546   0.00143  -0.01317  -0.01173   2.04350
   R14        2.03417   0.00204   0.00791  -0.01271  -0.00480   2.02937
   R15        2.30324  -0.02293   0.00601  -0.03090  -0.02490   2.27834
   R16        2.52903   0.00684  -0.00197   0.01218   0.01021   2.53924
   R17        1.89220  -0.00971   0.00511  -0.02508  -0.01997   1.87223
   R18        2.73973   0.00020  -0.00047   0.00134   0.00087   2.74061
   R19        2.04753  -0.00523   0.00381  -0.01771  -0.01390   2.03362
   R20        2.05480  -0.00234   0.00152  -0.00753  -0.00601   2.04879
   R21        2.05470  -0.00234   0.00155  -0.00760  -0.00605   2.04864
    A1        1.91195  -0.00012  -0.00022  -0.00132  -0.00145   1.91050
    A2        1.91230   0.00011  -0.00037   0.00038   0.00010   1.91240
    A3        1.92186  -0.00525   0.00535  -0.02983  -0.02439   1.89747
    A4        1.90127  -0.00358   0.00275  -0.01650  -0.01397   1.88730
    A5        1.90811   0.00447  -0.00373   0.02368   0.01988   1.92799
    A6        1.90820   0.00441  -0.00380   0.02382   0.01995   1.92815
    A7        2.07759   0.01557   0.00792   0.02528   0.03275   2.11034
    A8        1.98563   0.00132   0.01534  -0.02545  -0.01054   1.97509
    A9        2.21984  -0.01687  -0.02322   0.00090  -0.02273   2.19711
   A10        2.01741   0.01124   0.02385  -0.00859   0.01511   2.03252
   A11        2.29136  -0.01765  -0.05082   0.04028  -0.01067   2.28069
   A12        1.97429   0.00639   0.02701  -0.03222  -0.00534   1.96895
   A13        1.91572   0.00565  -0.00142   0.00018  -0.00172   1.91399
   A14        2.03115  -0.01914  -0.02857  -0.04141  -0.06982   1.96133
   A15        1.86767  -0.00334   0.02213  -0.03337  -0.00957   1.85809
   A16        1.88284   0.00214   0.00411  -0.00451  -0.00208   1.88076
   A17        1.90896  -0.00828  -0.00399   0.01155   0.00699   1.91595
   A18        1.85432   0.02336   0.00839   0.07226   0.07951   1.93383
   A19        1.91626   0.00215  -0.00158   0.01017   0.00850   1.92475
   A20        1.90694   0.00457   0.00128   0.02120   0.02235   1.92930
   A21        1.93992  -0.00121  -0.00894   0.00440  -0.00449   1.93543
   A22        1.90012  -0.00229   0.00310  -0.00485  -0.00199   1.89812
   A23        1.90355  -0.00166   0.00207  -0.01966  -0.01751   1.88604
   A24        1.89653  -0.00165   0.00423  -0.01174  -0.00751   1.88902
   A25        2.10213   0.00239   0.00031   0.00582   0.00599   2.10812
   A26        2.03702   0.00221  -0.00059   0.00693   0.00620   2.04322
   A27        2.14392  -0.00455   0.00033  -0.01236  -0.01216   2.13175
   A28        2.08829  -0.00085   0.00189  -0.00533  -0.00346   2.08483
   A29        2.13826   0.00269  -0.00328   0.01377   0.01047   2.14873
   A30        2.05663  -0.00184   0.00139  -0.00846  -0.00709   2.04954
   A31        1.90190  -0.00209   0.00283  -0.01325  -0.01040   1.89150
   A32        1.92004   0.00221  -0.00276   0.01332   0.01054   1.93057
   A33        1.91973   0.00213  -0.00266   0.01278   0.01010   1.92982
   A34        1.90858  -0.00037   0.00049  -0.00278  -0.00228   1.90630
   A35        1.90856  -0.00038   0.00049  -0.00300  -0.00248   1.90607
   A36        1.90495  -0.00152   0.00163  -0.00720  -0.00563   1.89932
    D1       -0.00776   0.00028   0.00238   0.02287   0.02557   0.01781
    D2       -3.13376  -0.00017  -0.00245  -0.02343  -0.02620   3.12323
    D3        2.09361  -0.00032   0.00304   0.01762   0.02086   2.11447
    D4       -1.03239  -0.00077  -0.00179  -0.02868  -0.03091  -1.06331
    D5       -2.10962   0.00063   0.00195   0.02593   0.02833  -2.08128
    D6        1.04757   0.00018  -0.00288  -0.02037  -0.02344   1.02413
    D7        0.00298  -0.00010  -0.00091  -0.01203  -0.01366  -0.01069
    D8       -3.12007   0.00094  -0.00670   0.02747   0.02057  -3.09950
    D9       -3.12150  -0.00096  -0.00621  -0.06307  -0.06909   3.09260
   D10        0.03863   0.00009  -0.01200  -0.02357  -0.03485   0.00379
   D11       -1.59538   0.00072   0.00763  -0.00533   0.00192  -1.59345
   D12        0.54859  -0.00607  -0.00773  -0.04220  -0.05064   0.49794
   D13        2.61801   0.00946   0.00000   0.00000   0.00001   2.61802
   D14        1.56440   0.00170   0.00196   0.03324   0.03500   1.59940
   D15       -2.57482  -0.00509  -0.01340  -0.00363  -0.01757  -2.59239
   D16       -0.50539   0.01044  -0.00567   0.03857   0.03308  -0.47231
   D17        1.00943   0.00165   0.01173   0.06769   0.07858   1.08801
   D18        3.09212   0.00292   0.01534   0.08082   0.09547  -3.09559
   D19       -1.09825   0.00308   0.01582   0.08272   0.09781  -1.00045
   D20       -3.11275  -0.00289  -0.00615   0.03443   0.02818  -3.08458
   D21       -1.03006  -0.00162  -0.00254   0.04756   0.04507  -0.98499
   D22        1.06275  -0.00146  -0.00207   0.04946   0.04740   1.11015
   D23       -1.06726   0.00051  -0.00427   0.08264   0.07905  -0.98821
   D24        1.01544   0.00179  -0.00066   0.09577   0.09594   1.11137
   D25        3.10825   0.00195  -0.00018   0.09767   0.09827  -3.07667
   D26       -0.01632   0.00408   0.00506   0.02526   0.03048   0.01416
   D27        3.14159   0.00099   0.00000   0.00000   0.00001  -3.14159
   D28       -2.09051   0.00375  -0.00397   0.03779   0.03423  -2.05627
   D29        1.06741   0.00066  -0.00904   0.01252   0.00376   1.07116
   D30        2.16468  -0.00713  -0.01129  -0.00136  -0.01301   2.15167
   D31       -0.96059  -0.01022  -0.01635  -0.02663  -0.04349  -1.00408
   D32       -0.00908   0.00091   0.00282  -0.00226   0.00045  -0.00863
   D33        3.13325   0.00145   0.00259   0.01147   0.01396  -3.13597
   D34       -3.13392  -0.00234  -0.00238  -0.02837  -0.03066   3.11861
   D35        0.00840  -0.00179  -0.00261  -0.01465  -0.01715  -0.00874
   D36       -0.00042  -0.00029   0.00013  -0.00702  -0.00689  -0.00730
   D37        2.09182  -0.00069   0.00079  -0.01055  -0.00979   2.08203
   D38       -2.09244   0.00018  -0.00059  -0.00292  -0.00347  -2.09592
   D39       -3.14129   0.00024  -0.00009   0.00647   0.00637  -3.13492
   D40       -1.04905  -0.00016   0.00056   0.00294   0.00347  -1.04558
   D41        1.04987   0.00072  -0.00082   0.01057   0.00978   1.05965
         Item               Value     Threshold  Converged?
 Maximum Force            0.024502     0.000450     NO 
 RMS     Force            0.006811     0.000300     NO 
 Maximum Displacement     0.416710     0.001800     NO 
 RMS     Displacement     0.076492     0.001200     NO 
 Predicted change in Energy=-4.353852D-03
 GradGradGradGradGradGradGradGradGradGradGradGradGradGradGradGradGradGrad

                          Input orientation:                          
 ---------------------------------------------------------------------
 Center     Atomic      Atomic             Coordinates (Angstroms)
 Number     Number       Type             X           Y           Z
 ---------------------------------------------------------------------
      1          1           0        1.629094    1.451913   -0.895302
      2          6           0        1.853256    2.398493   -0.430044
      3          1           0        1.589171    2.355937    0.622246
      4          1           0        1.262397    3.181352   -0.895286
      5          6           0        3.335569    2.683202   -0.594279
      6          8           0        4.049739    1.917485   -1.184418
      7          7           0        3.712061    3.865956   -0.060079
      8          1           0        2.994564    4.409799    0.362046
      9          6           0        5.004916    4.527849   -0.041958
     10          1           0        5.549950    4.241942    0.854891
     11          6           0        5.875469    4.152104   -1.262595
     12          1           0        5.394835    4.472206   -2.179515
     13          1           0        6.846240    4.623825   -1.195898
     14          1           0        6.021232    3.089511   -1.316464
     15          6           0        4.720249    6.040468   -0.018421
     16          8           0        3.588285    6.455205   -0.003118
     17          7           0        5.783053    6.862432    0.001083
     18          1           0        6.696153    6.478005    0.007182
     19          6           0        5.666420    8.307686    0.031257
     20          1           0        4.621212    8.563842    0.027017
     21          1           0        6.128753    8.709341    0.925882
     22          1           0        6.144782    8.746648   -0.836928
 ---------------------------------------------------------------------
                    Distance matrix (angstroms):
                    1          2          3          4          5
     1  H    0.000000
     2  C    1.078299   0.000000
     3  H    1.766863   1.085756   0.000000
     4  H    1.767888   1.085557   1.758122   0.000000
     5  C    2.125734   1.518315   2.153355   2.153323   0.000000
     6  O    2.481909   2.371705   3.083937   3.074124   1.201926
     7  N    3.296051   2.396972   2.693025   2.677145   1.351304
     8  H    3.492066   2.444451   2.502235   2.467867   2.002992
     9  C    4.646047   3.823313   4.101912   4.067883   2.548431
    10  H    5.120601   4.326073   4.393052   4.750903   3.071359
    11  C    5.045557   4.466150   5.015097   4.728395   3.009222
    12  H    4.995216   4.461358   5.177985   4.515816   3.155010
    13  H    6.113101   5.519830   6.007140   5.774981   4.056203
    14  H    4.706377   4.316859   4.892841   4.778320   2.810592
    15  C    5.601696   4.653285   4.877487   4.571671   3.676981
    16  O    5.446775   4.432776   4.603426   4.113858   3.826401
    17  N    6.879869   5.962879   6.187325   5.898318   4.879611
    18  H    7.193829   6.347223   6.591738   6.419351   5.104490
    19  C    8.010003   7.047807   7.238546   6.821525   6.120375
    20  H    7.770649   6.773627   6.934383   6.411200   6.051514
    21  H    8.731203   7.742429   7.814457   7.586615   6.813745
    22  H    8.579512   7.673449   7.982730   7.403622   6.686998
                    6          7          8          9         10
     6  O    0.000000
     7  N    2.274798   0.000000
     8  H    3.117142   0.994362   0.000000
     9  C    3.005258   1.452552   2.053940   0.000000
    10  H    3.436934   2.087192   2.607886   1.087723   0.000000
    11  C    2.886681   2.491639   3.317450   1.545640   2.144243
    12  H    3.053866   2.773316   3.496387   2.173542   3.047080
    13  H    3.891635   3.418703   4.160337   2.175147   2.456000
    14  H    2.297360   2.741103   3.704224   2.173955   2.502996
    15  C    4.336833   2.397224   2.404543   1.539352   2.164665
    16  O    4.711615   2.592832   2.160911   2.392290   3.079422
    17  N    5.372364   3.643024   3.731136   2.461225   2.765916
    18  H    5.405716   3.966375   4.255017   2.581822   2.651862
    19  C    6.702700   4.853538   4.737274   3.837983   4.149965
    20  H    6.779987   4.785842   4.473735   4.054779   4.497416
    21  H    7.409789   5.501900   5.350431   4.436733   4.505297
    22  H    7.151743   5.508429   5.492693   4.441795   4.848552
                   11         12         13         14         15
    11  C    0.000000
    12  H    1.083613   0.000000
    13  H    1.081372   1.759849   0.000000
    14  H    1.073897   1.746160   1.746223   0.000000
    15  C    2.539373   2.754058   2.813035   3.476438   0.000000
    16  O    3.481633   3.454361   3.923130   4.355687   1.205647
    17  N    2.991872   3.258666   2.752180   4.003448   1.343710
    18  H    2.774107   3.240108   2.215381   3.699926   2.023929
    19  C    4.357363   4.435333   4.058167   5.401074   2.457231
[...]
    18  H    7.161667   6.303439   6.474637   6.449122   5.062418
    19  C    7.998369   6.993138   6.970158   6.935618   6.087344
    20  H    7.959547   6.925139   6.923479   6.704468   6.179206
    21  H    8.253113   7.231680   7.047791   7.253135   6.416121
    22  H    8.871404   7.897780   7.941199   7.844708   6.889381
                    6          7          8          9         10
     6  O    0.000000
     7  N    2.265119   0.000000
     8  H    3.113862   0.997123   0.000000
     9  C    2.938941   1.450042   2.048673   0.000000
    10  H    3.314031   2.087137   2.707573   1.087516   0.000000
    11  C    2.897145   2.507777   3.238881   1.537483   2.149607
    12  H    3.134641   2.780599   3.328737   2.168973   3.052362
    13  H    3.896447   3.431205   4.087538   2.170474   2.471418
    14  H    2.301735   2.779239   3.685741   2.164139   2.501983
    15  C    4.323500   2.390187   2.330849   1.537978   2.135162
    16  O    4.757733   2.604571   2.063044   2.402041   3.060751
    17  N    5.328880   3.631429   3.672620   2.448955   2.724176
    18  H    5.336273   3.949080   4.212019   2.565802   2.583248
    19  C    6.680323   4.824789   4.636791   3.815139   4.081957
    20  H    6.850028   4.981448   4.665675   4.166604   4.665314
    21  H    7.106309   5.083564   4.778755   4.209876   4.316459
    22  H    7.356631   5.670971   5.595233   4.509067   4.677622
                   11         12         13         14         15
    11  C    0.000000
    12  H    1.084751   0.000000
    13  H    1.083808   1.755769   0.000000
    14  H    1.076512   1.753722   1.754627   0.000000
    15  C    2.521261   2.757143   2.766723   3.462291   0.000000
    16  O    3.475620   3.463499   3.878935   4.366813   1.204056
    17  N    2.943477   3.242774   2.660226   3.947390   1.345048
    18  H    2.753859   3.273240   2.165321   3.648920   2.026189
    19  C    4.325800   4.448495   3.982922   5.360569   2.436111
    20  H    4.595317   4.462522   4.387157   5.667596   2.702327
    21  H    5.011048   5.236892   4.751062   5.998017   2.815643
    22  H    4.767521   4.922784   4.193234   5.771836   3.304132
                   16         17         18         19         20
    16  O    0.000000
    17  N    2.230579   0.000000
    18  H    3.106100   0.992470   0.000000
    19  C    2.745812   1.448928   2.111115   0.000000
    20  H    2.664417   2.083750   2.887960   1.080468   0.000000
    21  H    2.895245   2.105141   2.748665   1.083843   1.755980
    22  H    3.784233   2.065148   2.289520   1.081515   1.760291
                   21         22
    21  H    0.000000
    22  H    1.763910   0.000000
 Stoichiometry    C6H12N2O2
 Framework group  C1[X(C6H12N2O2)]
 Deg. of freedom    60
 Full point group                 C1      NOp   1
 Largest Abelian subgroup         C1      NOp   1
 Largest concise Abelian subgroup C1      NOp   1
                         Standard orientation:                         
 ---------------------------------------------------------------------
 Center     Atomic      Atomic             Coordinates (Angstroms)
 Number     Number       Type             X           Y           Z
 ---------------------------------------------------------------------
      1          1           0       -4.215985   -0.986815    0.179732
      2          6           0       -3.174408   -1.260617    0.261747
      3          1           0       -2.964555   -2.102476   -0.388327
      4          1           0       -2.972103   -1.566352    1.283917
      5          6           0       -2.322324   -0.054243   -0.080239
      6          8           0       -2.776821    1.057364   -0.077464
      7          7           0       -1.039657   -0.360239   -0.399061
      8          1           0       -0.759218   -1.307243   -0.261977
      9          6           0        0.090701    0.545384   -0.468066
     10          1           0        0.217834    0.900184   -1.488187
     11          6           0       -0.019626    1.760561    0.467363
     12          1           0       -0.094942    1.437581    1.500172
     13          1           0        0.855297    2.393507    0.375017
     14          1           0       -0.892419    2.343390    0.227742
     15          6           0        1.331672   -0.288741   -0.108064
     16          8           0        1.253704   -1.459124    0.163732
     17          7           0        2.506853    0.365549   -0.111345
     18          1           0        2.541803    1.303224   -0.434671
     19          6           0        3.754989   -0.326686    0.138374
     20          1           0        3.693534   -0.880088    1.064322
     21          1           0        3.994221   -1.019451   -0.660099
     22          1           0        4.545076    0.407504    0.218386
 ---------------------------------------------------------------------
 Rotational constants (GHZ):      3.1035814      0.6820953      0.5821935

 **********************************************************************

            Population analysis using the SCF density.

 **********************************************************************

 Orbital symmetries:
       Occupied  (A) (A) (A) (A) (A) (A) (A) (A) (A) (A) (A) (A)
                 (A) (A) (A) (A) (A) (A) (A) (A) (A) (A) (A) (A)
                 (A) (A) (A) (A) (A) (A) (A) (A) (A) (A) (A) (A)
                 (A) (A) (A)
       Virtual   (A) (A) (A) (A) (A) (A) (A) (A) (A) (A) (A) (A)
                 (A) (A) (A) (A) (A) (A) (A) (A) (A) (A) (A) (A)
                 (A) (A) (A) (A) (A) (A) (A) (A) (A) (A) (A) (A)
                 (A) (A) (A) (A) (A) (A) (A) (A) (A) (A) (A) (A)
                 (A) (A) (A) (A) (A) (A) (A) (A) (A) (A) (A) (A)
                 (A) (A) (A) (A) (A) (A) (A) (A) (A) (A) (A) (A)
                 (A) (A) (A) (A) (A) (A) (A) (A) (A) (A) (A) (A)
                 (A) (A) (A) (A) (A) (A) (A) (A) (A) (A) (A) (A)
                 (A) (A) (A) (A) (A) (A) (A) (A) (A) (A) (A) (A)
                 (A) (A) (A) (A) (A) (A) (A) (A) (A) (A) (A) (A)
                 (A) (A) (A) (A) (A) (A) (A) (A) (A) (A) (A) (A)
                 (A) (A) (A)
 The electronic state is 1-A.
 Alpha  occ. eigenvalues --  -20.53979 -20.51565 -15.59798 -15.57419 -11.35851
 Alpha  occ. eigenvalues --  -11.34261 -11.28784 -11.26730 -11.22430 -11.22255
 Alpha  occ. eigenvalues --   -1.40953  -1.38260  -1.24636  -1.23197  -1.05740
 Alpha  occ. eigenvalues --   -0.98835  -0.96141  -0.89189  -0.80898  -0.76540
 Alpha  occ. eigenvalues --   -0.73269  -0.68101  -0.66286  -0.65038  -0.63367
 Alpha  occ. eigenvalues --   -0.61818  -0.59891  -0.58586  -0.56683  -0.56255
 Alpha  occ. eigenvalues --   -0.55709  -0.54960  -0.52796  -0.52254  -0.49917
 Alpha  occ. eigenvalues --   -0.43274  -0.40939  -0.40403  -0.38305
 Alpha virt. eigenvalues --    0.18602   0.20622   0.21443   0.24809   0.25783
 Alpha virt. eigenvalues --    0.28248   0.28915   0.30424   0.31351   0.31750
 Alpha virt. eigenvalues --    0.32766   0.33425   0.34609   0.35750   0.37491
 Alpha virt. eigenvalues --    0.38570   0.42765   0.43112   0.47528   0.51693
 Alpha virt. eigenvalues --    0.52940   0.59364   0.62717   0.71452   0.73062
 Alpha virt. eigenvalues --    0.73978   0.74271   0.75217   0.77082   0.78260
 Alpha virt. eigenvalues --    0.79155   0.83128   0.83769   0.87520   0.91712
 Alpha virt. eigenvalues --    0.92236   0.93833   0.95643   0.98138   0.99370
 Alpha virt. eigenvalues --    1.00863   1.03258   1.04404   1.07897   1.10592
 Alpha virt. eigenvalues --    1.11322   1.12265   1.13575   1.14047   1.15348
 Alpha virt. eigenvalues --    1.17114   1.18677   1.19094   1.20374   1.20854
 Alpha virt. eigenvalues --    1.21473   1.22397   1.23102   1.25754   1.29008
 Alpha virt. eigenvalues --    1.30586   1.34860   1.36183   1.36963   1.44604
 Alpha virt. eigenvalues --    1.48127   1.51210   1.55303   1.57405   1.60953
 Alpha virt. eigenvalues --    1.64764   1.65295   1.68628   1.73562   1.74326
 Alpha virt. eigenvalues --    1.77563   1.79628   1.89745   1.95178   1.97141
 Alpha virt. eigenvalues --    2.01917   2.05046   2.06750   2.08433   2.13237
 Alpha virt. eigenvalues --    2.14508   2.15175   2.15974   2.18627   2.20517
 Alpha virt. eigenvalues --    2.23317   2.24384   2.30427   2.32498   2.33375
 Alpha virt. eigenvalues --    2.36589   2.38218   2.41813   2.42898   2.52703
 Alpha virt. eigenvalues --    2.53430   2.56581   2.57511   2.58780   2.65153
 Alpha virt. eigenvalues --    2.67237   2.68550   2.71700   2.74322   2.78301
 Alpha virt. eigenvalues --    2.79423   2.82076   2.88179   2.92851   2.94124
 Alpha virt. eigenvalues --    3.02051   3.05203   3.07732   3.13111   3.26542
 Alpha virt. eigenvalues --    3.32813   3.36984   3.40631   3.52456   3.61748
 Alpha virt. eigenvalues --    4.38399   4.41893   4.48700   4.51376   4.64924
 Alpha virt. eigenvalues --    4.68673   4.71143   4.83113   4.89601   5.05770
          Condensed to atoms (all electrons):
              1          2          3          4          5          6
     1  H    0.469592   0.383577  -0.020699  -0.018042  -0.032976   0.003705
     2  C    0.383577   5.274745   0.376915   0.374288   0.375638  -0.073266
     3  H   -0.020699   0.376915   0.513225  -0.024377  -0.035565   0.001870
     4  H   -0.018042   0.374288  -0.024377   0.498749  -0.027019   0.000583
     5  C   -0.032976   0.375638  -0.035565  -0.027019   4.136539   0.614153
     6  O    0.003705  -0.073266   0.001870   0.000583   0.614153   8.160363
     7  N    0.004513  -0.125040   0.005187   0.000640   0.257791  -0.100829
     8  H    0.000065  -0.001348   0.000387   0.000183  -0.017959   0.002065
     9  C   -0.000101   0.004070   0.000134  -0.000144  -0.023925   0.007225
    10  H    0.000006  -0.000136  -0.000004  -0.000002  -0.002251   0.000201
    11  C    0.000002  -0.000363   0.000006   0.000010  -0.002311  -0.011674
    12  H    0.000003  -0.000129   0.000000   0.000009  -0.000321  -0.000640
    13  H    0.000000   0.000010   0.000000  -0.000001   0.000357   0.000403
    14  H   -0.000001   0.000240  -0.000006  -0.000007  -0.000480   0.008671
    15  C   -0.000001  -0.000006  -0.000027   0.000009   0.003163   0.000215
    16  O    0.000000  -0.000133  -0.000008   0.000007   0.000411  -0.000003
    17  N    0.000000   0.000000   0.000000   0.000000  -0.000058   0.000000
    18  H    0.000000   0.000000   0.000000   0.000000   0.000001   0.000001
    19  C    0.000000   0.000000   0.000000   0.000000   0.000001   0.000000
    20  H    0.000000   0.000000   0.000000   0.000000   0.000000   0.000000
    21  H    0.000000   0.000000   0.000000   0.000000   0.000000   0.000000
    22  H    0.000000   0.000000   0.000000   0.000000   0.000000   0.000000
              7          8          9         10         11         12
     1  H    0.004513   0.000065  -0.000101   0.000006   0.000002   0.000003
     2  C   -0.125040  -0.001348   0.004070  -0.000136  -0.000363  -0.000129
     3  H    0.005187   0.000387   0.000134  -0.000004   0.000006   0.000000
     4  H    0.000640   0.000183  -0.000144  -0.000002   0.000010   0.000009
     5  C    0.257791  -0.017959  -0.023925  -0.002251  -0.002311  -0.000321
     6  O   -0.100829   0.002065   0.007225   0.000201  -0.011674  -0.000640
     7  N    7.426309   0.309651   0.212040  -0.041765  -0.051028   0.002061
     8  H    0.309651   0.290510  -0.035577   0.002449   0.003205   0.000125
     9  C    0.212040  -0.035577   4.983116   0.405074   0.340408  -0.040549
    10  H   -0.041765   0.002449   0.405074   0.521287  -0.043448   0.004319
    11  C   -0.051028   0.003205   0.340408  -0.043448   5.168802   0.390126
    12  H    0.002061   0.000125  -0.040549   0.004319   0.390126   0.519234
    13  H    0.003967  -0.000087  -0.036269  -0.000396   0.375319  -0.026511
    14  H   -0.004485  -0.000146  -0.025708  -0.003453   0.389233  -0.021017
    15  C   -0.047214  -0.008623   0.394283  -0.045449  -0.051262  -0.003769
    16  O   -0.016485   0.029606  -0.071452   0.000783   0.000280   0.000410
    17  N    0.002767   0.001336  -0.116030   0.003147   0.002041   0.000528
    18  H    0.000076  -0.000038   0.000829   0.000574   0.000015  -0.000003
    19  C   -0.000068  -0.000045   0.003959  -0.000283  -0.000010  -0.000058
    20  H   -0.000001  -0.000003   0.000168  -0.000004  -0.000041   0.000003
    21  H    0.000001   0.000000  -0.000169   0.000015   0.000001   0.000001
    22  H    0.000001   0.000000   0.000025  -0.000003  -0.000010   0.000000
             13         14         15         16         17         18
     1  H    0.000000  -0.000001  -0.000001   0.000000   0.000000   0.000000
     2  C    0.000010   0.000240  -0.000006  -0.000133   0.000000   0.000000
     3  H    0.000000  -0.000006  -0.000027  -0.000008   0.000000   0.000000
     4  H   -0.000001  -0.000007   0.000009   0.000007   0.000000   0.000000
     5  C    0.000357  -0.000480   0.003163   0.000411  -0.000058   0.000001
     6  O    0.000403   0.008671   0.000215  -0.000003   0.000000   0.000001
     7  N    0.003967  -0.004485  -0.047214  -0.016485   0.002767   0.000076
     8  H   -0.000087  -0.000146  -0.008623   0.029606   0.001336  -0.000038
     9  C   -0.036269  -0.025708   0.394283  -0.071452  -0.116030   0.000829
    10  H   -0.000396  -0.003453  -0.045449   0.000783   0.003147   0.000574
    11  C    0.375319   0.389233  -0.051262   0.000280   0.002041   0.000015
    12  H   -0.026511  -0.021017  -0.003769   0.000410   0.000528  -0.000003
    13  H    0.564642  -0.022718  -0.006802   0.000006   0.001165   0.002461
    14  H   -0.022718   0.429536   0.003723  -0.000054   0.000041  -0.000076
    15  C   -0.006802   0.003723   4.163820   0.599232   0.284485  -0.022297
    16  O    0.000006  -0.000054   0.599232   8.179659  -0.106610   0.002581
    17  N    0.001165   0.000041   0.284485  -0.106610   7.325184   0.326867
    18  H    0.002461  -0.000076  -0.022297   0.002581   0.326867   0.320391
    19  C    0.000074   0.000003  -0.028733   0.008241   0.197124  -0.022420
    20  H   -0.000007   0.000000  -0.003656   0.002901  -0.040521   0.002653
    21  H    0.000001   0.000000  -0.003190   0.001441  -0.046091   0.001122
    22  H   -0.000007   0.000000   0.004498   0.000399  -0.037136  -0.004444
             19         20         21         22
     1  H    0.000000   0.000000   0.000000   0.000000
     2  C    0.000000   0.000000   0.000000   0.000000
     3  H    0.000000   0.000000   0.000000   0.000000
     4  H    0.000000   0.000000   0.000000   0.000000
     5  C    0.000001   0.000000   0.000000   0.000000
     6  O    0.000000   0.000000   0.000000   0.000000
     7  N   -0.000068  -0.000001   0.000001   0.000001
     8  H   -0.000045  -0.000003   0.000000   0.000000
     9  C    0.003959   0.000168  -0.000169   0.000025
    10  H   -0.000283  -0.000004   0.000015  -0.000003
    11  C   -0.000010  -0.000041   0.000001  -0.000010
    12  H   -0.000058   0.000003   0.000001   0.000000
    13  H    0.000074  -0.000007   0.000001  -0.000007
    14  H    0.000003   0.000000   0.000000   0.000000
    15  C   -0.028733  -0.003656  -0.003190   0.004498
    16  O    0.008241   0.002901   0.001441   0.000399
    17  N    0.197124  -0.040521  -0.046091  -0.037136
    18  H   -0.022420   0.002653   0.001122  -0.004444
    19  C    4.904893   0.404694   0.405987   0.397397
    20  H    0.404694   0.489913  -0.033271  -0.025387
    21  H    0.405987  -0.033271   0.520895  -0.030479
    22  H    0.397397  -0.025387  -0.030479   0.523762
 Mulliken atomic charges:
              1
     1  H    0.210356
     2  C   -0.589061
     3  H    0.182963
     4  H    0.195114
     5  C    0.754813
     6  O   -0.613043
     7  N   -0.838088
     8  H    0.424245
     9  C   -0.001406
    10  H    0.199340
    11  C   -0.509302
    12  H    0.176180
    13  H    0.144395
    14  H    0.246706
    15  C    0.767602
    16  O   -0.631212
    17  N   -0.798239
    18  H    0.391710
    19  C   -0.270755
    20  H    0.202560
    21  H    0.183738
    22  H    0.171385
 Sum of Mulliken atomic charges =   0.00000
 Mulliken charges with hydrogens summed into heavy atoms:
              1
     2  C   -0.000628
     5  C    0.754813
     6  O   -0.613043
     7  N   -0.413843
     9  C    0.197933
    11  C    0.057979
    15  C    0.767602
    16  O   -0.631212
    17  N   -0.406529
    19  C    0.286927
 Sum of Mulliken charges with hydrogens summed into heavy atoms =   0.00000
 Electronic spatial extent (au):  <R**2>=           1946.6805
 Charge=              0.0000 electrons
 Dipole moment (field-independent basis, Debye):
    X=              3.6274    Y=              0.3736    Z=             -0.4334  Tot=              3.6722
 Quadrupole moment (field-independent basis, Debye-Ang):
   XX=            -57.3037   YY=            -63.3343   ZZ=            -60.0180
   XY=             13.9101   XZ=             -2.5256   YZ=             -0.4762
 Traceless Quadrupole moment (field-independent basis, Debye-Ang):
   XX=              2.9149   YY=             -3.1156   ZZ=              0.2006
   XY=             13.9101   XZ=             -2.5256   YZ=             -0.4762
 Octapole moment (field-independent basis, Debye-Ang**2):
  XXX=             56.8018  YYY=              4.8637  ZZZ=              0.8922  XYY=              3.7722
  XXY=            -19.7974  XXZ=              0.9343  XZZ=             -0.1984  YZZ=             -0.9660
  YYZ=             -3.3152  XYZ=             -1.6530
 Hexadecapole moment (field-independent basis, Debye-Ang**3):
 XXXX=          -1831.5955 YYYY=           -453.6296 ZZZZ=           -111.7929 XXXY=             76.7969
 XXXZ=             -1.6793 YYYX=             18.4287 YYYZ=             -0.3867 ZZZX=             -1.7362
 ZZZY=             -4.9740 XXYY=           -408.9322 XXZZ=           -344.6028 YYZZ=            -93.0873
 XXYZ=             -5.5959 YYXZ=             -4.8756 ZZXY=             -4.8520
 N-N= 5.554330056000D+02 E-N=-2.266179527022D+03  KE= 4.921148287531D+02
 1\1\GINC-RODAN\FOpt\RHF\6-31G(d)\C6H12N2O2\STEBOSS\10-Feb-2017\0\\# HF
 /6-31G* Opt=(ModRedundant) geom=nocrowd\\Phi Psi fixed scan\\0,1\H,1.7
 034483881,1.3505281755,-0.5494978581\C,1.8873998455,2.4060171493,-0.41
 28112024\H,1.4517426429,2.7356337345,0.5236274012\H,1.4062623123,2.952
 5719923,-1.2184278903\C,3.3824225731,2.6529611973,-0.4603828568\O,4.13
 83194953,1.8450593639,-0.9274597312\N,3.761209341,3.8369511929,0.08294
 49612\H,3.0301718033,4.4639700667,0.3411809858\C,5.0357881212,4.510319
 3543,-0.0740476584\H,5.6981703364,4.2428428537,0.7459507778\C,5.747312
 0713,4.2069753228,-1.4027954162\H,5.130331174,4.5127572775,-2.24095760
 92\H,6.6873914106,4.7429523937,-1.4629487111\H,5.9462536674,3.15280681
 49,-1.4923955004\C,4.7425061879,6.0159402763,0.0376101024\O,3.62805861
 26,6.4346186665,0.217791759\N,5.8017138135,6.8364089171,-0.0809877402\
 H,6.7144752325,6.4499347025,-0.1309981728\C,5.6657070713,8.2699486779,
 0.0798157919\H,4.8897100025,8.6444713941,-0.5720829158\H,5.4143215927,
 8.5353710744,1.1001445966\H,6.6046843048,8.7361594018,-0.1859731132\\V
 ersion=EM64L-G09RevA.02\State=1-A\HF=-492.8524481\RMSD=7.168e-09\RMSF=
 1.310e-03\Dipole=0.7828032,1.1878476,0.2521115\Quadrupole=6.8784974,-6
 .0072246,-0.8712728,8.0865123,1.195544,-2.5972741\PG=C01 [X(C6H12N2O2)
 ]\\@


 THERE IS AN OLD, OLD RECIPE IN MAINE FOR STEWING COOT. PLACE THE
 BIRD IN A KETTLE OF WATER WITH A RED BUILDING BRICK FREE OF MORTAR AND
 BLEMISHES. PARBOIL THE COOT AND BRICK TOGETHER FOR THREE HOURS.
 POUR OFF THE WATER, REFILL THE KETTLE, AND AGAIN PARBOIL FOR THREE HOURS.
 ONCE AGAIN POUR OFF THE WATER, FOR THE LAST TIME ADD FRESH WATER,
 AND LET THE COOT AND BRICK SIMMER TOGETHER OVERNIGHT. IN THE MORNING,
 THROW AWAY THE COOT AND EAT THE BRICK.
 Job cpu time:  0 days  0 hours 27 minutes 12.4 seconds.
 File lengths (MBytes):  RWF=     25 Int=      0 D2E=      0 Chk=      3 Scr=      1
 Normal termination of Gaussian 09 at Fri Feb 10 03:04:34 2017.
