 Entering Gaussian System, Link 0=g09
 Initial command:
 /home/steboss/Software/g09/l1.exe /tmp/Gau-4540.inp -scrdir=/tmp/
 Entering Link 1 = /home/steboss/Software/g09/l1.exe PID=      4542.
  
 Copyright (c) 1988,1990,1992,1993,1995,1998,2003,2009, Gaussian, Inc.
                  All Rights Reserved.
  
 This is part of the Gaussian(R) 09 program.  It is based on
 the Gaussian(R) 03 system (copyright 2003, Gaussian, Inc.),
 the Gaussian(R) 98 system (copyright 1998, Gaussian, Inc.),
 the Gaussian(R) 94 system (copyright 1995, Gaussian, Inc.),
 the Gaussian 92(TM) system (copyright 1992, Gaussian, Inc.),
 the Gaussian 90(TM) system (copyright 1990, Gaussian, Inc.),
 the Gaussian 88(TM) system (copyright 1988, Gaussian, Inc.),
 the Gaussian 86(TM) system (copyright 1986, Carnegie Mellon
 University), and the Gaussian 82(TM) system (copyright 1983,
 Carnegie Mellon University). Gaussian is a federally registered
 trademark of Gaussian, Inc.
  
 This software contains proprietary and confidential information,
 including trade secrets, belonging to Gaussian, Inc.
  
 This software is provided under written license and may be
 used, copied, transmitted, or stored only in accord with that
 written license.
  
 The following legend is applicable only to US Government
 contracts under FAR:
  
                    RESTRICTED RIGHTS LEGEND
  
 Use, reproduction and disclosure by the US Government is
 subject to restrictions as set forth in subparagraphs (a)
 and (c) of the Commercial Computer Software - Restricted
 Rights clause in FAR 52.227-19.
  
 Gaussian, Inc.
 340 Quinnipiac St., Bldg. 40, Wallingford CT 06492
  
  
 ---------------------------------------------------------------
 Warning -- This program may not be used in any manner that
 competes with the business of Gaussian, Inc. or will provide
 assistance to any competitor of Gaussian, Inc.  The licensee
 of this program is prohibited from giving any competitor of
 Gaussian, Inc. access to this program.  By using this program,
 the user acknowledges that Gaussian, Inc. is engaged in the
 business of creating and licensing software in the field of
 computational chemistry and represents and warrants to the
 licensee that it is not a competitor of Gaussian, Inc. and that
 it will not use this program in any manner prohibited above.
 ---------------------------------------------------------------
  

 Cite this work as:
 Gaussian 09, Revision A.02,
 M. J. Frisch, G. W. Trucks, H. B. Schlegel, G. E. Scuseria, 
 M. A. Robb, J. R. Cheeseman, G. Scalmani, V. Barone, B. Mennucci, 
 G. A. Petersson, H. Nakatsuji, M. Caricato, X. Li, H. P. Hratchian, 
 A. F. Izmaylov, J. Bloino, G. Zheng, J. L. Sonnenberg, M. Hada, 
 M. Ehara, K. Toyota, R. Fukuda, J. Hasegawa, M. Ishida, T. Nakajima, 
 Y. Honda, O. Kitao, H. Nakai, T. Vreven, J. A. Montgomery, Jr., 
 J. E. Peralta, F. Ogliaro, M. Bearpark, J. J. Heyd, E. Brothers, 
 K. N. Kudin, V. N. Staroverov, R. Kobayashi, J. Normand, 
 K. Raghavachari, A. Rendell, J. C. Burant, S. S. Iyengar, J. Tomasi, 
 M. Cossi, N. Rega, J. M. Millam, M. Klene, J. E. Knox, J. B. Cross, 
 V. Bakken, C. Adamo, J. Jaramillo, R. Gomperts, R. E. Stratmann, 
 O. Yazyev, A. J. Austin, R. Cammi, C. Pomelli, J. W. Ochterski, 
 R. L. Martin, K. Morokuma, V. G. Zakrzewski, G. A. Voth, 
 P. Salvador, J. J. Dannenberg, S. Dapprich, A. D. Daniels, 
 O. Farkas, J. B. Foresman, J. V. Ortiz, J. Cioslowski, 
 and D. J. Fox, Gaussian, Inc., Wallingford CT, 2009.
 
 ******************************************
 Gaussian 09:  EM64L-G09RevA.02 11-Jun-2009
                10-Feb-2017 
 ******************************************
 %chk=structure_120.chk
 %NProcShared=8
 Will use up to    8 processors via shared memory.
 -------------------------------------------
 # HF/6-31G* Opt=(ModRedundant) geom=nocrowd
 -------------------------------------------
 1/18=120,19=15,38=1/1,3;
 2/9=110,12=1,17=6,18=5,40=1/2;
 3/5=1,6=6,7=1,11=9,16=1,25=1,30=1,71=1/1,2,3;
 4//1;
 5/5=2,38=5/2;
 6/7=2,8=2,9=2,10=2,28=1/1;
 7//1,2,3,16;
 1/18=20,19=15/3(2);
 2/9=110,12=1/2;
 99//99;
 2/9=110,12=1/2;
 3/5=1,6=6,7=1,11=9,16=1,25=1,30=1,71=1/1,2,3;
 4/5=5,16=3/1;
 5/5=2,38=5/2;
 7//1,2,3,16;
 1/18=20,19=15/3(-5);
 2/9=110,12=1/2;
 6/7=2,8=2,9=2,10=2,19=2,28=1/1;
 99/9=1/99;
 ------------------
 Phi Psi fixed scan
 ------------------
 Symbolic Z-matrix:
 Charge =  0 Multiplicity = 1
 H                     1.8827    1.2362   -0.9842 
 C                     1.9409    2.209    -0.496 
 H                     1.658     2.1079    0.5517 
 H                     1.2624    2.9049   -0.9895 
 C                     3.3599    2.7768   -0.5667 
 O                     4.2568    2.1469   -1.1227 
 N                     3.5554    3.9697    0. 
 H                     2.7862    4.4492    0.4455 
 C                     4.8533    4.6139    0. 
 H                     5.4076    4.3155    0.8898 
 C                     5.6613    4.2208   -1.2322 
 H                     5.1233    4.5214   -2.1312 
 H                     6.6305    4.7189   -1.2058 
 H                     5.8085    3.1409   -1.2414 
 C                     4.7127    6.1294    0. 
 O                     4.1278    6.7016   -0.9171 
 N                     5.2518    6.7797    1.0338 
 H                     5.7229    6.2651    1.764 
 C                     5.1851    8.2226    1.1497 
 H                     4.6503    8.6321    0.2928 
 H                     4.6601    8.4901    2.0667 
 H                     6.1948    8.6324    1.1769 
 
 The following ModRedundant input section has been read:
 D    5    7    9   15 F                                                       
 D    7    9   15   17 F                                                       

 GradGradGradGradGradGradGradGradGradGradGradGradGradGradGradGradGradGrad
 Berny optimization.
 Initialization pass.
                           ----------------------------
                           !    Initial Parameters    !
                           ! (Angstroms and Degrees)  !
 --------------------------                            --------------------------
 ! Name  Definition              Value          Derivative Info.                !
 --------------------------------------------------------------------------------
 ! R1    R(1,2)                  1.09           estimate D2E/DX2                !
 ! R2    R(2,3)                  1.0899         estimate D2E/DX2                !
 ! R3    R(2,4)                  1.09           estimate D2E/DX2                !
 ! R4    R(2,5)                  1.53           estimate D2E/DX2                !
 ! R5    R(5,6)                  1.229          estimate D2E/DX2                !
 ! R6    R(5,7)                  1.3351         estimate D2E/DX2                !
 ! R7    R(7,8)                  1.01           estimate D2E/DX2                !
 ! R8    R(7,9)                  1.449          estimate D2E/DX2                !
 ! R9    R(9,10)                 1.09           estimate D2E/DX2                !
 ! R10   R(9,11)                 1.525          estimate D2E/DX2                !
 ! R11   R(9,15)                 1.522          estimate D2E/DX2                !
 ! R12   R(11,12)                1.09           estimate D2E/DX2                !
 ! R13   R(11,13)                1.09           estimate D2E/DX2                !
 ! R14   R(11,14)                1.0899         estimate D2E/DX2                !
 ! R15   R(15,16)                1.2291         estimate D2E/DX2                !
 ! R16   R(15,17)                1.335          estimate D2E/DX2                !
 ! R17   R(17,18)                1.0099         estimate D2E/DX2                !
 ! R18   R(17,19)                1.4491         estimate D2E/DX2                !
 ! R19   R(19,20)                1.0899         estimate D2E/DX2                !
 ! R20   R(19,21)                1.09           estimate D2E/DX2                !
 ! R21   R(19,22)                1.09           estimate D2E/DX2                !
 ! A1    A(1,2,3)              109.5057         estimate D2E/DX2                !
 ! A2    A(1,2,4)              109.4976         estimate D2E/DX2                !
 ! A3    A(1,2,5)              111.1022         estimate D2E/DX2                !
 ! A4    A(3,2,4)              109.442          estimate D2E/DX2                !
 ! A5    A(3,2,5)              108.6368         estimate D2E/DX2                !
 ! A6    A(4,2,5)              108.6296         estimate D2E/DX2                !
 ! A7    A(2,5,6)              120.5005         estimate D2E/DX2                !
 ! A8    A(2,5,7)              116.6018         estimate D2E/DX2                !
 ! A9    A(6,5,7)              122.8977         estimate D2E/DX2                !
 ! A10   A(5,7,8)              119.9947         estimate D2E/DX2                !
 ! A11   A(5,7,9)              121.8985         estimate D2E/DX2                !
 ! A12   A(8,7,9)              118.1068         estimate D2E/DX2                !
 ! A13   A(7,9,10)             109.5            estimate D2E/DX2                !
 ! A14   A(7,9,11)             111.0992         estimate D2E/DX2                !
 ! A15   A(7,9,15)             111.0966         estimate D2E/DX2                !
 ! A16   A(10,9,11)            108.6382         estimate D2E/DX2                !
 ! A17   A(10,9,15)            108.6373         estimate D2E/DX2                !
 ! A18   A(11,9,15)            107.7947         estimate D2E/DX2                !
 ! A19   A(9,11,12)            109.5007         estimate D2E/DX2                !
 ! A20   A(9,11,13)            109.4959         estimate D2E/DX2                !
 ! A21   A(9,11,14)            109.4978         estimate D2E/DX2                !
 ! A22   A(12,11,13)           109.441          estimate D2E/DX2                !
 ! A23   A(12,11,14)           109.4482         estimate D2E/DX2                !
 ! A24   A(13,11,14)           109.4436         estimate D2E/DX2                !
 ! A25   A(9,15,16)            120.4994         estimate D2E/DX2                !
 ! A26   A(9,15,17)            116.5978         estimate D2E/DX2                !
 ! A27   A(16,15,17)           122.9028         estimate D2E/DX2                !
 ! A28   A(15,17,18)           120.0038         estimate D2E/DX2                !
 ! A29   A(15,17,19)           121.8961         estimate D2E/DX2                !
 ! A30   A(18,17,19)           118.1001         estimate D2E/DX2                !
 ! A31   A(17,19,20)           109.5001         estimate D2E/DX2                !
 ! A32   A(17,19,21)           109.5012         estimate D2E/DX2                !
 ! A33   A(17,19,22)           109.4939         estimate D2E/DX2                !
 ! A34   A(20,19,21)           109.4435         estimate D2E/DX2                !
 ! A35   A(20,19,22)           109.4435         estimate D2E/DX2                !
 ! A36   A(21,19,22)           109.4451         estimate D2E/DX2                !
 ! D1    D(1,2,5,6)             -0.0047         estimate D2E/DX2                !
 ! D2    D(1,2,5,7)            179.9966         estimate D2E/DX2                !
 ! D3    D(3,2,5,6)            120.5165         estimate D2E/DX2                !
 ! D4    D(3,2,5,7)            -59.4823         estimate D2E/DX2                !
 ! D5    D(4,2,5,6)           -120.5112         estimate D2E/DX2                !
 ! D6    D(4,2,5,7)             59.4901         estimate D2E/DX2                !
 ! D7    D(2,5,7,8)              0.0022         estimate D2E/DX2                !
 ! D8    D(2,5,7,9)            179.9961         estimate D2E/DX2                !
 ! D9    D(6,5,7,8)           -179.9965         estimate D2E/DX2                !
 ! D10   D(6,5,7,9)             -0.0027         estimate D2E/DX2                !
 ! D11   D(5,7,9,10)           -89.9989         estimate D2E/DX2                !
 ! D12   D(5,7,9,11)            30.0037         estimate D2E/DX2                !
 ! D13   D(5,7,9,15)           150.0013         Frozen                          !
 ! D14   D(8,7,9,10)            89.9951         estimate D2E/DX2                !
 ! D15   D(8,7,9,11)          -150.0023         estimate D2E/DX2                !
 ! D16   D(8,7,9,15)           -30.0047         estimate D2E/DX2                !
 ! D17   D(7,9,11,12)           60.0024         estimate D2E/DX2                !
 ! D18   D(7,9,11,13)          179.9986         estimate D2E/DX2                !
 ! D19   D(7,9,11,14)          -60.0038         estimate D2E/DX2                !
 ! D20   D(10,9,11,12)        -179.4843         estimate D2E/DX2                !
 ! D21   D(10,9,11,13)         -59.4881         estimate D2E/DX2                !
 ! D22   D(10,9,11,14)          60.5095         estimate D2E/DX2                !
 ! D23   D(15,9,11,12)         -61.938          estimate D2E/DX2                !
 ! D24   D(15,9,11,13)          58.0582         estimate D2E/DX2                !
 ! D25   D(15,9,11,14)         178.0558         estimate D2E/DX2                !
 ! D26   D(7,9,15,16)          -59.9975         estimate D2E/DX2                !
 ! D27   D(7,9,15,17)          120.0001         Frozen                          !
 ! D28   D(10,9,15,16)         179.4914         estimate D2E/DX2                !
 ! D29   D(10,9,15,17)          -0.5109         estimate D2E/DX2                !
 ! D30   D(11,9,15,16)          61.9445         estimate D2E/DX2                !
 ! D31   D(11,9,15,17)        -118.0578         estimate D2E/DX2                !
 ! D32   D(9,15,17,18)          -0.002          estimate D2E/DX2                !
 ! D33   D(9,15,17,19)        -179.9985         estimate D2E/DX2                !
 ! D34   D(16,15,17,18)        179.9956         estimate D2E/DX2                !
 ! D35   D(16,15,17,19)         -0.0008         estimate D2E/DX2                !
 ! D36   D(15,17,19,20)         -0.0037         estimate D2E/DX2                !
 ! D37   D(15,17,19,21)        119.9984         estimate D2E/DX2                !
 ! D38   D(15,17,19,22)       -120.0013         estimate D2E/DX2                !
 ! D39   D(18,17,19,20)        179.9998         estimate D2E/DX2                !
 ! D40   D(18,17,19,21)        -59.9981         estimate D2E/DX2                !
 ! D41   D(18,17,19,22)         60.0022         estimate D2E/DX2                !
 --------------------------------------------------------------------------------
 Trust Radius=3.00D-01 FncErr=1.00D-07 GrdErr=1.00D-07
 Number of steps in this run= 108 maximum allowed number of steps= 132.
 GradGradGradGradGradGradGradGradGradGradGradGradGradGradGradGradGradGrad

                          Input orientation:                          
 ---------------------------------------------------------------------
 Center     Atomic      Atomic             Coordinates (Angstroms)
 Number     Number       Type             X           Y           Z
 ---------------------------------------------------------------------
      1          1           0        1.882700    1.236200   -0.984200
      2          6           0        1.940900    2.209000   -0.496000
      3          1           0        1.658000    2.107900    0.551700
      4          1           0        1.262400    2.904900   -0.989500
      5          6           0        3.359900    2.776800   -0.566700
      6          8           0        4.256800    2.146900   -1.122700
      7          7           0        3.555400    3.969700    0.000000
      8          1           0        2.786200    4.449200    0.445500
      9          6           0        4.853300    4.613900    0.000000
     10          1           0        5.407600    4.315500    0.889800
     11          6           0        5.661300    4.220800   -1.232200
     12          1           0        5.123300    4.521400   -2.131200
     13          1           0        6.630500    4.718900   -1.205800
     14          1           0        5.808500    3.140900   -1.241400
     15          6           0        4.712700    6.129400    0.000000
     16          8           0        4.127800    6.701600   -0.917100
     17          7           0        5.251800    6.779700    1.033800
     18          1           0        5.722900    6.265100    1.764000
     19          6           0        5.185100    8.222600    1.149700
     20          1           0        4.650300    8.632100    0.292800
     21          1           0        4.660100    8.490100    2.066700
     22          1           0        6.194800    8.632400    1.176900
 ---------------------------------------------------------------------
                    Distance matrix (angstroms):
                    1          2          3          4          5
     1  H    0.000000
     2  C    1.089985   0.000000
     3  H    1.780264   1.089922   0.000000
     4  H    1.780270   1.090037   1.779608   0.000000
     5  C    2.174827   1.530018   2.143527   2.143519   0.000000
     6  O    2.546548   2.400000   3.091747   3.091721   1.228959
     7  N    3.352402   2.439814   2.714922   2.714914   1.335058
     8  H    3.630940   2.572829   2.601115   2.601164   2.037303
     9  C    4.604560   3.809414   4.098091   4.098092   2.434405
    10  H    5.041714   4.286700   4.364322   4.764897   2.946534
    11  C    4.821531   4.293100   4.865497   4.597914   2.797225
    12  H    4.754959   4.260134   5.003123   4.338560   2.932724
    13  H    5.892360   5.366168   5.884886   5.670439   3.857075
    14  H    4.371034   4.047516   4.637774   4.559186   2.565820
    15  C    5.737679   4.826844   5.080160   4.825047   3.659391
    16  O    5.908940   5.014311   5.418428   4.757172   4.014537
    17  N    6.793640   5.847533   5.913843   5.918034   4.707876
    18  H    6.898520   5.988578   5.939309   6.226457   4.814994
    19  C    8.016805   7.028268   7.084320   6.945623   5.994508
    20  H    7.999355   7.015644   7.182345   6.776650   6.057096
    21  H    8.345119   7.308467   7.213897   7.216591   6.423948
    22  H    8.829968   7.883802   7.971357   7.862958   6.735343
                    6          7          8          9         10
     6  O    0.000000
     7  N    2.252780   0.000000
     8  H    3.150000   1.009980   0.000000
     9  C    2.775312   1.448978   2.120966   0.000000
    10  H    3.174480   2.083739   2.662145   1.089970   0.000000
    11  C    2.507124   2.452791   3.336622   1.525027   2.139209
    12  H    2.721423   2.702720   3.479459   2.150225   3.041326
    13  H    3.500934   3.386959   4.192633   2.150214   2.459625
    14  H    1.846591   2.702673   3.700213   2.150165   2.466256
    15  C    4.162764   2.450234   2.594792   1.522008   2.136554
    16  O    4.561163   2.938025   2.954636   2.392888   3.255188
    17  N    5.206088   3.441310   3.443328   2.432742   2.473316
    18  H    5.238517   3.616437   3.695963   2.567949   2.159764
    19  C    6.552837   4.697328   4.526496   3.801923   3.922051
    20  H    6.649534   4.798178   4.582012   4.033965   4.423002
    21  H    7.111337   5.091721   4.740112   4.396988   4.401265
    22  H    7.148826   5.485645   5.445426   4.396937   4.397469
                   11         12         13         14         15
    11  C    0.000000
    12  H    1.089957   0.000000
    13  H    1.090023   1.779613   0.000000
    14  H    1.089925   1.779613   1.779617   0.000000
    15  C    2.461892   2.701161   2.668599   3.416575   0.000000
    16  O    2.933476   2.686695   3.205925   3.950760   1.229062
    17  N    3.442443   3.890200   3.341185   4.327507   1.335014
    18  H    3.627695   4.309593   3.469032   4.335941   2.037306
    19  C    4.681305   4.946413   4.462452   5.650634   2.434432
    20  H    4.775700   4.795556   4.634666   5.817944   2.520542
    21  H    5.487446   5.795472   5.367838   6.393457   3.137980
    22  H    5.054760   5.384418   4.602453   6.012818   3.137949
                   16         17         18         19         20
    16  O    0.000000
    17  N    2.252884   0.000000
    18  H    3.150107   1.009921   0.000000
    19  C    2.775425   1.449083   2.120943   0.000000
    20  H    2.337455   2.083811   2.986233   1.089944   0.000000
    21  H    3.519252   2.083857   2.484310   1.089986   1.779601
    22  H    3.519277   2.083800   2.484247   1.090032   1.779638
                   21         22
    21  H    0.000000
    22  H    1.779690   0.000000
 Stoichiometry    C6H12N2O2
 Framework group  C1[X(C6H12N2O2)]
 Deg. of freedom    60
 Full point group                 C1      NOp   1
 Largest Abelian subgroup         C1      NOp   1
 Largest concise Abelian subgroup C1      NOp   1
                         Standard orientation:                         
 ---------------------------------------------------------------------
 Center     Atomic      Atomic             Coordinates (Angstroms)
 Number     Number       Type             X           Y           Z
 ---------------------------------------------------------------------
      1          1           0       -4.259195   -0.984953    0.154602
      2          6           0       -3.238588   -1.357971    0.069242
      3          1           0       -3.165998   -2.026484   -0.788517
      4          1           0       -2.972723   -1.901171    0.976121
      5          6           0       -2.246267   -0.209023   -0.120953
      6          8           0       -2.639469    0.954664   -0.160489
      7          7           0       -0.959218   -0.543917   -0.238135
      8          1           0       -0.684643   -1.515082   -0.199326
      9          6           0        0.077292    0.451693   -0.422374
     10          1           0        0.225960    0.629346   -1.487444
     11          6           0       -0.303244    1.770000    0.243183
     12          1           0       -0.446518    1.610057    1.311778
     13          1           0        0.492773    2.498494    0.088898
     14          1           0       -1.228146    2.144995   -0.194847
     15          6           0        1.395179   -0.011165    0.182148
     16          8           0        1.475931   -0.265472    1.381898
     17          7           0        2.430540   -0.120157   -0.653560
     18          1           0        2.314902    0.100280   -1.632323
     19          6           0        3.737956   -0.550827   -0.200758
     20          1           0        3.704619   -0.750136    0.870289
     21          1           0        4.025329   -1.459280   -0.730099
     22          1           0        4.468722    0.232671   -0.401462
 ---------------------------------------------------------------------
 Rotational constants (GHZ):      3.0541635      0.6584837      0.6087639
 Standard basis: 6-31G(d) (6D, 7F)
 There are   174 symmetry adapted basis functions of A   symmetry.
 Integral buffers will be    131072 words long.
 Raffenetti 1 integral format.
 Two-electron integral symmetry is turned on.
   174 basis functions,   328 primitive gaussians,   174 cartesian basis functions
    39 alpha electrons       39 beta electrons
       nuclear repulsion energy       556.0517960016 Hartrees.
 NAtoms=   22 NActive=   22 NUniq=   22 SFac= 7.50D-01 NAtFMM=   80 NAOKFM=F Big=F
 One-electron integrals computed using PRISM.
 NBasis=   174 RedAO= T  NBF=   174
 NBsUse=   174 1.00D-06 NBFU=   174
 Harris functional with IExCor=  205 diagonalized for initial guess.
 ExpMin= 1.61D-01 ExpMax= 5.48D+03 ExpMxC= 8.25D+02 IAcc=1 IRadAn=         1 AccDes= 0.00D+00
 HarFok:  IExCor=  205 AccDes= 0.00D+00 IRadAn=         1 IDoV= 1
 ScaDFX=  1.000000  1.000000  1.000000  1.000000
 FoFCou: FMM=F IPFlag=           0 FMFlag=      100000 FMFlg1=           0
         NFxFlg=           0 DoJE=T BraDBF=F KetDBF=T FulRan=T
         Omega=  0.000000  0.000000  1.000000  0.000000  0.000000 ICntrl=     500 IOpCl=  0
         NMat0=    1 NMatS0=    1 NMatT0=    0 NMatD0=    1 NMtDS0=    0 NMtDT0=    0
         I1Cent=           4 NGrid=           0.
 Petite list used in FoFCou.
 Initial guess orbital symmetries:
       Occupied  (A) (A) (A) (A) (A) (A) (A) (A) (A) (A) (A) (A)
                 (A) (A) (A) (A) (A) (A) (A) (A) (A) (A) (A) (A)
                 (A) (A) (A) (A) (A) (A) (A) (A) (A) (A) (A) (A)
                 (A) (A) (A)
       Virtual   (A) (A) (A) (A) (A) (A) (A) (A) (A) (A) (A) (A)
                 (A) (A) (A) (A) (A) (A) (A) (A) (A) (A) (A) (A)
                 (A) (A) (A) (A) (A) (A) (A) (A) (A) (A) (A) (A)
                 (A) (A) (A) (A) (A) (A) (A) (A) (A) (A) (A) (A)
                 (A) (A) (A) (A) (A) (A) (A) (A) (A) (A) (A) (A)
                 (A) (A) (A) (A) (A) (A) (A) (A) (A) (A) (A) (A)
                 (A) (A) (A) (A) (A) (A) (A) (A) (A) (A) (A) (A)
                 (A) (A) (A) (A) (A) (A) (A) (A) (A) (A) (A) (A)
                 (A) (A) (A) (A) (A) (A) (A) (A) (A) (A) (A) (A)
                 (A) (A) (A) (A) (A) (A) (A) (A) (A) (A) (A) (A)
                 (A) (A) (A) (A) (A) (A) (A) (A) (A) (A) (A) (A)
                 (A) (A) (A)
 The electronic state of the initial guess is 1-A.
 Requested convergence on RMS density matrix=1.00D-08 within 128 cycles.
 Requested convergence on MAX density matrix=1.00D-06.
 Requested convergence on             energy=1.00D-06.
 No special actions if energy rises.
 Integral accuracy reduced to 1.0D-05 until final iterations.
 Initial convergence to 1.0D-05 achieved.  Increase integral accuracy.
 SCF Done:  E(RHF) =  -492.827666231     A.U. after   15 cycles
             Convg  =    0.4261D-08             -V/T =  2.0018

 **********************************************************************

            Population analysis using the SCF density.

 **********************************************************************

 Orbital symmetries:
       Occupied  (A) (A) (A) (A) (A) (A) (A) (A) (A) (A) (A) (A)
                 (A) (A) (A) (A) (A) (A) (A) (A) (A) (A) (A) (A)
                 (A) (A) (A) (A) (A) (A) (A) (A) (A) (A) (A) (A)
                 (A) (A) (A)
       Virtual   (A) (A) (A) (A) (A) (A) (A) (A) (A) (A) (A) (A)
                 (A) (A) (A) (A) (A) (A) (A) (A) (A) (A) (A) (A)
                 (A) (A) (A) (A) (A) (A) (A) (A) (A) (A) (A) (A)
                 (A) (A) (A) (A) (A) (A) (A) (A) (A) (A) (A) (A)
                 (A) (A) (A) (A) (A) (A) (A) (A) (A) (A) (A) (A)
                 (A) (A) (A) (A) (A) (A) (A) (A) (A) (A) (A) (A)
                 (A) (A) (A) (A) (A) (A) (A) (A) (A) (A) (A) (A)
                 (A) (A) (A) (A) (A) (A) (A) (A) (A) (A) (A) (A)
                 (A) (A) (A) (A) (A) (A) (A) (A) (A) (A) (A) (A)
                 (A) (A) (A) (A) (A) (A) (A) (A) (A) (A) (A) (A)
                 (A) (A) (A) (A) (A) (A) (A) (A) (A) (A) (A) (A)
                 (A) (A) (A)
 The electronic state is 1-A.
 Alpha  occ. eigenvalues --  -20.51984 -20.51279 -15.60270 -15.59664 -11.35226
 Alpha  occ. eigenvalues --  -11.35077 -11.28224 -11.26608 -11.23630 -11.19553
 Alpha  occ. eigenvalues --   -1.38221  -1.37340  -1.24360  -1.23943  -1.05606
 Alpha  occ. eigenvalues --   -0.98825  -0.96100  -0.87644  -0.80236  -0.78245
 Alpha  occ. eigenvalues --   -0.73450  -0.68698  -0.66587  -0.63809  -0.62936
 Alpha  occ. eigenvalues --   -0.61533  -0.59219  -0.57617  -0.56338  -0.55540
 Alpha  occ. eigenvalues --   -0.54668  -0.53753  -0.51912  -0.50315  -0.49814
 Alpha  occ. eigenvalues --   -0.42305  -0.39646  -0.38987  -0.38753
 Alpha virt. eigenvalues --    0.18956   0.19519   0.21247   0.22638   0.26222
 Alpha virt. eigenvalues --    0.27664   0.29262   0.30461   0.31120   0.31463
 Alpha virt. eigenvalues --    0.32068   0.33321   0.33931   0.36400   0.38159
 Alpha virt. eigenvalues --    0.39689   0.41394   0.43701   0.45675   0.50535
 Alpha virt. eigenvalues --    0.52895   0.59388   0.63235   0.71811   0.72662
 Alpha virt. eigenvalues --    0.73812   0.74412   0.76083   0.77733   0.80058
 Alpha virt. eigenvalues --    0.80957   0.82160   0.82980   0.88556   0.90319
 Alpha virt. eigenvalues --    0.92126   0.93652   0.94530   0.96838   0.98250
 Alpha virt. eigenvalues --    1.01368   1.02273   1.02715   1.07283   1.08696
 Alpha virt. eigenvalues --    1.09608   1.13081   1.14485   1.14840   1.15369
 Alpha virt. eigenvalues --    1.16604   1.17357   1.18054   1.20443   1.20874
 Alpha virt. eigenvalues --    1.21383   1.22463   1.23529   1.25823   1.29712
 Alpha virt. eigenvalues --    1.33304   1.35147   1.37556   1.38745   1.45210
 Alpha virt. eigenvalues --    1.46532   1.50395   1.56495   1.59440   1.62345
 Alpha virt. eigenvalues --    1.64328   1.67319   1.70354   1.72955   1.74253
 Alpha virt. eigenvalues --    1.79167   1.84169   1.85037   1.91511   1.91895
 Alpha virt. eigenvalues --    2.01819   2.03842   2.07241   2.11465   2.12359
 Alpha virt. eigenvalues --    2.13978   2.17116   2.19436   2.22452   2.23128
 Alpha virt. eigenvalues --    2.23899   2.27005   2.29005   2.35548   2.36008
 Alpha virt. eigenvalues --    2.37157   2.37537   2.44784   2.48582   2.50843
 Alpha virt. eigenvalues --    2.52206   2.58859   2.60004   2.62667   2.63793
 Alpha virt. eigenvalues --    2.65091   2.68314   2.70135   2.72481   2.76492
 Alpha virt. eigenvalues --    2.77646   2.78964   2.84648   2.95198   2.97965
 Alpha virt. eigenvalues --    3.02735   3.03856   3.06473   3.12040   3.25490
 Alpha virt. eigenvalues --    3.29350   3.35500   3.37488   3.53546   3.58174
 Alpha virt. eigenvalues --    4.37646   4.40492   4.49293   4.62346   4.62757
 Alpha virt. eigenvalues --    4.70086   4.72786   4.80878   4.88661   5.10701
          Condensed to atoms (all electrons):
              1          2          3          4          5          6
     1  H    0.454049   0.385419  -0.018778  -0.017900  -0.030183   0.003647
     2  C    0.385419   5.248529   0.373530   0.375388   0.377687  -0.064624
     3  H   -0.018778   0.373530   0.518919  -0.023949  -0.035171   0.001174
     4  H   -0.017900   0.375388  -0.023949   0.505687  -0.036069   0.001089
     5  C   -0.030183   0.377687  -0.035171  -0.036069   4.179808   0.580202
     6  O    0.003647  -0.064624   0.001174   0.001089   0.580202   8.273203
     7  N    0.003796  -0.121055   0.003708   0.004049   0.258405  -0.103403
     8  H   -0.000012  -0.000825   0.000569   0.000402  -0.018024   0.002393
     9  C   -0.000067   0.003272  -0.000188  -0.000012  -0.031078   0.008609
    10  H    0.000002  -0.000107   0.000012   0.000000  -0.001635   0.000756
    11  C    0.000008  -0.000545   0.000017   0.000001  -0.004710  -0.054915
    12  H    0.000001  -0.000100   0.000000   0.000008   0.000612  -0.001868
    13  H    0.000000   0.000017   0.000000  -0.000001   0.000516   0.002107
    14  H    0.000008   0.000188  -0.000014   0.000001  -0.003897  -0.006882
    15  C    0.000000  -0.000076  -0.000008   0.000014   0.002451   0.000109
    16  O    0.000000  -0.000009   0.000000   0.000000  -0.000062   0.000006
    17  N    0.000000   0.000000   0.000000   0.000000  -0.000131  -0.000002
    18  H    0.000000   0.000000   0.000000   0.000000   0.000005   0.000001
    19  C    0.000000   0.000000   0.000000   0.000000   0.000001   0.000000
    20  H    0.000000   0.000000   0.000000   0.000000   0.000000   0.000000
    21  H    0.000000   0.000000   0.000000   0.000000   0.000000   0.000000
    22  H    0.000000   0.000000   0.000000   0.000000   0.000000   0.000000
              7          8          9         10         11         12
     1  H    0.003796  -0.000012  -0.000067   0.000002   0.000008   0.000001
     2  C   -0.121055  -0.000825   0.003272  -0.000107  -0.000545  -0.000100
     3  H    0.003708   0.000569  -0.000188   0.000012   0.000017   0.000000
     4  H    0.004049   0.000402  -0.000012   0.000000   0.000001   0.000008
     5  C    0.258405  -0.018024  -0.031078  -0.001635  -0.004710   0.000612
     6  O   -0.103403   0.002393   0.008609   0.000756  -0.054915  -0.001868
     7  N    7.387128   0.322622   0.173198  -0.051796  -0.047509  -0.000277
     8  H    0.322622   0.318465  -0.024523   0.001650   0.002953  -0.000024
     9  C    0.173198  -0.024523   5.047580   0.413395   0.346420  -0.040075
    10  H   -0.051796   0.001650   0.413395   0.559945  -0.039869   0.004422
    11  C   -0.047509   0.002953   0.346420  -0.039869   5.204093   0.392692
    12  H   -0.000277  -0.000024  -0.040075   0.004422   0.392692   0.489760
    13  H    0.004259  -0.000075  -0.038286  -0.000066   0.369549  -0.022281
    14  H   -0.001507  -0.000196  -0.031207  -0.002850   0.396647  -0.017492
    15  C   -0.035611  -0.003049   0.342598  -0.067780  -0.046740  -0.006448
    16  O    0.003050   0.002163  -0.087302   0.002892   0.000483   0.005531
    17  N    0.000383   0.000741  -0.094179   0.008456  -0.001661   0.000493
    18  H   -0.000034  -0.000006   0.000668   0.003318  -0.000038  -0.000008
    19  C   -0.000091  -0.000021   0.004495   0.000005  -0.000177   0.000002
    20  H   -0.000008  -0.000005   0.000574  -0.000031  -0.000014  -0.000005
    21  H    0.000011  -0.000001  -0.000101  -0.000008  -0.000005   0.000000
    22  H   -0.000002   0.000000  -0.000123  -0.000015   0.000031   0.000000
             13         14         15         16         17         18
     1  H    0.000000   0.000008   0.000000   0.000000   0.000000   0.000000
     2  C    0.000017   0.000188  -0.000076  -0.000009   0.000000   0.000000
     3  H    0.000000  -0.000014  -0.000008   0.000000   0.000000   0.000000
     4  H   -0.000001   0.000001   0.000014   0.000000   0.000000   0.000000
     5  C    0.000516  -0.003897   0.002451  -0.000062  -0.000131   0.000005
     6  O    0.002107  -0.006882   0.000109   0.000006  -0.000002   0.000001
     7  N    0.004259  -0.001507  -0.035611   0.003050   0.000383  -0.000034
     8  H   -0.000075  -0.000196  -0.003049   0.002163   0.000741  -0.000006
     9  C   -0.038286  -0.031207   0.342598  -0.087302  -0.094179   0.000668
    10  H   -0.000066  -0.002850  -0.067780   0.002892   0.008456   0.003318
    11  C    0.369549   0.396647  -0.046740   0.000483  -0.001661  -0.000038
    12  H   -0.022281  -0.017492  -0.006448   0.005531   0.000493  -0.000008
    13  H    0.567796  -0.023353  -0.005196  -0.000181   0.001125   0.000022
    14  H   -0.023353   0.420170   0.004313   0.000090  -0.000064  -0.000008
    15  C   -0.005196   0.004313   4.247182   0.587407   0.270517  -0.017186
    16  O   -0.000181   0.000090   0.587407   8.216841  -0.099424   0.002369
    17  N    0.001125  -0.000064   0.270517  -0.099424   7.323215   0.321426
    18  H    0.000022  -0.000008  -0.017186   0.002369   0.321426   0.321129
    19  C   -0.000061   0.000003  -0.029254  -0.005037   0.185137  -0.022097
    20  H   -0.000004   0.000000  -0.001475   0.010847  -0.031815   0.002291
    21  H    0.000001   0.000000   0.000643   0.000398  -0.047502  -0.001050
    22  H   -0.000005   0.000000   0.001497   0.000374  -0.047283  -0.001051
             19         20         21         22
     1  H    0.000000   0.000000   0.000000   0.000000
     2  C    0.000000   0.000000   0.000000   0.000000
     3  H    0.000000   0.000000   0.000000   0.000000
     4  H    0.000000   0.000000   0.000000   0.000000
     5  C    0.000001   0.000000   0.000000   0.000000
     6  O    0.000000   0.000000   0.000000   0.000000
     7  N   -0.000091  -0.000008   0.000011  -0.000002
     8  H   -0.000021  -0.000005  -0.000001   0.000000
     9  C    0.004495   0.000574  -0.000101  -0.000123
    10  H    0.000005  -0.000031  -0.000008  -0.000015
    11  C   -0.000177  -0.000014  -0.000005   0.000031
    12  H    0.000002  -0.000005   0.000000   0.000000
    13  H   -0.000061  -0.000004   0.000001  -0.000005
    14  H    0.000003   0.000000   0.000000   0.000000
    15  C   -0.029254  -0.001475   0.000643   0.001497
    16  O   -0.005037   0.010847   0.000398   0.000374
    17  N    0.185137  -0.031815  -0.047502  -0.047283
    18  H   -0.022097   0.002291  -0.001050  -0.001051
    19  C    4.961765   0.395752   0.402251   0.402073
    20  H    0.395752   0.428094  -0.022391  -0.021951
    21  H    0.402251  -0.022391   0.533836  -0.036072
    22  H    0.402073  -0.021951  -0.036072   0.528478
 Mulliken atomic charges:
              1
     1  H    0.220009
     2  C   -0.576690
     3  H    0.180178
     4  H    0.191291
     5  C    0.761271
     6  O   -0.641602
     7  N   -0.799316
     8  H    0.394802
     9  C    0.006332
    10  H    0.169304
    11  C   -0.516710
    12  H    0.195054
    13  H    0.144116
    14  H    0.266051
    15  C    0.756092
    16  O   -0.640435
    17  N   -0.789430
    18  H    0.390249
    19  C   -0.294747
    20  H    0.240142
    21  H    0.169989
    22  H    0.174048
 Sum of Mulliken atomic charges =   0.00000
 Mulliken charges with hydrogens summed into heavy atoms:
              1
     2  C    0.014789
     5  C    0.761271
     6  O   -0.641602
     7  N   -0.404515
     9  C    0.175636
    11  C    0.088511
    15  C    0.756092
    16  O   -0.640435
    17  N   -0.399181
    19  C    0.289433
 Sum of Mulliken charges with hydrogens summed into heavy atoms =   0.00000
 Electronic spatial extent (au):  <R**2>=           1941.6148
 Charge=              0.0000 electrons
 Dipole moment (field-independent basis, Debye):
    X=              2.4225    Y=             -2.9691    Z=             -3.7656  Tot=              5.3725
 Quadrupole moment (field-independent basis, Debye-Ang):
   XX=            -57.4147   YY=            -59.4467   ZZ=            -62.5973
   XY=              8.2581   XZ=             -7.5410   YZ=              0.8617
 Traceless Quadrupole moment (field-independent basis, Debye-Ang):
   XX=              2.4049   YY=              0.3729   ZZ=             -2.7777
   XY=              8.2581   XZ=             -7.5410   YZ=              0.8617
 Octapole moment (field-independent basis, Debye-Ang**2):
  XXX=             41.9013  YYY=             -7.6135  ZZZ=            -10.7506  XYY=              2.6014
  XXY=            -27.2475  XXZ=             -7.2535  XZZ=             -1.1398  YZZ=              1.6071
  YYZ=              0.0254  XYZ=             -0.6781
 Hexadecapole moment (field-independent basis, Debye-Ang**3):
 XXXX=          -1819.0511 YYYY=           -386.4126 ZZZZ=           -182.9641 XXXY=             44.2970
 XXXZ=            -23.1078 YYYX=             -3.1037 YYYZ=             -0.2762 ZZZX=            -20.0510
 ZZZY=             -1.1910 XXYY=           -396.5440 XXZZ=           -347.9183 YYZZ=            -95.2221
 XXYZ=              0.6231 YYXZ=              0.3761 ZZXY=              1.1635
 N-N= 5.560517960016D+02 E-N=-2.267536846607D+03  KE= 4.919361508634D+02
 Calling FoFJK, ICntrl=      2127 FMM=F ISym2X=0 I1Cent= 0 IOpClX= 0 NMat=1 NMatS=1 NMatT=0.
 ***** Axes restored to original set *****
 -------------------------------------------------------------------
 Center     Atomic                   Forces (Hartrees/Bohr)
 Number     Number              X              Y              Z
 -------------------------------------------------------------------
      1        1           0.004622663    0.007876936    0.003004966
      2        6           0.005432114    0.007898944    0.001555195
      3        1          -0.003120417    0.000255801   -0.003885565
      4        1          -0.001073455   -0.003537566    0.003561213
      5        6           0.015984171   -0.046275179   -0.028223465
      6        8          -0.051707626    0.000154373    0.024598136
      7        7          -0.007882749    0.019731419    0.010852672
      8        1           0.009599567   -0.008578651   -0.008304023
      9        6           0.011142259   -0.001053443    0.001459591
     10        1          -0.001926051   -0.001568287   -0.000243597
     11        6           0.019547236   -0.001842971   -0.006157578
     12        1           0.004696861   -0.001728557    0.004428358
     13        1          -0.003390748    0.003845939   -0.000425818
     14        1           0.007541357    0.022896148   -0.003234595
     15        6          -0.032113142    0.015472050   -0.037156170
     16        8           0.018052264   -0.019973508    0.032340905
     17        7           0.007569302   -0.001583351    0.012595690
     18        1          -0.007729202    0.006945624   -0.012189552
     19        6           0.002361014    0.003994240    0.001515114
     20        1           0.004824977   -0.005701694    0.007222073
     21        1           0.002632321    0.001527457   -0.003772998
     22        1          -0.005062717    0.001244277    0.000459449
 -------------------------------------------------------------------
 Cartesian Forces:  Max     0.051707626 RMS     0.014467081

 GradGradGradGradGradGradGradGradGradGradGradGradGradGradGradGradGradGrad
 Berny optimization.
 Internal  Forces:  Max     0.099027151 RMS     0.019061880
 Search for a local minimum.
 Step number   1 out of a maximum of  108
 All quantities printed in internal units (Hartrees-Bohrs-Radians)
 Mixed Optimization -- RFO/linear search
 Second derivative matrix not updated -- first step.
     Eigenvalues ---    0.00369   0.00435   0.00999   0.01043   0.01269
     Eigenvalues ---    0.01422   0.01659   0.02551   0.02551   0.03503
     Eigenvalues ---    0.05232   0.05841   0.05844   0.05844   0.07165
     Eigenvalues ---    0.07464   0.07685   0.07685   0.15421   0.16000
     Eigenvalues ---    0.16000   0.16000   0.16000   0.16000   0.16000
     Eigenvalues ---    0.16000   0.16000   0.16000   0.16000   0.16000
     Eigenvalues ---    0.16180   0.22000   0.22000   0.25000   0.25000
     Eigenvalues ---    0.25000   0.25000   0.29422   0.29887   0.30174
     Eigenvalues ---    0.34808   0.34809   0.34810   0.34814   0.34814
     Eigenvalues ---    0.34816   0.34818   0.34819   0.34821   0.34822
     Eigenvalues ---    0.38365   0.38379   0.45976   0.45986   0.58327
     Eigenvalues ---    0.58337   0.91478   0.915221000.000001000.00000
     Eigenvalues --- 1000.000001000.000001000.000001000.000001000.00000
     Eigenvalues --- 1000.000001000.000001000.000001000.000001000.00000
     Eigenvalues --- 1000.000001000.000001000.000001000.000001000.00000
     Eigenvalues --- 1000.000001000.000001000.000001000.000001000.00000
     Eigenvalues --- 1000.000001000.000001000.000001000.000001000.00000
     Eigenvalues --- 1000.000001000.000001000.000001000.000001000.00000
     Eigenvalues --- 1000.000001000.000001000.000001000.000001000.00000
     Eigenvalues --- 1000.000001000.000001000.00000
 RFO step:  Lambda=-1.01468900D-01 EMin= 3.68861443D-03
 Linear search not attempted -- first point.
 Maximum step size (   0.300) exceeded in Quadratic search.
    -- Step size scaled by   0.515
 Iteration  1 RMS(Cart)=  0.18762632 RMS(Int)=  0.00864736
 Iteration  2 RMS(Cart)=  0.02028425 RMS(Int)=  0.00047619
 Iteration  3 RMS(Cart)=  0.00020845 RMS(Int)=  0.00047101
 Iteration  4 RMS(Cart)=  0.00000011 RMS(Int)=  0.00047101
 Iteration  1 RMS(Cart)=  0.00018366 RMS(Int)=  0.00009605
 Iteration  2 RMS(Cart)=  0.00012276 RMS(Int)=  0.00010614
 Iteration  3 RMS(Cart)=  0.00008211 RMS(Int)=  0.00012213
 Iteration  4 RMS(Cart)=  0.00005494 RMS(Int)=  0.00013560
 Iteration  5 RMS(Cart)=  0.00003678 RMS(Int)=  0.00014551
 Iteration  6 RMS(Cart)=  0.00002463 RMS(Int)=  0.00015247
 Iteration  7 RMS(Cart)=  0.00001649 RMS(Int)=  0.00015727
 Iteration  8 RMS(Cart)=  0.00001105 RMS(Int)=  0.00016053
 Iteration  9 RMS(Cart)=  0.00000740 RMS(Int)=  0.00016273
 Iteration 10 RMS(Cart)=  0.00000496 RMS(Int)=  0.00016422
 Iteration 11 RMS(Cart)=  0.00000332 RMS(Int)=  0.00016522
 Iteration 12 RMS(Cart)=  0.00000223 RMS(Int)=  0.00016589
 Iteration 13 RMS(Cart)=  0.00000149 RMS(Int)=  0.00016635
 Iteration 14 RMS(Cart)=  0.00000100 RMS(Int)=  0.00016665
 Iteration 15 RMS(Cart)=  0.00000067 RMS(Int)=  0.00016685
 Variable       Old X    -DE/DX   Delta X   Delta X   Delta X     New X
                                 (Linear)    (Quad)   (Total)
    R1        2.05977  -0.00862   0.00000  -0.00988  -0.00988   2.04989
    R2        2.05965  -0.00295   0.00000  -0.00338  -0.00338   2.05627
    R3        2.05987  -0.00320   0.00000  -0.00367  -0.00367   2.05620
    R4        2.89132  -0.00988   0.00000  -0.01286  -0.01286   2.87845
    R5        2.32240  -0.04894   0.00000  -0.02481  -0.02481   2.29759
    R6        2.52289   0.03416   0.00000   0.02571   0.02571   2.54860
    R7        1.90859  -0.01505   0.00000  -0.01382  -0.01382   1.89477
    R8        2.73817   0.03520   0.00000   0.03738   0.03738   2.77555
    R9        2.05975  -0.00075   0.00000  -0.00086  -0.00086   2.05889
   R10        2.88188   0.01343   0.00000   0.01728   0.01728   2.89917
   R11        2.87618   0.00279   0.00000   0.00357   0.00357   2.87975
   R12        2.05972  -0.00645   0.00000  -0.00739  -0.00739   2.05233
   R13        2.05984  -0.00127   0.00000  -0.00145  -0.00145   2.05839
   R14        2.05966  -0.02164   0.00000  -0.02480  -0.02480   2.03486
   R15        2.32259  -0.04202   0.00000  -0.02131  -0.02131   2.30128
   R16        2.52281   0.00950   0.00000   0.00715   0.00715   2.52996
   R17        1.90847  -0.01596   0.00000  -0.01465  -0.01465   1.89382
   R18        2.73837   0.00127   0.00000   0.00135   0.00135   2.73972
   R19        2.05970  -0.01019   0.00000  -0.01167  -0.01167   2.04802
   R20        2.05978  -0.00407   0.00000  -0.00466  -0.00466   2.05511
   R21        2.05986  -0.00421   0.00000  -0.00483  -0.00483   2.05504
    A1        1.91123   0.00048   0.00000   0.00051   0.00055   1.91179
    A2        1.91109   0.00063   0.00000   0.00090   0.00094   1.91204
    A3        1.93910  -0.00820   0.00000  -0.01655  -0.01651   1.92259
    A4        1.91012  -0.00450   0.00000  -0.00805  -0.00813   1.90199
    A5        1.89607   0.00585   0.00000   0.01169   0.01167   1.90774
    A6        1.89594   0.00578   0.00000   0.01161   0.01159   1.90754
    A7        2.10313  -0.01655   0.00000  -0.02427  -0.02430   2.07883
    A8        2.03508  -0.03210   0.00000  -0.04707  -0.04711   1.98798
    A9        2.14497   0.04866   0.00000   0.07134   0.07129   2.21626
   A10        2.09430  -0.05201   0.00000  -0.08428  -0.08429   2.01001
   A11        2.12753   0.09903   0.00000   0.15874   0.15872   2.28626
   A12        2.06135  -0.04702   0.00000  -0.07445  -0.07447   1.98689
   A13        1.91114  -0.00983   0.00000  -0.00329  -0.00428   1.90686
   A14        1.93905   0.05941   0.00000   0.10523   0.10370   2.04275
   A15        1.93900  -0.03064   0.00000  -0.05801  -0.05615   1.88285
   A16        1.89609  -0.00979   0.00000  -0.01273  -0.01411   1.88198
   A17        1.89608   0.01223   0.00000   0.01908   0.01794   1.91402
   A18        1.88137  -0.02190   0.00000  -0.05147  -0.04935   1.83202
   A19        1.91115   0.00125   0.00000   0.00275   0.00259   1.91374
   A20        1.91106  -0.00694   0.00000  -0.01590  -0.01586   1.89520
   A21        1.91110   0.01379   0.00000   0.02911   0.02905   1.94015
   A22        1.91011  -0.00103   0.00000  -0.00591  -0.00596   1.90414
   A23        1.91023  -0.00307   0.00000  -0.00159  -0.00182   1.90841
   A24        1.91015  -0.00401   0.00000  -0.00848  -0.00835   1.90180
   A25        2.10311   0.00206   0.00000   0.00301   0.00297   2.10608
   A26        2.03502  -0.00473   0.00000  -0.00693  -0.00698   2.02803
   A27        2.14506   0.00267   0.00000   0.00392   0.00386   2.14892
   A28        2.09446  -0.00496   0.00000  -0.00844  -0.00844   2.08602
   A29        2.12749   0.00729   0.00000   0.01169   0.01169   2.13917
   A30        2.06124  -0.00233   0.00000  -0.00324  -0.00324   2.05799
   A31        1.91114  -0.00458   0.00000  -0.00945  -0.00943   1.90171
   A32        1.91116   0.00375   0.00000   0.00758   0.00757   1.91872
   A33        1.91103   0.00459   0.00000   0.00928   0.00927   1.92030
   A34        1.91015  -0.00022   0.00000  -0.00090  -0.00089   1.90926
   A35        1.91015  -0.00054   0.00000  -0.00145  -0.00143   1.90872
   A36        1.91018  -0.00301   0.00000  -0.00508  -0.00512   1.90505
    D1       -0.00008  -0.00170   0.00000  -0.00777  -0.00756  -0.00764
    D2        3.14153   0.00178   0.00000   0.00795   0.00774  -3.13392
    D3        2.10341  -0.00240   0.00000  -0.00983  -0.00966   2.09375
    D4       -1.03816   0.00108   0.00000   0.00590   0.00563  -1.03253
    D5       -2.10332  -0.00115   0.00000  -0.00616  -0.00589  -2.10921
    D6        1.03830   0.00233   0.00000   0.00957   0.00941   1.04770
    D7        0.00004   0.00503   0.00000   0.00802   0.00799   0.00803
    D8        3.14152   0.00168   0.00000   0.01759   0.01702  -3.12464
    D9       -3.14153   0.00861   0.00000   0.02416   0.02472  -3.11681
   D10       -0.00005   0.00525   0.00000   0.03373   0.03375   0.03371
   D11       -1.57078  -0.00122   0.00000  -0.01504  -0.01468  -1.58545
   D12        0.52366   0.01775   0.00000   0.03346   0.03502   0.55868
   D13        2.61802   0.00931   0.00000   0.00000   0.00000   2.61801
   D14        1.57071  -0.00452   0.00000  -0.00565  -0.00574   1.56497
   D15       -2.61803   0.01445   0.00000   0.04286   0.04395  -2.57408
   D16       -0.52368   0.00601   0.00000   0.00940   0.00894  -0.51474
   D17        1.04724  -0.01023   0.00000  -0.03168  -0.03229   1.01495
   D18        3.14157  -0.01498   0.00000  -0.04699  -0.04759   3.09398
   D19       -1.04726  -0.01569   0.00000  -0.04928  -0.05002  -1.09729
   D20       -3.13259   0.00804   0.00000   0.02114   0.02123  -3.11136
   D21       -1.03826   0.00329   0.00000   0.00584   0.00593  -1.03233
   D22        1.05609   0.00258   0.00000   0.00355   0.00350   1.05959
   D23       -1.08102   0.00527   0.00000   0.00870   0.00935  -1.07167
   D24        1.01331   0.00052   0.00000  -0.00661  -0.00595   1.00736
   D25        3.10766  -0.00019   0.00000  -0.00890  -0.00839   3.09927
   D26       -1.04715  -0.02000   0.00000  -0.01735  -0.01783  -1.06499
   D27        2.09440  -0.01956   0.00000   0.00000   0.00000   2.09440
   D28        3.13272   0.00321   0.00000   0.01029   0.01032  -3.14015
   D29       -0.00892   0.00365   0.00000   0.02763   0.02815   0.01924
   D30        1.08113   0.02022   0.00000   0.04330   0.04428   1.12541
   D31       -2.06050   0.02066   0.00000   0.06065   0.06211  -1.99839
   D32       -0.00004  -0.00065   0.00000  -0.01053  -0.01079  -0.01083
   D33       -3.14157  -0.00121   0.00000  -0.01297  -0.01322   3.12840
   D34        3.14152  -0.00020   0.00000   0.00727   0.00752  -3.13415
   D35       -0.00001  -0.00076   0.00000   0.00483   0.00509   0.00508
   D36       -0.00006   0.00031   0.00000   0.00130   0.00130   0.00124
   D37        2.09437  -0.00047   0.00000  -0.00095  -0.00097   2.09340
   D38       -2.09442   0.00096   0.00000   0.00318   0.00321  -2.09121
   D39        3.14159  -0.00024   0.00000  -0.00109  -0.00110   3.14049
   D40       -1.04716  -0.00101   0.00000  -0.00334  -0.00337  -1.05053
   D41        1.04724   0.00041   0.00000   0.00078   0.00081   1.04804
         Item               Value     Threshold  Converged?
 Maximum Force            0.099027     0.000450     NO 
 RMS     Force            0.018978     0.000300     NO 
 Maximum Displacement     0.689458     0.001800     NO 
 RMS     Displacement     0.199256     0.001200     NO 
 Predicted change in Energy=-4.342207D-02
 GradGradGradGradGradGradGradGradGradGradGradGradGradGradGradGradGradGrad

                          Input orientation:                          
 ---------------------------------------------------------------------
 Center     Atomic      Atomic             Coordinates (Angstroms)
 Number     Number       Type             X           Y           Z
 ---------------------------------------------------------------------
      1          1           0        1.593731    1.383661   -0.822842
      2          6           0        1.824890    2.350514   -0.388730
      3          1           0        1.599888    2.334624    0.675768
      4          1           0        1.220013    3.118320   -0.866797
      5          6           0        3.299718    2.675757   -0.586905
      6          8           0        4.010515    1.873154   -1.160352
      7          7           0        3.672540    3.862259   -0.065267
      8          1           0        2.942081    4.375975    0.390661
      9          6           0        4.972944    4.544998   -0.056673
     10          1           0        5.522937    4.259088    0.839322
     11          6           0        5.890073    4.313826   -1.264613
     12          1           0        5.380434    4.619038   -2.173794
     13          1           0        6.787932    4.917692   -1.139441
     14          1           0        6.173345    3.278069   -1.345043
     15          6           0        4.712965    6.046477   -0.041553
     16          8           0        4.108040    6.581367   -0.953124
     17          7           0        5.202702    6.720586    1.006355
     18          1           0        5.698019    6.226253    1.723738
     19          6           0        5.049751    8.154904    1.152157
     20          1           0        4.497570    8.538353    0.302090
     21          1           0        4.505748    8.378705    2.066855
     22          1           0        6.026464    8.631381    1.192287
 ---------------------------------------------------------------------
                    Distance matrix (angstroms):
                    1          2          3          4          5
     1  H    0.000000
     2  C    1.084755   0.000000
     3  H    1.774880   1.088133   0.000000
     4  H    1.775005   1.088095   1.771438   0.000000
     5  C    2.153038   1.523212   2.144793   2.144615   0.000000
     6  O    2.488847   2.366481   3.065194   3.069774   1.215832
     7  N    3.322471   2.409110   2.679308   2.685290   1.348661
     8  H    3.499226   2.440913   2.459651   2.475564   1.993559
     9  C    4.690431   3.851787   4.098747   4.095876   2.564155
    10  H    5.144855   4.338931   4.372714   4.767321   3.079572
    11  C    5.219155   4.598639   5.107642   4.837039   3.138868
    12  H    5.160606   4.579798   5.256527   4.611886   3.259438
    13  H    6.290416   5.637886   6.073140   5.857798   4.183205
    14  H    4.983407   4.547962   5.088249   4.978929   3.032373
    15  C    5.664088   4.703366   4.897311   4.632045   3.695460
    16  O    5.775368   4.840602   5.194126   4.510082   4.005157
    17  N    6.697268   5.696789   5.685615   5.687427   4.745573
    18  H    6.839660   5.872393   5.747842   6.035118   4.867950
    19  C    7.854580   6.816524   6.782637   6.641554   6.008993
    20  H    7.803036   6.775677   6.857292   6.440918   6.049396
    21  H    8.109306   7.039601   6.849092   6.861051   6.404730
    22  H    8.731513   7.720242   7.714306   7.598397   6.787498
                    6          7          8          9         10
     6  O    0.000000
     7  N    2.295643   0.000000
     8  H    3.132300   1.002669   0.000000
     9  C    3.046822   1.468760   2.086403   0.000000
    10  H    3.461040   2.097552   2.622171   1.089516   0.000000
    11  C    3.082286   2.561210   3.381486   1.534172   2.136429
    12  H    3.231659   2.817002   3.546981   2.157251   3.037884
    13  H    4.121128   3.460268   4.174355   2.146036   2.439155
    14  H    2.585678   2.869343   3.828725   2.169325   2.481306
    15  C    4.377416   2.419474   2.472532   1.523896   2.150990
    16  O    4.713780   2.893354   2.833544   2.387150   3.256959
    17  N    5.441831   3.414645   3.314617   2.432284   2.487856
    18  H    5.487724   3.590483   3.577124   2.553863   2.163928
    19  C    6.774075   4.669650   4.393455   3.807702   3.936897
    20  H    6.841114   4.762508   4.444410   4.037521   4.433070
    21  H    7.278895   5.063444   4.612649   4.407375   4.417325
    22  H    7.434554   5.465064   5.316437   4.400948   4.415323
                   11         12         13         14         15
    11  C    0.000000
    12  H    1.086047   0.000000
    13  H    1.089254   1.772042   0.000000
    14  H    1.076803   1.764578   1.763052   0.000000
    15  C    2.425601   2.651330   2.604804   3.390558   0.000000
    16  O    2.900760   2.638135   3.159803   3.915465   1.217787
    17  N    3.379685   3.815946   3.219911   4.280438   1.338797
    18  H    3.553098   4.227855   3.331372   4.281956   2.029508
    19  C    4.615279   4.865557   4.330385   5.593030   2.446187
    20  H    4.715957   4.719161   4.520283   5.761238   2.524665
    21  H    5.434913   5.734394   5.240927   6.359121   3.150811
    22  H    4.969532   5.277003   4.450650   5.926008   3.151091
                   16         17         18         19         20
    16  O    0.000000
    17  N    2.248828   0.000000
    18  H    3.133645   1.002169   0.000000
    19  C    2.791961   1.449800   2.113445   0.000000
    20  H    2.357349   2.073035   2.967822   1.083767   0.000000
    21  H    3.536788   2.088004   2.484409   1.087520   1.771990
    22  H    3.533511   2.089089   2.484946   1.087478   1.771615
                   21         22
    21  H    0.000000
    22  H    1.772368   0.000000
 Stoichiometry    C6H12N2O2
 Framework group  C1[X(C6H12N2O2)]
 Deg. of freedom    60
 Full point group                 C1      NOp   1
 Largest Abelian subgroup         C1      NOp   1
 Largest concise Abelian subgroup C1      NOp   1
                         Standard orientation:                         
 ---------------------------------------------------------------------
 Center     Atomic      Atomic             Coordinates (Angstroms)
 Number     Number       Type             X           Y           Z
 ---------------------------------------------------------------------
      1          1           0       -4.144766   -1.292094    0.180664
      2          6           0       -3.085327   -1.502646    0.080914
      3          1           0       -2.922433   -2.151044   -0.777620
      4          1           0       -2.728100   -2.005782    0.977124
      5          6           0       -2.308544   -0.206694   -0.112201
      6          8           0       -2.914114    0.847215   -0.140605
      7          7           0       -0.978960   -0.382516   -0.254256
      8          1           0       -0.669161   -1.335609   -0.222897
      9          6           0        0.107031    0.588933   -0.439095
     10          1           0        0.265412    0.752369   -1.504576
     11          6           0       -0.063511    1.960728    0.226322
     12          1           0       -0.193153    1.833639    1.297087
     13          1           0        0.834545    2.549385    0.043422
     14          1           0       -0.913597    2.485019   -0.176140
     15          6           0        1.369073    0.003848    0.183147
     16          8           0        1.411314   -0.259184    1.371437
     17          7           0        2.407129   -0.175213   -0.643142
     18          1           0        2.314742    0.065785   -1.611505
     19          6           0        3.679012   -0.707095   -0.194440
     20          1           0        3.618828   -0.914949    0.867503
     21          1           0        3.906334   -1.625942   -0.729925
     22          1           0        4.470152    0.016634   -0.375887
 ---------------------------------------------------------------------
 Rotational constants (GHZ):      2.7769864      0.6597833      0.5970161
 Standard basis: 6-31G(d) (6D, 7F)
 There are   174 symmetry adapted basis functions of A   symmetry.
 Integral buffers will be    131072 words long.
 Raffenetti 1 integral format.
 Two-electron integral symmetry is turned on.
   174 basis functions,   328 primitive gaussians,   174 cartesian basis functions
    39 alpha electrons       39 beta electrons
       nuclear repulsion energy       550.6207984549 Hartrees.
 NAtoms=   22 NActive=   22 NUniq=   22 SFac= 7.50D-01 NAtFMM=   80 NAOKFM=F Big=F
 One-electron integrals computed using PRISM.
 NBasis=   174 RedAO= T  NBF=   174
 NBsUse=   174 1.00D-06 NBFU=   174
 Initial guess read from the read-write file.
 B after Tr=     0.000000    0.000000    0.000000
         Rot=    1.000000    0.000000    0.000000    0.000000 Ang=   0.00 deg.
 Initial guess orbital symmetries:
       Occupied  (A) (A) (A) (A) (A) (A) (A) (A) (A) (A) (A) (A)
                 (A) (A) (A) (A) (A) (A) (A) (A) (A) (A) (A) (A)
                 (A) (A) (A) (A) (A) (A) (A) (A) (A) (A) (A) (A)
                 (A) (A) (A)
       Virtual   (A) (A) (A) (A) (A) (A) (A) (A) (A) (A) (A) (A)
                 (A) (A) (A) (A) (A) (A) (A) (A) (A) (A) (A) (A)
                 (A) (A) (A) (A) (A) (A) (A) (A) (A) (A) (A) (A)
                 (A) (A) (A) (A) (A) (A) (A) (A) (A) (A) (A) (A)
                 (A) (A) (A) (A) (A) (A) (A) (A) (A) (A) (A) (A)
                 (A) (A) (A) (A) (A) (A) (A) (A) (A) (A) (A) (A)
                 (A) (A) (A) (A) (A) (A) (A) (A) (A) (A) (A) (A)
                 (A) (A) (A) (A) (A) (A) (A) (A) (A) (A) (A) (A)
                 (A) (A) (A) (A) (A) (A) (A) (A) (A) (A) (A) (A)
                 (A) (A) (A) (A) (A) (A) (A) (A) (A) (A) (A) (A)
                 (A) (A) (A) (A) (A) (A) (A) (A) (A) (A) (A) (A)
                 (A) (A) (A)
 Harris functional with IExCor=  205 diagonalized for initial guess.
 ExpMin= 1.61D-01 ExpMax= 5.48D+03 ExpMxC= 8.25D+02 IAcc=1 IRadAn=         1 AccDes= 0.00D+00
 HarFok:  IExCor=  205 AccDes= 0.00D+00 IRadAn=         1 IDoV= 1
 ScaDFX=  1.000000  1.000000  1.000000  1.000000
 FoFCou: FMM=F IPFlag=           0 FMFlag=      100000 FMFlg1=           0
         NFxFlg=           0 DoJE=T BraDBF=F KetDBF=T FulRan=T
         Omega=  0.000000  0.000000  1.000000  0.000000  0.000000 ICntrl=     500 IOpCl=  0
         NMat0=    1 NMatS0=    1 NMatT0=    0 NMatD0=    1 NMtDS0=    0 NMtDT0=    0
         I1Cent=           4 NGrid=           0.
 Petite list used in FoFCou.
 Requested convergence on RMS density matrix=1.00D-08 within 128 cycles.
 Requested convergence on MAX density matrix=1.00D-06.
 Requested convergence on             energy=1.00D-06.
 No special actions if energy rises.
 Integral accuracy reduced to 1.0D-05 until final iterations.
 Initial convergence to 1.0D-05 achieved.  Increase integral accuracy.
 SCF Done:  E(RHF) =  -492.842004385     A.U. after   15 cycles
             Convg  =    0.4169D-08             -V/T =  2.0019
 Calling FoFJK, ICntrl=      2127 FMM=F ISym2X=0 I1Cent= 0 IOpClX= 0 NMat=1 NMatS=1 NMatT=0.
 ***** Axes restored to original set *****
 -------------------------------------------------------------------
 Center     Atomic                   Forces (Hartrees/Bohr)
 Number     Number              X              Y              Z
 -------------------------------------------------------------------
      1        1           0.003570050    0.003953218    0.001291119
      2        6           0.001700003    0.006448275    0.001698619
      3        1          -0.002879149    0.000087054   -0.002107888
      4        1          -0.001557139   -0.002163600    0.002431883
      5        6           0.006541623   -0.035608870   -0.017623035
      6        8          -0.004727248    0.026543385    0.014495005
      7        7           0.004410046    0.016098313    0.003918354
      8        1           0.004601425   -0.003763682   -0.005452998
      9        6           0.003235153   -0.005175461   -0.001534296
     10        1          -0.002901040   -0.000705125   -0.000483988
     11        6          -0.006030454   -0.005195260   -0.003177810
     12        1           0.002760015   -0.001177813    0.002540164
     13        1          -0.002705244   -0.001109872   -0.000336069
     14        1           0.000171576   -0.002166497   -0.000675076
     15        6          -0.020162951    0.011899710   -0.021563611
     16        8           0.010933612   -0.012316552    0.021347510
     17        7           0.004845671    0.001062545    0.009072583
     18        1          -0.004662204    0.003215046   -0.006473754
     19        6           0.001749768    0.001375342    0.001053959
     20        1           0.002667834   -0.002831212    0.003717339
     21        1           0.001400848    0.001018298   -0.002266194
     22        1          -0.002962193    0.000512757    0.000128185
 -------------------------------------------------------------------
 Cartesian Forces:  Max     0.035608870 RMS     0.008829408

 GradGradGradGradGradGradGradGradGradGradGradGradGradGradGradGradGradGrad
 Berny optimization.
 Using GEDIIS/GDIIS optimizer.
 Internal  Forces:  Max     0.027122217 RMS     0.006107655
 Search for a local minimum.
 Step number   2 out of a maximum of  108
 All quantities printed in internal units (Hartrees-Bohrs-Radians)
 Mixed Optimization -- RFO/linear search
 Update second derivatives using D2CorX and points    1    2
 DE= -1.43D-02 DEPred=-4.34D-02 R= 3.30D-01
 Trust test= 3.30D-01 RLast= 3.00D-01 DXMaxT set to 3.00D-01
 Use linear search instead of GDIIS.
     Eigenvalues ---    0.00369   0.00438   0.01001   0.01043   0.01342
     Eigenvalues ---    0.01422   0.01657   0.02551   0.02571   0.03601
     Eigenvalues ---    0.04936   0.05672   0.05924   0.06161   0.07226
     Eigenvalues ---    0.07357   0.07603   0.07711   0.15779   0.15947
     Eigenvalues ---    0.16000   0.16000   0.16000   0.16000   0.16000
     Eigenvalues ---    0.16000   0.16000   0.16000   0.16000   0.16474
     Eigenvalues ---    0.16906   0.21969   0.24202   0.24868   0.24996
     Eigenvalues ---    0.25000   0.29388   0.29831   0.30145   0.34416
     Eigenvalues ---    0.34671   0.34808   0.34809   0.34811   0.34814
     Eigenvalues ---    0.34816   0.34816   0.34818   0.34822   0.36917
     Eigenvalues ---    0.38365   0.45643   0.45980   0.56317   0.58213
     Eigenvalues ---    0.75861   0.87780   0.915641000.000001000.00000
     Eigenvalues --- 1000.000001000.000001000.000001000.000001000.00000
     Eigenvalues --- 1000.000001000.000001000.000001000.000001000.00000
     Eigenvalues --- 1000.000001000.000001000.000001000.000001000.00000
     Eigenvalues --- 1000.000001000.000001000.000001000.000001000.00000
     Eigenvalues --- 1000.000001000.000001000.000001000.000001000.00000
     Eigenvalues --- 1000.000001000.000001000.000001000.000001000.00000
     Eigenvalues --- 1000.000001000.000001000.000001000.000001000.00000
     Eigenvalues --- 1000.000001000.000001000.00000
 RFO step:  Lambda=-5.52083034D-03 EMin= 3.68861475D-03
 Quartic linear search produced a step of -0.27285.
 Iteration  1 RMS(Cart)=  0.05452258 RMS(Int)=  0.00138941
 Iteration  2 RMS(Cart)=  0.00204691 RMS(Int)=  0.00025227
 Iteration  3 RMS(Cart)=  0.00000225 RMS(Int)=  0.00025227
 Iteration  4 RMS(Cart)=  0.00000000 RMS(Int)=  0.00025227
 Iteration  1 RMS(Cart)=  0.00005125 RMS(Int)=  0.00002901
 Iteration  2 RMS(Cart)=  0.00003320 RMS(Int)=  0.00003210
 Iteration  3 RMS(Cart)=  0.00002196 RMS(Int)=  0.00003685
 Iteration  4 RMS(Cart)=  0.00001471 RMS(Int)=  0.00004077
 Iteration  5 RMS(Cart)=  0.00000991 RMS(Int)=  0.00004362
 Iteration  6 RMS(Cart)=  0.00000669 RMS(Int)=  0.00004560
 Iteration  7 RMS(Cart)=  0.00000452 RMS(Int)=  0.00004695
 Iteration  8 RMS(Cart)=  0.00000305 RMS(Int)=  0.00004787
 Iteration  9 RMS(Cart)=  0.00000206 RMS(Int)=  0.00004848
 Iteration 10 RMS(Cart)=  0.00000139 RMS(Int)=  0.00004890
 Iteration 11 RMS(Cart)=  0.00000093 RMS(Int)=  0.00004917
 Variable       Old X    -DE/DX   Delta X   Delta X   Delta X     New X
                                 (Linear)    (Quad)   (Total)
    R1        2.04989  -0.00480   0.00270  -0.01532  -0.01262   2.03727
    R2        2.05627  -0.00147   0.00092  -0.00488  -0.00396   2.05232
    R3        2.05620  -0.00173   0.00100  -0.00558  -0.00458   2.05162
    R4        2.87845  -0.00215   0.00351  -0.01197  -0.00846   2.86999
    R5        2.29759  -0.02712   0.00677  -0.03739  -0.03062   2.26697
    R6        2.54860  -0.00015  -0.00701   0.01554   0.00852   2.55712
    R7        1.89477  -0.00776   0.00377  -0.02024  -0.01647   1.87830
    R8        2.77555  -0.01570  -0.01020  -0.00818  -0.01837   2.75718
    R9        2.05889  -0.00168   0.00023  -0.00392  -0.00369   2.05520
   R10        2.89917  -0.00072  -0.00472   0.00740   0.00269   2.90185
   R11        2.87975   0.00498  -0.00097   0.01367   0.01270   2.89245
   R12        2.05233  -0.00375   0.00202  -0.01179  -0.00977   2.04256
   R13        2.05839  -0.00288   0.00040  -0.00673  -0.00633   2.05206
   R14        2.03486   0.00218   0.00677  -0.00921  -0.00244   2.03242
   R15        2.30128  -0.02682   0.00581  -0.03491  -0.02909   2.27219
   R16        2.52996   0.00740  -0.00195   0.01350   0.01155   2.54151
   R17        1.89382  -0.00852   0.00400  -0.02192  -0.01793   1.87590
   R18        2.73972   0.00004  -0.00037   0.00084   0.00047   2.74019
   R19        2.04802  -0.00528   0.00319  -0.01728  -0.01410   2.03392
   R20        2.05511  -0.00240   0.00127  -0.00750  -0.00623   2.04889
   R21        2.05504  -0.00243   0.00132  -0.00766  -0.00634   2.04869
    A1        1.91179  -0.00017  -0.00015  -0.00219  -0.00222   1.90957
    A2        1.91204   0.00004  -0.00026  -0.00072  -0.00085   1.91118
    A3        1.92259  -0.00548   0.00451  -0.03181  -0.02718   1.89541
    A4        1.90199  -0.00353   0.00222  -0.01566  -0.01374   1.88825
    A5        1.90774   0.00467  -0.00318   0.02558   0.02230   1.93004
    A6        1.90754   0.00451  -0.00316   0.02505   0.02179   1.92933
    A7        2.07883   0.01562   0.00663   0.03263   0.03883   2.11766
    A8        1.98798   0.00138   0.01285  -0.01909  -0.00664   1.98134
    A9        2.21626  -0.01700  -0.01945  -0.01284  -0.03266   2.18360
   A10        2.01001   0.00768   0.02300  -0.01523   0.00776   2.01777
   A11        2.28626  -0.01712  -0.04331   0.01886  -0.02446   2.26180
   A12        1.98689   0.00943   0.02032  -0.00372   0.01659   2.00347
   A13        1.90686   0.00373   0.00117  -0.01328  -0.01226   1.89460
   A14        2.04275  -0.01252  -0.02830  -0.01654  -0.04464   1.99811
   A15        1.88285  -0.00132   0.01532  -0.02080  -0.00515   1.87770
   A16        1.88198   0.00156   0.00385  -0.00274   0.00009   1.88208
   A17        1.91402  -0.00371  -0.00489   0.02448   0.01948   1.93350
   A18        1.83202   0.01256   0.01347   0.03362   0.04627   1.87829
   A19        1.91374   0.00162  -0.00071   0.00741   0.00674   1.92048
   A20        1.89520  -0.00069   0.00433  -0.00635  -0.00203   1.89317
   A21        1.94015   0.00013  -0.00793   0.00963   0.00172   1.94187
   A22        1.90414  -0.00063   0.00163  -0.00098   0.00065   1.90480
   A23        1.90841  -0.00084   0.00050  -0.00972  -0.00916   1.89925
   A24        1.90180   0.00039   0.00228  -0.00013   0.00211   1.90391
   A25        2.10608   0.00153  -0.00081   0.00604   0.00508   2.11117
   A26        2.02803  -0.00339   0.00190  -0.01293  -0.01116   2.01687
   A27        2.14892   0.00186  -0.00105   0.00733   0.00613   2.15505
   A28        2.08602  -0.00295   0.00230  -0.01445  -0.01215   2.07387
   A29        2.13917   0.00383  -0.00319   0.01779   0.01459   2.15377
   A30        2.05799  -0.00088   0.00089  -0.00336  -0.00248   2.05551
   A31        1.90171  -0.00247   0.00257  -0.01541  -0.01281   1.88890
   A32        1.91872   0.00219  -0.00206   0.01298   0.01088   1.92961
   A33        1.92030   0.00259  -0.00253   0.01538   0.01282   1.93311
   A34        1.90926  -0.00024   0.00024  -0.00234  -0.00208   1.90719
   A35        1.90872  -0.00040   0.00039  -0.00323  -0.00281   1.90591
   A36        1.90505  -0.00168   0.00140  -0.00748  -0.00618   1.89888
    D1       -0.00764   0.00014   0.00206   0.02315   0.02565   0.01801
    D2       -3.13392  -0.00004  -0.00211  -0.02184  -0.02438   3.12489
    D3        2.09375  -0.00053   0.00264   0.01683   0.01972   2.11347
    D4       -1.03253  -0.00071  -0.00154  -0.02817  -0.03030  -1.06283
    D5       -2.10921   0.00066   0.00161   0.02800   0.03020  -2.07901
    D6        1.04770   0.00047  -0.00257  -0.01700  -0.01983   1.02788
    D7        0.00803   0.00045  -0.00218   0.00643   0.00354   0.01157
    D8       -3.12464   0.00087  -0.00465   0.01898   0.01379  -3.11084
    D9       -3.11681  -0.00011  -0.00674  -0.04325  -0.04945   3.11692
   D10        0.03371   0.00031  -0.00921  -0.03070  -0.03920  -0.00549
   D11       -1.58545   0.00121   0.00400   0.00982   0.01348  -1.57198
   D12        0.55868  -0.00292  -0.00955  -0.01727  -0.02721   0.53147
   D13        2.61801   0.00432   0.00000   0.00000   0.00001   2.61802
   D14        1.56497   0.00163   0.00157   0.02229   0.02369   1.58866
   D15       -2.57408  -0.00250  -0.01199  -0.00481  -0.01700  -2.59107
   D16       -0.51474   0.00474  -0.00244   0.01247   0.01022  -0.50452
   D17        1.01495   0.00115   0.00881   0.06545   0.07411   1.08906
   D18        3.09398   0.00092   0.01298   0.06479   0.07763  -3.11157
   D19       -1.09729   0.00104   0.01365   0.06644   0.07999  -1.01730
   D20       -3.11136  -0.00166  -0.00579   0.03344   0.02761  -3.08375
   D21       -1.03233  -0.00189  -0.00162   0.03278   0.03113  -1.00120
   D22        1.05959  -0.00177  -0.00095   0.03443   0.03349   1.09308
   D23       -1.07167   0.00103  -0.00255   0.07694   0.07452  -0.99715
   D24        1.00736   0.00080   0.00162   0.07628   0.07804   1.08539
   D25        3.09927   0.00093   0.00229   0.07793   0.08039  -3.10352
   D26       -1.06499   0.00452   0.00487   0.02708   0.03204  -1.03295
   D27        2.09440   0.00429   0.00000   0.00000   0.00000   2.09440
   D28       -3.14015   0.00291  -0.00282   0.04141   0.03887  -3.10128
   D29        0.01924   0.00268  -0.00768   0.01432   0.00683   0.02607
   D30        1.12541  -0.00375  -0.01208   0.01552   0.00294   1.12835
   D31       -1.99839  -0.00398  -0.01695  -0.01157  -0.02910  -2.02749
   D32       -0.01083  -0.00044   0.00294   0.00353   0.00653  -0.00430
   D33        3.12840  -0.00081   0.00361  -0.00454  -0.00086   3.12753
   D34       -3.13415  -0.00067  -0.00205  -0.02426  -0.02639   3.12265
   D35        0.00508  -0.00104  -0.00139  -0.03234  -0.03378  -0.02870
   D36        0.00124   0.00020  -0.00035   0.00421   0.00386   0.00510
   D37        2.09340  -0.00029   0.00027  -0.00030  -0.00007   2.09332
   D38       -2.09121   0.00065  -0.00087   0.00838   0.00756  -2.08365
   D39        3.14049  -0.00017   0.00030  -0.00376  -0.00347   3.13702
   D40       -1.05053  -0.00066   0.00092  -0.00827  -0.00740  -1.05794
   D41        1.04804   0.00028  -0.00022   0.00041   0.00023   1.04828
         Item               Value     Threshold  Converged?
 Maximum Force            0.027122     0.000450     NO 
 RMS     Force            0.006075     0.000300     NO 
 Maximum Displacement     0.259325     0.001800     NO 
 RMS     Displacement     0.054711     0.001200     NO 
 Predicted change in Energy=-2.276506D-03
 GradGradGradGradGradGradGradGradGradGradGradGradGradGradGradGradGradGrad

                          Input orientation:                          
 ---------------------------------------------------------------------
 Center     Atomic      Atomic             Coordinates (Angstroms)
 Number     Number       Type             X           Y           Z
 ---------------------------------------------------------------------
      1          1           0        1.671181    1.392407   -0.858545
      2          6           0        1.860859    2.349835   -0.400723
      3          1           0        1.602146    2.303607    0.653037
      4          1           0        1.238265    3.105560   -0.869700
      5          6           0        3.331295    2.687375   -0.575192
      6          8           0        4.075066    1.951052   -1.161486
      7          7           0        3.675996    3.886486   -0.051370
      8          1           0        2.940554    4.391088    0.387314
      9          6           0        4.967856    4.564633   -0.051791
     10          1           0        5.514829    4.267712    0.840093
     11          6           0        5.849675    4.253230   -1.269771
     12          1           0        5.363039    4.588668   -2.174734
     13          1           0        6.792149    4.780463   -1.155964
     14          1           0        6.044259    3.198587   -1.350949
     15          6           0        4.699108    6.071466   -0.047539
     16          8           0        4.069033    6.589921   -0.930689
     17          7           0        5.196201    6.746545    1.004103
     18          1           0        5.692895    6.245925    1.702740
     19          6           0        5.056215    8.180152    1.170870
     20          1           0        4.501562    8.564043    0.332167
     21          1           0        4.522217    8.406551    2.086912
     22          1           0        6.027902    8.659692    1.205318
 ---------------------------------------------------------------------
                    Distance matrix (angstroms):
                    1          2          3          4          5
     1  H    0.000000
     2  C    1.078076   0.000000
     3  H    1.766333   1.086039   0.000000
     4  H    1.767041   1.085672   1.759053   0.000000
     5  C    2.124432   1.518734   2.155408   2.154620   0.000000
     6  O    2.486468   2.374973   3.087414   3.076600   1.199628
     7  N    3.300188   2.403760   2.702323   2.687385   1.353172
     8  H    3.486482   2.439970   2.493897   2.475975   1.995429
     9  C    4.645636   3.831515   4.115462   4.087507   2.544873
    10  H    5.091795   4.309219   4.381984   4.750051   3.044391
    11  C    5.080672   4.504309   5.053684   4.768889   3.045747
    12  H    5.057495   4.519375   5.230881   4.573454   3.209585
    13  H    6.147496   5.549411   6.028552   5.808001   4.086053
    14  H    4.756949   4.373116   4.954727   4.830924   2.867631
    15  C    5.632021   4.693711   4.927346   4.631412   3.688008
    16  O    5.724426   4.809909   5.192900   4.489737   3.987544
    17  N    6.675479   5.694655   5.725398   5.695012   4.738028
    18  H    6.803749   5.855644   5.777368   6.026862   4.840394
    19  C    7.851780   6.831749   6.836119   6.670243   6.016201
    20  H    7.801360   6.791673   6.906709   6.472142   6.060368
    21  H    8.124183   7.067883   6.915833   6.901189   6.419819
    22  H    8.720893   7.730323   7.764802   7.621988   6.790469
                    6          7          8          9         10
     6  O    0.000000
     7  N    2.266609   0.000000
     8  H    3.104783   0.993953   0.000000
     9  C    2.976458   1.459036   2.081558   0.000000
    10  H    3.383216   2.078785   2.616700   1.087565   0.000000
    11  C    2.908777   2.518706   3.350809   1.535594   2.136318
    12  H    3.105248   2.801402   3.531511   2.159545   3.035661
    13  H    3.922772   3.424871   4.167506   2.143322   2.424604
    14  H    2.338795   2.787612   3.751880   2.170838   2.494793
    15  C    4.313713   2.412657   2.470886   1.530617   2.169520
    16  O    4.644611   2.869886   2.800976   2.383723   3.258627
    17  N    5.379914   3.406609   3.319119   2.434706   2.504603
    18  H    5.409907   3.565353   3.570175   2.535903   2.165455
    19  C    6.723409   4.672734   4.409874   3.817680   3.953091
    20  H    6.792978   4.765313   4.455709   4.044766   4.443328
    21  H    7.240546   5.071424   4.638345   4.419613   4.435068
    22  H    7.377071   5.467561   5.331212   4.412882   4.436904
                   11         12         13         14         15
    11  C    0.000000
    12  H    1.080876   0.000000
    13  H    1.085903   1.765513   0.000000
    14  H    1.075512   1.753570   1.760594   0.000000
    15  C    2.474598   2.676650   2.697428   3.429540   0.000000
    16  O    2.957327   2.688329   3.277232   3.947060   1.202391
    17  N    3.437172   3.845683   3.328426   4.342060   1.344910
    18  H    3.582071   4.229671   3.395309   4.328365   2.020279
    19  C    4.691164   4.917923   4.470515   5.670255   2.461423
[...]
    12  H    4.843819   4.163729   4.849342   3.978203   3.088904
    13  H    6.053861   5.388923   5.938583   5.447421   4.037043
    14  H    4.707764   4.271243   4.991306   4.490775   2.860899
    15  C    5.598277   4.627201   4.722850   4.658306   3.654905
    16  O    5.647257   4.624445   4.741366   4.382061   3.946174
    17  N    6.683539   5.724469   5.671174   5.868437   4.719343
    18  H    6.871555   5.992513   5.937988   6.293112   4.855396
    19  C    7.850133   6.833656   6.693302   6.846971   5.988240
    20  H    7.705354   6.648759   6.399442   6.582305   6.027705
    21  H    8.584774   7.592960   7.378008   7.708364   6.708373
    22  H    8.368095   7.357218   7.339595   7.258483   6.470471
                    6          7          8          9         10
     6  O    0.000000
     7  N    2.262006   0.000000
     8  H    3.081721   0.996932   0.000000
     9  C    2.893303   1.461436   2.062877   0.000000
    10  H    3.183552   2.079670   2.791057   1.084674   0.000000
    11  C    2.923842   2.535906   3.167800   1.534168   2.146357
    12  H    3.186448   2.781755   3.169219   2.160907   3.044809
    13  H    3.932060   3.440983   4.004241   2.149214   2.478517
    14  H    2.374317   2.856449   3.676968   2.170665   2.477362
    15  C    4.294261   2.390516   2.339453   1.529972   2.160057
    16  O    4.719144   2.828908   2.437678   2.383447   3.249978
    17  N    5.299356   3.393190   3.364106   2.442495   2.506942
    18  H    5.284683   3.594323   3.781788   2.555339   2.184848
    19  C    6.658115   4.643666   4.394305   3.809917   3.955057
    20  H    6.853745   4.691384   4.220200   4.160936   4.461438
    21  H    7.334382   5.352510   5.166979   4.502777   4.411469
    22  H    7.064692   5.188156   4.972354   4.207311   4.459717
                   11         12         13         14         15
    11  C    0.000000
    12  H    1.082820   0.000000
    13  H    1.086529   1.757300   0.000000
    14  H    1.077551   1.762193   1.760933   0.000000
    15  C    2.467659   2.707979   2.652820   3.425335   0.000000
    16  O    2.964839   2.738036   3.228191   3.974942   1.203008
    17  N    3.434510   3.884637   3.300622   4.321999   1.344317
    18  H    3.567239   4.251501   3.361469   4.285578   2.022897
    19  C    4.656242   4.923336   4.391971   5.625294   2.438860
    20  H    5.120304   5.229655   5.037485   6.109842   2.707989
    21  H    5.419648   5.822514   5.083307   6.314669   3.306320
    22  H    4.720633   4.875643   4.283141   5.738366   2.816627
                   16         17         18         19         20
    16  O    0.000000
    17  N    2.237386   0.000000
    18  H    3.110284   0.992784   0.000000
    19  C    2.766239   1.448509   2.115054   0.000000
    20  H    2.681961   2.084541   2.879450   1.080931   0.000000
    21  H    3.802390   2.065861   2.290384   1.081467   1.761309
    22  H    2.923297   2.102987   2.768681   1.083582   1.755777
                   21         22
    21  H    0.000000
    22  H    1.763115   0.000000
 Stoichiometry    C6H12N2O2
 Framework group  C1[X(C6H12N2O2)]
 Deg. of freedom    60
 Full point group                 C1      NOp   1
 Largest Abelian subgroup         C1      NOp   1
 Largest concise Abelian subgroup C1      NOp   1
                         Standard orientation:                         
 ---------------------------------------------------------------------
 Center     Atomic      Atomic             Coordinates (Angstroms)
 Number     Number       Type             X           Y           Z
 ---------------------------------------------------------------------
      1          1           0       -4.109989   -1.235654   -0.020004
      2          6           0       -3.058325   -1.428622    0.131612
      3          1           0       -2.753383   -2.282238   -0.463692
      4          1           0       -2.891021   -1.670045    1.177157
      5          6           0       -2.273037   -0.185977   -0.233822
      6          8           0       -2.800253    0.878725   -0.386025
      7          7           0       -0.934571   -0.400063   -0.410644
      8          1           0       -0.621247   -1.274020   -0.047462
      9          6           0        0.082926    0.645298   -0.322819
     10          1           0        0.240041    1.059922   -1.312727
     11          6           0       -0.223139    1.789876    0.651829
     12          1           0       -0.400118    1.396331    1.644956
     13          1           0        0.635472    2.454107    0.697977
     14          1           0       -1.084354    2.353743    0.333274
     15          6           0        1.356615   -0.043796    0.170821
     16          8           0        1.369860   -0.647220    1.211461
     17          7           0        2.423681    0.025957   -0.643853
     18          1           0        2.360480    0.560048   -1.478342
     19          6           0        3.704917   -0.535201   -0.267404
     20          1           0        3.587975   -1.570697    0.019794
     21          1           0        4.370450   -0.477222   -1.117859
     22          1           0        4.145328    0.002953    0.563606
 ---------------------------------------------------------------------
 Rotational constants (GHZ):      2.8917022      0.6693712      0.6130869

 **********************************************************************

            Population analysis using the SCF density.

 **********************************************************************

 Orbital symmetries:
       Occupied  (A) (A) (A) (A) (A) (A) (A) (A) (A) (A) (A) (A)
                 (A) (A) (A) (A) (A) (A) (A) (A) (A) (A) (A) (A)
                 (A) (A) (A) (A) (A) (A) (A) (A) (A) (A) (A) (A)
                 (A) (A) (A)
       Virtual   (A) (A) (A) (A) (A) (A) (A) (A) (A) (A) (A) (A)
                 (A) (A) (A) (A) (A) (A) (A) (A) (A) (A) (A) (A)
                 (A) (A) (A) (A) (A) (A) (A) (A) (A) (A) (A) (A)
                 (A) (A) (A) (A) (A) (A) (A) (A) (A) (A) (A) (A)
                 (A) (A) (A) (A) (A) (A) (A) (A) (A) (A) (A) (A)
                 (A) (A) (A) (A) (A) (A) (A) (A) (A) (A) (A) (A)
                 (A) (A) (A) (A) (A) (A) (A) (A) (A) (A) (A) (A)
                 (A) (A) (A) (A) (A) (A) (A) (A) (A) (A) (A) (A)
                 (A) (A) (A) (A) (A) (A) (A) (A) (A) (A) (A) (A)
                 (A) (A) (A) (A) (A) (A) (A) (A) (A) (A) (A) (A)
                 (A) (A) (A) (A) (A) (A) (A) (A) (A) (A) (A) (A)
                 (A) (A) (A)
 The electronic state is 1-A.
 Alpha  occ. eigenvalues --  -20.53287 -20.52396 -15.59957 -15.58205 -11.35389
 Alpha  occ. eigenvalues --  -11.34667 -11.28376 -11.26707 -11.22914 -11.21416
 Alpha  occ. eigenvalues --   -1.40396  -1.39010  -1.24576  -1.23441  -1.05492
 Alpha  occ. eigenvalues --   -0.99048  -0.96684  -0.88202  -0.80346  -0.77194
 Alpha  occ. eigenvalues --   -0.73284  -0.67611  -0.66613  -0.64225  -0.63357
 Alpha  occ. eigenvalues --   -0.62148  -0.60549  -0.58542  -0.56684  -0.56400
 Alpha  occ. eigenvalues --   -0.55514  -0.54735  -0.52380  -0.51594  -0.50126
 Alpha  occ. eigenvalues --   -0.43016  -0.41184  -0.40210  -0.39199
 Alpha virt. eigenvalues --    0.19256   0.19935   0.21122   0.23222   0.25791
 Alpha virt. eigenvalues --    0.28165   0.29138   0.30540   0.31215   0.31335
 Alpha virt. eigenvalues --    0.32178   0.33263   0.33975   0.36422   0.37305
 Alpha virt. eigenvalues --    0.40031   0.40816   0.43422   0.45563   0.50960
 Alpha virt. eigenvalues --    0.52223   0.58961   0.63278   0.71446   0.73224
 Alpha virt. eigenvalues --    0.73494   0.74023   0.75644   0.76978   0.78677
 Alpha virt. eigenvalues --    0.79244   0.83086   0.84655   0.87777   0.91211
 Alpha virt. eigenvalues --    0.91949   0.93409   0.97942   0.98485   0.99653
 Alpha virt. eigenvalues --    1.02161   1.03217   1.03726   1.05649   1.09353
 Alpha virt. eigenvalues --    1.11035   1.11558   1.13151   1.14359   1.14918
 Alpha virt. eigenvalues --    1.17156   1.18047   1.19531   1.20330   1.20484
 Alpha virt. eigenvalues --    1.21605   1.22326   1.22952   1.24235   1.27946
 Alpha virt. eigenvalues --    1.30087   1.33715   1.36962   1.39214   1.40546
 Alpha virt. eigenvalues --    1.41853   1.46597   1.49717   1.53527   1.60648
 Alpha virt. eigenvalues --    1.67863   1.68189   1.69905   1.73378   1.74365
 Alpha virt. eigenvalues --    1.77474   1.83667   1.87406   1.92185   1.95913
 Alpha virt. eigenvalues --    2.02547   2.06339   2.07075   2.09096   2.12926
 Alpha virt. eigenvalues --    2.14130   2.15466   2.19399   2.21221   2.23125
 Alpha virt. eigenvalues --    2.23749   2.27301   2.29483   2.33114   2.35048
 Alpha virt. eigenvalues --    2.36920   2.39660   2.40938   2.46289   2.50064
 Alpha virt. eigenvalues --    2.52464   2.56596   2.59083   2.60490   2.64541
 Alpha virt. eigenvalues --    2.66088   2.69311   2.70375   2.75019   2.77633
 Alpha virt. eigenvalues --    2.82440   2.84100   2.86049   2.92330   2.96584
 Alpha virt. eigenvalues --    3.02896   3.04311   3.08618   3.12788   3.26791
 Alpha virt. eigenvalues --    3.29673   3.37727   3.38639   3.53412   3.56222
 Alpha virt. eigenvalues --    4.37078   4.39051   4.49053   4.60850   4.64359
 Alpha virt. eigenvalues --    4.68607   4.76963   4.81569   4.90220   5.09799
          Condensed to atoms (all electrons):
              1          2          3          4          5          6
     1  H    0.464434   0.383418  -0.020020  -0.017449  -0.032586   0.003829
     2  C    0.383418   5.282154   0.376984   0.373816   0.373480  -0.072090
     3  H   -0.020020   0.376984   0.511433  -0.024757  -0.035009   0.001665
     4  H   -0.017449   0.373816  -0.024757   0.496217  -0.027511   0.000659
     5  C   -0.032586   0.373480  -0.035009  -0.027511   4.142224   0.616394
     6  O    0.003829  -0.072090   0.001665   0.000659   0.616394   8.139294
     7  N    0.004508  -0.124770   0.004512   0.000952   0.265024  -0.102132
     8  H    0.000095  -0.001562  -0.000004   0.000278  -0.021719   0.002594
     9  C   -0.000116   0.004758   0.000100  -0.000171  -0.025974   0.010117
    10  H    0.000005  -0.000141  -0.000005   0.000000  -0.002151   0.000332
    11  C    0.000004  -0.000398   0.000007   0.000022  -0.003948  -0.009758
    12  H    0.000003  -0.000148  -0.000001   0.000026  -0.000212  -0.000493
    13  H    0.000000   0.000008   0.000000  -0.000001   0.000360   0.000285
    14  H    0.000000   0.000203  -0.000004  -0.000010  -0.000458   0.006558
    15  C    0.000000  -0.000030  -0.000029   0.000004   0.003522   0.000292
    16  O    0.000000  -0.000086   0.000001   0.000014  -0.000028   0.000001
    17  N    0.000000   0.000001   0.000000   0.000000  -0.000116   0.000000
    18  H    0.000000   0.000000   0.000000   0.000000   0.000002   0.000001
    19  C    0.000000   0.000000   0.000000   0.000000   0.000001   0.000000
    20  H    0.000000   0.000000   0.000000   0.000000   0.000000   0.000000
    21  H    0.000000   0.000000   0.000000   0.000000   0.000000   0.000000
    22  H    0.000000   0.000000   0.000000   0.000000   0.000000   0.000000
              7          8          9         10         11         12
     1  H    0.004508   0.000095  -0.000116   0.000005   0.000004   0.000003
     2  C   -0.124770  -0.001562   0.004758  -0.000141  -0.000398  -0.000148
     3  H    0.004512  -0.000004   0.000100  -0.000005   0.000007  -0.000001
     4  H    0.000952   0.000278  -0.000171   0.000000   0.000022   0.000026
     5  C    0.265024  -0.021719  -0.025974  -0.002151  -0.003948  -0.000212
     6  O   -0.102132   0.002594   0.010117   0.000332  -0.009758  -0.000493
     7  N    7.382267   0.321488   0.190288  -0.043574  -0.050380   0.001123
     8  H    0.321488   0.326544  -0.039549   0.002991   0.002934   0.000368
     9  C    0.190288  -0.039549   5.006729   0.413949   0.341598  -0.038818
    10  H   -0.043574   0.002991   0.413949   0.533533  -0.041339   0.004167
    11  C   -0.050380   0.002934   0.341598  -0.041339   5.168352   0.389914
    12  H    0.001123   0.000368  -0.038818   0.004167   0.389914   0.498388
    13  H    0.003962  -0.000063  -0.037752   0.000518   0.377357  -0.023547
    14  H   -0.003133  -0.000203  -0.029165  -0.003824   0.392431  -0.021194
    15  C   -0.035139  -0.003596   0.359412  -0.060658  -0.048911  -0.005740
    16  O   -0.005410   0.012551  -0.082707   0.002608   0.001698   0.004849
    17  N    0.001284   0.001237  -0.096657   0.007590  -0.001590   0.000523
    18  H    0.000086  -0.000021   0.000211   0.002764  -0.000184  -0.000010
    19  C   -0.000102  -0.000052   0.004936   0.000033  -0.000229  -0.000005
    20  H    0.000019   0.000022  -0.000057  -0.000010  -0.000016  -0.000001
    21  H    0.000002   0.000000   0.000001  -0.000026   0.000000   0.000000
    22  H   -0.000005  -0.000004  -0.000165  -0.000001   0.000072   0.000000
             13         14         15         16         17         18
     1  H    0.000000   0.000000   0.000000   0.000000   0.000000   0.000000
     2  C    0.000008   0.000203  -0.000030  -0.000086   0.000001   0.000000
     3  H    0.000000  -0.000004  -0.000029   0.000001   0.000000   0.000000
     4  H   -0.000001  -0.000010   0.000004   0.000014   0.000000   0.000000
     5  C    0.000360  -0.000458   0.003522  -0.000028  -0.000116   0.000002
     6  O    0.000285   0.006558   0.000292   0.000001   0.000000   0.000001
     7  N    0.003962  -0.003133  -0.035139  -0.005410   0.001284   0.000086
     8  H   -0.000063  -0.000203  -0.003596   0.012551   0.001237  -0.000021
     9  C   -0.037752  -0.029165   0.359412  -0.082707  -0.096657   0.000211
    10  H    0.000518  -0.003824  -0.060658   0.002608   0.007590   0.002764
    11  C    0.377357   0.392431  -0.048911   0.001698  -0.001590  -0.000184
    12  H   -0.023547  -0.021194  -0.005740   0.004849   0.000523  -0.000010
    13  H    0.547706  -0.022866  -0.004960   0.000003   0.001423   0.000077
    14  H   -0.022866   0.445225   0.004524   0.000025  -0.000075  -0.000009
    15  C   -0.004960   0.004524   4.256489   0.581516   0.274561  -0.018449
    16  O    0.000003   0.000025   0.581516   8.194813  -0.105494   0.002529
    17  N    0.001423  -0.000075   0.274561  -0.105494   7.308867   0.325948
    18  H    0.000077  -0.000009  -0.018449   0.002529   0.325948   0.317934
    19  C   -0.000069   0.000003  -0.032358   0.008843   0.195257  -0.022199
    20  H    0.000003   0.000000  -0.003496   0.003240  -0.041021   0.002415
    21  H    0.000000   0.000000   0.004546   0.000371  -0.036534  -0.004649
    22  H   -0.000017   0.000000  -0.002642   0.001266  -0.045615   0.001497
             19         20         21         22
     1  H    0.000000   0.000000   0.000000   0.000000
     2  C    0.000000   0.000000   0.000000   0.000000
     3  H    0.000000   0.000000   0.000000   0.000000
     4  H    0.000000   0.000000   0.000000   0.000000
     5  C    0.000001   0.000000   0.000000   0.000000
     6  O    0.000000   0.000000   0.000000   0.000000
     7  N   -0.000102   0.000019   0.000002  -0.000005
     8  H   -0.000052   0.000022   0.000000  -0.000004
     9  C    0.004936  -0.000057   0.000001  -0.000165
    10  H    0.000033  -0.000010  -0.000026  -0.000001
    11  C   -0.000229  -0.000016   0.000000   0.000072
    12  H   -0.000005  -0.000001   0.000000   0.000000
    13  H   -0.000069   0.000003   0.000000  -0.000017
    14  H    0.000003   0.000000   0.000000   0.000000
    15  C   -0.032358  -0.003496   0.004546  -0.002642
    16  O    0.008843   0.003240   0.000371   0.001266
    17  N    0.195257  -0.041021  -0.036534  -0.045615
    18  H   -0.022199   0.002415  -0.004649   0.001497
    19  C    4.913266   0.403988   0.396545   0.406172
    20  H    0.403988   0.493160  -0.025565  -0.033152
    21  H    0.396545  -0.025565   0.523491  -0.029927
    22  H    0.406172  -0.033152  -0.029927   0.515978
 Mulliken atomic charges:
              1
     1  H    0.213874
     2  C   -0.595596
     3  H    0.185128
     4  H    0.197913
     5  C    0.748704
     6  O   -0.597547
     7  N   -0.810870
     8  H    0.395668
     9  C    0.019032
    10  H    0.183238
    11  C   -0.517635
    12  H    0.190807
    13  H    0.157575
    14  H    0.231972
    15  C    0.731141
    16  O   -0.620603
    17  N   -0.789589
    18  H    0.392057
    19  C   -0.274030
    20  H    0.200471
    21  H    0.171745
    22  H    0.186543
 Sum of Mulliken atomic charges =   0.00000
 Mulliken charges with hydrogens summed into heavy atoms:
              1
     2  C    0.001320
     5  C    0.748704
     6  O   -0.597547
     7  N   -0.415201
     9  C    0.202270
    11  C    0.062720
    15  C    0.731141
    16  O   -0.620603
    17  N   -0.397531
    19  C    0.284729
 Sum of Mulliken charges with hydrogens summed into heavy atoms =   0.00000
 Electronic spatial extent (au):  <R**2>=           1928.6721
 Charge=              0.0000 electrons
 Dipole moment (field-independent basis, Debye):
    X=              3.2019    Y=             -1.0776    Z=             -2.0691  Tot=              3.9617
 Quadrupole moment (field-independent basis, Debye-Ang):
   XX=            -58.3502   YY=            -59.3460   ZZ=            -62.6217
   XY=             10.0252   XZ=             -8.8351   YZ=              1.1652
 Traceless Quadrupole moment (field-independent basis, Debye-Ang):
   XX=              1.7558   YY=              0.7600   ZZ=             -2.5157
   XY=             10.0252   XZ=             -8.8351   YZ=              1.1652
 Octapole moment (field-independent basis, Debye-Ang**2):
  XXX=             53.8894  YYY=             -4.5939  ZZZ=             -6.9339  XYY=              2.1121
  XXY=            -24.9635  XXZ=             -5.4360  XZZ=              0.7170  YZZ=              5.3663
  YYZ=             -0.7056  XYZ=             -1.5272
 Hexadecapole moment (field-independent basis, Debye-Ang**3):
 XXXX=          -1794.0081 YYYY=           -402.3447 ZZZZ=           -190.5816 XXXY=             50.9028
 XXXZ=            -41.1513 YYYX=             -4.6568 YYYZ=             -2.6971 ZZZX=            -17.7161
 ZZZY=             -7.1806 XXYY=           -389.5183 XXZZ=           -338.3111 YYZZ=           -102.2827
 XXYZ=              4.8823 YYXZ=             -2.6351 ZZXY=              8.9360
 N-N= 5.550291205919D+02 E-N=-2.265378676215D+03  KE= 4.921240319338D+02
 1\1\GINC-RODAN\FOpt\RHF\6-31G(d)\C6H12N2O2\STEBOSS\10-Feb-2017\0\\# HF
 /6-31G* Opt=(ModRedundant) geom=nocrowd\\Phi Psi fixed scan\\0,1\H,1.7
 535343901,1.3324582252,-0.7821551496\C,1.9037489392,2.3890049674,-0.61
 67318129\H,1.3157489829,2.7132883576,0.234815176\H,1.5608528558,2.9352
 274881,-1.4905184583\C,3.3809731375,2.6479803299,-0.404298154\O,4.2151
 749382,1.8293036525,-0.6661924183\N,3.6634588571,3.8680274598,0.143676
 5584\H,2.8984310776,4.5061853257,0.1067847637\C,4.9600448328,4.5343415
 069,0.0403084313\H,5.5633866285,4.2530861423,0.8966910728\C,5.75348654
 79,4.2483504667,-1.2412261377\H,5.1624369496,4.5067832152,-2.110922847
 9\H,6.650449652,4.8615222094,-1.2460053363\H,6.0390976002,3.2109991119
 ,-1.2999140155\C,4.6680326863,6.0359214044,0.0686299514\O,3.9386839185
 ,6.5396866403,-0.744696663\N,5.2291389823,6.7313852988,1.0729590988\H,
 5.8427918205,6.2658620792,1.6993289737\C,5.0778741802,8.1680229157,1.1
 79580902\H,4.0309478372,8.4354052487,1.1502045834\H,5.4987538849,8.490
 4283615,2.1221760158\H,5.5852513008,8.6817295928,0.3716054662\\Version
 =EM64L-G09RevA.02\State=1-A\HF=-492.848939\RMSD=4.471e-09\RMSF=2.234e-
 03\Dipole=0.1685822,1.0060485,1.1784686\Quadrupole=5.7088499,-6.670344
 5,0.9614946,6.5450537,2.3448762,3.8564559\PG=C01 [X(C6H12N2O2)]\\@


 DEPRESSION IS WAITING FOR YOUR SHIP TO COME IN,
 AND FINDING OUT IT'S THE TITANIC.
 Job cpu time:  0 days  0 hours 43 minutes 23.6 seconds.
 File lengths (MBytes):  RWF=     25 Int=      0 D2E=      0 Chk=      3 Scr=      1
 Normal termination of Gaussian 09 at Fri Feb 10 02:50:38 2017.
