 Entering Gaussian System, Link 0=g09
 Initial command:
 /home/steboss/Software/g09/l1.exe /tmp/Gau-3490.inp -scrdir=/tmp/
 Entering Link 1 = /home/steboss/Software/g09/l1.exe PID=      3492.
  
 Copyright (c) 1988,1990,1992,1993,1995,1998,2003,2009, Gaussian, Inc.
                  All Rights Reserved.
  
 This is part of the Gaussian(R) 09 program.  It is based on
 the Gaussian(R) 03 system (copyright 2003, Gaussian, Inc.),
 the Gaussian(R) 98 system (copyright 1998, Gaussian, Inc.),
 the Gaussian(R) 94 system (copyright 1995, Gaussian, Inc.),
 the Gaussian 92(TM) system (copyright 1992, Gaussian, Inc.),
 the Gaussian 90(TM) system (copyright 1990, Gaussian, Inc.),
 the Gaussian 88(TM) system (copyright 1988, Gaussian, Inc.),
 the Gaussian 86(TM) system (copyright 1986, Carnegie Mellon
 University), and the Gaussian 82(TM) system (copyright 1983,
 Carnegie Mellon University). Gaussian is a federally registered
 trademark of Gaussian, Inc.
  
 This software contains proprietary and confidential information,
 including trade secrets, belonging to Gaussian, Inc.
  
 This software is provided under written license and may be
 used, copied, transmitted, or stored only in accord with that
 written license.
  
 The following legend is applicable only to US Government
 contracts under FAR:
  
                    RESTRICTED RIGHTS LEGEND
  
 Use, reproduction and disclosure by the US Government is
 subject to restrictions as set forth in subparagraphs (a)
 and (c) of the Commercial Computer Software - Restricted
 Rights clause in FAR 52.227-19.
  
 Gaussian, Inc.
 340 Quinnipiac St., Bldg. 40, Wallingford CT 06492
  
  
 ---------------------------------------------------------------
 Warning -- This program may not be used in any manner that
 competes with the business of Gaussian, Inc. or will provide
 assistance to any competitor of Gaussian, Inc.  The licensee
 of this program is prohibited from giving any competitor of
 Gaussian, Inc. access to this program.  By using this program,
 the user acknowledges that Gaussian, Inc. is engaged in the
 business of creating and licensing software in the field of
 computational chemistry and represents and warrants to the
 licensee that it is not a competitor of Gaussian, Inc. and that
 it will not use this program in any manner prohibited above.
 ---------------------------------------------------------------
  

 Cite this work as:
 Gaussian 09, Revision A.02,
 M. J. Frisch, G. W. Trucks, H. B. Schlegel, G. E. Scuseria, 
 M. A. Robb, J. R. Cheeseman, G. Scalmani, V. Barone, B. Mennucci, 
 G. A. Petersson, H. Nakatsuji, M. Caricato, X. Li, H. P. Hratchian, 
 A. F. Izmaylov, J. Bloino, G. Zheng, J. L. Sonnenberg, M. Hada, 
 M. Ehara, K. Toyota, R. Fukuda, J. Hasegawa, M. Ishida, T. Nakajima, 
 Y. Honda, O. Kitao, H. Nakai, T. Vreven, J. A. Montgomery, Jr., 
 J. E. Peralta, F. Ogliaro, M. Bearpark, J. J. Heyd, E. Brothers, 
 K. N. Kudin, V. N. Staroverov, R. Kobayashi, J. Normand, 
 K. Raghavachari, A. Rendell, J. C. Burant, S. S. Iyengar, J. Tomasi, 
 M. Cossi, N. Rega, J. M. Millam, M. Klene, J. E. Knox, J. B. Cross, 
 V. Bakken, C. Adamo, J. Jaramillo, R. Gomperts, R. E. Stratmann, 
 O. Yazyev, A. J. Austin, R. Cammi, C. Pomelli, J. W. Ochterski, 
 R. L. Martin, K. Morokuma, V. G. Zakrzewski, G. A. Voth, 
 P. Salvador, J. J. Dannenberg, S. Dapprich, A. D. Daniels, 
 O. Farkas, J. B. Foresman, J. V. Ortiz, J. Cioslowski, 
 and D. J. Fox, Gaussian, Inc., Wallingford CT, 2009.
 
 ******************************************
 Gaussian 09:  EM64L-G09RevA.02 11-Jun-2009
                10-Feb-2017 
 ******************************************
 %chk=structure_255.chk
 %NProcShared=8
 Will use up to    8 processors via shared memory.
 -------------------------------------------
 # HF/6-31G* Opt=(ModRedundant) geom=nocrowd
 -------------------------------------------
 1/18=120,19=15,38=1/1,3;
 2/9=110,12=1,17=6,18=5,40=1/2;
 3/5=1,6=6,7=1,11=9,16=1,25=1,30=1,71=1/1,2,3;
 4//1;
 5/5=2,38=5/2;
 6/7=2,8=2,9=2,10=2,28=1/1;
 7//1,2,3,16;
 1/18=20,19=15/3(2);
 2/9=110,12=1/2;
 99//99;
 2/9=110,12=1/2;
 3/5=1,6=6,7=1,11=9,16=1,25=1,30=1,71=1/1,2,3;
 4/5=5,16=3/1;
 5/5=2,38=5/2;
 7//1,2,3,16;
 1/18=20,19=15/3(-5);
 2/9=110,12=1/2;
 6/7=2,8=2,9=2,10=2,19=2,28=1/1;
 99/9=1/99;
 ------------------
 Phi Psi fixed scan
 ------------------
 Symbolic Z-matrix:
 Charge =  0 Multiplicity = 1
 H                     1.8827    1.2362   -0.9842 
 C                     1.9409    2.209    -0.496 
 H                     1.658     2.1079    0.5517 
 H                     1.2624    2.9049   -0.9895 
 C                     3.3599    2.7768   -0.5667 
 O                     4.2568    2.1469   -1.1227 
 N                     3.5554    3.9697    0. 
 H                     2.7862    4.4492    0.4455 
 C                     4.8533    4.6139    0. 
 H                     5.4076    4.3155    0.8898 
 C                     5.6613    4.2208   -1.2322 
 H                     5.1233    4.5214   -2.1312 
 H                     6.6305    4.7189   -1.2058 
 H                     5.8085    3.1409   -1.2414 
 C                     4.7127    6.1294    0. 
 O                     4.3822    6.7252    1.0229 
 N                     4.9651    6.7532   -1.153 
 H                     5.2337    6.2197   -1.9675 
 C                     4.8663    8.193    -1.2823 
 H                     4.5691    8.6246   -0.3265 
 H                     5.8335    8.5989   -1.5786 
 H                     4.1219    8.4401   -2.0392 
 
 The following ModRedundant input section has been read:
 D    5    7    9   15 F                                                       
 D    7    9   15   17 F                                                       

 GradGradGradGradGradGradGradGradGradGradGradGradGradGradGradGradGradGrad
 Berny optimization.
 Initialization pass.
                           ----------------------------
                           !    Initial Parameters    !
                           ! (Angstroms and Degrees)  !
 --------------------------                            --------------------------
 ! Name  Definition              Value          Derivative Info.                !
 --------------------------------------------------------------------------------
 ! R1    R(1,2)                  1.09           estimate D2E/DX2                !
 ! R2    R(2,3)                  1.0899         estimate D2E/DX2                !
 ! R3    R(2,4)                  1.09           estimate D2E/DX2                !
 ! R4    R(2,5)                  1.53           estimate D2E/DX2                !
 ! R5    R(5,6)                  1.229          estimate D2E/DX2                !
 ! R6    R(5,7)                  1.3351         estimate D2E/DX2                !
 ! R7    R(7,8)                  1.01           estimate D2E/DX2                !
 ! R8    R(7,9)                  1.449          estimate D2E/DX2                !
 ! R9    R(9,10)                 1.09           estimate D2E/DX2                !
 ! R10   R(9,11)                 1.525          estimate D2E/DX2                !
 ! R11   R(9,15)                 1.522          estimate D2E/DX2                !
 ! R12   R(11,12)                1.09           estimate D2E/DX2                !
 ! R13   R(11,13)                1.09           estimate D2E/DX2                !
 ! R14   R(11,14)                1.0899         estimate D2E/DX2                !
 ! R15   R(15,16)                1.229          estimate D2E/DX2                !
 ! R16   R(15,17)                1.335          estimate D2E/DX2                !
 ! R17   R(17,18)                1.01           estimate D2E/DX2                !
 ! R18   R(17,19)                1.449          estimate D2E/DX2                !
 ! R19   R(19,20)                1.09           estimate D2E/DX2                !
 ! R20   R(19,21)                1.09           estimate D2E/DX2                !
 ! R21   R(19,22)                1.09           estimate D2E/DX2                !
 ! A1    A(1,2,3)              109.5057         estimate D2E/DX2                !
 ! A2    A(1,2,4)              109.4976         estimate D2E/DX2                !
 ! A3    A(1,2,5)              111.1022         estimate D2E/DX2                !
 ! A4    A(3,2,4)              109.442          estimate D2E/DX2                !
 ! A5    A(3,2,5)              108.6368         estimate D2E/DX2                !
 ! A6    A(4,2,5)              108.6296         estimate D2E/DX2                !
 ! A7    A(2,5,6)              120.5005         estimate D2E/DX2                !
 ! A8    A(2,5,7)              116.6018         estimate D2E/DX2                !
 ! A9    A(6,5,7)              122.8977         estimate D2E/DX2                !
 ! A10   A(5,7,8)              119.9947         estimate D2E/DX2                !
 ! A11   A(5,7,9)              121.8985         estimate D2E/DX2                !
 ! A12   A(8,7,9)              118.1068         estimate D2E/DX2                !
 ! A13   A(7,9,10)             109.5            estimate D2E/DX2                !
 ! A14   A(7,9,11)             111.0992         estimate D2E/DX2                !
 ! A15   A(7,9,15)             111.0966         estimate D2E/DX2                !
 ! A16   A(10,9,11)            108.6382         estimate D2E/DX2                !
 ! A17   A(10,9,15)            108.6373         estimate D2E/DX2                !
 ! A18   A(11,9,15)            107.7947         estimate D2E/DX2                !
 ! A19   A(9,11,12)            109.5007         estimate D2E/DX2                !
 ! A20   A(9,11,13)            109.4959         estimate D2E/DX2                !
 ! A21   A(9,11,14)            109.4978         estimate D2E/DX2                !
 ! A22   A(12,11,13)           109.441          estimate D2E/DX2                !
 ! A23   A(12,11,14)           109.4482         estimate D2E/DX2                !
 ! A24   A(13,11,14)           109.4436         estimate D2E/DX2                !
 ! A25   A(9,15,16)            120.5            estimate D2E/DX2                !
 ! A26   A(9,15,17)            116.6027         estimate D2E/DX2                !
 ! A27   A(16,15,17)           122.8974         estimate D2E/DX2                !
 ! A28   A(15,17,18)           119.9957         estimate D2E/DX2                !
 ! A29   A(15,17,19)           121.9032         estimate D2E/DX2                !
 ! A30   A(18,17,19)           118.1011         estimate D2E/DX2                !
 ! A31   A(17,19,20)           109.4991         estimate D2E/DX2                !
 ! A32   A(17,19,21)           109.4992         estimate D2E/DX2                !
 ! A33   A(17,19,22)           109.4994         estimate D2E/DX2                !
 ! A34   A(20,19,21)           109.4425         estimate D2E/DX2                !
 ! A35   A(20,19,22)           109.4467         estimate D2E/DX2                !
 ! A36   A(21,19,22)           109.4404         estimate D2E/DX2                !
 ! D1    D(1,2,5,6)             -0.0047         estimate D2E/DX2                !
 ! D2    D(1,2,5,7)            179.9966         estimate D2E/DX2                !
 ! D3    D(3,2,5,6)            120.5165         estimate D2E/DX2                !
 ! D4    D(3,2,5,7)            -59.4823         estimate D2E/DX2                !
 ! D5    D(4,2,5,6)           -120.5112         estimate D2E/DX2                !
 ! D6    D(4,2,5,7)             59.4901         estimate D2E/DX2                !
 ! D7    D(2,5,7,8)              0.0022         estimate D2E/DX2                !
 ! D8    D(2,5,7,9)            179.9961         estimate D2E/DX2                !
 ! D9    D(6,5,7,8)           -179.9965         estimate D2E/DX2                !
 ! D10   D(6,5,7,9)             -0.0027         estimate D2E/DX2                !
 ! D11   D(5,7,9,10)           -89.9989         estimate D2E/DX2                !
 ! D12   D(5,7,9,11)            30.0037         estimate D2E/DX2                !
 ! D13   D(5,7,9,15)           150.0013         Frozen                          !
 ! D14   D(8,7,9,10)            89.9951         estimate D2E/DX2                !
 ! D15   D(8,7,9,11)          -150.0023         estimate D2E/DX2                !
 ! D16   D(8,7,9,15)           -30.0047         estimate D2E/DX2                !
 ! D17   D(7,9,11,12)           60.0024         estimate D2E/DX2                !
 ! D18   D(7,9,11,13)          179.9986         estimate D2E/DX2                !
 ! D19   D(7,9,11,14)          -60.0038         estimate D2E/DX2                !
 ! D20   D(10,9,11,12)        -179.4843         estimate D2E/DX2                !
 ! D21   D(10,9,11,13)         -59.4881         estimate D2E/DX2                !
 ! D22   D(10,9,11,14)          60.5095         estimate D2E/DX2                !
 ! D23   D(15,9,11,12)         -61.938          estimate D2E/DX2                !
 ! D24   D(15,9,11,13)          58.0582         estimate D2E/DX2                !
 ! D25   D(15,9,11,14)         178.0558         estimate D2E/DX2                !
 ! D26   D(7,9,15,16)           75.0019         estimate D2E/DX2                !
 ! D27   D(7,9,15,17)         -105.0            Frozen                          !
 ! D28   D(10,9,15,16)         -45.5091         estimate D2E/DX2                !
 ! D29   D(10,9,15,17)         134.4889         estimate D2E/DX2                !
 ! D30   D(11,9,15,16)        -163.056          estimate D2E/DX2                !
 ! D31   D(11,9,15,17)          16.942          estimate D2E/DX2                !
 ! D32   D(9,15,17,18)           0.0049         estimate D2E/DX2                !
 ! D33   D(9,15,17,19)         179.9992         estimate D2E/DX2                !
 ! D34   D(16,15,17,18)       -179.9971         estimate D2E/DX2                !
 ! D35   D(16,15,17,19)         -0.0028         estimate D2E/DX2                !
 ! D36   D(15,17,19,20)          0.0032         estimate D2E/DX2                !
 ! D37   D(15,17,19,21)        120.0022         estimate D2E/DX2                !
 ! D38   D(15,17,19,22)       -120.0011         estimate D2E/DX2                !
 ! D39   D(18,17,19,20)        179.9976         estimate D2E/DX2                !
 ! D40   D(18,17,19,21)        -60.0033         estimate D2E/DX2                !
 ! D41   D(18,17,19,22)         59.9933         estimate D2E/DX2                !
 --------------------------------------------------------------------------------
 Trust Radius=3.00D-01 FncErr=1.00D-07 GrdErr=1.00D-07
 Number of steps in this run= 108 maximum allowed number of steps= 132.
 GradGradGradGradGradGradGradGradGradGradGradGradGradGradGradGradGradGrad

                          Input orientation:                          
 ---------------------------------------------------------------------
 Center     Atomic      Atomic             Coordinates (Angstroms)
 Number     Number       Type             X           Y           Z
 ---------------------------------------------------------------------
      1          1           0        1.882700    1.236200   -0.984200
      2          6           0        1.940900    2.209000   -0.496000
      3          1           0        1.658000    2.107900    0.551700
      4          1           0        1.262400    2.904900   -0.989500
      5          6           0        3.359900    2.776800   -0.566700
      6          8           0        4.256800    2.146900   -1.122700
      7          7           0        3.555400    3.969700    0.000000
      8          1           0        2.786200    4.449200    0.445500
      9          6           0        4.853300    4.613900    0.000000
     10          1           0        5.407600    4.315500    0.889800
     11          6           0        5.661300    4.220800   -1.232200
     12          1           0        5.123300    4.521400   -2.131200
     13          1           0        6.630500    4.718900   -1.205800
     14          1           0        5.808500    3.140900   -1.241400
     15          6           0        4.712700    6.129400    0.000000
     16          8           0        4.382200    6.725200    1.022900
     17          7           0        4.965100    6.753200   -1.153000
     18          1           0        5.233700    6.219700   -1.967500
     19          6           0        4.866300    8.193000   -1.282300
     20          1           0        4.569100    8.624600   -0.326500
     21          1           0        5.833500    8.598900   -1.578600
     22          1           0        4.121900    8.440100   -2.039200
 ---------------------------------------------------------------------
                    Distance matrix (angstroms):
                    1          2          3          4          5
     1  H    0.000000
     2  C    1.089985   0.000000
     3  H    1.780264   1.089922   0.000000
     4  H    1.780270   1.090037   1.779608   0.000000
     5  C    2.174827   1.530018   2.143527   2.143519   0.000000
     6  O    2.546548   2.400000   3.091747   3.091721   1.228959
     7  N    3.352402   2.439814   2.714922   2.714914   1.335058
     8  H    3.630940   2.572829   2.601115   2.601164   2.037303
     9  C    4.604560   3.809414   4.098091   4.098092   2.434405
    10  H    5.041714   4.286700   4.364322   4.764897   2.946534
    11  C    4.821531   4.293100   4.865497   4.597914   2.797225
    12  H    4.754959   4.260134   5.003123   4.338560   2.932724
    13  H    5.892360   5.366168   5.884886   5.670439   3.857075
    14  H    4.371034   4.047516   4.637774   4.559186   2.565820
    15  C    5.737679   4.826844   5.080160   4.825047   3.659391
    16  O    6.356498   5.353790   5.381706   5.327063   4.377418
    17  N    6.321944   5.497926   5.951615   5.342858   4.328068
    18  H    6.085339   5.393845   6.003241   5.264561   4.162563
    19  C    7.575474   6.707048   7.119353   6.406077   5.667146
    20  H    7.889092   6.935134   7.191183   6.639940   5.976339
    21  H    8.376842   7.560104   8.006626   7.325546   6.406207
    22  H    7.617297   6.779737   7.271886   6.317994   5.901006
                    6          7          8          9         10
     6  O    0.000000
     7  N    2.252780   0.000000
     8  H    3.150000   1.009980   0.000000
     9  C    2.775312   1.448978   2.120966   0.000000
    10  H    3.174480   2.083739   2.662145   1.089970   0.000000
    11  C    2.507124   2.452791   3.336622   1.525027   2.139209
    12  H    2.721423   2.702720   3.479459   2.150225   3.041326
    13  H    3.500934   3.386959   4.192633   2.150214   2.459625
    14  H    1.846591   2.702673   3.700213   2.150165   2.466256
    15  C    4.162764   2.450234   2.594792   1.522008   2.136554
    16  O    5.057683   3.053310   2.839152   2.392874   2.622178
    17  N    4.660537   3.326340   3.551228   2.432799   3.211109
    18  H    4.272671   3.427863   3.866199   2.567947   3.438078
    19  C    6.078839   4.604239   4.618241   3.801897   4.477279
    20  H    6.533916   4.775174   4.605288   4.033991   4.555306
    21  H    6.657487   5.395481   5.532000   4.396930   4.962046
    22  H    6.361017   4.946083   4.887240   4.396941   5.219616
                   11         12         13         14         15
    11  C    0.000000
    12  H    1.089957   0.000000
    13  H    1.090023   1.779613   0.000000
    14  H    1.089925   1.779613   1.779617   0.000000
    15  C    2.461892   2.701161   2.668599   3.416575   0.000000
    16  O    3.604663   3.918458   3.747959   4.473097   1.229037
    17  N    2.627550   2.441891   2.629586   3.710505   1.335006
    18  H    2.172351   1.709739   2.187153   3.215062   2.037315
    19  C    4.051285   3.777212   3.897130   5.139370   2.434406
    20  H    4.626732   4.516672   4.503002   5.695974   2.520565
    21  H    4.395157   4.175615   3.978516   5.468463   3.137929
    22  H    4.563277   4.045674   4.564533   5.618062   3.137948
                   16         17         18         19         20
    16  O    0.000000
    17  N    2.252798   0.000000
    18  H    3.150091   1.010039   0.000000
    19  C    2.775380   1.448967   2.120942   0.000000
    20  H    2.337420   2.083760   2.986322   1.090028   0.000000
    21  H    3.519208   2.083714   2.484270   1.089965   1.779641
    22  H    3.519246   2.083739   2.484234   1.089994   1.779710
                   21         22
    21  H    0.000000
    22  H    1.779591   0.000000
 Stoichiometry    C6H12N2O2
 Framework group  C1[X(C6H12N2O2)]
 Deg. of freedom    60
 Full point group                 C1      NOp   1
 Largest Abelian subgroup         C1      NOp   1
 Largest concise Abelian subgroup C1      NOp   1
                         Standard orientation:                         
 ---------------------------------------------------------------------
 Center     Atomic      Atomic             Coordinates (Angstroms)
 Number     Number       Type             X           Y           Z
 ---------------------------------------------------------------------
      1          1           0       -4.154263   -0.549958    0.965048
      2          6           0       -3.221754   -1.060118    0.723740
      3          1           0       -3.416734   -1.852092    0.000768
      4          1           0       -2.798509   -1.492636    1.630368
      5          6           0       -2.202496   -0.089889    0.123137
      6          8           0       -2.485806    1.096003   -0.030928
      7          7           0       -1.016433   -0.601784   -0.213906
      8          1           0       -0.830416   -1.583701   -0.067975
      9          6           0        0.032964    0.213276   -0.791817
     10          1           0       -0.060476    0.210414   -1.877771
     11          6           0       -0.056200    1.653640   -0.298754
     12          1           0        0.044911    1.673693    0.786318
     13          1           0        0.743369    2.242284   -0.748572
     14          1           0       -1.020524    2.075809   -0.581226
     15          6           0        1.408880   -0.321102   -0.420600
     16          8           0        1.852524   -1.331438   -0.961833
     17          7           0        2.084893    0.361007    0.506748
     18          1           0        1.677976    1.186300    0.923267
     19          6           0        3.404374   -0.045534    0.946293
     20          1           0        3.705327   -0.945467    0.409909
     21          1           0        4.117606    0.753327    0.743447
     22          1           0        3.384162   -0.250688    2.016615
 ---------------------------------------------------------------------
 Rotational constants (GHZ):      2.6989811      0.7011040      0.6428805
 Standard basis: 6-31G(d) (6D, 7F)
 There are   174 symmetry adapted basis functions of A   symmetry.
 Integral buffers will be    131072 words long.
 Raffenetti 1 integral format.
 Two-electron integral symmetry is turned on.
   174 basis functions,   328 primitive gaussians,   174 cartesian basis functions
    39 alpha electrons       39 beta electrons
       nuclear repulsion energy       559.7527137932 Hartrees.
 NAtoms=   22 NActive=   22 NUniq=   22 SFac= 7.50D-01 NAtFMM=   80 NAOKFM=F Big=F
 One-electron integrals computed using PRISM.
 NBasis=   174 RedAO= T  NBF=   174
 NBsUse=   174 1.00D-06 NBFU=   174
 Harris functional with IExCor=  205 diagonalized for initial guess.
 ExpMin= 1.61D-01 ExpMax= 5.48D+03 ExpMxC= 8.25D+02 IAcc=1 IRadAn=         1 AccDes= 0.00D+00
 HarFok:  IExCor=  205 AccDes= 0.00D+00 IRadAn=         1 IDoV= 1
 ScaDFX=  1.000000  1.000000  1.000000  1.000000
 FoFCou: FMM=F IPFlag=           0 FMFlag=      100000 FMFlg1=           0
         NFxFlg=           0 DoJE=T BraDBF=F KetDBF=T FulRan=T
         Omega=  0.000000  0.000000  1.000000  0.000000  0.000000 ICntrl=     500 IOpCl=  0
         NMat0=    1 NMatS0=    1 NMatT0=    0 NMatD0=    1 NMtDS0=    0 NMtDT0=    0
         I1Cent=           4 NGrid=           0.
 Petite list used in FoFCou.
 Initial guess orbital symmetries:
       Occupied  (A) (A) (A) (A) (A) (A) (A) (A) (A) (A) (A) (A)
                 (A) (A) (A) (A) (A) (A) (A) (A) (A) (A) (A) (A)
                 (A) (A) (A) (A) (A) (A) (A) (A) (A) (A) (A) (A)
                 (A) (A) (A)
       Virtual   (A) (A) (A) (A) (A) (A) (A) (A) (A) (A) (A) (A)
                 (A) (A) (A) (A) (A) (A) (A) (A) (A) (A) (A) (A)
                 (A) (A) (A) (A) (A) (A) (A) (A) (A) (A) (A) (A)
                 (A) (A) (A) (A) (A) (A) (A) (A) (A) (A) (A) (A)
                 (A) (A) (A) (A) (A) (A) (A) (A) (A) (A) (A) (A)
                 (A) (A) (A) (A) (A) (A) (A) (A) (A) (A) (A) (A)
                 (A) (A) (A) (A) (A) (A) (A) (A) (A) (A) (A) (A)
                 (A) (A) (A) (A) (A) (A) (A) (A) (A) (A) (A) (A)
                 (A) (A) (A) (A) (A) (A) (A) (A) (A) (A) (A) (A)
                 (A) (A) (A) (A) (A) (A) (A) (A) (A) (A) (A) (A)
                 (A) (A) (A) (A) (A) (A) (A) (A) (A) (A) (A) (A)
                 (A) (A) (A)
 The electronic state of the initial guess is 1-A.
 Requested convergence on RMS density matrix=1.00D-08 within 128 cycles.
 Requested convergence on MAX density matrix=1.00D-06.
 Requested convergence on             energy=1.00D-06.
 No special actions if energy rises.
 Integral accuracy reduced to 1.0D-05 until final iterations.
 Initial convergence to 1.0D-05 achieved.  Increase integral accuracy.
 SCF Done:  E(RHF) =  -492.820667826     A.U. after   15 cycles
             Convg  =    0.4355D-08             -V/T =  2.0017

 **********************************************************************

            Population analysis using the SCF density.

 **********************************************************************

 Orbital symmetries:
       Occupied  (A) (A) (A) (A) (A) (A) (A) (A) (A) (A) (A) (A)
                 (A) (A) (A) (A) (A) (A) (A) (A) (A) (A) (A) (A)
                 (A) (A) (A) (A) (A) (A) (A) (A) (A) (A) (A) (A)
                 (A) (A) (A)
       Virtual   (A) (A) (A) (A) (A) (A) (A) (A) (A) (A) (A) (A)
                 (A) (A) (A) (A) (A) (A) (A) (A) (A) (A) (A) (A)
                 (A) (A) (A) (A) (A) (A) (A) (A) (A) (A) (A) (A)
                 (A) (A) (A) (A) (A) (A) (A) (A) (A) (A) (A) (A)
                 (A) (A) (A) (A) (A) (A) (A) (A) (A) (A) (A) (A)
                 (A) (A) (A) (A) (A) (A) (A) (A) (A) (A) (A) (A)
                 (A) (A) (A) (A) (A) (A) (A) (A) (A) (A) (A) (A)
                 (A) (A) (A) (A) (A) (A) (A) (A) (A) (A) (A) (A)
                 (A) (A) (A) (A) (A) (A) (A) (A) (A) (A) (A) (A)
                 (A) (A) (A) (A) (A) (A) (A) (A) (A) (A) (A) (A)
                 (A) (A) (A) (A) (A) (A) (A) (A) (A) (A) (A) (A)
                 (A) (A) (A)
 The electronic state is 1-A.
 Alpha  occ. eigenvalues --  -20.52090 -20.51878 -15.60108 -15.59444 -11.35759
 Alpha  occ. eigenvalues --  -11.35033 -11.28311 -11.26235 -11.24077 -11.21074
 Alpha  occ. eigenvalues --   -1.38556  -1.37643  -1.24893  -1.23718  -1.06420
 Alpha  occ. eigenvalues --   -0.99434  -0.95158  -0.89391  -0.80302  -0.78254
 Alpha  occ. eigenvalues --   -0.74036  -0.69202  -0.66672  -0.64117  -0.62515
 Alpha  occ. eigenvalues --   -0.62300  -0.59017  -0.57973  -0.56659  -0.56080
 Alpha  occ. eigenvalues --   -0.54666  -0.54220  -0.53134  -0.51909  -0.50409
 Alpha  occ. eigenvalues --   -0.42514  -0.40200  -0.39153  -0.38615
 Alpha virt. eigenvalues --    0.18346   0.20277   0.21989   0.23123   0.26244
 Alpha virt. eigenvalues --    0.27494   0.27867   0.30167   0.31307   0.31662
 Alpha virt. eigenvalues --    0.32193   0.32686   0.34485   0.35916   0.37429
 Alpha virt. eigenvalues --    0.38808   0.41387   0.44213   0.45956   0.51772
 Alpha virt. eigenvalues --    0.52240   0.58517   0.61316   0.71342   0.72446
 Alpha virt. eigenvalues --    0.74022   0.74788   0.75594   0.76886   0.80370
 Alpha virt. eigenvalues --    0.80761   0.83365   0.85693   0.86900   0.90390
 Alpha virt. eigenvalues --    0.92431   0.93645   0.94894   0.96601   0.97345
 Alpha virt. eigenvalues --    0.99546   1.00966   1.06440   1.07563   1.07898
 Alpha virt. eigenvalues --    1.11548   1.12872   1.13696   1.14742   1.15188
 Alpha virt. eigenvalues --    1.15585   1.17031   1.17926   1.19964   1.20219
 Alpha virt. eigenvalues --    1.21821   1.22556   1.23599   1.26152   1.28947
 Alpha virt. eigenvalues --    1.31030   1.35953   1.36666   1.38731   1.39917
 Alpha virt. eigenvalues --    1.47354   1.55709   1.57112   1.59998   1.63430
 Alpha virt. eigenvalues --    1.65941   1.68517   1.68747   1.73933   1.76942
 Alpha virt. eigenvalues --    1.79822   1.82334   1.84906   1.89478   1.96270
 Alpha virt. eigenvalues --    2.02873   2.05303   2.07823   2.11789   2.12149
 Alpha virt. eigenvalues --    2.14724   2.15661   2.19327   2.21097   2.22246
 Alpha virt. eigenvalues --    2.23727   2.25452   2.29117   2.32374   2.35346
 Alpha virt. eigenvalues --    2.37862   2.38382   2.42513   2.45456   2.50665
 Alpha virt. eigenvalues --    2.51550   2.58530   2.60315   2.62500   2.62901
 Alpha virt. eigenvalues --    2.64836   2.68327   2.70130   2.72605   2.74336
 Alpha virt. eigenvalues --    2.76632   2.78572   2.85324   2.96052   2.97666
 Alpha virt. eigenvalues --    3.01553   3.03749   3.07110   3.09567   3.23967
 Alpha virt. eigenvalues --    3.31007   3.35790   3.37950   3.53400   3.58500
 Alpha virt. eigenvalues --    4.36661   4.43187   4.48109   4.57067   4.62359
 Alpha virt. eigenvalues --    4.66339   4.73525   4.78367   4.88595   5.12848
          Condensed to atoms (all electrons):
              1          2          3          4          5          6
     1  H    0.453784   0.385511  -0.018239  -0.018497  -0.030335   0.003531
     2  C    0.385511   5.246742   0.375170   0.374447   0.375558  -0.064584
     3  H   -0.018239   0.375170   0.507016  -0.023596  -0.034690   0.001130
     4  H   -0.018497   0.374447  -0.023596   0.514026  -0.036243   0.001171
     5  C   -0.030335   0.375558  -0.034690  -0.036243   4.191713   0.576743
     6  O    0.003531  -0.064584   0.001130   0.001171   0.576743   8.276621
     7  N    0.003783  -0.119378   0.003587   0.003899   0.258092  -0.102564
     8  H   -0.000008  -0.000881   0.000540   0.000425  -0.018324   0.002231
     9  C   -0.000065   0.003142  -0.000181   0.000000  -0.032507   0.006438
    10  H    0.000002  -0.000124   0.000012   0.000000  -0.001499   0.000605
    11  C    0.000005  -0.000472   0.000015  -0.000004  -0.004977  -0.054847
    12  H    0.000003  -0.000161   0.000001   0.000009   0.000051  -0.001897
    13  H    0.000000   0.000017   0.000000  -0.000001   0.000527   0.002082
    14  H    0.000008   0.000214  -0.000016   0.000000  -0.003443  -0.002635
    15  C    0.000000  -0.000048  -0.000011   0.000007   0.003585   0.000254
    16  O    0.000000  -0.000002   0.000000   0.000000   0.000033  -0.000001
    17  N    0.000000  -0.000001   0.000000   0.000000  -0.000267  -0.000003
    18  H    0.000000   0.000001   0.000000   0.000000  -0.000019  -0.000015
    19  C    0.000000   0.000000   0.000000   0.000000   0.000002   0.000000
    20  H    0.000000   0.000000   0.000000   0.000000   0.000000   0.000000
    21  H    0.000000   0.000000   0.000000   0.000000   0.000000   0.000000
    22  H    0.000000   0.000000   0.000000   0.000000   0.000000   0.000000
              7          8          9         10         11         12
     1  H    0.003783  -0.000008  -0.000065   0.000002   0.000005   0.000003
     2  C   -0.119378  -0.000881   0.003142  -0.000124  -0.000472  -0.000161
     3  H    0.003587   0.000540  -0.000181   0.000012   0.000015   0.000001
     4  H    0.003899   0.000425   0.000000   0.000000  -0.000004   0.000009
     5  C    0.258092  -0.018324  -0.032507  -0.001499  -0.004977   0.000051
     6  O   -0.102564   0.002231   0.006438   0.000605  -0.054847  -0.001897
     7  N    7.396087   0.318536   0.176919  -0.045592  -0.051982  -0.000127
     8  H    0.318536   0.308456  -0.025786   0.001211   0.003809  -0.000117
     9  C    0.176919  -0.025786   5.016015   0.410269   0.323701  -0.039786
    10  H   -0.045592   0.001211   0.410269   0.494517  -0.041358   0.004716
    11  C   -0.051982   0.003809   0.323701  -0.041358   5.314806   0.381406
    12  H   -0.000127  -0.000117  -0.039786   0.004716   0.381406   0.567095
    13  H    0.004198  -0.000068  -0.044471  -0.001767   0.380677  -0.032773
    14  H   -0.001207  -0.000176  -0.022277  -0.002153   0.387779  -0.015668
    15  C   -0.034929  -0.002193   0.379778  -0.037605  -0.062685  -0.007826
    16  O   -0.000180   0.005646  -0.075559   0.001405   0.003193  -0.000129
    17  N    0.001440   0.000427  -0.097527   0.002710  -0.019562  -0.006029
    18  H    0.000457  -0.000049  -0.003612   0.000149  -0.000390   0.006286
    19  C   -0.000157  -0.000007   0.004195  -0.000090   0.000188   0.000253
    20  H   -0.000011  -0.000008   0.000539  -0.000013  -0.000074  -0.000017
    21  H   -0.000002   0.000000  -0.000027   0.000010  -0.000041   0.000038
    22  H    0.000018   0.000002  -0.000182  -0.000001   0.000027  -0.000030
             13         14         15         16         17         18
     1  H    0.000000   0.000008   0.000000   0.000000   0.000000   0.000000
     2  C    0.000017   0.000214  -0.000048  -0.000002  -0.000001   0.000001
     3  H    0.000000  -0.000016  -0.000011   0.000000   0.000000   0.000000
     4  H   -0.000001   0.000000   0.000007   0.000000   0.000000   0.000000
     5  C    0.000527  -0.003443   0.003585   0.000033  -0.000267  -0.000019
     6  O    0.002082  -0.002635   0.000254  -0.000001  -0.000003  -0.000015
     7  N    0.004198  -0.001207  -0.034929  -0.000180   0.001440   0.000457
     8  H   -0.000068  -0.000176  -0.002193   0.005646   0.000427  -0.000049
     9  C   -0.044471  -0.022277   0.379778  -0.075559  -0.097527  -0.003612
    10  H   -0.001767  -0.002153  -0.037605   0.001405   0.002710   0.000149
    11  C    0.380677   0.387779  -0.062685   0.003193  -0.019562  -0.000390
    12  H   -0.032773  -0.015668  -0.007826  -0.000129  -0.006029   0.006286
    13  H    0.549332  -0.017736  -0.000071   0.000003  -0.002869  -0.001296
    14  H   -0.017736   0.389228   0.002874  -0.000051   0.000501   0.000217
    15  C   -0.000071   0.002874   4.166910   0.578397   0.301361  -0.014704
    16  O    0.000003  -0.000051   0.578397   8.226653  -0.098666   0.002402
    17  N   -0.002869   0.000501   0.301361  -0.098666   7.338329   0.315734
    18  H   -0.001296   0.000217  -0.014704   0.002402   0.315734   0.305384
    19  C   -0.000189   0.000002  -0.026808  -0.004759   0.188246  -0.021621
    20  H   -0.000012   0.000001  -0.001849   0.010732  -0.032495   0.002227
    21  H    0.000023  -0.000001   0.000931   0.000390  -0.048026  -0.000906
    22  H    0.000005   0.000000   0.001068   0.000407  -0.047392  -0.001015
             19         20         21         22
     1  H    0.000000   0.000000   0.000000   0.000000
     2  C    0.000000   0.000000   0.000000   0.000000
     3  H    0.000000   0.000000   0.000000   0.000000
     4  H    0.000000   0.000000   0.000000   0.000000
     5  C    0.000002   0.000000   0.000000   0.000000
     6  O    0.000000   0.000000   0.000000   0.000000
     7  N   -0.000157  -0.000011  -0.000002   0.000018
     8  H   -0.000007  -0.000008   0.000000   0.000002
     9  C    0.004195   0.000539  -0.000027  -0.000182
    10  H   -0.000090  -0.000013   0.000010  -0.000001
    11  C    0.000188  -0.000074  -0.000041   0.000027
    12  H    0.000253  -0.000017   0.000038  -0.000030
    13  H   -0.000189  -0.000012   0.000023   0.000005
    14  H    0.000002   0.000001  -0.000001   0.000000
    15  C   -0.026808  -0.001849   0.000931   0.001068
    16  O   -0.004759   0.010732   0.000390   0.000407
    17  N    0.188246  -0.032495  -0.048026  -0.047392
    18  H   -0.021621   0.002227  -0.000906  -0.001015
    19  C    4.950411   0.396776   0.403515   0.401627
    20  H    0.396776   0.434067  -0.022592  -0.022520
    21  H    0.403515  -0.022592   0.530800  -0.036355
    22  H    0.401627  -0.022520  -0.036355   0.534915
 Mulliken atomic charges:
              1
     1  H    0.220518
     2  C   -0.575152
     3  H    0.189262
     4  H    0.184355
     5  C    0.755999
     6  O   -0.644260
     7  N   -0.810887
     8  H    0.406332
     9  C    0.020983
    10  H    0.214597
    11  C   -0.559214
    12  H    0.144703
    13  H    0.164388
    14  H    0.284539
    15  C    0.753562
    16  O   -0.649913
    17  N   -0.795911
    18  H    0.410768
    19  C   -0.291587
    20  H    0.235249
    21  H    0.172242
    22  H    0.169426
 Sum of Mulliken atomic charges =   0.00000
 Mulliken charges with hydrogens summed into heavy atoms:
              1
     2  C    0.018983
     5  C    0.755999
     6  O   -0.644260
     7  N   -0.404554
     9  C    0.235580
    11  C    0.034416
    15  C    0.753562
    16  O   -0.649913
    17  N   -0.385143
    19  C    0.285330
 Sum of Mulliken charges with hydrogens summed into heavy atoms =   0.00000
 Electronic spatial extent (au):  <R**2>=           1866.3816
 Charge=              0.0000 electrons
 Dipole moment (field-independent basis, Debye):
    X=              0.5829    Y=             -0.3160    Z=              2.5462  Tot=              2.6311
 Quadrupole moment (field-independent basis, Debye-Ang):
   XX=            -61.4093   YY=            -63.5508   ZZ=            -60.1380
   XY=             14.4488   XZ=              4.4512   YZ=             -3.0485
 Traceless Quadrupole moment (field-independent basis, Debye-Ang):
   XX=              0.2901   YY=             -1.8515   ZZ=              1.5613
   XY=             14.4488   XZ=              4.4512   YZ=             -3.0485
 Octapole moment (field-independent basis, Debye-Ang**2):
  XXX=             17.7151  YYY=             -2.4417  ZZZ=              0.9877  XYY=             -1.5457
  XXY=            -13.1653  XXZ=             18.5364  XZZ=             -2.8893  YZZ=              4.6935
  YYZ=              5.3546  XYZ=             -3.7852
 Hexadecapole moment (field-independent basis, Debye-Ang**3):
 XXXX=          -1698.3307 YYYY=           -399.7120 ZZZZ=           -222.1727 XXXY=             59.0494
 XXXZ=             15.7120 YYYX=             14.5880 YYYZ=             -0.7094 ZZZX=              5.4782
 ZZZY=             -0.8138 XXYY=           -387.0317 XXZZ=           -333.4734 YYZZ=           -107.5707
 XXYZ=             -8.7680 YYXZ=             13.2114 ZZXY=              5.1924
 N-N= 5.597527137932D+02 E-N=-2.274722804409D+03  KE= 4.919994545454D+02
 Calling FoFJK, ICntrl=      2127 FMM=F ISym2X=0 I1Cent= 0 IOpClX= 0 NMat=1 NMatS=1 NMatT=0.
 ***** Axes restored to original set *****
 -------------------------------------------------------------------
 Center     Atomic                   Forces (Hartrees/Bohr)
 Number     Number              X              Y              Z
 -------------------------------------------------------------------
      1        1           0.004589093    0.007899797    0.002925362
      2        6           0.005586857    0.007661666    0.001795277
      3        1          -0.002986218    0.000416747   -0.004119331
      4        1          -0.001346544   -0.003572579    0.003629151
      5        6           0.015633569   -0.045988982   -0.025686082
      6        8          -0.050189584    0.000135416    0.023106520
      7        7          -0.012419144    0.020808810    0.005717087
      8        1           0.011327491   -0.007602695   -0.003528919
      9        6           0.017709813   -0.002305235   -0.012398530
     10        1          -0.003423651    0.006476013   -0.001228776
     11        6           0.021724693   -0.015900495    0.000357839
     12        1           0.004612626   -0.012431505    0.000869235
     13        1          -0.003839755    0.001463011   -0.000274167
     14        1           0.006791797    0.022668296   -0.005881560
     15        6          -0.017143945    0.019284366    0.044983063
     16        8           0.006992402   -0.020637047   -0.030244142
     17        7           0.000754386    0.004971176   -0.012781854
     18        1          -0.005510939    0.016073958    0.017756725
     19        6          -0.000339126    0.002981496   -0.000367686
     20        1           0.002771175   -0.005180604   -0.008268099
     21        1          -0.004795611    0.000955974    0.000724010
     22        1           0.003500616    0.001822417    0.002914876
 -------------------------------------------------------------------
 Cartesian Forces:  Max     0.050189584 RMS     0.014669293

 GradGradGradGradGradGradGradGradGradGradGradGradGradGradGradGradGradGrad
 Berny optimization.
 Internal  Forces:  Max     0.098347329 RMS     0.019696876
 Search for a local minimum.
 Step number   1 out of a maximum of  108
 All quantities printed in internal units (Hartrees-Bohrs-Radians)
 Mixed Optimization -- RFO/linear search
 Second derivative matrix not updated -- first step.
     Eigenvalues ---    0.00369   0.00435   0.00999   0.01044   0.01269
     Eigenvalues ---    0.01422   0.01660   0.02551   0.02552   0.03503
     Eigenvalues ---    0.05232   0.05841   0.05844   0.05844   0.07165
     Eigenvalues ---    0.07464   0.07686   0.07686   0.15421   0.16000
     Eigenvalues ---    0.16000   0.16000   0.16000   0.16000   0.16000
     Eigenvalues ---    0.16000   0.16000   0.16000   0.16000   0.16000
     Eigenvalues ---    0.16180   0.22000   0.22000   0.25000   0.25000
     Eigenvalues ---    0.25000   0.25000   0.29422   0.29887   0.30174
     Eigenvalues ---    0.34808   0.34809   0.34810   0.34813   0.34814
     Eigenvalues ---    0.34816   0.34817   0.34818   0.34821   0.34822
     Eigenvalues ---    0.38379   0.38381   0.45966   0.45976   0.58327
     Eigenvalues ---    0.58339   0.91489   0.915221000.000001000.00000
     Eigenvalues --- 1000.000001000.000001000.000001000.000001000.00000
     Eigenvalues --- 1000.000001000.000001000.000001000.000001000.00000
     Eigenvalues --- 1000.000001000.000001000.000001000.000001000.00000
     Eigenvalues --- 1000.000001000.000001000.000001000.000001000.00000
     Eigenvalues --- 1000.000001000.000001000.000001000.000001000.00000
     Eigenvalues --- 1000.000001000.000001000.000001000.000001000.00000
     Eigenvalues --- 1000.000001000.000001000.000001000.000001000.00000
     Eigenvalues --- 1000.000001000.000001000.00000
 RFO step:  Lambda=-1.03274477D-01 EMin= 3.68861443D-03
 Linear search not attempted -- first point.
 Maximum step size (   0.300) exceeded in Quadratic search.
    -- Step size scaled by   0.509
 Iteration  1 RMS(Cart)=  0.20246509 RMS(Int)=  0.00932692
 Iteration  2 RMS(Cart)=  0.02599727 RMS(Int)=  0.00039551
 Iteration  3 RMS(Cart)=  0.00024929 RMS(Int)=  0.00038474
 Iteration  4 RMS(Cart)=  0.00000009 RMS(Int)=  0.00038474
 Iteration  1 RMS(Cart)=  0.00025636 RMS(Int)=  0.00008613
 Iteration  2 RMS(Cart)=  0.00013768 RMS(Int)=  0.00009619
 Iteration  3 RMS(Cart)=  0.00007417 RMS(Int)=  0.00010852
 Iteration  4 RMS(Cart)=  0.00004015 RMS(Int)=  0.00011662
 Iteration  5 RMS(Cart)=  0.00002189 RMS(Int)=  0.00012138
 Iteration  6 RMS(Cart)=  0.00001206 RMS(Int)=  0.00012408
 Iteration  7 RMS(Cart)=  0.00000674 RMS(Int)=  0.00012561
 Iteration  8 RMS(Cart)=  0.00000384 RMS(Int)=  0.00012647
 Iteration  9 RMS(Cart)=  0.00000224 RMS(Int)=  0.00012695
 Iteration 10 RMS(Cart)=  0.00000134 RMS(Int)=  0.00012723
 Iteration 11 RMS(Cart)=  0.00000082 RMS(Int)=  0.00012739
 Variable       Old X    -DE/DX   Delta X   Delta X   Delta X     New X
                                 (Linear)    (Quad)   (Total)
    R1        2.05977  -0.00861   0.00000  -0.00971  -0.00971   2.05006
    R2        2.05965  -0.00322   0.00000  -0.00364  -0.00364   2.05602
    R3        2.05987  -0.00309   0.00000  -0.00348  -0.00348   2.05639
    R4        2.89132  -0.00983   0.00000  -0.01260  -0.01260   2.87872
    R5        2.32240  -0.04715   0.00000  -0.02358  -0.02358   2.29881
    R6        2.52289   0.03339   0.00000   0.02478   0.02478   2.54767
    R7        1.90859  -0.01379   0.00000  -0.01248  -0.01248   1.89610
    R8        2.73817   0.03570   0.00000   0.03734   0.03734   2.77551
    R9        2.05975  -0.00452   0.00000  -0.00510  -0.00510   2.05465
   R10        2.88188   0.02058   0.00000   0.02607   0.02608   2.90796
   R11        2.87618   0.02146   0.00000   0.02699   0.02699   2.90317
   R12        2.05972  -0.00642   0.00000  -0.00725  -0.00725   2.05247
   R13        2.05984  -0.00275   0.00000  -0.00311  -0.00311   2.05674
   R14        2.05966  -0.02149   0.00000  -0.02425  -0.02425   2.03541
   R15        2.32254  -0.03706   0.00000  -0.01854  -0.01854   2.30400
   R16        2.52280   0.00944   0.00000   0.00700   0.00700   2.52980
   R17        1.90870  -0.02427   0.00000  -0.02197  -0.02197   1.88673
   R18        2.73815   0.00094   0.00000   0.00099   0.00099   2.73914
   R19        2.05985  -0.01006   0.00000  -0.01135  -0.01135   2.04850
   R20        2.05974  -0.00410   0.00000  -0.00462  -0.00462   2.05511
   R21        2.05979  -0.00400   0.00000  -0.00452  -0.00452   2.05527
    A1        1.91123   0.00059   0.00000   0.00071   0.00074   1.91198
    A2        1.91109   0.00050   0.00000   0.00069   0.00074   1.91183
    A3        1.93910  -0.00819   0.00000  -0.01619  -0.01615   1.92295
    A4        1.91012  -0.00463   0.00000  -0.00821  -0.00829   1.90183
    A5        1.89607   0.00561   0.00000   0.01099   0.01096   1.90704
    A6        1.89594   0.00616   0.00000   0.01213   0.01211   1.90805
    A7        2.10313  -0.01612   0.00000  -0.02324  -0.02327   2.07986
    A8        2.03508  -0.03146   0.00000  -0.04537  -0.04540   1.98968
    A9        2.14497   0.04758   0.00000   0.06862   0.06858   2.21355
   A10        2.09430  -0.04888   0.00000  -0.07693  -0.07699   2.01732
   A11        2.12753   0.09835   0.00000   0.15498   0.15492   2.28245
   A12        2.06135  -0.04946   0.00000  -0.07805  -0.07812   1.98323
   A13        1.91114  -0.00050   0.00000   0.00899   0.00772   1.91886
   A14        1.93905   0.04457   0.00000   0.07744   0.07813   2.01718
   A15        1.93900  -0.04598   0.00000  -0.07855  -0.07960   1.85940
   A16        1.89609  -0.01703   0.00000  -0.02688  -0.02742   1.86868
   A17        1.89608  -0.00200   0.00000  -0.00294  -0.00372   1.89236
   A18        1.88137   0.02071   0.00000   0.02125   0.02318   1.90456
   A19        1.91115   0.00963   0.00000   0.01940   0.01927   1.93042
   A20        1.91106  -0.00608   0.00000  -0.01235  -0.01227   1.89880
   A21        1.91110   0.01337   0.00000   0.02568   0.02556   1.93666
   A22        1.91011  -0.00138   0.00000  -0.00229  -0.00222   1.90788
   A23        1.91023  -0.01033   0.00000  -0.01884  -0.01915   1.89108
   A24        1.91015  -0.00522   0.00000  -0.01164  -0.01155   1.89860
   A25        2.10312  -0.02130   0.00000  -0.03072  -0.03086   2.07226
   A26        2.03510   0.03617   0.00000   0.05216   0.05202   2.08712
   A27        2.14496  -0.01487   0.00000  -0.02144  -0.02157   2.12339
   A28        2.09432   0.00282   0.00000   0.00574   0.00574   2.10006
   A29        2.12761   0.00156   0.00000   0.00246   0.00246   2.13007
   A30        2.06125  -0.00438   0.00000  -0.00820  -0.00820   2.05305
   A31        1.91112  -0.00340   0.00000  -0.00689  -0.00688   1.90424
   A32        1.91112   0.00380   0.00000   0.00749   0.00747   1.91860
   A33        1.91113   0.00395   0.00000   0.00782   0.00781   1.91893
   A34        1.91013  -0.00069   0.00000  -0.00168  -0.00167   1.90846
   A35        1.91020  -0.00068   0.00000  -0.00159  -0.00158   1.90862
   A36        1.91010  -0.00299   0.00000  -0.00515  -0.00519   1.90491
    D1       -0.00008  -0.00156   0.00000  -0.00698  -0.00680  -0.00688
    D2        3.14153   0.00166   0.00000   0.00715   0.00696  -3.13469
    D3        2.10341  -0.00227   0.00000  -0.00902  -0.00889   2.09452
    D4       -1.03816   0.00095   0.00000   0.00511   0.00488  -1.03328
    D5       -2.10332  -0.00110   0.00000  -0.00566  -0.00543  -2.10874
    D6        1.03830   0.00212   0.00000   0.00847   0.00834   1.04663
    D7        0.00004   0.00551   0.00000  -0.00073  -0.00074  -0.00071
    D8        3.14152   0.00023   0.00000   0.02200   0.02150  -3.12016
    D9       -3.14153   0.00881   0.00000   0.01377   0.01427  -3.12726
   D10       -0.00005   0.00354   0.00000   0.03650   0.03651   0.03647
   D11       -1.57078  -0.00440   0.00000  -0.04742  -0.04736  -1.61814
   D12        0.52366   0.00223   0.00000  -0.02610  -0.02441   0.49926
   D13        2.61802   0.02745   0.00000   0.00000   0.00000   2.61801
   D14        1.57071  -0.00958   0.00000  -0.02510  -0.02546   1.54525
   D15       -2.61803  -0.00294   0.00000  -0.00378  -0.00251  -2.62054
   D16       -0.52368   0.02228   0.00000   0.02232   0.02190  -0.50179
   D17        1.04724  -0.01388   0.00000  -0.04186  -0.04101   1.00623
   D18        3.14157  -0.01339   0.00000  -0.04034  -0.03958   3.10199
   D19       -1.04726  -0.01533   0.00000  -0.04643  -0.04579  -1.09306
   D20       -3.13259   0.00207   0.00000  -0.00018  -0.00018  -3.13277
   D21       -1.03826   0.00255   0.00000   0.00134   0.00125  -1.03701
   D22        1.05609   0.00061   0.00000  -0.00476  -0.00496   1.05113
   D23       -1.08102   0.00188   0.00000  -0.00648  -0.00704  -1.08806
   D24        1.01331   0.00237   0.00000  -0.00496  -0.00561   1.00770
   D25        3.10766   0.00043   0.00000  -0.01105  -0.01182   3.09584
   D26        1.30903  -0.02507   0.00000  -0.03091  -0.03062   1.27841
   D27       -1.83260  -0.02316   0.00000   0.00000   0.00000  -1.83260
   D28       -0.79428   0.00530   0.00000   0.00846   0.00816  -0.78612
   D29        2.34727   0.00721   0.00000   0.03937   0.03878   2.38606
   D30       -2.84586   0.01520   0.00000   0.03024   0.03009  -2.81578
   D31        0.29569   0.01711   0.00000   0.06115   0.06071   0.35641
   D32        0.00009  -0.00141   0.00000  -0.01759  -0.01751  -0.01742
   D33        3.14158  -0.00122   0.00000  -0.01677  -0.01668   3.12490
   D34       -3.14154   0.00055   0.00000   0.01412   0.01404  -3.12750
   D35       -0.00005   0.00074   0.00000   0.01495   0.01487   0.01482
   D36        0.00006  -0.00004   0.00000  -0.00021  -0.00021  -0.00015
   D37        2.09443  -0.00064   0.00000  -0.00191  -0.00192   2.09251
   D38       -2.09441   0.00045   0.00000   0.00117   0.00119  -2.09322
   D39        3.14155   0.00015   0.00000   0.00060   0.00060  -3.14104
   D40       -1.04726  -0.00045   0.00000  -0.00109  -0.00111  -1.04837
   D41        1.04708   0.00064   0.00000   0.00198   0.00200   1.04908
         Item               Value     Threshold  Converged?
 Maximum Force            0.098348     0.000450     NO 
 RMS     Force            0.019182     0.000300     NO 
 Maximum Displacement     0.714792     0.001800     NO 
 RMS     Displacement     0.219061     0.001200     NO 
 Predicted change in Energy=-4.388257D-02
 GradGradGradGradGradGradGradGradGradGradGradGradGradGradGradGradGradGrad

                          Input orientation:                          
 ---------------------------------------------------------------------
 Center     Atomic      Atomic             Coordinates (Angstroms)
 Number     Number       Type             X           Y           Z
 ---------------------------------------------------------------------
      1          1           0        1.585637    1.423421   -0.880081
      2          6           0        1.819388    2.390721   -0.448131
      3          1           0        1.563943    2.388468    0.609451
      4          1           0        1.240174    3.163095   -0.950244
      5          6           0        3.304379    2.691591   -0.605878
      6          8           0        4.020302    1.873546   -1.151840
      7          7           0        3.682026    3.876723   -0.085872
      8          1           0        2.950449    4.416447    0.338694
      9          6           0        4.994246    4.535688   -0.053818
     10          1           0        5.513631    4.283159    0.867393
     11          6           0        5.940932    4.187717   -1.216008
     12          1           0        5.479512    4.427132   -2.169649
     13          1           0        6.858154    4.763074   -1.105385
     14          1           0        6.186752    3.139059   -1.212000
     15          6           0        4.724329    6.048068   -0.060121
     16          8           0        4.293170    6.570703    0.953519
     17          7           0        4.932116    6.751835   -1.179802
     18          1           0        5.274550    6.301124   -2.002255
     19          6           0        4.675682    8.176667   -1.251320
     20          1           0        4.311771    8.520375   -0.289793
     21          1           0        5.592453    8.706261   -1.499835
     22          1           0        3.927705    8.381225   -2.013927
 ---------------------------------------------------------------------
                    Distance matrix (angstroms):
                    1          2          3          4          5
     1  H    0.000000
     2  C    1.084845   0.000000
     3  H    1.774963   1.087997   0.000000
     4  H    1.775030   1.088194   1.771305   0.000000
     5  C    2.153489   1.523353   2.144301   2.145191   0.000000
     6  O    2.490794   2.367847   3.066103   3.071268   1.216478
     7  N    3.323297   2.410156   2.680421   2.686828   1.348169
     8  H    3.508037   2.449889   2.471520   2.481389   1.998151
     9  C    4.689087   3.851765   4.100910   4.096419   2.561467
    10  H    5.163420   4.354235   4.388215   4.777110   3.095870
    11  C    5.169408   4.561355   5.072242   4.818466   3.092259
    12  H    5.084046   4.528477   5.216439   4.588761   3.191972
    13  H    6.245276   5.607959   6.050462   5.843432   4.143654
    14  H    4.921772   4.496373   5.025080   4.953556   2.979209
    15  C    5.648990   4.686729   4.881500   4.610285   3.685112
    16  O    6.098142   5.055341   5.005812   4.955491   4.296153
    17  N    6.299266   5.407748   5.795256   5.153852   4.411859
    18  H    6.217663   5.444694   5.991535   5.218251   4.342829
    19  C    7.435894   6.502361   6.829981   6.085168   5.690617
    20  H    7.625418   6.618890   6.779343   6.210584   5.923636
    21  H    8.335372   7.431564   7.784118   7.069022   6.496976
    22  H    7.428454   6.540861   6.955762   5.965160   5.894325
                    6          7          8          9         10
     6  O    0.000000
     7  N    2.294218   0.000000
     8  H    3.135701   1.003376   0.000000
     9  C    3.039938   1.468736   2.084560   0.000000
    10  H    3.480456   2.104444   2.620533   1.087273   0.000000
    11  C    3.008044   2.544913   3.378225   1.538826   2.128909
    12  H    3.112240   2.806427   3.562030   2.173478   3.040644
    13  H    4.050301   3.451495   4.180392   2.152127   2.435141
    14  H    2.509711   2.843583   3.809202   2.171181   2.466968
    15  C    4.371973   2.408693   2.442927   1.536290   2.144338
    16  O    5.154637   2.951501   2.611844   2.376451   2.594186
    17  N    4.962852   3.320494   3.418607   2.486565   3.259376
    18  H    4.679721   3.476546   3.799144   2.644190   3.516280
    19  C    6.337883   4.564552   4.432136   3.846065   4.511153
    20  H    6.708832   4.690593   4.369258   4.049591   4.553850
    21  H    7.019883   5.382700   5.363104   4.454492   5.017351
    22  H    6.565186   4.905944   4.712677   4.446087   5.254647
                   11         12         13         14         15
    11  C    0.000000
    12  H    1.086122   0.000000
    13  H    1.088379   1.773744   0.000000
    14  H    1.077092   1.753970   1.760560   0.000000
    15  C    2.505415   2.765473   2.701296   3.453670   0.000000
    16  O    3.619474   3.969443   3.753099   4.477868   1.219226
    17  N    2.755671   2.585282   2.769536   3.824565   1.338712
    18  H    2.351327   1.892584   2.382808   3.384563   2.034371
    19  C    4.184952   3.943156   4.054269   5.259502   2.439724
    20  H    4.720590   4.653183   4.611569   5.772744   2.516993
    21  H    4.540841   4.332707   4.160086   5.606227   3.145219
    22  H    4.719668   4.250553   4.743838   5.764259   3.145725
                   16         17         18         19         20
    16  O    0.000000
    17  N    2.234306   0.000000
    18  H    3.126081   0.998414   0.000000
    19  C    2.754406   1.449489   2.107180   0.000000
    20  H    2.312443   2.074772   2.963874   1.084021   0.000000
    21  H    3.502527   2.087642   2.477534   1.087519   1.771695
    22  H    3.495324   2.087946   2.478094   1.087604   1.771865
                   21         22
    21  H    0.000000
    22  H    1.772378   0.000000
 Stoichiometry    C6H12N2O2
 Framework group  C1[X(C6H12N2O2)]
 Deg. of freedom    60
 Full point group                 C1      NOp   1
 Largest Abelian subgroup         C1      NOp   1
 Largest concise Abelian subgroup C1      NOp   1
                         Standard orientation:                         
 ---------------------------------------------------------------------
 Center     Atomic      Atomic             Coordinates (Angstroms)
 Number     Number       Type             X           Y           Z
 ---------------------------------------------------------------------
      1          1           0        4.020469   -1.094793   -0.881237
      2          6           0        3.034452   -1.372417   -0.524049
      3          1           0        3.131016   -2.018989    0.345639
      4          1           0        2.501729   -1.909246   -1.306473
      5          6           0        2.245089   -0.127524   -0.139663
      6          8           0        2.766784    0.965088   -0.257360
      7          7           0        1.005905   -0.385555    0.324452
      8          1           0        0.750378   -1.355130    0.361764
      9          6           0       -0.060029    0.521739    0.769183
     10          1           0        0.007227    0.674438    1.843577
     11          6           0       -0.063250    1.914309    0.114413
     12          1           0       -0.138130    1.828636   -0.965731
     13          1           0       -0.915593    2.476782    0.490849
     14          1           0        0.839172    2.453019    0.350109
     15          6           0       -1.390301   -0.182309    0.461157
     16          8           0       -1.727802   -1.126801    1.154366
     17          7           0       -2.130716    0.228237   -0.575852
     18          1           0       -1.829291    0.996592   -1.137638
     19          6           0       -3.383719   -0.410364   -0.926838
     20          1           0       -3.576232   -1.219844   -0.232012
     21          1           0       -4.195431    0.311383   -0.872978
     22          1           0       -3.326952   -0.808518   -1.937350
 ---------------------------------------------------------------------
 Rotational constants (GHZ):      2.4574021      0.6972133      0.6315001
 Standard basis: 6-31G(d) (6D, 7F)
 There are   174 symmetry adapted basis functions of A   symmetry.
 Integral buffers will be    131072 words long.
 Raffenetti 1 integral format.
 Two-electron integral symmetry is turned on.
   174 basis functions,   328 primitive gaussians,   174 cartesian basis functions
    39 alpha electrons       39 beta electrons
       nuclear repulsion energy       553.0928893490 Hartrees.
 NAtoms=   22 NActive=   22 NUniq=   22 SFac= 7.50D-01 NAtFMM=   80 NAOKFM=F Big=F
 One-electron integrals computed using PRISM.
 NBasis=   174 RedAO= T  NBF=   174
 NBsUse=   174 1.00D-06 NBFU=   174
 Initial guess read from the read-write file.
 B after Tr=     0.000000    0.000000    0.000000
         Rot=    1.000000    0.000000    0.000000    0.000000 Ang=   0.00 deg.
 Initial guess orbital symmetries:
       Occupied  (A) (A) (A) (A) (A) (A) (A) (A) (A) (A) (A) (A)
                 (A) (A) (A) (A) (A) (A) (A) (A) (A) (A) (A) (A)
                 (A) (A) (A) (A) (A) (A) (A) (A) (A) (A) (A) (A)
                 (A) (A) (A)
       Virtual   (A) (A) (A) (A) (A) (A) (A) (A) (A) (A) (A) (A)
                 (A) (A) (A) (A) (A) (A) (A) (A) (A) (A) (A) (A)
                 (A) (A) (A) (A) (A) (A) (A) (A) (A) (A) (A) (A)
                 (A) (A) (A) (A) (A) (A) (A) (A) (A) (A) (A) (A)
                 (A) (A) (A) (A) (A) (A) (A) (A) (A) (A) (A) (A)
                 (A) (A) (A) (A) (A) (A) (A) (A) (A) (A) (A) (A)
                 (A) (A) (A) (A) (A) (A) (A) (A) (A) (A) (A) (A)
                 (A) (A) (A) (A) (A) (A) (A) (A) (A) (A) (A) (A)
                 (A) (A) (A) (A) (A) (A) (A) (A) (A) (A) (A) (A)
                 (A) (A) (A) (A) (A) (A) (A) (A) (A) (A) (A) (A)
                 (A) (A) (A) (A) (A) (A) (A) (A) (A) (A) (A) (A)
                 (A) (A) (A)
 Harris functional with IExCor=  205 diagonalized for initial guess.
 ExpMin= 1.61D-01 ExpMax= 5.48D+03 ExpMxC= 8.25D+02 IAcc=1 IRadAn=         1 AccDes= 0.00D+00
 HarFok:  IExCor=  205 AccDes= 0.00D+00 IRadAn=         1 IDoV= 1
 ScaDFX=  1.000000  1.000000  1.000000  1.000000
 FoFCou: FMM=F IPFlag=           0 FMFlag=      100000 FMFlg1=           0
         NFxFlg=           0 DoJE=T BraDBF=F KetDBF=T FulRan=T
         Omega=  0.000000  0.000000  1.000000  0.000000  0.000000 ICntrl=     500 IOpCl=  0
         NMat0=    1 NMatS0=    1 NMatT0=    0 NMatD0=    1 NMtDS0=    0 NMtDT0=    0
         I1Cent=           4 NGrid=           0.
 Petite list used in FoFCou.
 Requested convergence on RMS density matrix=1.00D-08 within 128 cycles.
 Requested convergence on MAX density matrix=1.00D-06.
 Requested convergence on             energy=1.00D-06.
 No special actions if energy rises.
 Integral accuracy reduced to 1.0D-05 until final iterations.
 Initial convergence to 1.0D-05 achieved.  Increase integral accuracy.
 SCF Done:  E(RHF) =  -492.840126231     A.U. after   16 cycles
             Convg  =    0.7976D-08             -V/T =  2.0019
 Calling FoFJK, ICntrl=      2127 FMM=F ISym2X=0 I1Cent= 0 IOpClX= 0 NMat=1 NMatS=1 NMatT=0.
 ***** Axes restored to original set *****
 -------------------------------------------------------------------
 Center     Atomic                   Forces (Hartrees/Bohr)
 Number     Number              X              Y              Z
 -------------------------------------------------------------------
      1        1           0.003625721    0.003989622    0.001244768
      2        6           0.002041487    0.006233335    0.001999121
      3        1          -0.002695394    0.000289842   -0.002411219
      4        1          -0.001878655   -0.002114732    0.002516292
      5        6           0.006884677   -0.035900951   -0.015288434
      6        8          -0.005589126    0.025738329    0.013264834
      7        7          -0.000795195    0.018034549    0.000189272
      8        1           0.006628724   -0.004007775    0.000173578
      9        6           0.010987051   -0.003184979   -0.019886646
     10        1          -0.005648313    0.005809361    0.000429247
     11        6          -0.005031147   -0.008122217    0.003625507
     12        1           0.002675627   -0.005803185   -0.000017377
     13        1          -0.002685859   -0.001085687   -0.000348579
     14        1          -0.000335786   -0.001113019   -0.001684511
     15        6          -0.014500604    0.010329081    0.035961447
     16        8           0.005458098   -0.012673370   -0.015873581
     17        7           0.002719613   -0.001137823   -0.007704310
     18        1          -0.002657406    0.004318614    0.007158696
     19        6          -0.000341362    0.001928782   -0.000600192
     20        1           0.002068473   -0.002599431   -0.004964158
     21        1          -0.002803209    0.000089514    0.000363280
     22        1           0.001872585    0.000982140    0.001852965
 -------------------------------------------------------------------
 Cartesian Forces:  Max     0.035961447 RMS     0.009482221

 GradGradGradGradGradGradGradGradGradGradGradGradGradGradGradGradGradGrad
 Berny optimization.
 Using GEDIIS/GDIIS optimizer.
 Internal  Forces:  Max     0.026916143 RMS     0.006439188
 Search for a local minimum.
 Step number   2 out of a maximum of  108
 All quantities printed in internal units (Hartrees-Bohrs-Radians)
 Mixed Optimization -- RFO/linear search
 Update second derivatives using D2CorX and points    1    2
 DE= -1.95D-02 DEPred=-4.39D-02 R= 4.43D-01
 Trust test= 4.43D-01 RLast= 3.00D-01 DXMaxT set to 3.00D-01
 Use linear search instead of GDIIS.
     Eigenvalues ---    0.00369   0.00441   0.01004   0.01044   0.01339
     Eigenvalues ---    0.01421   0.01666   0.02551   0.02569   0.03570
     Eigenvalues ---    0.05018   0.05638   0.05822   0.06035   0.07224
     Eigenvalues ---    0.07359   0.07611   0.07698   0.14744   0.15950
     Eigenvalues ---    0.15998   0.16000   0.16000   0.16000   0.16000
     Eigenvalues ---    0.16000   0.16000   0.16000   0.16000   0.16094
     Eigenvalues ---    0.17212   0.21987   0.24084   0.24746   0.24991
     Eigenvalues ---    0.25000   0.29382   0.29722   0.30092   0.34464
     Eigenvalues ---    0.34678   0.34808   0.34810   0.34812   0.34814
     Eigenvalues ---    0.34816   0.34817   0.34818   0.34821   0.36983
     Eigenvalues ---    0.38380   0.45542   0.45966   0.56317   0.58283
     Eigenvalues ---    0.76101   0.88635   0.915021000.000001000.00000
     Eigenvalues --- 1000.000001000.000001000.000001000.000001000.00000
     Eigenvalues --- 1000.000001000.000001000.000001000.000001000.00000
     Eigenvalues --- 1000.000001000.000001000.000001000.000001000.00000
     Eigenvalues --- 1000.000001000.000001000.000001000.000001000.00000
     Eigenvalues --- 1000.000001000.000001000.000001000.000001000.00000
     Eigenvalues --- 1000.000001000.000001000.000001000.000001000.00000
     Eigenvalues --- 1000.000001000.000001000.000001000.000001000.00000
     Eigenvalues --- 1000.000001000.000001000.00000
 RFO step:  Lambda=-1.31106719D-02 EMin= 3.68861529D-03
 Quartic linear search produced a step of -0.06474.
 Maximum step size (   0.300) exceeded in Quadratic search.
    -- Step size scaled by   0.877
 Iteration  1 RMS(Cart)=  0.10306377 RMS(Int)=  0.00271526
 Iteration  2 RMS(Cart)=  0.00402141 RMS(Int)=  0.00042692
 Iteration  3 RMS(Cart)=  0.00000694 RMS(Int)=  0.00042687
 Iteration  4 RMS(Cart)=  0.00000000 RMS(Int)=  0.00042687
 Iteration  1 RMS(Cart)=  0.00016090 RMS(Int)=  0.00006371
 Iteration  2 RMS(Cart)=  0.00009483 RMS(Int)=  0.00007079
 Iteration  3 RMS(Cart)=  0.00005686 RMS(Int)=  0.00008074
 Iteration  4 RMS(Cart)=  0.00003470 RMS(Int)=  0.00008831
 Iteration  5 RMS(Cart)=  0.00002154 RMS(Int)=  0.00009344
 Iteration  6 RMS(Cart)=  0.00001357 RMS(Int)=  0.00009681
 Iteration  7 RMS(Cart)=  0.00000867 RMS(Int)=  0.00009900
 Iteration  8 RMS(Cart)=  0.00000559 RMS(Int)=  0.00010042
 Iteration  9 RMS(Cart)=  0.00000364 RMS(Int)=  0.00010134
 Iteration 10 RMS(Cart)=  0.00000238 RMS(Int)=  0.00010194
 Iteration 11 RMS(Cart)=  0.00000156 RMS(Int)=  0.00010233
 Iteration 12 RMS(Cart)=  0.00000103 RMS(Int)=  0.00010259
 Iteration 13 RMS(Cart)=  0.00000068 RMS(Int)=  0.00010276
 Variable       Old X    -DE/DX   Delta X   Delta X   Delta X     New X
                                 (Linear)    (Quad)   (Total)
    R1        2.05006  -0.00483   0.00063  -0.01366  -0.01304   2.03702
    R2        2.05602  -0.00171   0.00024  -0.00489  -0.00466   2.05136
    R3        2.05639  -0.00166   0.00023  -0.00474  -0.00451   2.05187
    R4        2.87872  -0.00238   0.00082  -0.00984  -0.00903   2.86969
    R5        2.29881  -0.02655   0.00153  -0.03045  -0.02893   2.26989
    R6        2.54767   0.00037  -0.00160   0.00793   0.00633   2.55400
    R7        1.89610  -0.00692   0.00081  -0.01556  -0.01475   1.88135
    R8        2.77551  -0.01288  -0.00242  -0.01552  -0.01794   2.75757
    R9        2.05465  -0.00368   0.00033  -0.00975  -0.00942   2.04523
   R10        2.90796  -0.00085  -0.00169   0.00516   0.00348   2.91144
   R11        2.90317   0.00259  -0.00175   0.01433   0.01258   2.91575
   R12        2.05247  -0.00240   0.00047  -0.00748  -0.00701   2.04546
   R13        2.05674  -0.00287   0.00020  -0.00735  -0.00715   2.04958
   R14        2.03541   0.00100   0.00157  -0.00473  -0.00316   2.03225
   R15        2.30400  -0.02056   0.00120  -0.02367  -0.02247   2.28153
   R16        2.52980   0.00527  -0.00045   0.00928   0.00883   2.53862
   R17        1.88673  -0.00876   0.00142  -0.02153  -0.02010   1.86663
   R18        2.73914   0.00042  -0.00006   0.00114   0.00108   2.74022
   R19        2.04850  -0.00592   0.00073  -0.01658  -0.01585   2.03265
   R20        2.05511  -0.00240   0.00030  -0.00673  -0.00643   2.04868
   R21        2.05527  -0.00240   0.00029  -0.00670  -0.00641   2.04887
    A1        1.91198  -0.00001  -0.00005  -0.00165  -0.00154   1.91044
    A2        1.91183  -0.00005  -0.00005  -0.00140  -0.00127   1.91056
    A3        1.92295  -0.00555   0.00105  -0.03173  -0.03052   1.89243
    A4        1.90183  -0.00368   0.00054  -0.01613  -0.01598   1.88585
    A5        1.90704   0.00448  -0.00071   0.02447   0.02363   1.93066
    A6        1.90805   0.00484  -0.00078   0.02669   0.02579   1.93385
    A7        2.07986   0.01461   0.00151   0.03872   0.04019   2.12005
    A8        1.98968   0.00027   0.00294  -0.01167  -0.00876   1.98092
    A9        2.21355  -0.01487  -0.00444  -0.02687  -0.03134   2.18221
   A10        2.01732   0.00783   0.00498   0.00794   0.01293   2.03024
   A11        2.28245  -0.01278  -0.01003  -0.00254  -0.01256   2.26989
   A12        1.98323   0.00498   0.00506  -0.00543  -0.00037   1.98286
   A13        1.91886   0.00478  -0.00050  -0.00644  -0.00876   1.91010
   A14        2.01718  -0.01132  -0.00506  -0.02449  -0.02848   1.98869
   A15        1.85940  -0.00993   0.00515  -0.05129  -0.04644   1.81296
   A16        1.86868  -0.00068   0.00177   0.00182   0.00376   1.87244
   A17        1.89236  -0.00971   0.00024  -0.04492  -0.04676   1.84560
   A18        1.90456   0.02692  -0.00150   0.12442   0.12289   2.02745
   A19        1.93042   0.00568  -0.00125   0.03182   0.03050   1.96092
   A20        1.89880  -0.00082   0.00079  -0.00316  -0.00248   1.89632
   A21        1.93666  -0.00003  -0.00165   0.00224   0.00062   1.93728
   A22        1.90788  -0.00089   0.00014   0.00341   0.00335   1.91123
   A23        1.89108  -0.00425   0.00124  -0.03208  -0.03077   1.86031
   A24        1.89860   0.00022   0.00075  -0.00264  -0.00189   1.89671
   A25        2.07226  -0.00539   0.00200  -0.02549  -0.02386   2.04840
   A26        2.08712   0.00162  -0.00337   0.01897   0.01523   2.10235
   A27        2.12339   0.00375   0.00140   0.00507   0.00609   2.12948
   A28        2.10006  -0.00126  -0.00037  -0.00258  -0.00295   2.09711
   A29        2.13007   0.00317  -0.00016   0.01170   0.01155   2.14161
   A30        2.05305  -0.00190   0.00053  -0.00913  -0.00860   2.04446
   A31        1.90424  -0.00191   0.00045  -0.01156  -0.01108   1.89316
   A32        1.91860   0.00207  -0.00048   0.01204   0.01152   1.93012
   A33        1.91893   0.00202  -0.00051   0.01189   0.01136   1.93029
   A34        1.90846  -0.00031   0.00011  -0.00270  -0.00256   1.90590
   A35        1.90862  -0.00030   0.00010  -0.00268  -0.00255   1.90607
   A36        1.90491  -0.00158   0.00034  -0.00710  -0.00685   1.89806
    D1       -0.00688   0.00017   0.00044   0.00594   0.00649  -0.00039
    D2       -3.13469  -0.00010  -0.00045  -0.00698  -0.00756   3.14093
    D3        2.09452  -0.00046   0.00058  -0.00035   0.00013   2.09465
    D4       -1.03328  -0.00073  -0.00032  -0.01327  -0.01393  -1.04721
    D5       -2.10874   0.00063   0.00035   0.01054   0.01125  -2.09749
    D6        1.04663   0.00036  -0.00054  -0.00237  -0.00281   1.04382
    D7       -0.00071   0.00122   0.00005   0.00713   0.00697   0.00626
    D8       -3.12016  -0.00064  -0.00139   0.00878   0.00723  -3.11293
    D9       -3.12726   0.00064  -0.00092  -0.00759  -0.00836  -3.13562
   D10        0.03647  -0.00123  -0.00236  -0.00594  -0.00810   0.02837
   D11       -1.61814  -0.00239   0.00307  -0.08536  -0.08254  -1.70068
   D12        0.49926  -0.00765   0.00158  -0.10553  -0.10387   0.39538
   D13        2.61801   0.01219   0.00000   0.00000   0.00000   2.61802
   D14        1.54525  -0.00427   0.00165  -0.08387  -0.08243   1.46282
   D15       -2.62054  -0.00953   0.00016  -0.10404  -0.10376  -2.72430
   D16       -0.50179   0.01032  -0.00142   0.00149   0.00012  -0.50167
   D17        1.00623  -0.00131   0.00265  -0.02948  -0.02672   0.97951
   D18        3.10199   0.00055   0.00256  -0.00783  -0.00503   3.09695
   D19       -1.09306   0.00029   0.00296  -0.01172  -0.00856  -1.10161
   D20       -3.13277  -0.00326   0.00001  -0.05296  -0.05378   3.09663
   D21       -1.03701  -0.00139  -0.00008  -0.03132  -0.03210  -1.06911
   D22        1.05113  -0.00166   0.00032  -0.03521  -0.03563   1.01551
   D23       -1.08806  -0.00102   0.00046  -0.03994  -0.03898  -1.12704
   D24        1.00770   0.00085   0.00036  -0.01830  -0.01730   0.99040
   D25        3.09584   0.00058   0.00077  -0.02219  -0.02083   3.07501
   D26        1.27841  -0.00156   0.00198  -0.05320  -0.05045   1.22795
   D27       -1.83260  -0.00086   0.00000   0.00000   0.00000  -1.83259
   D28       -0.78612   0.00319  -0.00053   0.00515   0.00339  -0.78273
   D29        2.38606   0.00389  -0.00251   0.05836   0.05385   2.43990
   D30       -2.81578  -0.00527  -0.00195  -0.03978  -0.04117  -2.85694
   D31        0.35641  -0.00457  -0.00393   0.01342   0.00929   0.36569
   D32       -0.01742  -0.00069   0.00113  -0.03294  -0.03184  -0.04927
   D33        3.12490  -0.00065   0.00108  -0.03208  -0.03104   3.09386
   D34       -3.12750   0.00020  -0.00091   0.02241   0.02153  -3.10597
   D35        0.01482   0.00023  -0.00096   0.02327   0.02234   0.03716
   D36       -0.00015   0.00001   0.00001   0.00046   0.00047   0.00032
   D37        2.09251  -0.00030   0.00012  -0.00266  -0.00259   2.08992
   D38       -2.09322   0.00032  -0.00008   0.00365   0.00362  -2.08960
   D39       -3.14104   0.00004  -0.00004   0.00129   0.00125  -3.13979
   D40       -1.04837  -0.00027   0.00007  -0.00183  -0.00181  -1.05018
   D41        1.04908   0.00036  -0.00013   0.00448   0.00440   1.05348
         Item               Value     Threshold  Converged?
 Maximum Force            0.026551     0.000450     NO 
 RMS     Force            0.006197     0.000300     NO 
 Maximum Displacement     0.477859     0.001800     NO 
 RMS     Displacement     0.102449     0.001200     NO 
 Predicted change in Energy=-7.616434D-03
 GradGradGradGradGradGradGradGradGradGradGradGradGradGradGradGradGradGrad

                          Input orientation:                          
 ---------------------------------------------------------------------
 Center     Atomic      Atomic             Coordinates (Angstroms)
 Number     Number       Type             X           Y           Z
 ---------------------------------------------------------------------
      1          1           0        1.608535    1.521745   -0.911169
      2          6           0        1.838740    2.472985   -0.459374
      3          1           0        1.573486    2.447195    0.592935
      4          1           0        1.250568    3.251581   -0.935626
      5          6           0        3.324130    2.738586   -0.630096
      6          8           0        4.040862    1.954851   -1.191228
      7          7           0        3.726131    3.913845   -0.097405
      8          1           0        3.022125    4.462387    0.343769
      9          6           0        5.046084    4.535874   -0.083347
     10          1           0        5.533813    4.324649    0.859443
     11          6           0        5.981808    4.042405   -1.203417
     12          1           0        5.551017    4.174260   -2.187615
     13          1           0        6.916259    4.589426   -1.140871
     14          1           0        6.189613    2.992598   -1.097361
     15          6           0        4.742140    6.048510   -0.067857
     16          8           0        4.274069    6.510160    0.944786
     17          7           0        4.907799    6.787722   -1.177270
     18          1           0        5.265557    6.374500   -2.000044
     19          6           0        4.582476    8.199688   -1.233774
     20          1           0        4.209837    8.502315   -0.271201
     21          1           0        5.462910    8.784387   -1.475167
     22          1           0        3.823340    8.386433   -1.985010
 ---------------------------------------------------------------------
                    Distance matrix (angstroms):
                    1          2          3          4          5
     1  H    0.000000
     2  C    1.077947   0.000000
     3  H    1.766356   1.085532   0.000000
     4  H    1.766655   1.085805   1.757217   0.000000
     5  C    2.122020   1.518576   2.155335   2.157816   0.000000
     6  O    2.486409   2.377691   3.084410   3.087488   1.201172
     7  N    3.296751   2.401946   2.694719   2.696223   1.351517
     8  H    3.495780   2.450135   2.494321   2.498262   2.002776
     9  C    4.646182   3.831966   4.108390   4.096550   2.548392
    10  H    5.138010   4.338376   4.390905   4.766543   3.101132
    11  C    5.056150   4.492404   5.020446   4.804346   3.015276
    12  H    4.920195   4.434203   5.151210   4.573038   3.073443
    13  H    6.134767   5.543010   6.011694   5.825119   4.073069
    14  H    4.815013   4.427993   4.946028   4.948474   2.914421
    15  C    5.569763   4.622489   4.842157   4.557073   3.644512
    16  O    5.952640   4.919479   4.891281   4.826576   4.196118
    17  N    6.219845   5.343356   5.752516   5.092938   4.382113
    18  H    6.173223   5.416508   5.981525   5.196705   4.343473
    19  C    7.317330   6.397102   6.744039   5.972794   5.636621
    20  H    7.476944   6.481538   6.660447   6.063740   5.842418
    21  H    8.241375   7.348485   7.717814   6.974730   6.468402
    22  H    7.292629   6.421454   6.854356   5.838413   5.829510
                    6          7          8          9         10
     6  O    0.000000
     7  N    2.265648   0.000000
     8  H    3.111555   0.995570   0.000000
     9  C    2.983211   1.459244   2.069840   0.000000
    10  H    3.471325   2.086152   2.567775   1.082288   0.000000
    11  C    2.850491   2.515525   3.365991   1.540665   2.129731
    12  H    2.863413   2.786934   3.589738   2.194007   3.050816
    13  H    3.900183   3.423762   4.169482   2.149135   2.445919
    14  H    2.388066   2.813779   3.777581   2.172000   2.456322
    15  C    4.302534   2.364306   2.375642   1.542948   2.111475
    16  O    5.036643   2.850833   2.474259   2.356028   2.524023
    17  N    4.910032   3.289623   3.358051   2.507312   3.256812
    18  H    4.656968   3.470546   3.765982   2.665041   3.528529
    19  C    6.268424   4.515874   4.346350   3.868068   4.505832
    20  H    6.613946   4.617167   4.255568   4.057986   4.525943
    21  H    6.981790   5.351337   5.286363   4.490075   5.034351
    22  H    6.484031   4.855569   4.632849   4.465225   5.245448
                   11         12         13         14         15
    11  C    0.000000
    12  H    1.082410   0.000000
    13  H    1.084594   1.769724   0.000000
    14  H    1.075419   1.729966   1.754926   0.000000
    15  C    2.617390   2.942868   2.829678   3.534637   0.000000
    16  O    3.690658   4.110834   3.875610   4.495877   1.207334
    17  N    2.948041   2.874841   2.977876   4.006545   1.343382
    18  H    2.566378   2.226595   2.578660   3.620218   2.028197
    19  C    4.386576   4.248759   4.299903   5.451173   2.452024
[...]
    12  H    4.826224   4.454612   5.153681   4.781161   3.028172
    13  H    6.132116   5.564334   6.026285   5.897217   4.082570
    14  H    4.914394   4.481046   4.857015   5.088770   2.979395
    15  C    5.522469   4.667335   5.117001   4.515616   3.642147
    16  O    5.955875   4.987568   5.270134   4.689399   4.230543
    17  N    6.114244   5.406581   6.042779   5.190250   4.349404
    18  H    5.988154   5.420060   6.150668   5.321841   4.246654
    19  C    7.167546   6.450615   7.097996   6.037086   5.584809
    20  H    7.884482   7.078721   7.607217   6.676078   6.201429
    21  H    7.756399   7.141801   7.874781   6.759058   6.218303
    22  H    6.917589   6.207938   6.874496   5.631220   5.578865
                    6          7          8          9         10
     6  O    0.000000
     7  N    2.267312   0.000000
     8  H    3.114237   0.996365   0.000000
     9  C    2.968984   1.461179   2.065799   0.000000
    10  H    3.505188   2.083616   2.458958   1.084723   0.000000
    11  C    2.829352   2.521256   3.389914   1.527116   2.134531
    12  H    2.732610   2.766257   3.658544   2.183504   3.053453
    13  H    3.897930   3.424434   4.176480   2.138333   2.479692
    14  H    2.467934   2.858045   3.791759   2.159544   2.436466
    15  C    4.262797   2.360359   2.449650   1.534843   2.093025
    16  O    5.046901   2.877768   2.539537   2.366065   2.513933
    17  N    4.800804   3.264110   3.483453   2.474280   3.227477
    18  H    4.470637   3.396598   3.851985   2.610589   3.495140
    19  C    6.139745   4.469798   4.459962   3.829320   4.473376
    20  H    6.794994   4.970653   4.870451   4.178158   4.587822
    21  H    6.631169   5.223736   5.338482   4.537348   5.250571
    22  H    6.278306   4.510296   4.322160   4.206465   4.897516
                   11         12         13         14         15
    11  C    0.000000
    12  H    1.083155   0.000000
    13  H    1.085624   1.768086   0.000000
    14  H    1.077630   1.735829   1.757922   0.000000
    15  C    2.583756   2.944297   2.755953   3.503160   0.000000
    16  O    3.666314   4.115463   3.807311   4.474949   1.204907
    17  N    2.870243   2.842455   2.833424   3.936591   1.342469
    18  H    2.472383   2.161466   2.445959   3.532343   2.025447
    19  C    4.309276   4.211183   4.157439   5.379573   2.432189
    20  H    4.773483   4.886118   4.466646   5.813917   2.700383
    21  H    4.700872   4.434942   4.444399   5.774569   3.301413
    22  H    4.888122   4.711225   4.935074   5.927779   2.809272
                   16         17         18         19         20
    16  O    0.000000
    17  N    2.234203   0.000000
    18  H    3.109963   0.991568   0.000000
    19  C    2.749665   1.448148   2.113037   0.000000
    20  H    2.680301   2.085749   2.877687   1.080914   0.000000
    21  H    3.790253   2.065638   2.287851   1.081597   1.761408
    22  H    2.883947   2.101719   2.767764   1.083689   1.755221
                   21         22
    21  H    0.000000
    22  H    1.763504   0.000000
 Stoichiometry    C6H12N2O2
 Framework group  C1[X(C6H12N2O2)]
 Deg. of freedom    60
 Full point group                 C1      NOp   1
 Largest Abelian subgroup         C1      NOp   1
 Largest concise Abelian subgroup C1      NOp   1
                         Standard orientation:                         
 ---------------------------------------------------------------------
 Center     Atomic      Atomic             Coordinates (Angstroms)
 Number     Number       Type             X           Y           Z
 ---------------------------------------------------------------------
      1          1           0        3.793308   -1.153170   -1.158891
      2          6           0        3.021713   -1.389613   -0.440830
      3          1           0        3.496323   -1.690138    0.488475
      4          1           0        2.426797   -2.220451   -0.802424
      5          6           0        2.189604   -0.145547   -0.194453
      6          8           0        2.623925    0.950687   -0.415834
      7          7           0        0.952001   -0.403357    0.299664
      8          1           0        0.757363   -1.348647    0.547224
      9          6           0       -0.062671    0.533440    0.777049
     10          1           0       -0.016485    0.581371    1.859728
     11          6           0        0.056704    1.952414    0.225376
     12          1           0        0.127388    1.971139   -0.855309
     13          1           0       -0.814337    2.520801    0.536507
     14          1           0        0.940287    2.438248    0.605550
     15          6           0       -1.390717   -0.173462    0.473198
     16          8           0       -1.704728   -1.132881    1.131008
     17          7           0       -2.124958    0.262055   -0.562871
     18          1           0       -1.790322    1.010075   -1.121164
     19          6           0       -3.334479   -0.424072   -0.967123
     20          1           0       -3.998771   -0.541224   -0.122514
     21          1           0       -3.828916    0.166355   -1.726583
     22          1           0       -3.116445   -1.406652   -1.368842
 ---------------------------------------------------------------------
 Rotational constants (GHZ):      2.3961617      0.7196789      0.6480446

 **********************************************************************

            Population analysis using the SCF density.

 **********************************************************************

 Orbital symmetries:
       Occupied  (A) (A) (A) (A) (A) (A) (A) (A) (A) (A) (A) (A)
                 (A) (A) (A) (A) (A) (A) (A) (A) (A) (A) (A) (A)
                 (A) (A) (A) (A) (A) (A) (A) (A) (A) (A) (A) (A)
                 (A) (A) (A)
       Virtual   (A) (A) (A) (A) (A) (A) (A) (A) (A) (A) (A) (A)
                 (A) (A) (A) (A) (A) (A) (A) (A) (A) (A) (A) (A)
                 (A) (A) (A) (A) (A) (A) (A) (A) (A) (A) (A) (A)
                 (A) (A) (A) (A) (A) (A) (A) (A) (A) (A) (A) (A)
                 (A) (A) (A) (A) (A) (A) (A) (A) (A) (A) (A) (A)
                 (A) (A) (A) (A) (A) (A) (A) (A) (A) (A) (A) (A)
                 (A) (A) (A) (A) (A) (A) (A) (A) (A) (A) (A) (A)
                 (A) (A) (A) (A) (A) (A) (A) (A) (A) (A) (A) (A)
                 (A) (A) (A) (A) (A) (A) (A) (A) (A) (A) (A) (A)
                 (A) (A) (A) (A) (A) (A) (A) (A) (A) (A) (A) (A)
                 (A) (A) (A) (A) (A) (A) (A) (A) (A) (A) (A) (A)
                 (A) (A) (A)
 The electronic state is 1-A.
 Alpha  occ. eigenvalues --  -20.52740 -20.52158 -15.59368 -15.58850 -11.35112
 Alpha  occ. eigenvalues --  -11.34915 -11.28588 -11.26348 -11.23156 -11.22475
 Alpha  occ. eigenvalues --   -1.39871  -1.38900  -1.24349  -1.23603  -1.05984
 Alpha  occ. eigenvalues --   -0.99238  -0.95985  -0.89731  -0.80220  -0.77231
 Alpha  occ. eigenvalues --   -0.72798  -0.69299  -0.66388  -0.64775  -0.62618
 Alpha  occ. eigenvalues --   -0.62045  -0.59396  -0.58963  -0.56722  -0.56412
 Alpha  occ. eigenvalues --   -0.55654  -0.54321  -0.53550  -0.52171  -0.50959
 Alpha  occ. eigenvalues --   -0.43105  -0.41381  -0.39501  -0.38475
 Alpha virt. eigenvalues --    0.18926   0.20770   0.22070   0.23312   0.25675
 Alpha virt. eigenvalues --    0.27500   0.29340   0.29760   0.30529   0.31574
 Alpha virt. eigenvalues --    0.32919   0.33257   0.34246   0.35353   0.37208
 Alpha virt. eigenvalues --    0.39569   0.40593   0.43671   0.45153   0.50821
 Alpha virt. eigenvalues --    0.51781   0.59376   0.62442   0.69687   0.73846
 Alpha virt. eigenvalues --    0.73994   0.74879   0.75304   0.77895   0.79000
 Alpha virt. eigenvalues --    0.79869   0.82747   0.83331   0.86854   0.89020
 Alpha virt. eigenvalues --    0.92335   0.94375   0.95762   0.97765   0.98547
 Alpha virt. eigenvalues --    1.00574   1.03253   1.04293   1.07611   1.08409
 Alpha virt. eigenvalues --    1.10372   1.12825   1.14297   1.14476   1.15143
 Alpha virt. eigenvalues --    1.16743   1.16961   1.19248   1.20435   1.21217
 Alpha virt. eigenvalues --    1.21840   1.22614   1.23443   1.24682   1.27120
 Alpha virt. eigenvalues --    1.28766   1.34786   1.36183   1.37547   1.39737
 Alpha virt. eigenvalues --    1.45242   1.50430   1.53252   1.58095   1.60955
 Alpha virt. eigenvalues --    1.64897   1.69266   1.71640   1.76003   1.76908
 Alpha virt. eigenvalues --    1.79269   1.80641   1.84759   1.89768   1.94808
 Alpha virt. eigenvalues --    2.01218   2.05028   2.08421   2.11598   2.13164
 Alpha virt. eigenvalues --    2.14841   2.15434   2.18231   2.20307   2.22217
 Alpha virt. eigenvalues --    2.24577   2.26865   2.28940   2.31899   2.34672
 Alpha virt. eigenvalues --    2.36570   2.38506   2.40981   2.43301   2.50287
 Alpha virt. eigenvalues --    2.53411   2.56590   2.57777   2.59559   2.65190
 Alpha virt. eigenvalues --    2.66809   2.70267   2.73077   2.73723   2.76712
 Alpha virt. eigenvalues --    2.77153   2.81474   2.85264   2.92112   2.99589
 Alpha virt. eigenvalues --    3.01266   3.03006   3.09428   3.12126   3.26023
 Alpha virt. eigenvalues --    3.32304   3.37412   3.39982   3.54863   3.59651
 Alpha virt. eigenvalues --    4.36419   4.40214   4.49679   4.56022   4.63334
 Alpha virt. eigenvalues --    4.65933   4.74625   4.77502   4.91841   5.10900
          Condensed to atoms (all electrons):
              1          2          3          4          5          6
     1  H    0.465121   0.384685  -0.017629  -0.020862  -0.032258   0.003218
     2  C    0.384685   5.274095   0.374902   0.375669   0.374673  -0.072604
     3  H   -0.017629   0.374902   0.493881  -0.024264  -0.026426   0.000383
     4  H   -0.020862   0.375669  -0.024264   0.518683  -0.037065   0.002113
     5  C   -0.032258   0.374673  -0.026426  -0.037065   4.139345   0.614621
     6  O    0.003218  -0.072604   0.000383   0.002113   0.614621   8.156743
     7  N    0.004256  -0.125080   0.000552   0.005915   0.252075  -0.097656
     8  H    0.000070  -0.000672   0.000138   0.000240  -0.017758   0.002161
     9  C   -0.000062   0.003032  -0.000201   0.000178  -0.021301   0.002099
    10  H   -0.000002  -0.000165   0.000035   0.000005  -0.000544   0.000224
    11  C    0.000003   0.000054  -0.000001  -0.000015  -0.002183  -0.006645
    12  H    0.000000  -0.000064   0.000002   0.000000   0.000305  -0.000471
    13  H    0.000000   0.000010   0.000000   0.000000   0.000196   0.000665
    14  H    0.000001   0.000048  -0.000004   0.000000   0.000560   0.002752
    15  C    0.000003  -0.000177  -0.000003  -0.000001   0.002277  -0.000054
    16  O    0.000000  -0.000017   0.000000  -0.000004   0.000144  -0.000001
    17  N    0.000000   0.000000   0.000000   0.000000  -0.000122   0.000004
    18  H    0.000000  -0.000001   0.000000   0.000001  -0.000020  -0.000016
    19  C    0.000000   0.000000   0.000000   0.000000   0.000000   0.000000
    20  H    0.000000   0.000000   0.000000   0.000000   0.000000   0.000000
    21  H    0.000000   0.000000   0.000000   0.000000   0.000000   0.000000
    22  H    0.000000   0.000000   0.000000   0.000000   0.000001   0.000000
              7          8          9         10         11         12
     1  H    0.004256   0.000070  -0.000062  -0.000002   0.000003   0.000000
     2  C   -0.125080  -0.000672   0.003032  -0.000165   0.000054  -0.000064
     3  H    0.000552   0.000138  -0.000201   0.000035  -0.000001   0.000002
     4  H    0.005915   0.000240   0.000178   0.000005  -0.000015   0.000000
     5  C    0.252075  -0.017758  -0.021301  -0.000544  -0.002183   0.000305
     6  O   -0.097656   0.002161   0.002099   0.000224  -0.006645  -0.000471
     7  N    7.434180   0.317188   0.188998  -0.047164  -0.042543  -0.001401
     8  H    0.317188   0.312556  -0.030291   0.000458   0.003557  -0.000081
     9  C    0.188998  -0.030291   4.976981   0.414331   0.325603  -0.031445
    10  H   -0.047164   0.000458   0.414331   0.511212  -0.040141   0.004065
    11  C   -0.042543   0.003557   0.325603  -0.040141   5.159772   0.385153
    12  H   -0.001401  -0.000081  -0.031445   0.004065   0.385153   0.523027
    13  H    0.003834  -0.000062  -0.044506  -0.001381   0.382187  -0.029809
    14  H   -0.001829  -0.000136  -0.023820  -0.003724   0.391967  -0.021340
    15  C   -0.055078  -0.002992   0.394060  -0.050057  -0.045311  -0.004689
    16  O   -0.004308   0.011499  -0.077756   0.002386   0.002946  -0.000066
    17  N    0.002402   0.000611  -0.099305   0.003998  -0.002009   0.000042
    18  H    0.000503  -0.000078  -0.002682   0.000179   0.001285   0.003769
    19  C   -0.000255  -0.000032   0.004354  -0.000142  -0.000147  -0.000025
    20  H   -0.000009  -0.000006   0.000101   0.000016  -0.000022   0.000002
    21  H   -0.000001  -0.000001   0.000038   0.000002  -0.000027   0.000007
    22  H    0.000059   0.000025  -0.000320  -0.000007   0.000016  -0.000008
             13         14         15         16         17         18
     1  H    0.000000   0.000001   0.000003   0.000000   0.000000   0.000000
     2  C    0.000010   0.000048  -0.000177  -0.000017   0.000000  -0.000001
     3  H    0.000000  -0.000004  -0.000003   0.000000   0.000000   0.000000
     4  H    0.000000   0.000000  -0.000001  -0.000004   0.000000   0.000001
     5  C    0.000196   0.000560   0.002277   0.000144  -0.000122  -0.000020
     6  O    0.000665   0.002752  -0.000054  -0.000001   0.000004  -0.000016
     7  N    0.003834  -0.001829  -0.055078  -0.004308   0.002402   0.000503
     8  H   -0.000062  -0.000136  -0.002992   0.011499   0.000611  -0.000078
     9  C   -0.044506  -0.023820   0.394060  -0.077756  -0.099305  -0.002682
    10  H   -0.001381  -0.003724  -0.050057   0.002386   0.003998   0.000179
    11  C    0.382187   0.391967  -0.045311   0.002946  -0.002009   0.001285
    12  H   -0.029809  -0.021340  -0.004689  -0.000066   0.000042   0.003769
    13  H    0.548131  -0.022336  -0.001914   0.000036   0.000938  -0.000812
    14  H   -0.022336   0.448739   0.002978  -0.000052   0.000078   0.000035
    15  C   -0.001914   0.002978   4.197227   0.583382   0.285833  -0.017581
    16  O    0.000036  -0.000052   0.583382   8.200404  -0.107082   0.002448
    17  N    0.000938   0.000078   0.285833  -0.107082   7.315476   0.323839
    18  H   -0.000812   0.000035  -0.017581   0.002448   0.323839   0.310446
    19  C   -0.000108   0.000003  -0.030488   0.009532   0.196939  -0.022461
    20  H   -0.000014   0.000000  -0.003638   0.002746  -0.040845   0.002390
    21  H    0.000004   0.000000   0.004548   0.000417  -0.037154  -0.004250
    22  H    0.000004   0.000000  -0.002549   0.001662  -0.046096   0.001412
             19         20         21         22
     1  H    0.000000   0.000000   0.000000   0.000000
     2  C    0.000000   0.000000   0.000000   0.000000
     3  H    0.000000   0.000000   0.000000   0.000000
     4  H    0.000000   0.000000   0.000000   0.000000
     5  C    0.000000   0.000000   0.000000   0.000001
     6  O    0.000000   0.000000   0.000000   0.000000
     7  N   -0.000255  -0.000009  -0.000001   0.000059
     8  H   -0.000032  -0.000006  -0.000001   0.000025
     9  C    0.004354   0.000101   0.000038  -0.000320
    10  H   -0.000142   0.000016   0.000002  -0.000007
    11  C   -0.000147  -0.000022  -0.000027   0.000016
    12  H   -0.000025   0.000002   0.000007  -0.000008
    13  H   -0.000108  -0.000014   0.000004   0.000004
    14  H    0.000003   0.000000   0.000000   0.000000
    15  C   -0.030488  -0.003638   0.004548  -0.002549
    16  O    0.009532   0.002746   0.000417   0.001662
    17  N    0.196939  -0.040845  -0.037154  -0.046096
    18  H   -0.022461   0.002390  -0.004250   0.001412
    19  C    4.905711   0.405062   0.397019   0.405242
    20  H    0.405062   0.493546  -0.025902  -0.033554
    21  H    0.397019  -0.025902   0.525755  -0.030160
    22  H    0.405242  -0.033554  -0.030160   0.520762
 Mulliken atomic charges:
              1
     1  H    0.213458
     2  C   -0.588387
     3  H    0.198637
     4  H    0.179408
     5  C    0.753480
     6  O   -0.607534
     7  N   -0.834641
     8  H    0.403605
     9  C    0.021914
    10  H    0.206418
    11  C   -0.513497
    12  H    0.173026
    13  H    0.164938
    14  H    0.226082
    15  C    0.744227
    16  O   -0.628318
    17  N   -0.797548
    18  H    0.401594
    19  C   -0.270205
    20  H    0.200127
    21  H    0.169704
    22  H    0.183511
 Sum of Mulliken atomic charges =   0.00000
 Mulliken charges with hydrogens summed into heavy atoms:
              1
     2  C    0.003116
     5  C    0.753480
     6  O   -0.607534
     7  N   -0.431036
     9  C    0.228332
    11  C    0.050550
    15  C    0.744227
    16  O   -0.628318
    17  N   -0.395954
    19  C    0.283136
 Sum of Mulliken charges with hydrogens summed into heavy atoms =   0.00000
 Electronic spatial extent (au):  <R**2>=           1865.5218
 Charge=              0.0000 electrons
 Dipole moment (field-independent basis, Debye):
    X=             -1.4847    Y=             -0.2218    Z=             -1.5822  Tot=              2.1810
 Quadrupole moment (field-independent basis, Debye-Ang):
   XX=            -62.4534   YY=            -61.2241   ZZ=            -60.3654
   XY=            -12.7015   XZ=              8.4841   YZ=              3.5691
 Traceless Quadrupole moment (field-independent basis, Debye-Ang):
   XX=             -1.1058   YY=              0.1235   ZZ=              0.9823
   XY=            -12.7015   XZ=              8.4841   YZ=              3.5691
 Octapole moment (field-independent basis, Debye-Ang**2):
  XXX=            -29.6116  YYY=             -1.3098  ZZZ=             -3.5844  XYY=              1.7115
  XXY=            -19.0899  XXZ=            -10.6777  XZZ=              1.2438  YZZ=              5.5358
  YYZ=             -2.8791  XYZ=             -1.1817
 Hexadecapole moment (field-independent basis, Debye-Ang**3):
 XXXX=          -1660.9187 YYYY=           -459.9747 ZZZZ=           -234.2906 XXXY=            -55.9378
 XXXZ=             42.6750 YYYX=             -3.4496 YYYZ=              0.1823 ZZZX=              7.3925
 ZZZY=             -3.3576 XXYY=           -378.8262 XXZZ=           -313.6690 YYZZ=           -116.6460
 XXYZ=             15.1015 YYXZ=             15.1776 ZZXY=            -10.3479
 N-N= 5.562046214487D+02 E-N=-2.267675272277D+03  KE= 4.921182926037D+02
 1\1\GINC-RODAN\FOpt\RHF\6-31G(d)\C6H12N2O2\STEBOSS\10-Feb-2017\0\\# HF
 /6-31G* Opt=(ModRedundant) geom=nocrowd\\Phi Psi fixed scan\\0,1\H,1.5
 461731208,1.7098834036,-1.2837328158\C,1.8379567054,2.4163373716,-0.52
 04107748\H,1.7264217857,1.9411074679,0.4495857273\H,1.1846825964,3.280
 7412373,-0.5521316335\C,3.2947527534,2.7835065765,-0.7295526844\O,4.03
 96724383,2.0642688781,-1.3354953169\N,3.6487693681,3.9647352704,-0.162
 4118989\H,2.9651360834,4.4081034507,0.4110108911\C,4.9739104019,4.5687
 970828,-0.0434419856\H,5.3642566484,4.3694536472,0.9487863107\C,5.9975
 752238,4.0894915031,-1.0703104277\H,5.6273818807,4.1578696417,-2.08594
 17558\H,6.8944403045,4.6938009914,-0.9753258139\H,6.2566235199,3.05739
 45722,-0.9001452702\C,4.6949453553,6.0780049425,-0.0580046531\O,4.1766
 945435,6.5847623433,0.904499204\N,4.976498103,6.7699892442,-1.17340100
 81\H,5.335185056,6.2961985898,-1.9671725119\C,4.642354629,8.1741955126
 ,-1.29038536\H,5.0456629022,8.7262018274,-0.4531244831\H,5.0727571887,
 8.5563531718,-2.2061148657\H,3.5694493915,8.3249032738,-1.3136788737\\
 Version=EM64L-G09RevA.02\State=1-A\HF=-492.84743\RMSD=5.412e-09\RMSF=5
 .585e-04\Dipole=-0.0900252,0.6583415,-0.5429495\Quadrupole=5.7834631,-
 4.4475731,-1.33589,4.234601,-0.9916626,-9.4968353\PG=C01 [X(C6H12N2O2)
 ]\\@


 WOE UNTO THEM THAT CALL EVIL GOOD, AND GOOD EVIL      
 Job cpu time:  0 days  0 hours 39 minutes 16.5 seconds.
 File lengths (MBytes):  RWF=     25 Int=      0 D2E=      0 Chk=      3 Scr=      1
 Normal termination of Gaussian 09 at Fri Feb 10 03:35:43 2017.
