 Entering Gaussian System, Link 0=g09
 Initial command:
 /home/steboss/Software/g09/l1.exe /tmp/Gau-22810.inp -scrdir=/tmp/
 Entering Link 1 = /home/steboss/Software/g09/l1.exe PID=     22812.
  
 Copyright (c) 1988,1990,1992,1993,1995,1998,2003,2009, Gaussian, Inc.
                  All Rights Reserved.
  
 This is part of the Gaussian(R) 09 program.  It is based on
 the Gaussian(R) 03 system (copyright 2003, Gaussian, Inc.),
 the Gaussian(R) 98 system (copyright 1998, Gaussian, Inc.),
 the Gaussian(R) 94 system (copyright 1995, Gaussian, Inc.),
 the Gaussian 92(TM) system (copyright 1992, Gaussian, Inc.),
 the Gaussian 90(TM) system (copyright 1990, Gaussian, Inc.),
 the Gaussian 88(TM) system (copyright 1988, Gaussian, Inc.),
 the Gaussian 86(TM) system (copyright 1986, Carnegie Mellon
 University), and the Gaussian 82(TM) system (copyright 1983,
 Carnegie Mellon University). Gaussian is a federally registered
 trademark of Gaussian, Inc.
  
 This software contains proprietary and confidential information,
 including trade secrets, belonging to Gaussian, Inc.
  
 This software is provided under written license and may be
 used, copied, transmitted, or stored only in accord with that
 written license.
  
 The following legend is applicable only to US Government
 contracts under FAR:
  
                    RESTRICTED RIGHTS LEGEND
  
 Use, reproduction and disclosure by the US Government is
 subject to restrictions as set forth in subparagraphs (a)
 and (c) of the Commercial Computer Software - Restricted
 Rights clause in FAR 52.227-19.
  
 Gaussian, Inc.
 340 Quinnipiac St., Bldg. 40, Wallingford CT 06492
  
  
 ---------------------------------------------------------------
 Warning -- This program may not be used in any manner that
 competes with the business of Gaussian, Inc. or will provide
 assistance to any competitor of Gaussian, Inc.  The licensee
 of this program is prohibited from giving any competitor of
 Gaussian, Inc. access to this program.  By using this program,
 the user acknowledges that Gaussian, Inc. is engaged in the
 business of creating and licensing software in the field of
 computational chemistry and represents and warrants to the
 licensee that it is not a competitor of Gaussian, Inc. and that
 it will not use this program in any manner prohibited above.
 ---------------------------------------------------------------
  

 Cite this work as:
 Gaussian 09, Revision A.02,
 M. J. Frisch, G. W. Trucks, H. B. Schlegel, G. E. Scuseria, 
 M. A. Robb, J. R. Cheeseman, G. Scalmani, V. Barone, B. Mennucci, 
 G. A. Petersson, H. Nakatsuji, M. Caricato, X. Li, H. P. Hratchian, 
 A. F. Izmaylov, J. Bloino, G. Zheng, J. L. Sonnenberg, M. Hada, 
 M. Ehara, K. Toyota, R. Fukuda, J. Hasegawa, M. Ishida, T. Nakajima, 
 Y. Honda, O. Kitao, H. Nakai, T. Vreven, J. A. Montgomery, Jr., 
 J. E. Peralta, F. Ogliaro, M. Bearpark, J. J. Heyd, E. Brothers, 
 K. N. Kudin, V. N. Staroverov, R. Kobayashi, J. Normand, 
 K. Raghavachari, A. Rendell, J. C. Burant, S. S. Iyengar, J. Tomasi, 
 M. Cossi, N. Rega, J. M. Millam, M. Klene, J. E. Knox, J. B. Cross, 
 V. Bakken, C. Adamo, J. Jaramillo, R. Gomperts, R. E. Stratmann, 
 O. Yazyev, A. J. Austin, R. Cammi, C. Pomelli, J. W. Ochterski, 
 R. L. Martin, K. Morokuma, V. G. Zakrzewski, G. A. Voth, 
 P. Salvador, J. J. Dannenberg, S. Dapprich, A. D. Daniels, 
 O. Farkas, J. B. Foresman, J. V. Ortiz, J. Cioslowski, 
 and D. J. Fox, Gaussian, Inc., Wallingford CT, 2009.
 
 ******************************************
 Gaussian 09:  EM64L-G09RevA.02 11-Jun-2009
                10-Feb-2017 
 ******************************************
 %chk=structure_15.chk
 %NProcShared=8
 Will use up to    8 processors via shared memory.
 -------------------------------------------
 # HF/6-31G* Opt=(ModRedundant) geom=nocrowd
 -------------------------------------------
 1/18=120,19=15,38=1/1,3;
 2/9=110,12=1,17=6,18=5,40=1/2;
 3/5=1,6=6,7=1,11=9,16=1,25=1,30=1,71=1/1,2,3;
 4//1;
 5/5=2,38=5/2;
 6/7=2,8=2,9=2,10=2,28=1/1;
 7//1,2,3,16;
 1/18=20,19=15/3(2);
 2/9=110,12=1/2;
 99//99;
 2/9=110,12=1/2;
 3/5=1,6=6,7=1,11=9,16=1,25=1,30=1,71=1/1,2,3;
 4/5=5,16=3/1;
 5/5=2,38=5/2;
 7//1,2,3,16;
 1/18=20,19=15/3(-5);
 2/9=110,12=1/2;
 6/7=2,8=2,9=2,10=2,19=2,28=1/1;
 99/9=1/99;
 ------------------
 Phi Psi fixed scan
 ------------------
 Symbolic Z-matrix:
 Charge =  0 Multiplicity = 1
 H                     1.8827    1.2362   -0.9842 
 C                     1.9409    2.209    -0.496 
 H                     1.658     2.1079    0.5517 
 H                     1.2624    2.9049   -0.9895 
 C                     3.3599    2.7768   -0.5667 
 O                     4.2568    2.1469   -1.1227 
 N                     3.5554    3.9697    0. 
 H                     2.7862    4.4492    0.4455 
 C                     4.8533    4.6139    0. 
 H                     5.4076    4.3155    0.8898 
 C                     5.6613    4.2208   -1.2322 
 H                     5.1233    4.5214   -2.1312 
 H                     6.6305    4.7189   -1.2058 
 H                     5.8085    3.1409   -1.2414 
 C                     4.7127    6.1294    0. 
 O                     5.6735    6.845    -0.2741 
 N                     3.5094    6.6181    0.309 
 H                     2.7497    5.9893    0.5272 
 C                     3.2474    8.0428    0.3436 
 H                     4.1568    8.5863    0.0875 
 H                     2.4646    8.2864   -0.3748 
 H                     2.9233    8.3289    1.3442 
 
 The following ModRedundant input section has been read:
 D    5    7    9   15 F                                                       
 D    7    9   15   17 F                                                       

 GradGradGradGradGradGradGradGradGradGradGradGradGradGradGradGradGradGrad
 Berny optimization.
 Initialization pass.
                           ----------------------------
                           !    Initial Parameters    !
                           ! (Angstroms and Degrees)  !
 --------------------------                            --------------------------
 ! Name  Definition              Value          Derivative Info.                !
 --------------------------------------------------------------------------------
 ! R1    R(1,2)                  1.09           estimate D2E/DX2                !
 ! R2    R(2,3)                  1.0899         estimate D2E/DX2                !
 ! R3    R(2,4)                  1.09           estimate D2E/DX2                !
 ! R4    R(2,5)                  1.53           estimate D2E/DX2                !
 ! R5    R(5,6)                  1.229          estimate D2E/DX2                !
 ! R6    R(5,7)                  1.3351         estimate D2E/DX2                !
 ! R7    R(7,8)                  1.01           estimate D2E/DX2                !
 ! R8    R(7,9)                  1.449          estimate D2E/DX2                !
 ! R9    R(9,10)                 1.09           estimate D2E/DX2                !
 ! R10   R(9,11)                 1.525          estimate D2E/DX2                !
 ! R11   R(9,15)                 1.522          estimate D2E/DX2                !
 ! R12   R(11,12)                1.09           estimate D2E/DX2                !
 ! R13   R(11,13)                1.09           estimate D2E/DX2                !
 ! R14   R(11,14)                1.0899         estimate D2E/DX2                !
 ! R15   R(15,16)                1.229          estimate D2E/DX2                !
 ! R16   R(15,17)                1.335          estimate D2E/DX2                !
 ! R17   R(17,18)                1.01           estimate D2E/DX2                !
 ! R18   R(17,19)                1.449          estimate D2E/DX2                !
 ! R19   R(19,20)                1.0899         estimate D2E/DX2                !
 ! R20   R(19,21)                1.0901         estimate D2E/DX2                !
 ! R21   R(19,22)                1.09           estimate D2E/DX2                !
 ! A1    A(1,2,3)              109.5057         estimate D2E/DX2                !
 ! A2    A(1,2,4)              109.4976         estimate D2E/DX2                !
 ! A3    A(1,2,5)              111.1022         estimate D2E/DX2                !
 ! A4    A(3,2,4)              109.442          estimate D2E/DX2                !
 ! A5    A(3,2,5)              108.6368         estimate D2E/DX2                !
 ! A6    A(4,2,5)              108.6296         estimate D2E/DX2                !
 ! A7    A(2,5,6)              120.5005         estimate D2E/DX2                !
 ! A8    A(2,5,7)              116.6018         estimate D2E/DX2                !
 ! A9    A(6,5,7)              122.8977         estimate D2E/DX2                !
 ! A10   A(5,7,8)              119.9947         estimate D2E/DX2                !
 ! A11   A(5,7,9)              121.8985         estimate D2E/DX2                !
 ! A12   A(8,7,9)              118.1068         estimate D2E/DX2                !
 ! A13   A(7,9,10)             109.5            estimate D2E/DX2                !
 ! A14   A(7,9,11)             111.0992         estimate D2E/DX2                !
 ! A15   A(7,9,15)             111.0966         estimate D2E/DX2                !
 ! A16   A(10,9,11)            108.6382         estimate D2E/DX2                !
 ! A17   A(10,9,15)            108.6373         estimate D2E/DX2                !
 ! A18   A(11,9,15)            107.7947         estimate D2E/DX2                !
 ! A19   A(9,11,12)            109.5007         estimate D2E/DX2                !
 ! A20   A(9,11,13)            109.4959         estimate D2E/DX2                !
 ! A21   A(9,11,14)            109.4978         estimate D2E/DX2                !
 ! A22   A(12,11,13)           109.441          estimate D2E/DX2                !
 ! A23   A(12,11,14)           109.4482         estimate D2E/DX2                !
 ! A24   A(13,11,14)           109.4436         estimate D2E/DX2                !
 ! A25   A(9,15,16)            120.502          estimate D2E/DX2                !
 ! A26   A(9,15,17)            116.6004         estimate D2E/DX2                !
 ! A27   A(16,15,17)           122.8976         estimate D2E/DX2                !
 ! A28   A(15,17,18)           120.0041         estimate D2E/DX2                !
 ! A29   A(15,17,19)           121.8993         estimate D2E/DX2                !
 ! A30   A(18,17,19)           118.0965         estimate D2E/DX2                !
 ! A31   A(17,19,20)           109.5002         estimate D2E/DX2                !
 ! A32   A(17,19,21)           109.5019         estimate D2E/DX2                !
 ! A33   A(17,19,22)           109.4971         estimate D2E/DX2                !
 ! A34   A(20,19,21)           109.4439         estimate D2E/DX2                !
 ! A35   A(20,19,22)           109.4447         estimate D2E/DX2                !
 ! A36   A(21,19,22)           109.4395         estimate D2E/DX2                !
 ! D1    D(1,2,5,6)             -0.0047         estimate D2E/DX2                !
 ! D2    D(1,2,5,7)            179.9966         estimate D2E/DX2                !
 ! D3    D(3,2,5,6)            120.5165         estimate D2E/DX2                !
 ! D4    D(3,2,5,7)            -59.4823         estimate D2E/DX2                !
 ! D5    D(4,2,5,6)           -120.5112         estimate D2E/DX2                !
 ! D6    D(4,2,5,7)             59.4901         estimate D2E/DX2                !
 ! D7    D(2,5,7,8)              0.0022         estimate D2E/DX2                !
 ! D8    D(2,5,7,9)            179.9961         estimate D2E/DX2                !
 ! D9    D(6,5,7,8)           -179.9965         estimate D2E/DX2                !
 ! D10   D(6,5,7,9)             -0.0027         estimate D2E/DX2                !
 ! D11   D(5,7,9,10)           -89.9989         estimate D2E/DX2                !
 ! D12   D(5,7,9,11)            30.0037         estimate D2E/DX2                !
 ! D13   D(5,7,9,15)           150.0013         Frozen                          !
 ! D14   D(8,7,9,10)            89.9951         estimate D2E/DX2                !
 ! D15   D(8,7,9,11)          -150.0023         estimate D2E/DX2                !
 ! D16   D(8,7,9,15)           -30.0047         estimate D2E/DX2                !
 ! D17   D(7,9,11,12)           60.0024         estimate D2E/DX2                !
 ! D18   D(7,9,11,13)          179.9986         estimate D2E/DX2                !
 ! D19   D(7,9,11,14)          -60.0038         estimate D2E/DX2                !
 ! D20   D(10,9,11,12)        -179.4843         estimate D2E/DX2                !
 ! D21   D(10,9,11,13)         -59.4881         estimate D2E/DX2                !
 ! D22   D(10,9,11,14)          60.5095         estimate D2E/DX2                !
 ! D23   D(15,9,11,12)         -61.938          estimate D2E/DX2                !
 ! D24   D(15,9,11,13)          58.0582         estimate D2E/DX2                !
 ! D25   D(15,9,11,14)         178.0558         estimate D2E/DX2                !
 ! D26   D(7,9,15,16)         -164.9978         estimate D2E/DX2                !
 ! D27   D(7,9,15,17)           15.0024         Frozen                          !
 ! D28   D(10,9,15,16)          74.4911         estimate D2E/DX2                !
 ! D29   D(10,9,15,17)        -105.5087         estimate D2E/DX2                !
 ! D30   D(11,9,15,16)         -43.0558         estimate D2E/DX2                !
 ! D31   D(11,9,15,17)         136.9444         estimate D2E/DX2                !
 ! D32   D(9,15,17,18)          -0.0058         estimate D2E/DX2                !
 ! D33   D(9,15,17,19)        -179.9981         estimate D2E/DX2                !
 ! D34   D(16,15,17,18)        179.9944         estimate D2E/DX2                !
 ! D35   D(16,15,17,19)          0.0022         estimate D2E/DX2                !
 ! D36   D(15,17,19,20)         -0.0031         estimate D2E/DX2                !
 ! D37   D(15,17,19,21)        120.0            estimate D2E/DX2                !
 ! D38   D(15,17,19,22)       -120.0042         estimate D2E/DX2                !
 ! D39   D(18,17,19,20)       -179.9955         estimate D2E/DX2                !
 ! D40   D(18,17,19,21)        -59.9924         estimate D2E/DX2                !
 ! D41   D(18,17,19,22)         60.0034         estimate D2E/DX2                !
 --------------------------------------------------------------------------------
 Trust Radius=3.00D-01 FncErr=1.00D-07 GrdErr=1.00D-07
 Number of steps in this run= 108 maximum allowed number of steps= 132.
 GradGradGradGradGradGradGradGradGradGradGradGradGradGradGradGradGradGrad

                          Input orientation:                          
 ---------------------------------------------------------------------
 Center     Atomic      Atomic             Coordinates (Angstroms)
 Number     Number       Type             X           Y           Z
 ---------------------------------------------------------------------
      1          1           0        1.882700    1.236200   -0.984200
      2          6           0        1.940900    2.209000   -0.496000
      3          1           0        1.658000    2.107900    0.551700
      4          1           0        1.262400    2.904900   -0.989500
      5          6           0        3.359900    2.776800   -0.566700
      6          8           0        4.256800    2.146900   -1.122700
      7          7           0        3.555400    3.969700    0.000000
      8          1           0        2.786200    4.449200    0.445500
      9          6           0        4.853300    4.613900    0.000000
     10          1           0        5.407600    4.315500    0.889800
     11          6           0        5.661300    4.220800   -1.232200
     12          1           0        5.123300    4.521400   -2.131200
     13          1           0        6.630500    4.718900   -1.205800
     14          1           0        5.808500    3.140900   -1.241400
     15          6           0        4.712700    6.129400    0.000000
     16          8           0        5.673500    6.845000   -0.274100
     17          7           0        3.509400    6.618100    0.309000
     18          1           0        2.749700    5.989300    0.527200
     19          6           0        3.247400    8.042800    0.343600
     20          1           0        4.156800    8.586300    0.087500
     21          1           0        2.464600    8.286400   -0.374800
     22          1           0        2.923300    8.328900    1.344200
 ---------------------------------------------------------------------
                    Distance matrix (angstroms):
                    1          2          3          4          5
     1  H    0.000000
     2  C    1.089985   0.000000
     3  H    1.780264   1.089922   0.000000
     4  H    1.780270   1.090037   1.779608   0.000000
     5  C    2.174827   1.530018   2.143527   2.143519   0.000000
     6  O    2.546548   2.400000   3.091747   3.091721   1.228959
     7  N    3.352402   2.439814   2.714922   2.714914   1.335058
     8  H    3.630940   2.572829   2.601115   2.601164   2.037303
     9  C    4.604560   3.809414   4.098091   4.098092   2.434405
    10  H    5.041714   4.286700   4.364322   4.764897   2.946534
    11  C    4.821531   4.293100   4.865497   4.597914   2.797225
    12  H    4.754959   4.260134   5.003123   4.338560   2.932724
    13  H    5.892360   5.366168   5.884886   5.670439   3.857075
    14  H    4.371034   4.047516   4.637774   4.559186   2.565820
    15  C    5.737679   4.826844   5.080160   4.825047   3.659391
    16  O    6.806838   5.956009   6.264687   5.957683   4.689202
    17  N    5.769174   4.748513   4.881443   4.530228   3.942688
    18  H    5.062408   3.998970   4.032081   3.745125   3.448060
    19  C    7.067904   6.036977   6.147563   5.667045   5.345284
    20  H    7.768143   6.776477   6.959106   6.466513   5.900281
    21  H    7.100373   6.101126   6.299434   5.548305   5.585166
    22  H    7.537287   6.465649   6.397647   6.133883   5.887951
                    6          7          8          9         10
     6  O    0.000000
     7  N    2.252780   0.000000
     8  H    3.150000   1.009980   0.000000
     9  C    2.775312   1.448978   2.120966   0.000000
    10  H    3.174480   2.083739   2.662145   1.089970   0.000000
    11  C    2.507124   2.452791   3.336622   1.525027   2.139209
    12  H    2.721423   2.702720   3.479459   2.150225   3.041326
    13  H    3.500934   3.386959   4.192633   2.150214   2.459625
    14  H    1.846591   2.702673   3.700213   2.150165   2.466256
    15  C    4.162764   2.450234   2.594792   1.522008   2.136554
    16  O    4.979890   3.581735   3.820233   2.392836   2.797094
    17  N    4.753946   2.666762   2.290366   2.432769   3.040141
    18  H    4.444947   2.237382   1.542697   2.568034   3.161885
    19  C    6.158779   4.099155   3.624507   3.801885   4.342530
    20  H    6.552897   4.656429   4.372906   4.033947   4.521937
    21  H    6.439316   4.468134   3.937058   4.397001   5.101814
    22  H    6.788294   4.605328   3.984787   4.396931   4.741899
                   11         12         13         14         15
    11  C    0.000000
    12  H    1.089957   0.000000
    13  H    1.090023   1.779613   0.000000
    14  H    1.089925   1.779613   1.779617   0.000000
    15  C    2.461892   2.701161   2.668599   3.416575   0.000000
    16  O    2.793659   3.025005   2.510820   3.830699   1.228963
    17  N    3.571137   3.599361   3.955104   4.447530   1.335005
    18  H    3.834122   3.854322   4.435968   4.538456   2.037385
    19  C    4.787248   4.695093   4.989421   5.753267   2.434392
    20  H    4.802366   4.730768   4.769549   5.843498   2.520523
    21  H    5.242435   4.932429   5.547282   6.197486   3.138005
    22  H    5.568749   5.604950   5.768703   6.474956   3.137933
                   16         17         18         19         20
    16  O    0.000000
    17  N    2.252736   0.000000
    18  H    3.150065   1.010022   0.000000
    19  C    2.775291   1.449004   2.120914   0.000000
    20  H    2.337362   2.083747   2.986248   1.089949   0.000000
    21  H    3.519206   2.083846   2.484261   1.090053   1.779663
    22  H    3.519155   2.083744   2.484221   1.089997   1.779627
                   21         22
    21  H    0.000000
    22  H    1.779655   0.000000
 Stoichiometry    C6H12N2O2
 Framework group  C1[X(C6H12N2O2)]
 Deg. of freedom    60
 Full point group                 C1      NOp   1
 Largest Abelian subgroup         C1      NOp   1
 Largest concise Abelian subgroup C1      NOp   1
                         Standard orientation:                         
 ---------------------------------------------------------------------
 Center     Atomic      Atomic             Coordinates (Angstroms)
 Number     Number       Type             X           Y           Z
 ---------------------------------------------------------------------
      1          1           0       -3.947947   -1.362189    0.411843
      2          6           0       -2.913286   -1.577805    0.145282
      3          1           0       -2.886743   -2.126033   -0.796349
      4          1           0       -2.453659   -2.180179    0.928908
      5          6           0       -2.105999   -0.288243   -0.016813
      6          8           0       -2.638701    0.806429    0.151300
      7          7           0       -0.819029   -0.425765   -0.344190
      8          1           0       -0.426205   -1.347427   -0.471810
      9          6           0        0.051077    0.718410   -0.526713
     10          1           0        0.019507    1.036976   -1.568612
     11          6           0       -0.384618    1.885334    0.353154
     12          1           0       -0.349381    1.584527    1.400187
     13          1           0        0.286101    2.729997    0.195577
     14          1           0       -1.402229    2.176712    0.093340
     15          6           0        1.489536    0.375794   -0.166216
     16          8           0        2.317835    1.266631    0.008944
     17          7           0        1.785338   -0.921315   -0.055537
     18          1           0        1.069766   -1.617420   -0.208960
     19          6           0        3.118764   -1.376429    0.282778
     20          1           0        3.773939   -0.515725    0.416653
     21          1           0        3.082970   -1.952517    1.207470
     22          1           0        3.503808   -2.004017   -0.520944
 ---------------------------------------------------------------------
 Rotational constants (GHZ):      2.3956687      0.7916778      0.6195515
 Standard basis: 6-31G(d) (6D, 7F)
 There are   174 symmetry adapted basis functions of A   symmetry.
 Integral buffers will be    131072 words long.
 Raffenetti 1 integral format.
 Two-electron integral symmetry is turned on.
   174 basis functions,   328 primitive gaussians,   174 cartesian basis functions
    39 alpha electrons       39 beta electrons
       nuclear repulsion energy       561.1404228877 Hartrees.
 NAtoms=   22 NActive=   22 NUniq=   22 SFac= 7.50D-01 NAtFMM=   80 NAOKFM=F Big=F
 One-electron integrals computed using PRISM.
 NBasis=   174 RedAO= T  NBF=   174
 NBsUse=   174 1.00D-06 NBFU=   174
 Harris functional with IExCor=  205 diagonalized for initial guess.
 ExpMin= 1.61D-01 ExpMax= 5.48D+03 ExpMxC= 8.25D+02 IAcc=1 IRadAn=         1 AccDes= 0.00D+00
 HarFok:  IExCor=  205 AccDes= 0.00D+00 IRadAn=         1 IDoV= 1
 ScaDFX=  1.000000  1.000000  1.000000  1.000000
 FoFCou: FMM=F IPFlag=           0 FMFlag=      100000 FMFlg1=           0
         NFxFlg=           0 DoJE=T BraDBF=F KetDBF=T FulRan=T
         Omega=  0.000000  0.000000  1.000000  0.000000  0.000000 ICntrl=     500 IOpCl=  0
         NMat0=    1 NMatS0=    1 NMatT0=    0 NMatD0=    1 NMtDS0=    0 NMtDT0=    0
         I1Cent=           4 NGrid=           0.
 Petite list used in FoFCou.
 Initial guess orbital symmetries:
       Occupied  (A) (A) (A) (A) (A) (A) (A) (A) (A) (A) (A) (A)
                 (A) (A) (A) (A) (A) (A) (A) (A) (A) (A) (A) (A)
                 (A) (A) (A) (A) (A) (A) (A) (A) (A) (A) (A) (A)
                 (A) (A) (A)
       Virtual   (A) (A) (A) (A) (A) (A) (A) (A) (A) (A) (A) (A)
                 (A) (A) (A) (A) (A) (A) (A) (A) (A) (A) (A) (A)
                 (A) (A) (A) (A) (A) (A) (A) (A) (A) (A) (A) (A)
                 (A) (A) (A) (A) (A) (A) (A) (A) (A) (A) (A) (A)
                 (A) (A) (A) (A) (A) (A) (A) (A) (A) (A) (A) (A)
                 (A) (A) (A) (A) (A) (A) (A) (A) (A) (A) (A) (A)
                 (A) (A) (A) (A) (A) (A) (A) (A) (A) (A) (A) (A)
                 (A) (A) (A) (A) (A) (A) (A) (A) (A) (A) (A) (A)
                 (A) (A) (A) (A) (A) (A) (A) (A) (A) (A) (A) (A)
                 (A) (A) (A) (A) (A) (A) (A) (A) (A) (A) (A) (A)
                 (A) (A) (A) (A) (A) (A) (A) (A) (A) (A) (A) (A)
                 (A) (A) (A)
 The electronic state of the initial guess is 1-A.
 Requested convergence on RMS density matrix=1.00D-08 within 128 cycles.
 Requested convergence on MAX density matrix=1.00D-06.
 Requested convergence on             energy=1.00D-06.
 No special actions if energy rises.
 Integral accuracy reduced to 1.0D-05 until final iterations.
 Initial convergence to 1.0D-05 achieved.  Increase integral accuracy.
 SCF Done:  E(RHF) =  -492.813964022     A.U. after   15 cycles
             Convg  =    0.5898D-08             -V/T =  2.0017

 **********************************************************************

            Population analysis using the SCF density.

 **********************************************************************

 Orbital symmetries:
       Occupied  (A) (A) (A) (A) (A) (A) (A) (A) (A) (A) (A) (A)
                 (A) (A) (A) (A) (A) (A) (A) (A) (A) (A) (A) (A)
                 (A) (A) (A) (A) (A) (A) (A) (A) (A) (A) (A) (A)
                 (A) (A) (A)
       Virtual   (A) (A) (A) (A) (A) (A) (A) (A) (A) (A) (A) (A)
                 (A) (A) (A) (A) (A) (A) (A) (A) (A) (A) (A) (A)
                 (A) (A) (A) (A) (A) (A) (A) (A) (A) (A) (A) (A)
                 (A) (A) (A) (A) (A) (A) (A) (A) (A) (A) (A) (A)
                 (A) (A) (A) (A) (A) (A) (A) (A) (A) (A) (A) (A)
                 (A) (A) (A) (A) (A) (A) (A) (A) (A) (A) (A) (A)
                 (A) (A) (A) (A) (A) (A) (A) (A) (A) (A) (A) (A)
                 (A) (A) (A) (A) (A) (A) (A) (A) (A) (A) (A) (A)
                 (A) (A) (A) (A) (A) (A) (A) (A) (A) (A) (A) (A)
                 (A) (A) (A) (A) (A) (A) (A) (A) (A) (A) (A) (A)
                 (A) (A) (A) (A) (A) (A) (A) (A) (A) (A) (A) (A)
                 (A) (A) (A)
 The electronic state is 1-A.
 Alpha  occ. eigenvalues --  -20.52141 -20.52045 -15.60811 -15.60646 -11.36170
 Alpha  occ. eigenvalues --  -11.35392 -11.28269 -11.26892 -11.24639 -11.19191
 Alpha  occ. eigenvalues --   -1.38834  -1.37786  -1.26547  -1.23605  -1.05908
 Alpha  occ. eigenvalues --   -0.99209  -0.96969  -0.87562  -0.82864  -0.77932
 Alpha  occ. eigenvalues --   -0.74652  -0.68911  -0.66988  -0.64635  -0.63079
 Alpha  occ. eigenvalues --   -0.62151  -0.59920  -0.58245  -0.57109  -0.56199
 Alpha  occ. eigenvalues --   -0.54365  -0.54055  -0.51473  -0.51077  -0.49787
 Alpha  occ. eigenvalues --   -0.42821  -0.40541  -0.39572  -0.38908
 Alpha virt. eigenvalues --    0.17202   0.18649   0.20009   0.24300   0.25840
 Alpha virt. eigenvalues --    0.27946   0.29156   0.30520   0.31082   0.31670
 Alpha virt. eigenvalues --    0.32068   0.33701   0.34932   0.36273   0.38212
 Alpha virt. eigenvalues --    0.39268   0.43100   0.43877   0.47228   0.48610
 Alpha virt. eigenvalues --    0.55176   0.59253   0.64380   0.71018   0.72027
 Alpha virt. eigenvalues --    0.73496   0.74211   0.76814   0.77717   0.80082
 Alpha virt. eigenvalues --    0.80571   0.81686   0.83148   0.88112   0.89204
 Alpha virt. eigenvalues --    0.92188   0.92815   0.94877   0.96830   0.97938
 Alpha virt. eigenvalues --    1.00476   1.01341   1.03499   1.05381   1.08843
 Alpha virt. eigenvalues --    1.10234   1.12950   1.13552   1.14114   1.14864
 Alpha virt. eigenvalues --    1.15879   1.16714   1.18284   1.20384   1.21278
 Alpha virt. eigenvalues --    1.21532   1.22123   1.24035   1.27623   1.29927
 Alpha virt. eigenvalues --    1.31794   1.33503   1.38472   1.40083   1.46419
 Alpha virt. eigenvalues --    1.48742   1.52996   1.56378   1.58743   1.60608
 Alpha virt. eigenvalues --    1.63158   1.65657   1.68436   1.73349   1.73696
 Alpha virt. eigenvalues --    1.77813   1.81726   1.88788   1.91974   1.94197
 Alpha virt. eigenvalues --    2.02496   2.05631   2.08717   2.10879   2.13004
 Alpha virt. eigenvalues --    2.13925   2.15256   2.17145   2.20609   2.21849
 Alpha virt. eigenvalues --    2.23148   2.25450   2.31504   2.32026   2.35128
 Alpha virt. eigenvalues --    2.37704   2.37979   2.42029   2.45702   2.51587
 Alpha virt. eigenvalues --    2.51696   2.58386   2.60319   2.62831   2.63572
 Alpha virt. eigenvalues --    2.64903   2.66468   2.70689   2.71861   2.74393
 Alpha virt. eigenvalues --    2.76036   2.82258   2.85588   2.88916   2.99567
 Alpha virt. eigenvalues --    3.01697   3.04134   3.06496   3.10922   3.21861
 Alpha virt. eigenvalues --    3.30342   3.34494   3.42009   3.51390   3.60248
 Alpha virt. eigenvalues --    4.36331   4.44149   4.48730   4.56926   4.61837
 Alpha virt. eigenvalues --    4.63575   4.68846   4.80526   4.89901   5.12090
          Condensed to atoms (all electrons):
              1          2          3          4          5          6
     1  H    0.446252   0.385652  -0.017914  -0.017757  -0.029625   0.003665
     2  C    0.385652   5.253688   0.373891   0.373737   0.378242  -0.064523
     3  H   -0.017914   0.373891   0.515565  -0.024834  -0.035510   0.001118
     4  H   -0.017757   0.373737  -0.024834   0.518779  -0.037000   0.001120
     5  C   -0.029625   0.378242  -0.035510  -0.037000   4.180306   0.587278
     6  O    0.003665  -0.064523   0.001118   0.001120   0.587278   8.257462
     7  N    0.003848  -0.122816   0.003877   0.004334   0.242634  -0.102397
     8  H   -0.000016  -0.000401   0.000788   0.000372  -0.019264   0.002391
     9  C   -0.000047   0.002421  -0.000186   0.000014  -0.025095   0.006918
    10  H    0.000002  -0.000126   0.000012   0.000001  -0.001473   0.000459
    11  C    0.000008  -0.000576   0.000016   0.000000  -0.006059  -0.053318
    12  H    0.000002  -0.000124   0.000000   0.000011   0.000543  -0.001992
    13  H    0.000000   0.000016   0.000000  -0.000001   0.000495   0.001911
    14  H    0.000009   0.000136  -0.000013   0.000003  -0.003971  -0.010746
    15  C    0.000000   0.000014  -0.000007   0.000010   0.001734   0.000208
    16  O    0.000000   0.000000   0.000000   0.000000  -0.000054  -0.000001
    17  N    0.000000  -0.000057   0.000002   0.000001   0.000205  -0.000005
    18  H   -0.000001   0.000025  -0.000021   0.000023   0.000404   0.000002
    19  C    0.000000   0.000000   0.000000   0.000000   0.000004   0.000000
    20  H    0.000000   0.000000   0.000000   0.000000   0.000001   0.000000
    21  H    0.000000   0.000000   0.000000   0.000000   0.000000   0.000000
    22  H    0.000000   0.000000   0.000000   0.000000   0.000000   0.000000
              7          8          9         10         11         12
     1  H    0.003848  -0.000016  -0.000047   0.000002   0.000008   0.000002
     2  C   -0.122816  -0.000401   0.002421  -0.000126  -0.000576  -0.000124
     3  H    0.003877   0.000788  -0.000186   0.000012   0.000016   0.000000
     4  H    0.004334   0.000372   0.000014   0.000001   0.000000   0.000011
     5  C    0.242634  -0.019264  -0.025095  -0.001473  -0.006059   0.000543
     6  O   -0.102397   0.002391   0.006918   0.000459  -0.053318  -0.001992
     7  N    7.524566   0.314007   0.113042  -0.049667  -0.050037   0.000448
     8  H    0.314007   0.339225  -0.023709   0.000943   0.003718  -0.000059
     9  C    0.113042  -0.023709   5.095269   0.406284   0.348692  -0.044891
    10  H   -0.049667   0.000943   0.406284   0.497093  -0.035322   0.004347
    11  C   -0.050037   0.003718   0.348692  -0.035322   5.193516   0.392697
    12  H    0.000448  -0.000059  -0.044891   0.004347   0.392697   0.538295
    13  H    0.003863  -0.000082  -0.031242  -0.000793   0.377108  -0.020886
    14  H   -0.001065  -0.000232  -0.033606  -0.002182   0.397456  -0.019103
    15  C   -0.036968  -0.007757   0.379904  -0.035267  -0.052900  -0.005377
    16  O    0.002349   0.000001  -0.076837   0.001086  -0.002230   0.000264
    17  N   -0.011544   0.003041  -0.110348   0.000198   0.001124   0.000300
    18  H    0.000035   0.009359  -0.000548   0.000316  -0.000008   0.000000
    19  C    0.000042  -0.000133   0.004171  -0.000121  -0.000124  -0.000028
    20  H   -0.000042  -0.000009   0.000632  -0.000017  -0.000014  -0.000004
    21  H   -0.000002   0.000040  -0.000053  -0.000002   0.000015  -0.000001
    22  H   -0.000001  -0.000015  -0.000107   0.000016  -0.000003   0.000000
             13         14         15         16         17         18
     1  H    0.000000   0.000009   0.000000   0.000000   0.000000  -0.000001
     2  C    0.000016   0.000136   0.000014   0.000000  -0.000057   0.000025
     3  H    0.000000  -0.000013  -0.000007   0.000000   0.000002  -0.000021
     4  H   -0.000001   0.000003   0.000010   0.000000   0.000001   0.000023
     5  C    0.000495  -0.003971   0.001734  -0.000054   0.000205   0.000404
     6  O    0.001911  -0.010746   0.000208  -0.000001  -0.000005   0.000002
     7  N    0.003863  -0.001065  -0.036968   0.002349  -0.011544   0.000035
     8  H   -0.000082  -0.000232  -0.007757   0.000001   0.003041   0.009359
     9  C   -0.031242  -0.033606   0.379904  -0.076837  -0.110348  -0.000548
    10  H   -0.000793  -0.002182  -0.035267   0.001086   0.000198   0.000316
    11  C    0.377108   0.397456  -0.052900  -0.002230   0.001124  -0.000008
    12  H   -0.020886  -0.019103  -0.005377   0.000264   0.000300   0.000000
    13  H    0.502059  -0.023272  -0.007265   0.005888   0.000321  -0.000016
    14  H   -0.023272   0.429724   0.004728   0.000274  -0.000049  -0.000003
    15  C   -0.007265   0.004728   4.123436   0.586568   0.298050  -0.020762
    16  O    0.005888   0.000274   0.586568   8.210025  -0.094758   0.002575
    17  N    0.000321  -0.000049   0.298050  -0.094758   7.352693   0.316403
    18  H   -0.000016  -0.000003  -0.020762   0.002575   0.316403   0.341404
    19  C   -0.000005   0.000002  -0.024986  -0.004736   0.180287  -0.022129
    20  H   -0.000003   0.000000  -0.002109   0.010872  -0.031292   0.002363
    21  H    0.000000   0.000000   0.000979   0.000367  -0.047749  -0.000965
    22  H    0.000000   0.000000   0.000759   0.000346  -0.047200  -0.001161
             19         20         21         22
     1  H    0.000000   0.000000   0.000000   0.000000
     2  C    0.000000   0.000000   0.000000   0.000000
     3  H    0.000000   0.000000   0.000000   0.000000
     4  H    0.000000   0.000000   0.000000   0.000000
     5  C    0.000004   0.000001   0.000000   0.000000
     6  O    0.000000   0.000000   0.000000   0.000000
     7  N    0.000042  -0.000042  -0.000002  -0.000001
     8  H   -0.000133  -0.000009   0.000040  -0.000015
     9  C    0.004171   0.000632  -0.000053  -0.000107
    10  H   -0.000121  -0.000017  -0.000002   0.000016
    11  C   -0.000124  -0.000014   0.000015  -0.000003
    12  H   -0.000028  -0.000004  -0.000001   0.000000
    13  H   -0.000005  -0.000003   0.000000   0.000000
    14  H    0.000002   0.000000   0.000000   0.000000
    15  C   -0.024986  -0.002109   0.000979   0.000759
    16  O   -0.004736   0.010872   0.000367   0.000346
    17  N    0.180287  -0.031292  -0.047749  -0.047200
    18  H   -0.022129   0.002363  -0.000965  -0.001161
    19  C    4.957254   0.396498   0.402860   0.402561
    20  H    0.396498   0.423113  -0.022100  -0.021816
    21  H    0.402860  -0.022100   0.530918  -0.036457
    22  H    0.402561  -0.021816  -0.036457   0.532063
 Mulliken atomic charges:
              1
     1  H    0.225923
     2  C   -0.579200
     3  H    0.183217
     4  H    0.181189
     5  C    0.766208
     6  O   -0.629550
     7  N   -0.838504
     8  H    0.377794
     9  C   -0.010679
    10  H    0.214214
    11  C   -0.513758
    12  H    0.155559
    13  H    0.191905
    14  H    0.261912
    15  C    0.797009
    16  O   -0.641999
    17  N   -0.809622
    18  H    0.372704
    19  C   -0.291416
    20  H    0.243928
    21  H    0.172151
    22  H    0.171016
 Sum of Mulliken atomic charges =   0.00000
 Mulliken charges with hydrogens summed into heavy atoms:
              1
     2  C    0.011130
     5  C    0.766208
     6  O   -0.629550
     7  N   -0.460710
     9  C    0.203535
    11  C    0.095618
    15  C    0.797009
    16  O   -0.641999
    17  N   -0.436917
    19  C    0.295678
 Sum of Mulliken charges with hydrogens summed into heavy atoms =   0.00000
 Electronic spatial extent (au):  <R**2>=           1834.9082
 Charge=              0.0000 electrons
 Dipole moment (field-independent basis, Debye):
    X=              0.1359    Y=             -6.4809    Z=             -0.9773  Tot=              6.5555
 Quadrupole moment (field-independent basis, Debye-Ang):
   XX=            -69.6925   YY=            -59.1611   ZZ=            -59.8557
   XY=             -1.4205   XZ=              0.9954   YZ=             -0.7956
 Traceless Quadrupole moment (field-independent basis, Debye-Ang):
   XX=             -6.7894   YY=              3.7420   ZZ=              3.0474
   XY=             -1.4205   XZ=              0.9954   YZ=             -0.7956
 Octapole moment (field-independent basis, Debye-Ang**2):
  XXX=             14.1412  YYY=            -11.4295  ZZZ=             -0.8275  XYY=             -4.2369
  XXY=            -43.7929  XXZ=              0.7564  XZZ=              0.0953  YZZ=              0.4777
  YYZ=             -2.5927  XYZ=              0.3198
 Hexadecapole moment (field-independent basis, Debye-Ang**3):
 XXXX=          -1652.5260 YYYY=           -592.8449 ZZZZ=           -109.6219 XXXY=              0.6181
 XXXZ=             10.9488 YYYX=            -18.5090 YYYZ=              0.9816 ZZZX=              0.2033
 ZZZY=             -2.2653 XXYY=           -391.0344 XXZZ=           -292.4438 YYZZ=           -115.9144
 XXYZ=             -5.7984 YYXZ=              1.1935 ZZXY=              0.4864
 N-N= 5.611404228877D+02 E-N=-2.277336164344D+03  KE= 4.919854732956D+02
 Calling FoFJK, ICntrl=      2127 FMM=F ISym2X=0 I1Cent= 0 IOpClX= 0 NMat=1 NMatS=1 NMatT=0.
 ***** Axes restored to original set *****
 -------------------------------------------------------------------
 Center     Atomic                   Forces (Hartrees/Bohr)
 Number     Number              X              Y              Z
 -------------------------------------------------------------------
      1        1           0.004420510    0.008047835    0.002994797
      2        6           0.005682103    0.007640774    0.001618860
      3        1          -0.003089168    0.000128980   -0.003870060
      4        1          -0.001532191   -0.003595158    0.003287506
      5        6           0.016990352   -0.052057111   -0.029169765
      6        8          -0.055602069    0.001334899    0.026054651
      7        7          -0.011253748    0.014354993    0.009179378
      8        1           0.012612023   -0.026444273   -0.007345885
      9        6           0.009638929    0.002400042   -0.004398440
     10        1          -0.001662979    0.004455576   -0.000372519
     11        6           0.024730775   -0.003138549   -0.003985575
     12        1           0.004254407   -0.002540296    0.001660052
     13        1          -0.008478523    0.002947363    0.000089126
     14        1           0.006395783    0.023432219   -0.003972810
     15        6           0.040984890    0.020800641   -0.008186842
     16        8          -0.035468266   -0.026264919    0.013099146
     17        7          -0.016159784    0.002630268    0.006028626
     18        1           0.014989589    0.025538026   -0.004960372
     19        6          -0.003772087    0.004019305    0.001110672
     20        1          -0.007505521   -0.007148175    0.002196950
     21        1           0.003043303    0.001760482    0.003643943
     22        1           0.000781672    0.001697076   -0.004701441
 -------------------------------------------------------------------
 Cartesian Forces:  Max     0.055602069 RMS     0.015753706

 GradGradGradGradGradGradGradGradGradGradGradGradGradGradGradGradGradGrad
 Berny optimization.
 Internal  Forces:  Max     0.098460260 RMS     0.020433003
 Search for a local minimum.
 Step number   1 out of a maximum of  108
 All quantities printed in internal units (Hartrees-Bohrs-Radians)
 Mixed Optimization -- RFO/linear search
 Second derivative matrix not updated -- first step.
     Eigenvalues ---    0.00369   0.00435   0.00999   0.01044   0.01269
     Eigenvalues ---    0.01422   0.01660   0.02551   0.02552   0.03503
     Eigenvalues ---    0.05232   0.05841   0.05844   0.05844   0.07165
     Eigenvalues ---    0.07464   0.07685   0.07686   0.15421   0.16000
     Eigenvalues ---    0.16000   0.16000   0.16000   0.16000   0.16000
     Eigenvalues ---    0.16000   0.16000   0.16000   0.16000   0.16000
     Eigenvalues ---    0.16180   0.22000   0.22000   0.25000   0.25000
     Eigenvalues ---    0.25000   0.25000   0.29422   0.29887   0.30174
     Eigenvalues ---    0.34807   0.34808   0.34810   0.34813   0.34814
     Eigenvalues ---    0.34816   0.34818   0.34819   0.34821   0.34822
     Eigenvalues ---    0.38376   0.38379   0.45969   0.45976   0.58327
     Eigenvalues ---    0.58339   0.91520   0.915221000.000001000.00000
     Eigenvalues --- 1000.000001000.000001000.000001000.000001000.00000
     Eigenvalues --- 1000.000001000.000001000.000001000.000001000.00000
     Eigenvalues --- 1000.000001000.000001000.000001000.000001000.00000
     Eigenvalues --- 1000.000001000.000001000.000001000.000001000.00000
     Eigenvalues --- 1000.000001000.000001000.000001000.000001000.00000
     Eigenvalues --- 1000.000001000.000001000.000001000.000001000.00000
     Eigenvalues --- 1000.000001000.000001000.000001000.000001000.00000
     Eigenvalues --- 1000.000001000.000001000.00000
 RFO step:  Lambda=-1.08746173D-01 EMin= 3.68861443D-03
 Linear search not attempted -- first point.
 Maximum step size (   0.300) exceeded in Quadratic search.
    -- Step size scaled by   0.518
 Iteration  1 RMS(Cart)=  0.15240761 RMS(Int)=  0.00662377
 Iteration  2 RMS(Cart)=  0.01076039 RMS(Int)=  0.00034819
 Iteration  3 RMS(Cart)=  0.00006042 RMS(Int)=  0.00034732
 Iteration  4 RMS(Cart)=  0.00000004 RMS(Int)=  0.00034732
 Iteration  1 RMS(Cart)=  0.00011232 RMS(Int)=  0.00005223
 Iteration  2 RMS(Cart)=  0.00007020 RMS(Int)=  0.00005788
 Iteration  3 RMS(Cart)=  0.00004524 RMS(Int)=  0.00006613
 Iteration  4 RMS(Cart)=  0.00002980 RMS(Int)=  0.00007268
 Iteration  5 RMS(Cart)=  0.00001989 RMS(Int)=  0.00007734
 Iteration  6 RMS(Cart)=  0.00001339 RMS(Int)=  0.00008054
 Iteration  7 RMS(Cart)=  0.00000905 RMS(Int)=  0.00008271
 Iteration  8 RMS(Cart)=  0.00000613 RMS(Int)=  0.00008418
 Iteration  9 RMS(Cart)=  0.00000415 RMS(Int)=  0.00008518
 Iteration 10 RMS(Cart)=  0.00000282 RMS(Int)=  0.00008585
 Iteration 11 RMS(Cart)=  0.00000191 RMS(Int)=  0.00008630
 Iteration 12 RMS(Cart)=  0.00000130 RMS(Int)=  0.00008660
 Iteration 13 RMS(Cart)=  0.00000088 RMS(Int)=  0.00008681
 Variable       Old X    -DE/DX   Delta X   Delta X   Delta X     New X
                                 (Linear)    (Quad)   (Total)
    R1        2.05977  -0.00876   0.00000  -0.00993  -0.00993   2.04984
    R2        2.05965  -0.00293   0.00000  -0.00332  -0.00332   2.05633
    R3        2.05987  -0.00283   0.00000  -0.00321  -0.00321   2.05666
    R4        2.89132  -0.00943   0.00000  -0.01212  -0.01212   2.87919
    R5        2.32240  -0.05305   0.00000  -0.02683  -0.02683   2.29557
    R6        2.52289   0.03886   0.00000   0.02908   0.02908   2.55197
    R7        1.90859  -0.02540   0.00000  -0.02313  -0.02313   1.88545
    R8        2.73817   0.05095   0.00000   0.05356   0.05356   2.79173
    R9        2.05975  -0.00237   0.00000  -0.00269  -0.00269   2.05706
   R10        2.88188   0.01393   0.00000   0.01770   0.01770   2.89958
   R11        2.87618   0.02322   0.00000   0.02929   0.02929   2.90547
   R12        2.05972  -0.00417   0.00000  -0.00473  -0.00473   2.05499
   R13        2.05984  -0.00619   0.00000  -0.00702  -0.00702   2.05283
   R14        2.05966  -0.02232   0.00000  -0.02529  -0.02529   2.03437
   R15        2.32240  -0.04594   0.00000  -0.02323  -0.02323   2.29917
   R16        2.52279   0.01897   0.00000   0.01419   0.01419   2.53699
   R17        1.90867  -0.02825   0.00000  -0.02573  -0.02573   1.88294
   R18        2.73822   0.00172   0.00000   0.00181   0.00181   2.74003
   R19        2.05970  -0.01034   0.00000  -0.01172  -0.01172   2.04798
   R20        2.05990  -0.00419   0.00000  -0.00475  -0.00475   2.05515
   R21        2.05980  -0.00410   0.00000  -0.00465  -0.00465   2.05515
    A1        1.91123   0.00037   0.00000   0.00025   0.00029   1.91153
    A2        1.91109   0.00025   0.00000   0.00012   0.00016   1.91126
    A3        1.93910  -0.00806   0.00000  -0.01595  -0.01591   1.92319
    A4        1.91012  -0.00455   0.00000  -0.00790  -0.00799   1.90214
    A5        1.89607   0.00579   0.00000   0.01134   0.01132   1.90739
    A6        1.89594   0.00625   0.00000   0.01226   0.01224   1.90818
    A7        2.10313  -0.01785   0.00000  -0.02576  -0.02579   2.07734
    A8        2.03508  -0.03263   0.00000  -0.04709  -0.04713   1.98796
    A9        2.14497   0.05048   0.00000   0.07286   0.07282   2.21779
   A10        2.09430  -0.06268   0.00000  -0.10344  -0.10345   1.99085
   A11        2.12753   0.09846   0.00000   0.15508   0.15507   2.28260
   A12        2.06135  -0.03579   0.00000  -0.05164  -0.05165   2.00971
   A13        1.91114  -0.01551   0.00000  -0.01496  -0.01533   1.89580
   A14        1.93905   0.04457   0.00000   0.07888   0.07920   2.01825
   A15        1.93900   0.00397   0.00000   0.01474   0.01632   1.95532
   A16        1.89609  -0.00175   0.00000  -0.00746  -0.00871   1.88739
   A17        1.89608   0.00228   0.00000  -0.00428  -0.00508   1.89100
   A18        1.88137  -0.03452   0.00000  -0.06939  -0.07041   1.81096
   A19        1.91115   0.00361   0.00000   0.00709   0.00693   1.91808
   A20        1.91106  -0.00905   0.00000  -0.01940  -0.01933   1.89174
   A21        1.91110   0.01386   0.00000   0.02852   0.02845   1.93954
   A22        1.91011  -0.00115   0.00000  -0.00585  -0.00587   1.90423
   A23        1.91023  -0.00456   0.00000  -0.00488  -0.00516   1.90507
   A24        1.91015  -0.00271   0.00000  -0.00550  -0.00535   1.90481
   A25        2.10316  -0.02168   0.00000  -0.03129  -0.03137   2.07178
   A26        2.03506   0.04455   0.00000   0.06430   0.06421   2.09927
   A27        2.14497  -0.02287   0.00000  -0.03301  -0.03309   2.11187
   A28        2.09447   0.00950   0.00000   0.01838   0.01838   2.11285
   A29        2.12754   0.00042   0.00000   0.00066   0.00066   2.12821
   A30        2.06117  -0.00992   0.00000  -0.01904  -0.01904   2.04213
   A31        1.91114  -0.00507   0.00000  -0.01025  -0.01023   1.90091
   A32        1.91117   0.00422   0.00000   0.00836   0.00835   1.91952
   A33        1.91108   0.00444   0.00000   0.00879   0.00878   1.91986
   A34        1.91016  -0.00030   0.00000  -0.00107  -0.00105   1.90911
   A35        1.91017  -0.00037   0.00000  -0.00119  -0.00117   1.90900
   A36        1.91008  -0.00292   0.00000  -0.00466  -0.00471   1.90537
    D1       -0.00008  -0.00169   0.00000  -0.00730  -0.00710  -0.00718
    D2        3.14153   0.00173   0.00000   0.00731   0.00710  -3.13455
    D3        2.10341  -0.00248   0.00000  -0.00953  -0.00937   2.09404
    D4       -1.03816   0.00095   0.00000   0.00508   0.00483  -1.03333
    D5       -2.10332  -0.00106   0.00000  -0.00551  -0.00525  -2.10857
    D6        1.03830   0.00237   0.00000   0.00910   0.00895   1.04724
    D7        0.00004   0.00695   0.00000   0.01630   0.01578   0.01581
    D8        3.14152  -0.00035   0.00000   0.00770   0.00766  -3.13400
    D9       -3.14153   0.01046   0.00000   0.03130   0.03134  -3.11019
   D10       -0.00005   0.00317   0.00000   0.02270   0.02322   0.02317
   D11       -1.57078   0.00155   0.00000  -0.00574  -0.00614  -1.57692
   D12        0.52366   0.01745   0.00000   0.02508   0.02424   0.54790
   D13        2.61802   0.00629   0.00000   0.00000   0.00000   2.61802
   D14        1.57071  -0.00562   0.00000  -0.01418  -0.01433   1.55638
   D15       -2.61803   0.01028   0.00000   0.01664   0.01605  -2.60198
   D16       -0.52368  -0.00088   0.00000  -0.00845  -0.00819  -0.53187
   D17        1.04724   0.00164   0.00000  -0.00266  -0.00330   1.04394
   D18        3.14157  -0.00311   0.00000  -0.01738  -0.01803   3.12354
   D19       -1.04726  -0.00348   0.00000  -0.01852  -0.01934  -1.06660
   D20       -3.13259   0.00890   0.00000   0.02281   0.02267  -3.10993
   D21       -1.03826   0.00415   0.00000   0.00810   0.00793  -1.03033
   D22        1.05609   0.00378   0.00000   0.00695   0.00662   1.06271
   D23       -1.08102  -0.00825   0.00000  -0.02428  -0.02330  -1.10432
   D24        1.01331  -0.01300   0.00000  -0.03900  -0.03803   0.97527
   D25        3.10766  -0.01337   0.00000  -0.04014  -0.03934   3.06832
   D26       -2.87975  -0.01816   0.00000  -0.02403  -0.02395  -2.90370
   D27        0.26184  -0.01619   0.00000   0.00000   0.00000   0.26184
   D28        1.30012  -0.00289   0.00000  -0.01187  -0.01169   1.28842
   D29       -1.84147  -0.00093   0.00000   0.01216   0.01226  -1.82922
   D30       -0.75146   0.01686   0.00000   0.03728   0.03685  -0.71461
   D31        2.39013   0.01883   0.00000   0.06131   0.06080   2.45093
   D32       -0.00010  -0.00126   0.00000  -0.01330  -0.01322  -0.01332
   D33       -3.14156  -0.00124   0.00000  -0.01322  -0.01314   3.12849
   D34        3.14149   0.00076   0.00000   0.01136   0.01129  -3.13040
   D35        0.00004   0.00078   0.00000   0.01144   0.01137   0.01140
   D36       -0.00005   0.00001   0.00000   0.00000   0.00000  -0.00005
   D37        2.09440  -0.00088   0.00000  -0.00246  -0.00249   2.09191
   D38       -2.09447   0.00085   0.00000   0.00235   0.00238  -2.09209
   D39       -3.14151   0.00002   0.00000   0.00008   0.00008  -3.14144
   D40       -1.04706  -0.00086   0.00000  -0.00239  -0.00241  -1.04948
   D41        1.04726   0.00086   0.00000   0.00242   0.00245   1.04971
         Item               Value     Threshold  Converged?
 Maximum Force            0.098460     0.000450     NO 
 RMS     Force            0.020473     0.000300     NO 
 Maximum Displacement     0.559499     0.001800     NO 
 RMS     Displacement     0.153703     0.001200     NO 
 Predicted change in Energy=-4.657742D-02
 GradGradGradGradGradGradGradGradGradGradGradGradGradGradGradGradGradGrad

                          Input orientation:                          
 ---------------------------------------------------------------------
 Center     Atomic      Atomic             Coordinates (Angstroms)
 Number     Number       Type             X           Y           Z
 ---------------------------------------------------------------------
      1          1           0        1.657146    1.264982   -0.868371
      2          6           0        1.840066    2.236466   -0.421827
      3          1           0        1.608328    2.197748    0.640670
      4          1           0        1.202859    2.980323   -0.896302
      5          6           0        3.299891    2.632657   -0.604347
      6          8           0        4.049729    1.870529   -1.181022
      7          7           0        3.612940    3.831141   -0.066445
      8          1           0        2.849526    4.284967    0.388220
      9          6           0        4.892054    4.569558   -0.033436
     10          1           0        5.434441    4.285195    0.866505
     11          6           0        5.816760    4.349804   -1.238006
     12          1           0        5.313171    4.655999   -2.151901
     13          1           0        6.706991    4.957298   -1.101953
     14          1           0        6.104574    3.315914   -1.322729
     15          6           0        4.678665    6.091993   -0.009138
     16          8           0        5.628359    6.818819   -0.232945
     17          7           0        3.471235    6.601738    0.281758
     18          1           0        2.695147    6.007283    0.474469
     19          6           0        3.233652    8.031275    0.330456
     20          1           0        4.157929    8.548987    0.101999
     21          1           0        2.475649    8.307063   -0.399003
     22          1           0        2.895087    8.318461    1.323248
 ---------------------------------------------------------------------
                    Distance matrix (angstroms):
                    1          2          3          4          5
     1  H    0.000000
     2  C    1.084731   0.000000
     3  H    1.774723   1.088165   0.000000
     4  H    1.774698   1.088340   1.771754   0.000000
     5  C    2.153800   1.523604   2.144901   2.145613   0.000000
     6  O    2.487748   2.364930   3.063670   3.068775   1.214763
     7  N    3.324664   2.410885   2.680757   2.687200   1.350445
     8  H    3.481537   2.423127   2.441472   2.462439   1.979431
     9  C    4.699145   3.861191   4.106429   4.108572   2.571480
    10  H    5.138038   4.333200   4.364353   4.766179   3.074181
    11  C    5.191834   4.576728   5.086420   4.824969   3.112033
    12  H    5.149074   4.572719   5.250459   4.612926   3.246865
    13  H    6.260086   5.617157   6.053777   5.852024   4.154503
    14  H    4.918575   4.490307   5.032044   4.931660   2.974754
    15  C    5.759157   4.805522   5.001436   4.748766   3.771246
    16  O    6.857069   5.948512   6.186934   5.895688   4.804545
    17  N    5.752798   4.712892   4.795244   4.432607   4.070399
    18  H    5.036873   3.969077   3.965016   3.642585   3.594115
    19  C    7.050197   6.007314   6.063658   5.580427   5.479354
    20  H    7.762232   6.744983   6.865046   6.382715   6.019810
    21  H    7.105009   6.103821   6.257547   5.499223   5.737632
    22  H    7.489142   6.414750   6.291644   6.023765   6.017296
                    6          7          8          9         10
     6  O    0.000000
     7  N    2.297187   0.000000
     8  H    3.119699   0.997738   0.000000
     9  C    3.051430   1.477322   2.104925   0.000000
    10  H    3.455489   2.096288   2.628791   1.088549   0.000000
    11  C    3.045070   2.549194   3.384272   1.534394   2.139932
    12  H    3.209009   2.814303   3.558009   2.161645   3.043514
    13  H    4.073749   3.451616   4.189592   2.141511   2.438428
    14  H    2.516269   2.837596   3.802861   2.168896   2.486228
    15  C    4.426018   2.500101   2.601728   1.537508   2.145336
    16  O    5.279820   3.607749   3.811583   2.375105   2.768690
    17  N    4.985852   2.795985   2.401101   2.499566   3.092326
    18  H    4.657068   2.422917   1.731371   2.674214   3.259297
    19  C    6.395729   4.235861   3.766392   3.855671   4.377663
    20  H    6.801445   4.752205   4.469419   4.048843   4.515957
    21  H    6.672200   4.630108   4.115429   4.465600   5.150862
    22  H    7.012873   4.752115   4.140703   4.459006   4.787918
                   11         12         13         14         15
    11  C    0.000000
    12  H    1.087456   0.000000
    13  H    1.086310   1.770849   0.000000
    14  H    1.076542   1.763426   1.762325   0.000000
    15  C    2.416733   2.656333   2.568245   3.386052   0.000000
    16  O    2.672392   2.908526   2.320319   3.699291   1.216669
    17  N    3.589204   3.619575   3.884451   4.506162   1.342516
    18  H    3.927376   3.946877   4.436493   4.700807   2.043379
    19  C    4.762957   4.677498   4.854402   5.762799   2.442172
    20  H    4.709615   4.644352   4.565900   5.762320   2.514028
    21  H    5.246603   4.945144   5.442363   6.239706   3.148302
    22  H    5.553957   5.597983   5.631130   6.505957   3.148581
                   16         17         18         19         20
    16  O    0.000000
    17  N    2.228279   0.000000
    18  H    3.124542   0.996407   0.000000
    19  C    2.742644   1.449963   2.099350   0.000000
    20  H    2.295176   2.072592   2.956133   1.083746   0.000000
    21  H    3.490275   2.088722   2.469842   1.087538   1.771890
    22  H    3.484456   2.088967   2.470211   1.087537   1.771824
                   21         22
    21  H    0.000000
    22  H    1.772627   0.000000
 Stoichiometry    C6H12N2O2
 Framework group  C1[X(C6H12N2O2)]
 Deg. of freedom    60
 Full point group                 C1      NOp   1
 Largest Abelian subgroup         C1      NOp   1
 Largest concise Abelian subgroup C1      NOp   1
                         Standard orientation:                         
 ---------------------------------------------------------------------
 Center     Atomic      Atomic             Coordinates (Angstroms)
 Number     Number       Type             X           Y           Z
 ---------------------------------------------------------------------
      1          1           0        3.930341   -1.510172   -0.362703
      2          6           0        2.883114   -1.619320   -0.101849
      3          1           0        2.798054   -2.131182    0.854637
      4          1           0        2.378028   -2.208530   -0.864871
      5          6           0        2.220938   -0.250855   -0.000879
      6          8           0        2.889454    0.743535   -0.200694
      7          7           0        0.912564   -0.299187    0.330064
      8          1           0        0.563769   -1.222410    0.476633
      9          6           0       -0.075896    0.782542    0.517918
     10          1           0       -0.062241    1.088313    1.562551
     11          6           0        0.134156    2.031567   -0.348211
     12          1           0        0.093479    1.762905   -1.401172
     13          1           0       -0.662231    2.737532   -0.130382
     14          1           0        1.083210    2.494302   -0.138175
     15          6           0       -1.501843    0.328471    0.165178
     16          8           0       -2.367757    1.172683    0.031824
     17          7           0       -1.783863   -0.977730    0.036129
     18          1           0       -1.077348   -1.670301    0.154495
     19          6           0       -3.119081   -1.446581   -0.279724
     20          1           0       -3.777307   -0.591401   -0.379282
     21          1           0       -3.106240   -2.002896   -1.214116
     22          1           0       -3.484318   -2.092417    0.515408
 ---------------------------------------------------------------------
 Rotational constants (GHZ):      2.2934475      0.7570141      0.5911268
 Standard basis: 6-31G(d) (6D, 7F)
 There are   174 symmetry adapted basis functions of A   symmetry.
 Integral buffers will be    131072 words long.
 Raffenetti 1 integral format.
 Two-electron integral symmetry is turned on.
   174 basis functions,   328 primitive gaussians,   174 cartesian basis functions
    39 alpha electrons       39 beta electrons
       nuclear repulsion energy       552.8097699156 Hartrees.
 NAtoms=   22 NActive=   22 NUniq=   22 SFac= 7.50D-01 NAtFMM=   80 NAOKFM=F Big=F
 One-electron integrals computed using PRISM.
 NBasis=   174 RedAO= T  NBF=   174
 NBsUse=   174 1.00D-06 NBFU=   174
 Initial guess read from the read-write file.
 B after Tr=     0.000000    0.000000    0.000000
         Rot=    1.000000    0.000000    0.000000    0.000000 Ang=   0.00 deg.
 Initial guess orbital symmetries:
       Occupied  (A) (A) (A) (A) (A) (A) (A) (A) (A) (A) (A) (A)
                 (A) (A) (A) (A) (A) (A) (A) (A) (A) (A) (A) (A)
                 (A) (A) (A) (A) (A) (A) (A) (A) (A) (A) (A) (A)
                 (A) (A) (A)
       Virtual   (A) (A) (A) (A) (A) (A) (A) (A) (A) (A) (A) (A)
                 (A) (A) (A) (A) (A) (A) (A) (A) (A) (A) (A) (A)
                 (A) (A) (A) (A) (A) (A) (A) (A) (A) (A) (A) (A)
                 (A) (A) (A) (A) (A) (A) (A) (A) (A) (A) (A) (A)
                 (A) (A) (A) (A) (A) (A) (A) (A) (A) (A) (A) (A)
                 (A) (A) (A) (A) (A) (A) (A) (A) (A) (A) (A) (A)
                 (A) (A) (A) (A) (A) (A) (A) (A) (A) (A) (A) (A)
                 (A) (A) (A) (A) (A) (A) (A) (A) (A) (A) (A) (A)
                 (A) (A) (A) (A) (A) (A) (A) (A) (A) (A) (A) (A)
                 (A) (A) (A) (A) (A) (A) (A) (A) (A) (A) (A) (A)
                 (A) (A) (A) (A) (A) (A) (A) (A) (A) (A) (A) (A)
                 (A) (A) (A)
 Harris functional with IExCor=  205 diagonalized for initial guess.
 ExpMin= 1.61D-01 ExpMax= 5.48D+03 ExpMxC= 8.25D+02 IAcc=1 IRadAn=         1 AccDes= 0.00D+00
 HarFok:  IExCor=  205 AccDes= 0.00D+00 IRadAn=         1 IDoV= 1
 ScaDFX=  1.000000  1.000000  1.000000  1.000000
 FoFCou: FMM=F IPFlag=           0 FMFlag=      100000 FMFlg1=           0
         NFxFlg=           0 DoJE=T BraDBF=F KetDBF=T FulRan=T
         Omega=  0.000000  0.000000  1.000000  0.000000  0.000000 ICntrl=     500 IOpCl=  0
         NMat0=    1 NMatS0=    1 NMatT0=    0 NMatD0=    1 NMtDS0=    0 NMtDT0=    0
         I1Cent=           4 NGrid=           0.
 Petite list used in FoFCou.
 Requested convergence on RMS density matrix=1.00D-08 within 128 cycles.
 Requested convergence on MAX density matrix=1.00D-06.
 Requested convergence on             energy=1.00D-06.
 No special actions if energy rises.
 Integral accuracy reduced to 1.0D-05 until final iterations.
 Initial convergence to 1.0D-05 achieved.  Increase integral accuracy.
 SCF Done:  E(RHF) =  -492.832169546     A.U. after   16 cycles
             Convg  =    0.6493D-08             -V/T =  2.0019
 Calling FoFJK, ICntrl=      2127 FMM=F ISym2X=0 I1Cent= 0 IOpClX= 0 NMat=1 NMatS=1 NMatT=0.
 ***** Axes restored to original set *****
 -------------------------------------------------------------------
 Center     Atomic                   Forces (Hartrees/Bohr)
 Number     Number              X              Y              Z
 -------------------------------------------------------------------
      1        1           0.003285139    0.004292658    0.001341004
      2        6           0.001486301    0.006445659    0.002084181
      3        1          -0.002916626   -0.000184356   -0.002119784
      4        1          -0.001852411   -0.002350653    0.002189297
      5        6           0.009479100   -0.037715789   -0.018378655
      6        8          -0.008047242    0.026239154    0.015306827
      7        7           0.003994601    0.018112853    0.000044303
      8        1           0.005600701   -0.009336473   -0.000339930
      9        6          -0.001187356   -0.002217418   -0.008743620
     10        1          -0.002306500    0.004624163   -0.000345498
     11        6           0.000656286   -0.008446479   -0.001518418
     12        1           0.002606734   -0.001714740    0.001113689
     13        1          -0.006387522   -0.002723452   -0.000930960
     14        1          -0.001583928   -0.002595416   -0.001255053
     15        6           0.022843274    0.017382816    0.004075430
     16        8          -0.018271415   -0.015416524    0.006660541
     17        7          -0.008025400   -0.002088080    0.002319053
     18        1           0.004870115    0.007424683   -0.002520237
     19        6          -0.001790672    0.002402263    0.000276380
     20        1          -0.004756409   -0.003602836    0.001233305
     21        1           0.001712218    0.000755507    0.002107251
     22        1           0.000591014    0.000712457   -0.002599108
 -------------------------------------------------------------------
 Cartesian Forces:  Max     0.037715789 RMS     0.008993554

 GradGradGradGradGradGradGradGradGradGradGradGradGradGradGradGradGradGrad
 Berny optimization.
 Using GEDIIS/GDIIS optimizer.
 Internal  Forces:  Max     0.028695952 RMS     0.006454842
 Search for a local minimum.
 Step number   2 out of a maximum of  108
 All quantities printed in internal units (Hartrees-Bohrs-Radians)
 Mixed Optimization -- RFO/linear search
 Update second derivatives using D2CorX and points    1    2
 DE= -1.82D-02 DEPred=-4.66D-02 R= 3.91D-01
 Trust test= 3.91D-01 RLast= 3.00D-01 DXMaxT set to 3.00D-01
 Use linear search instead of GDIIS.
     Eigenvalues ---    0.00369   0.00438   0.00997   0.01044   0.01344
     Eigenvalues ---    0.01405   0.01675   0.02551   0.02570   0.03395
     Eigenvalues ---    0.04981   0.05667   0.05925   0.06271   0.07222
     Eigenvalues ---    0.07355   0.07603   0.07717   0.15265   0.15946
     Eigenvalues ---    0.16000   0.16000   0.16000   0.16000   0.16000
     Eigenvalues ---    0.16000   0.16000   0.16000   0.16000   0.16120
     Eigenvalues ---    0.17779   0.21989   0.24057   0.24719   0.24994
     Eigenvalues ---    0.25000   0.29389   0.29804   0.30035   0.34365
     Eigenvalues ---    0.34637   0.34807   0.34808   0.34812   0.34813
     Eigenvalues ---    0.34816   0.34817   0.34818   0.34822   0.36554
     Eigenvalues ---    0.38374   0.45273   0.45972   0.56469   0.58206
     Eigenvalues ---    0.78151   0.87963   0.915211000.000001000.00000
     Eigenvalues --- 1000.000001000.000001000.000001000.000001000.00000
     Eigenvalues --- 1000.000001000.000001000.000001000.000001000.00000
     Eigenvalues --- 1000.000001000.000001000.000001000.000001000.00000
     Eigenvalues --- 1000.000001000.000001000.000001000.000001000.00000
     Eigenvalues --- 1000.000001000.000001000.000001000.000001000.00000
     Eigenvalues --- 1000.000001000.000001000.000001000.000001000.00000
     Eigenvalues --- 1000.000001000.000001000.000001000.000001000.00000
     Eigenvalues --- 1000.000001000.000001000.00000
 RFO step:  Lambda=-9.15193651D-03 EMin= 3.68861532D-03
 Quartic linear search produced a step of -0.19119.
 Iteration  1 RMS(Cart)=  0.09692282 RMS(Int)=  0.00200225
 Iteration  2 RMS(Cart)=  0.00295521 RMS(Int)=  0.00044177
 Iteration  3 RMS(Cart)=  0.00000507 RMS(Int)=  0.00044177
 Iteration  4 RMS(Cart)=  0.00000001 RMS(Int)=  0.00044177
 Iteration  1 RMS(Cart)=  0.00021360 RMS(Int)=  0.00009309
 Iteration  2 RMS(Cart)=  0.00013522 RMS(Int)=  0.00010300
 Iteration  3 RMS(Cart)=  0.00008772 RMS(Int)=  0.00011792
 Iteration  4 RMS(Cart)=  0.00005790 RMS(Int)=  0.00013010
 Iteration  5 RMS(Cart)=  0.00003867 RMS(Int)=  0.00013895
 Iteration  6 RMS(Cart)=  0.00002601 RMS(Int)=  0.00014514
 Iteration  7 RMS(Cart)=  0.00001759 RMS(Int)=  0.00014941
 Iteration  8 RMS(Cart)=  0.00001192 RMS(Int)=  0.00015233
 Iteration  9 RMS(Cart)=  0.00000810 RMS(Int)=  0.00015433
 Iteration 10 RMS(Cart)=  0.00000551 RMS(Int)=  0.00015569
 Iteration 11 RMS(Cart)=  0.00000375 RMS(Int)=  0.00015662
 Iteration 12 RMS(Cart)=  0.00000255 RMS(Int)=  0.00015726
 Iteration 13 RMS(Cart)=  0.00000174 RMS(Int)=  0.00015769
 Iteration 14 RMS(Cart)=  0.00000119 RMS(Int)=  0.00015798
 Iteration 15 RMS(Cart)=  0.00000081 RMS(Int)=  0.00015818
 Variable       Old X    -DE/DX   Delta X   Delta X   Delta X     New X
                                 (Linear)    (Quad)   (Total)
    R1        2.04984  -0.00495   0.00190  -0.01614  -0.01424   2.03561
    R2        2.05633  -0.00144   0.00063  -0.00491  -0.00428   2.05205
    R3        2.05666  -0.00148   0.00061  -0.00494  -0.00432   2.05234
    R4        2.87919  -0.00172   0.00232  -0.01041  -0.00810   2.87110
    R5        2.29557  -0.02870   0.00513  -0.03991  -0.03478   2.26079
    R6        2.55197   0.00240  -0.00556   0.01879   0.01323   2.56521
    R7        1.88545  -0.00869   0.00442  -0.02698  -0.02256   1.86290
    R8        2.79173  -0.01230  -0.01024   0.00182  -0.00842   2.78331
    R9        2.05706  -0.00264   0.00051  -0.00731  -0.00680   2.05026
   R10        2.89958   0.00141  -0.00338   0.01227   0.00888   2.90847
   R11        2.90547   0.00807  -0.00560   0.03517   0.02957   2.93503
   R12        2.05499  -0.00263   0.00090  -0.00829  -0.00739   2.04761
   R13        2.05283  -0.00687   0.00134  -0.01904  -0.01770   2.03513
   R14        2.03437   0.00217   0.00484  -0.00769  -0.00286   2.03151
   R15        2.29917  -0.02470   0.00444  -0.03443  -0.02999   2.26918
   R16        2.53699   0.00896  -0.00271   0.01979   0.01707   2.55406
   R17        1.88294  -0.00871   0.00492  -0.02837  -0.02345   1.85949
   R18        2.74003   0.00099  -0.00035   0.00296   0.00261   2.74265
   R19        2.04798  -0.00604   0.00224  -0.01949  -0.01724   2.03074
   R20        2.05515  -0.00242   0.00091  -0.00783  -0.00692   2.04823
   R21        2.05515  -0.00237   0.00089  -0.00767  -0.00678   2.04837
    A1        1.91153  -0.00028  -0.00006  -0.00339  -0.00328   1.90825
    A2        1.91126  -0.00028  -0.00003  -0.00314  -0.00299   1.90826
    A3        1.92319  -0.00551   0.00304  -0.03470  -0.03148   1.89171
    A4        1.90214  -0.00360   0.00153  -0.01620  -0.01514   1.88699
    A5        1.90739   0.00477  -0.00216   0.02821   0.02588   1.93327
    A6        1.90818   0.00493  -0.00234   0.02950   0.02701   1.93519
    A7        2.07734   0.01442   0.00493   0.03310   0.03793   2.11527
    A8        1.98796   0.00057   0.00901  -0.01999  -0.01107   1.97688
    A9        2.21779  -0.01499  -0.01392  -0.01280  -0.02681   2.19098
   A10        1.99085   0.00406   0.01978  -0.03541  -0.01597   1.97489
   A11        2.28260  -0.01548  -0.02965   0.01482  -0.01517   2.26743
   A12        2.00971   0.01141   0.00987   0.02026   0.02978   2.03949
   A13        1.89580   0.00365   0.00293  -0.01611  -0.01352   1.88228
   A14        2.01825  -0.01785  -0.01514  -0.04865  -0.06605   1.95220
   A15        1.95532   0.00414  -0.00312   0.04264   0.04070   1.99602
   A16        1.88739   0.00246   0.00166   0.00047   0.00136   1.88875
   A17        1.89100  -0.00885   0.00097  -0.02790  -0.02685   1.86415
   A18        1.81096   0.01670   0.01346   0.05055   0.06506   1.87602
   A19        1.91808   0.00272  -0.00132   0.01362   0.01234   1.93042
   A20        1.89174  -0.00084   0.00370  -0.00818  -0.00449   1.88724
   A21        1.93954  -0.00091  -0.00544   0.00549   0.00008   1.93962
   A22        1.90423  -0.00088   0.00112  -0.00368  -0.00255   1.90169
   A23        1.90507  -0.00163   0.00099  -0.01666  -0.01561   1.88946
   A24        1.90481   0.00155   0.00102   0.00939   0.01038   1.91519
   A25        2.07178  -0.00273   0.00600  -0.02328  -0.01764   2.05414
   A26        2.09927   0.00344  -0.01228   0.04018   0.02752   2.12679
   A27        2.11187  -0.00072   0.00633  -0.01810  -0.01220   2.09968
   A28        2.11285   0.00111  -0.00351   0.01448   0.01094   2.12379
   A29        2.12821   0.00303  -0.00013   0.01099   0.01085   2.13905
   A30        2.04213  -0.00414   0.00364  -0.02548  -0.02186   2.02027
   A31        1.90091  -0.00199   0.00196  -0.01446  -0.01247   1.88844
   A32        1.91952   0.00208  -0.00160   0.01378   0.01215   1.93166
   A33        1.91986   0.00199  -0.00168   0.01336   0.01165   1.93151
   A34        1.90911  -0.00029   0.00020  -0.00252  -0.00229   1.90682
   A35        1.90900  -0.00033   0.00022  -0.00308  -0.00283   1.90617
   A36        1.90537  -0.00147   0.00090  -0.00720  -0.00639   1.89897
    D1       -0.00718   0.00010   0.00136   0.01040   0.01194   0.00476
    D2       -3.13455  -0.00007  -0.00136  -0.01159  -0.01314   3.13550
    D3        2.09404  -0.00066   0.00179   0.00247   0.00419   2.09823
    D4       -1.03333  -0.00083  -0.00092  -0.01952  -0.02088  -1.05422
    D5       -2.10857   0.00075   0.00100   0.01723   0.01868  -2.08989
    D6        1.04724   0.00059  -0.00171  -0.00476  -0.00639   1.04085
    D7        0.01581   0.00179  -0.00302   0.03909   0.03560   0.05142
    D8       -3.13400  -0.00071  -0.00146  -0.01378  -0.01531   3.13388
    D9       -3.11019   0.00131  -0.00599   0.01455   0.00861  -3.10158
   D10        0.02317  -0.00119  -0.00444  -0.03833  -0.04230  -0.01912
   D11       -1.57692   0.00065   0.00117  -0.01892  -0.01762  -1.59453
   D12        0.54790  -0.00569  -0.00463  -0.06448  -0.06760   0.48031
   D13        2.61802   0.00669   0.00000   0.00000   0.00000   2.61801
   D14        1.55638  -0.00191   0.00274  -0.07246  -0.07027   1.48611
   D15       -2.60198  -0.00824  -0.00307  -0.11802  -0.12025  -2.72223
   D16       -0.53187   0.00414   0.00157  -0.05354  -0.05265  -0.58452
   D17        1.04394   0.00394   0.00063   0.06525   0.06526   1.10921
   D18        3.12354   0.00396   0.00345   0.06381   0.06665  -3.09300
   D19       -1.06660   0.00478   0.00370   0.07349   0.07661  -0.98999
   D20       -3.10993  -0.00165  -0.00433   0.01122   0.00695  -3.10297
   D21       -1.03033  -0.00164  -0.00152   0.00978   0.00834  -1.02199
   D22        1.06271  -0.00082  -0.00127   0.01946   0.01830   1.08101
   D23       -1.10432  -0.00272   0.00445   0.00379   0.00875  -1.09557
   D24        0.97527  -0.00270   0.00727   0.00236   0.01014   0.98541
   D25        3.06832  -0.00188   0.00752   0.01203   0.02010   3.08842
   D26       -2.90370   0.00149   0.00458  -0.05702  -0.05298  -2.95668
   D27        0.26184   0.00200   0.00000   0.00000   0.00000   0.26184
   D28        1.28842   0.00024   0.00224  -0.04489  -0.04279   1.24563
   D29       -1.82922   0.00075  -0.00234   0.01212   0.01019  -1.81903
   D30       -0.71461  -0.00680  -0.00705  -0.05780  -0.06344  -0.77805
   D31        2.45093  -0.00629  -0.01163  -0.00079  -0.01047   2.44046
   D32       -0.01332  -0.00100   0.00253  -0.04731  -0.04519  -0.05851
   D33        3.12849  -0.00059   0.00251  -0.03464  -0.03240   3.09608
   D34       -3.13040  -0.00045  -0.00216   0.01108   0.00920  -3.12121
   D35        0.01140  -0.00004  -0.00217   0.02375   0.02198   0.03339
   D36       -0.00005  -0.00023   0.00000  -0.00632  -0.00627  -0.00633
   D37        2.09191  -0.00055   0.00048  -0.00999  -0.00951   2.08239
   D38       -2.09209   0.00020  -0.00045  -0.00171  -0.00207  -2.09416
   D39       -3.14144   0.00016  -0.00001   0.00586   0.00580  -3.13563
   D40       -1.04948  -0.00016   0.00046   0.00220   0.00256  -1.04692
   D41        1.04971   0.00059  -0.00047   0.01047   0.01001   1.05972
         Item               Value     Threshold  Converged?
 Maximum Force            0.028696     0.000450     NO 
 RMS     Force            0.006409     0.000300     NO 
 Maximum Displacement     0.308135     0.001800     NO 
 RMS     Displacement     0.098005     0.001200     NO 
 Predicted change in Energy=-5.370994D-03
 GradGradGradGradGradGradGradGradGradGradGradGradGradGradGradGradGradGrad

                          Input orientation:                          
 ---------------------------------------------------------------------
 Center     Atomic      Atomic             Coordinates (Angstroms)
 Number     Number       Type             X           Y           Z
 ---------------------------------------------------------------------
      1          1           0        1.778896    1.196621   -0.900907
      2          6           0        1.898560    2.159150   -0.432322
      3          1           0        1.661530    2.076640    0.624176
      4          1           0        1.205523    2.865561   -0.879752
      5          6           0        3.335440    2.612256   -0.628289
      6          8           0        4.122144    1.937081   -1.225373
      7          7           0        3.594556    3.826189   -0.078844
      8          1           0        2.822933    4.206369    0.402682
      9          6           0        4.847414    4.599794   -0.044057
     10          1           0        5.376656    4.334860    0.865247
     11          6           0        5.756161    4.272665   -1.242380
     12          1           0        5.279089    4.559111   -2.172125
     13          1           0        6.670501    4.830850   -1.131812
     14          1           0        5.975861    3.221251   -1.286526
     15          6           0        4.648855    6.139941   -0.015626
     16          8           0        5.616895    6.830597   -0.182402
     17          7           0        3.453539    6.699833    0.274940
     18          1           0        2.651033    6.152560    0.432201
     19          6           0        3.263861    8.136218    0.359939
     20          1           0        4.207436    8.611566    0.163671
     21          1           0        2.536571    8.470121   -0.371050
     22          1           0        2.920746    8.418966    1.348509
 ---------------------------------------------------------------------
                    Distance matrix (angstroms):
                    1          2          3          4          5
     1  H    0.000000
     2  C    1.077197   0.000000
     3  H    1.764677   1.085901   0.000000
     4  H    1.764813   1.086053   1.758447   0.000000
     5  C    2.121596   1.519320   2.158131   2.159617   0.000000
     6  O    2.478783   2.371195   3.081384   3.080293   1.196357
     7  N    3.299551   2.404239   2.700323   2.696616   1.357448
     8  H    3.442083   2.396414   2.435911   2.461385   1.966408
     9  C    4.661714   3.847497   4.118580   4.119384   2.564703
    10  H    5.090355   4.302853   4.354288   4.754178   3.060159
    11  C    5.039571   4.472608   5.007250   4.777002   2.998992
    12  H    5.017338   4.496076   5.202758   4.596986   3.154590
    13  H    6.098256   5.513500   5.979879   5.813078   4.037118
    14  H    4.675718   4.299082   4.855344   4.800845   2.788543
    15  C    5.784185   4.856382   5.083686   4.829577   3.813787
    16  O    6.854791   5.975858   6.236632   5.972270   4.816456
    17  N    5.871318   4.851389   4.970630   4.592224   4.187846
    18  H    5.205682   4.154628   4.198701   3.822967   3.758564
    19  C    7.207832   6.181994   6.273417   5.792530   5.612118
    20  H    7.874804   6.878937   7.028439   6.566337   6.113861
    21  H    7.332026   6.343434   6.529377   5.782867   5.917681
    22  H    7.650225   6.587982   6.506564   6.224744   6.147974
                    6          7          8          9         10
     6  O    0.000000
     7  N    2.271917   0.000000
     8  H    3.080288   0.985802   0.000000
     9  C    3.001927   1.472864   2.110186   0.000000
    10  H    3.419624   2.079887   2.598456   1.084952   0.000000
    11  C    2.850483   2.495134   3.363696   1.539095   2.142425
    12  H    3.018261   2.785077   3.575857   2.171790   3.047202
    13  H    3.857042   3.402870   4.189084   2.135473   2.430697
    14  H    2.255904   2.737711   3.710099   2.171981   2.495856
    15  C    4.405104   2.543421   2.692150   1.553153   2.136340
    16  O    5.221931   3.623126   3.877514   2.363836   2.717349
    17  N    5.038032   2.898771   2.575139   2.540632   3.104825
    18  H    4.762560   2.561914   1.953991   2.731665   3.304630
    19  C    6.455939   4.344909   3.954738   3.895785   4.378306
    20  H    6.818025   4.830555   4.623822   4.067805   4.488820
    21  H    6.776763   4.771877   4.342838   4.519552   5.166710
    22  H    7.076938   4.856434   4.318579   4.498595   4.790089
                   11         12         13         14         15
    11  C    0.000000
    12  H    1.083548   0.000000
    13  H    1.076946   1.758443   0.000000
    14  H    1.075029   1.749185   1.759906   0.000000
    15  C    2.493546   2.747127   2.654551   3.448896   0.000000
    16  O    2.772357   3.038545   2.451623   3.791480   1.200800
    17  N    3.673619   3.728733   3.977549   4.571741   1.351551
[...]
    16  O    6.836511   5.989991   6.327280   5.974311   4.799124
    17  N    5.677966   4.747864   5.127745   4.386950   4.014990
    18  H    4.890145   3.994395   4.473086   3.512747   3.452883
    19  C    6.978175   6.072053   6.472171   5.574441   5.418453
    20  H    7.736990   6.780363   7.063303   6.364506   6.057109
    21  H    7.341528   6.530895   7.068831   6.040605   5.777416
    22  H    7.080540   6.173867   6.545786   5.516050   5.776194
                    6          7          8          9         10
     6  O    0.000000
     7  N    2.280549   0.000000
     8  H    3.083157   0.997390   0.000000
     9  C    2.987829   1.465283   2.060531   0.000000
    10  H    3.546961   2.086301   2.352379   1.087518   0.000000
    11  C    2.827560   2.525031   3.391609   1.529622   2.134978
    12  H    2.747978   2.776024   3.721180   2.169840   3.045490
    13  H    3.891082   3.416731   4.169003   2.123578   2.450844
    14  H    2.448902   2.845071   3.718649   2.167723   2.457285
    15  C    4.305088   2.475954   2.724497   1.537412   2.090496
    16  O    5.177408   3.585110   3.885746   2.374931   2.691795
    17  N    4.818065   2.715983   2.579343   2.477155   3.000616
    18  H    4.352166   2.308605   2.107746   2.620814   3.282813
    19  C    6.195208   4.154074   3.967395   3.823981   4.281805
    20  H    6.808460   4.719315   4.504604   4.135116   4.367684
    21  H    6.414603   4.611091   4.615439   4.221274   4.846423
    22  H    6.673686   4.579821   4.206375   4.542965   4.971367
                   11         12         13         14         15
    11  C    0.000000
    12  H    1.082473   0.000000
    13  H    1.080183   1.759638   0.000000
    14  H    1.077865   1.748641   1.764263   0.000000
    15  C    2.499188   2.830021   2.606047   3.444890   0.000000
    16  O    2.825680   3.190981   2.444789   3.812753   1.198909
    17  N    3.663426   3.804841   3.932011   4.552943   1.359090
    18  H    3.814934   3.811417   4.323376   4.603840   2.006703
    19  C    4.839900   4.883117   4.901667   5.816210   2.423946
    20  H    5.135623   5.345858   5.002797   6.102110   2.674609
    21  H    4.950883   4.793893   4.953117   5.990589   2.795383
    22  H    5.686335   5.700323   5.862426   6.609338   3.304853
                   16         17         18         19         20
    16  O    0.000000
    17  N    2.240875   0.000000
    18  H    3.067661   0.994187   0.000000
    19  C    2.722771   1.450756   2.090582   0.000000
    20  H    2.607614   2.076042   2.929063   1.079360   0.000000
    21  H    2.881143   2.115470   2.613808   1.084916   1.754412
    22  H    3.764273   2.067900   2.331488   1.082245   1.759926
                   21         22
    21  H    0.000000
    22  H    1.766658   0.000000
 Stoichiometry    C6H12N2O2
 Framework group  C1[X(C6H12N2O2)]
 Deg. of freedom    60
 Full point group                 C1      NOp   1
 Largest Abelian subgroup         C1      NOp   1
 Largest concise Abelian subgroup C1      NOp   1
                         Standard orientation:                         
 ---------------------------------------------------------------------
 Center     Atomic      Atomic             Coordinates (Angstroms)
 Number     Number       Type             X           Y           Z
 ---------------------------------------------------------------------
      1          1           0        3.877327   -1.508791   -0.405735
      2          6           0        2.948713   -1.555682    0.143190
      3          1           0        3.174067   -1.667724    1.199969
      4          1           0        2.380661   -2.423199   -0.174660
      5          6           0        2.184412   -0.263805   -0.081110
      6          8           0        2.715255    0.703720   -0.537469
      7          7           0        0.860151   -0.347680    0.271262
      8          1           0        0.667279   -1.142964    0.841447
      9          6           0       -0.081011    0.748794    0.514188
     10          1           0       -0.117752    0.946940    1.582871
     11          6           0        0.255939    2.057975   -0.201530
     12          1           0        0.354976    1.906114   -1.268712
     13          1           0       -0.554333    2.748843   -0.019996
     14          1           0        1.179210    2.477400    0.163775
     15          6           0       -1.517420    0.333712    0.156317
     16          8           0       -2.395153    1.150370    0.162370
     17          7           0       -1.763200   -0.992711   -0.008968
     18          1           0       -1.012608   -1.535954   -0.369392
     19          6           0       -3.100253   -1.425185   -0.369452
     20          1           0       -3.808503   -1.033406    0.344628
     21          1           0       -3.389825   -1.085516   -1.358298
     22          1           0       -3.132256   -2.506577   -0.340789
 ---------------------------------------------------------------------
 Rotational constants (GHZ):      2.2980435      0.7654814      0.6025380

 **********************************************************************

            Population analysis using the SCF density.

 **********************************************************************

 Orbital symmetries:
       Occupied  (A) (A) (A) (A) (A) (A) (A) (A) (A) (A) (A) (A)
                 (A) (A) (A) (A) (A) (A) (A) (A) (A) (A) (A) (A)
                 (A) (A) (A) (A) (A) (A) (A) (A) (A) (A) (A) (A)
                 (A) (A) (A)
       Virtual   (A) (A) (A) (A) (A) (A) (A) (A) (A) (A) (A) (A)
                 (A) (A) (A) (A) (A) (A) (A) (A) (A) (A) (A) (A)
                 (A) (A) (A) (A) (A) (A) (A) (A) (A) (A) (A) (A)
                 (A) (A) (A) (A) (A) (A) (A) (A) (A) (A) (A) (A)
                 (A) (A) (A) (A) (A) (A) (A) (A) (A) (A) (A) (A)
                 (A) (A) (A) (A) (A) (A) (A) (A) (A) (A) (A) (A)
                 (A) (A) (A) (A) (A) (A) (A) (A) (A) (A) (A) (A)
                 (A) (A) (A) (A) (A) (A) (A) (A) (A) (A) (A) (A)
                 (A) (A) (A) (A) (A) (A) (A) (A) (A) (A) (A) (A)
                 (A) (A) (A) (A) (A) (A) (A) (A) (A) (A) (A) (A)
                 (A) (A) (A) (A) (A) (A) (A) (A) (A) (A) (A) (A)
                 (A) (A) (A)
 The electronic state is 1-A.
 Alpha  occ. eigenvalues --  -20.53484 -20.52961 -15.59804 -15.58927 -11.36090
 Alpha  occ. eigenvalues --  -11.34855 -11.28750 -11.25958 -11.24161 -11.20808
 Alpha  occ. eigenvalues --   -1.40374  -1.39831  -1.25564  -1.22816  -1.05756
 Alpha  occ. eigenvalues --   -0.99516  -0.96173  -0.88128  -0.79989  -0.76710
 Alpha  occ. eigenvalues --   -0.73265  -0.69950  -0.67251  -0.63845  -0.63096
 Alpha  occ. eigenvalues --   -0.62254  -0.60728  -0.59560  -0.57299  -0.55704
 Alpha  occ. eigenvalues --   -0.54585  -0.53271  -0.52671  -0.52053  -0.50346
 Alpha  occ. eigenvalues --   -0.44182  -0.42386  -0.39915  -0.39123
 Alpha virt. eigenvalues --    0.18338   0.19210   0.20119   0.24728   0.26593
 Alpha virt. eigenvalues --    0.28232   0.28535   0.30460   0.30625   0.31396
 Alpha virt. eigenvalues --    0.32767   0.33579   0.34386   0.35297   0.36464
 Alpha virt. eigenvalues --    0.38255   0.41633   0.41999   0.46582   0.48845
 Alpha virt. eigenvalues --    0.54303   0.58199   0.61759   0.70855   0.72723
 Alpha virt. eigenvalues --    0.73754   0.75578   0.76311   0.77280   0.78922
 Alpha virt. eigenvalues --    0.80852   0.82326   0.82816   0.86324   0.89214
 Alpha virt. eigenvalues --    0.92384   0.94701   0.96259   0.98368   1.00263
 Alpha virt. eigenvalues --    1.00694   1.01621   1.02532   1.07825   1.08025
 Alpha virt. eigenvalues --    1.10895   1.11970   1.13508   1.14815   1.15643
 Alpha virt. eigenvalues --    1.16956   1.17262   1.18738   1.19395   1.20490
 Alpha virt. eigenvalues --    1.21314   1.22195   1.23805   1.26242   1.26765
 Alpha virt. eigenvalues --    1.30495   1.32524   1.36251   1.37145   1.41427
 Alpha virt. eigenvalues --    1.45416   1.47526   1.50238   1.58637   1.61218
 Alpha virt. eigenvalues --    1.63697   1.64555   1.70039   1.73622   1.75267
 Alpha virt. eigenvalues --    1.80459   1.82207   1.88435   1.91371   1.93930
 Alpha virt. eigenvalues --    2.00500   2.05337   2.08909   2.10491   2.12014
 Alpha virt. eigenvalues --    2.13150   2.15542   2.16704   2.18733   2.21048
 Alpha virt. eigenvalues --    2.22861   2.25593   2.29839   2.33570   2.35391
 Alpha virt. eigenvalues --    2.36350   2.36976   2.41775   2.44997   2.49092
 Alpha virt. eigenvalues --    2.51137   2.54706   2.57708   2.62794   2.66204
 Alpha virt. eigenvalues --    2.66956   2.69101   2.70437   2.74064   2.77673
 Alpha virt. eigenvalues --    2.78770   2.85472   2.86844   2.88951   2.98140
 Alpha virt. eigenvalues --    3.01519   3.03732   3.06884   3.11167   3.23178
 Alpha virt. eigenvalues --    3.32982   3.36942   3.42552   3.50767   3.57895
 Alpha virt. eigenvalues --    4.35812   4.41300   4.47918   4.53686   4.63221
 Alpha virt. eigenvalues --    4.66119   4.71072   4.77341   4.88932   5.09775
          Condensed to atoms (all electrons):
              1          2          3          4          5          6
     1  H    0.454124   0.385031  -0.016878  -0.019569  -0.032067   0.003700
     2  C    0.385031   5.282395   0.373308   0.376115   0.376797  -0.071305
     3  H   -0.016878   0.373308   0.501360  -0.025679  -0.027633   0.000596
     4  H   -0.019569   0.376115  -0.025679   0.520572  -0.037117   0.001763
     5  C   -0.032067   0.376797  -0.027633  -0.037117   4.144670   0.623150
     6  O    0.003700  -0.071305   0.000596   0.001763   0.623150   8.115812
     7  N    0.004447  -0.129134   0.001238   0.005707   0.241080  -0.095079
     8  H    0.000125  -0.000032   0.000203  -0.000676  -0.023672   0.002432
     9  C   -0.000054   0.002222  -0.000229   0.000196  -0.014569   0.001378
    10  H   -0.000001  -0.000126   0.000042   0.000005  -0.000914   0.000172
    11  C    0.000002   0.000043   0.000000  -0.000013  -0.002646  -0.006355
    12  H    0.000000  -0.000032   0.000001   0.000000   0.000099  -0.000519
    13  H    0.000000   0.000010   0.000000   0.000000   0.000165   0.000603
    14  H    0.000001   0.000014  -0.000005   0.000000   0.000689   0.000654
    15  C    0.000001  -0.000092   0.000001  -0.000006   0.000696  -0.000100
    16  O    0.000000   0.000000   0.000000   0.000000  -0.000027   0.000000
    17  N    0.000000  -0.000032   0.000000  -0.000007  -0.000037   0.000002
    18  H   -0.000003  -0.000004   0.000002   0.000161   0.000084  -0.000022
    19  C    0.000000   0.000000   0.000000   0.000000   0.000003   0.000000
    20  H    0.000000   0.000000   0.000000   0.000000   0.000000   0.000000
    21  H    0.000000   0.000000   0.000000   0.000000   0.000000   0.000000
    22  H    0.000000   0.000000   0.000000   0.000000   0.000000   0.000000
              7          8          9         10         11         12
     1  H    0.004447   0.000125  -0.000054  -0.000001   0.000002   0.000000
     2  C   -0.129134  -0.000032   0.002222  -0.000126   0.000043  -0.000032
     3  H    0.001238   0.000203  -0.000229   0.000042   0.000000   0.000001
     4  H    0.005707  -0.000676   0.000196   0.000005  -0.000013   0.000000
     5  C    0.241080  -0.023672  -0.014569  -0.000914  -0.002646   0.000099
     6  O   -0.095079   0.002432   0.001378   0.000172  -0.006355  -0.000519
     7  N    7.496197   0.318406   0.139428  -0.049874  -0.041345  -0.000911
     8  H    0.318406   0.350686  -0.026065  -0.002110   0.003626  -0.000068
     9  C    0.139428  -0.026065   5.048785   0.414989   0.348566  -0.036967
    10  H   -0.049874  -0.002110   0.414989   0.510450  -0.034209   0.004015
    11  C   -0.041345   0.003626   0.348566  -0.034209   5.105171   0.394081
    12  H   -0.000911  -0.000068  -0.036967   0.004015   0.394081   0.510177
    13  H    0.003578  -0.000090  -0.035194  -0.000759   0.381710  -0.022609
    14  H   -0.002136  -0.000149  -0.033204  -0.003160   0.394845  -0.022111
    15  C   -0.048224  -0.003861   0.390839  -0.049392  -0.049042  -0.005278
    16  O    0.002187  -0.000034  -0.074146   0.001765  -0.004303   0.000609
    17  N   -0.010109   0.006039  -0.104806   0.000766   0.001389   0.000150
    18  H    0.012183  -0.002445  -0.003408   0.000772  -0.000255   0.000052
    19  C   -0.000141  -0.000071   0.004526  -0.000171  -0.000102  -0.000020
    20  H   -0.000016  -0.000019   0.000012   0.000011  -0.000014   0.000000
    21  H   -0.000010   0.000023  -0.000129  -0.000009   0.000035  -0.000004
    22  H   -0.000012  -0.000015   0.000033   0.000003   0.000000   0.000000
             13         14         15         16         17         18
     1  H    0.000000   0.000001   0.000001   0.000000   0.000000  -0.000003
     2  C    0.000010   0.000014  -0.000092   0.000000  -0.000032  -0.000004
     3  H    0.000000  -0.000005   0.000001   0.000000   0.000000   0.000002
     4  H    0.000000   0.000000  -0.000006   0.000000  -0.000007   0.000161
     5  C    0.000165   0.000689   0.000696  -0.000027  -0.000037   0.000084
     6  O    0.000603   0.000654  -0.000100   0.000000   0.000002  -0.000022
     7  N    0.003578  -0.002136  -0.048224   0.002187  -0.010109   0.012183
     8  H   -0.000090  -0.000149  -0.003861  -0.000034   0.006039  -0.002445
     9  C   -0.035194  -0.033204   0.390839  -0.074146  -0.104806  -0.003408
    10  H   -0.000759  -0.003160  -0.049392   0.001765   0.000766   0.000772
    11  C    0.381710   0.394845  -0.049042  -0.004303   0.001389  -0.000255
    12  H   -0.022609  -0.022111  -0.005278   0.000609   0.000150   0.000052
    13  H    0.492415  -0.024878  -0.007045   0.008086   0.000508  -0.000014
    14  H   -0.024878   0.481022   0.004736   0.000136  -0.000043  -0.000007
    15  C   -0.007045   0.004736   4.170898   0.587849   0.301238  -0.021571
    16  O    0.008086   0.000136   0.587849   8.168106  -0.101290   0.002498
    17  N    0.000508  -0.000043   0.301238  -0.101290   7.306138   0.317869
    18  H   -0.000014  -0.000007  -0.021571   0.002498   0.317869   0.332744
    19  C   -0.000017   0.000002  -0.032106   0.006847   0.206571  -0.025567
    20  H    0.000000   0.000000  -0.004120   0.003653  -0.037227   0.003073
    21  H   -0.000001   0.000000  -0.002310   0.001630  -0.047721  -0.000092
    22  H    0.000000   0.000000   0.004326   0.000421  -0.039397  -0.003494
             19         20         21         22
     1  H    0.000000   0.000000   0.000000   0.000000
     2  C    0.000000   0.000000   0.000000   0.000000
     3  H    0.000000   0.000000   0.000000   0.000000
     4  H    0.000000   0.000000   0.000000   0.000000
     5  C    0.000003   0.000000   0.000000   0.000000
     6  O    0.000000   0.000000   0.000000   0.000000
     7  N   -0.000141  -0.000016  -0.000010  -0.000012
     8  H   -0.000071  -0.000019   0.000023  -0.000015
     9  C    0.004526   0.000012  -0.000129   0.000033
    10  H   -0.000171   0.000011  -0.000009   0.000003
    11  C   -0.000102  -0.000014   0.000035   0.000000
    12  H   -0.000020   0.000000  -0.000004   0.000000
    13  H   -0.000017   0.000000  -0.000001   0.000000
    14  H    0.000002   0.000000   0.000000   0.000000
    15  C   -0.032106  -0.004120  -0.002310   0.004326
    16  O    0.006847   0.003653   0.001630   0.000421
    17  N    0.206571  -0.037227  -0.047721  -0.039397
    18  H   -0.025567   0.003073  -0.000092  -0.003494
    19  C    4.913979   0.403273   0.405642   0.397976
    20  H    0.403273   0.482133  -0.031425  -0.024626
    21  H    0.405642  -0.031425   0.528963  -0.032749
    22  H    0.397976  -0.024626  -0.032749   0.530046
 Mulliken atomic charges:
              1
     1  H    0.221141
     2  C   -0.595177
     3  H    0.193673
     4  H    0.178548
     5  C    0.751249
     6  O   -0.576883
     7  N   -0.847458
     8  H    0.377766
     9  C   -0.022201
    10  H    0.207734
    11  C   -0.491185
    12  H    0.179335
    13  H    0.203531
    14  H    0.203594
    15  C    0.762561
    16  O   -0.603988
    17  N   -0.800000
    18  H    0.387444
    19  C   -0.280623
    20  H    0.205292
    21  H    0.178158
    22  H    0.167488
 Sum of Mulliken atomic charges =   0.00000
 Mulliken charges with hydrogens summed into heavy atoms:
              1
     2  C   -0.001814
     5  C    0.751249
     6  O   -0.576883
     7  N   -0.469691
     9  C    0.185533
    11  C    0.095275
    15  C    0.762561
    16  O   -0.603988
    17  N   -0.412556
    19  C    0.270315
 Sum of Mulliken charges with hydrogens summed into heavy atoms =   0.00000
 Electronic spatial extent (au):  <R**2>=           1887.4818
 Charge=              0.0000 electrons
 Dipole moment (field-independent basis, Debye):
    X=              0.3973    Y=             -5.0993    Z=              1.2513  Tot=              5.2656
 Quadrupole moment (field-independent basis, Debye-Ang):
   XX=            -70.5776   YY=            -58.6314   ZZ=            -59.1604
   XY=              0.5362   XZ=              5.5860   YZ=              1.4594
 Traceless Quadrupole moment (field-independent basis, Debye-Ang):
   XX=             -7.7878   YY=              4.1584   ZZ=              3.6294
   XY=              0.5362   XZ=              5.5860   YZ=              1.4594
 Octapole moment (field-independent basis, Debye-Ang**2):
  XXX=             -7.8367  YYY=             -7.2828  ZZZ=              1.1997  XYY=              3.8727
  XXY=            -42.4000  XXZ=              5.3947  XZZ=             -0.8052  YZZ=              0.3223
  YYZ=             -0.7403  XYZ=              0.8188
 Hexadecapole moment (field-independent basis, Debye-Ang**3):
 XXXX=          -1725.2123 YYYY=           -602.1590 ZZZZ=           -114.2130 XXXY=              3.3069
 XXXZ=             27.3320 YYYX=             15.1603 YYYZ=              3.8830 ZZZX=              0.3104
 ZZZY=             -1.4300 XXYY=           -393.9799 XXZZ=           -299.1173 YYZZ=           -123.3948
 XXYZ=             10.8723 YYXZ=              6.3765 ZZXY=             -4.6818
 N-N= 5.550285005352D+02 E-N=-2.265207243605D+03  KE= 4.921047127598D+02
 1\1\GINC-RODAN\FOpt\RHF\6-31G(d)\C6H12N2O2\STEBOSS\10-Feb-2017\0\\# HF
 /6-31G* Opt=(ModRedundant) geom=nocrowd\\Phi Psi fixed scan\\0,1\H,1.5
 830404597,1.4150579744,-0.9603368752\C,1.9034994284,2.1756645458,-0.26
 41876134\H,2.0441748025,1.7182460744,0.7110548295\H,1.1338393325,2.934
 3903351,-0.1733209896\C,3.218803718,2.7570971514,-0.7492883453\O,3.873
 1572181,2.2083412793,-1.584064746\N,3.5392795346,3.9502203601,-0.15043
 82861\H,3.0009507218,4.1205214725,0.6717452352\C,4.8433402466,4.616935
 7656,-0.1060469148\H,5.3360606658,4.3581144745,0.8282616832\C,5.787605
 5146,4.2632207934,-1.2562606048\H,5.3243710157,4.454768768,-2.21567197
 8\H,6.6664596811,4.8840848976,-1.1617212446\H,6.0721298335,3.224097533
 4,-1.2236784654\C,4.6811738164,6.1442699896,-0.0383101461\O,5.64345516
 15,6.8528430551,-0.1348587155\N,3.4532169308,6.6299918077,0.2831279641
 \H,2.6754396326,6.0867757234,-0.01416933\C,3.251591477,8.0657064584,0.
 3357094588\H,3.9776272423,8.5055236259,1.0023814913\H,3.3568356571,8.5
 317977101,-0.6383164209\H,2.2581479094,8.2605302044,0.7182900136\\Vers
 ion=EM64L-G09RevA.02\State=1-A\HF=-492.8441467\RMSD=5.153e-09\RMSF=1.7
 00e-03\Dipole=-1.7688066,0.0473051,1.0773751\Quadrupole=2.4767345,-2.8
 979618,0.4212273,-3.4170539,-0.760829,-4.9148447\PG=C01 [X(C6H12N2O2)]
 \\@


 WE HAVE LEARNED THAT NOTHING IS SIMPLE AND
 RATIONAL EXCEPT WHAT WE OURSELVES HAVE INVENTED;
 THAT GOD THINKS IN TERMS NEITHER OF EUCLID OR RIEMANN; THAT SCIENCE HAS "EXPLAINED" NOTHING;
 THAT THE MORE WE KNOW THE MORE FANTASTIC THE WORLD BECOMES
 AND THE PROFOUNDER THE SURROUNDING DARKNESS.
   --  ALDOUS HUXLEY
 Job cpu time:  0 days  0 hours 17 minutes 53.5 seconds.
 File lengths (MBytes):  RWF=     25 Int=      0 D2E=      0 Chk=      3 Scr=      1
 Normal termination of Gaussian 09 at Fri Feb 10 02:27:02 2017.
