 Entering Gaussian System, Link 0=g09
 Initial command:
 /home/steboss/Software/g09/l1.exe /home/steboss/projects/phi_psi_scan/alanine/30/4491/Gau-12460.inp -scrdir=/home/steboss/projects/phi_psi_scan/alanine/30/4491/
 Entering Link 1 = /home/steboss/Software/g09/l1.exe PID=     12462.
  
 Copyright (c) 1988,1990,1992,1993,1995,1998,2003,2009, Gaussian, Inc.
                  All Rights Reserved.
  
 This is part of the Gaussian(R) 09 program.  It is based on
 the Gaussian(R) 03 system (copyright 2003, Gaussian, Inc.),
 the Gaussian(R) 98 system (copyright 1998, Gaussian, Inc.),
 the Gaussian(R) 94 system (copyright 1995, Gaussian, Inc.),
 the Gaussian 92(TM) system (copyright 1992, Gaussian, Inc.),
 the Gaussian 90(TM) system (copyright 1990, Gaussian, Inc.),
 the Gaussian 88(TM) system (copyright 1988, Gaussian, Inc.),
 the Gaussian 86(TM) system (copyright 1986, Carnegie Mellon
 University), and the Gaussian 82(TM) system (copyright 1983,
 Carnegie Mellon University). Gaussian is a federally registered
 trademark of Gaussian, Inc.
  
 This software contains proprietary and confidential information,
 including trade secrets, belonging to Gaussian, Inc.
  
 This software is provided under written license and may be
 used, copied, transmitted, or stored only in accord with that
 written license.
  
 The following legend is applicable only to US Government
 contracts under FAR:
  
                    RESTRICTED RIGHTS LEGEND
  
 Use, reproduction and disclosure by the US Government is
 subject to restrictions as set forth in subparagraphs (a)
 and (c) of the Commercial Computer Software - Restricted
 Rights clause in FAR 52.227-19.
  
 Gaussian, Inc.
 340 Quinnipiac St., Bldg. 40, Wallingford CT 06492
  
  
 ---------------------------------------------------------------
 Warning -- This program may not be used in any manner that
 competes with the business of Gaussian, Inc. or will provide
 assistance to any competitor of Gaussian, Inc.  The licensee
 of this program is prohibited from giving any competitor of
 Gaussian, Inc. access to this program.  By using this program,
 the user acknowledges that Gaussian, Inc. is engaged in the
 business of creating and licensing software in the field of
 computational chemistry and represents and warrants to the
 licensee that it is not a competitor of Gaussian, Inc. and that
 it will not use this program in any manner prohibited above.
 ---------------------------------------------------------------
  

 Cite this work as:
 Gaussian 09, Revision A.02,
 M. J. Frisch, G. W. Trucks, H. B. Schlegel, G. E. Scuseria, 
 M. A. Robb, J. R. Cheeseman, G. Scalmani, V. Barone, B. Mennucci, 
 G. A. Petersson, H. Nakatsuji, M. Caricato, X. Li, H. P. Hratchian, 
 A. F. Izmaylov, J. Bloino, G. Zheng, J. L. Sonnenberg, M. Hada, 
 M. Ehara, K. Toyota, R. Fukuda, J. Hasegawa, M. Ishida, T. Nakajima, 
 Y. Honda, O. Kitao, H. Nakai, T. Vreven, J. A. Montgomery, Jr., 
 J. E. Peralta, F. Ogliaro, M. Bearpark, J. J. Heyd, E. Brothers, 
 K. N. Kudin, V. N. Staroverov, R. Kobayashi, J. Normand, 
 K. Raghavachari, A. Rendell, J. C. Burant, S. S. Iyengar, J. Tomasi, 
 M. Cossi, N. Rega, J. M. Millam, M. Klene, J. E. Knox, J. B. Cross, 
 V. Bakken, C. Adamo, J. Jaramillo, R. Gomperts, R. E. Stratmann, 
 O. Yazyev, A. J. Austin, R. Cammi, C. Pomelli, J. W. Ochterski, 
 R. L. Martin, K. Morokuma, V. G. Zakrzewski, G. A. Voth, 
 P. Salvador, J. J. Dannenberg, S. Dapprich, A. D. Daniels, 
 O. Farkas, J. B. Foresman, J. V. Ortiz, J. Cioslowski, 
 and D. J. Fox, Gaussian, Inc., Wallingford CT, 2009.
 
 ******************************************
 Gaussian 09:  EM64L-G09RevA.02 11-Jun-2009
                10-Feb-2017 
 ******************************************
 %chk=structure_150.chk
 %NProcShared=8
 Will use up to    8 processors via shared memory.
 ----------------------------------------------------------------------
 # b3lyp/6-31G* Opt=(ModRedundant, maxcycles=1000, calcfc) geom=nocrowd
 ----------------------------------------------------------------------
 1/6=1000,10=4,14=-1,18=120,19=15,26=3,38=1/1,3;
 2/9=110,12=1,17=6,18=5,40=1/2;
 3/5=1,6=6,7=1,11=2,16=1,25=1,30=1,71=2,74=-5/1,2,3;
 4//1;
 5/5=2,38=5/2;
 8/6=4,10=90,11=11/1;
 11/6=1,8=1,9=11,15=111,16=1/1,2,10;
 10/6=1,7=6,13=1/2;
 6/7=2,8=2,9=2,10=2,28=1/1;
 7/10=1,18=20,25=1/1,2,3,16;
 1/6=1000,10=4,14=-1,18=20,19=15/3(2);
 2/9=110,12=1/2;
 99//99;
 2/9=110,12=1/2;
 3/5=1,6=6,7=1,11=2,16=1,25=1,30=1,71=1,74=-5/1,2,3;
 4/5=5,16=3/1;
 5/5=2,38=5/2;
 7//1,2,3,16;
 1/6=1000,14=-1,18=20,19=15/3(-5);
 2/9=110,12=1/2;
 6/7=2,8=2,9=2,10=2,19=2,28=1/1;
 99/9=1/99;
 ------------------
 Phi Psi fixed scan
 ------------------
 Symbolic Z-matrix:
 Charge =  0 Multiplicity = 1
 H                     0.3668    4.29     -0.9842 
 C                     1.1769    3.7481   -0.496 
 H                     1.3209    2.787    -0.9895 
 H                     0.9253    3.584     0.5517 
 C                     2.4871    4.5351   -0.5667 
 O                     2.5276    5.6304   -1.1227 
 N                     3.5554    3.9697    0. 
 H                     3.4723    3.067     0.4455 
 C                     4.8533    4.6139    0. 
 H                     5.4076    4.3155    0.8898 
 C                     5.6613    4.2208   -1.2322 
 H                     5.1233    4.5214   -2.1312 
 H                     6.6305    4.7189   -1.2058 
 H                     5.8085    3.1409   -1.2414 
 C                     4.7127    6.1294    0. 
 O                     3.7419    6.6658   -0.5295 
 N                     5.6868    6.8201    0.5968 
 H                     6.4653    6.3339    1.0185 
 C                     5.669     8.2675    0.6638 
 H                     4.7735    8.6435    0.169 
 H                     5.667     8.5835    1.707 
 H                     6.553     8.6656    0.1657 
 
 The following ModRedundant input section has been read:
 D    5    7    9   15 F                                                       
 D    7    9   15   17 F                                                       

 GradGradGradGradGradGradGradGradGradGradGradGradGradGradGradGradGradGrad
 Berny optimization.
 Initialization pass.
                           ----------------------------
                           !    Initial Parameters    !
                           ! (Angstroms and Degrees)  !
 --------------------------                            --------------------------
 ! Name  Definition              Value          Derivative Info.                !
 --------------------------------------------------------------------------------
 ! R1    R(1,2)                  1.0901         calculate D2E/DX2 analytically  !
 ! R2    R(2,3)                  1.09           calculate D2E/DX2 analytically  !
 ! R3    R(2,4)                  1.0899         calculate D2E/DX2 analytically  !
 ! R4    R(2,5)                  1.53           calculate D2E/DX2 analytically  !
 ! R5    R(5,6)                  1.229          calculate D2E/DX2 analytically  !
 ! R6    R(5,7)                  1.3349         calculate D2E/DX2 analytically  !
 ! R7    R(6,16)                 1.7025         calculate D2E/DX2 analytically  !
 ! R8    R(7,8)                  1.0101         calculate D2E/DX2 analytically  !
 ! R9    R(7,9)                  1.449          calculate D2E/DX2 analytically  !
 ! R10   R(9,10)                 1.09           calculate D2E/DX2 analytically  !
 ! R11   R(9,11)                 1.525          calculate D2E/DX2 analytically  !
 ! R12   R(9,15)                 1.522          calculate D2E/DX2 analytically  !
 ! R13   R(11,12)                1.09           calculate D2E/DX2 analytically  !
 ! R14   R(11,13)                1.09           calculate D2E/DX2 analytically  !
 ! R15   R(11,14)                1.0899         calculate D2E/DX2 analytically  !
 ! R16   R(15,16)                1.229          calculate D2E/DX2 analytically  !
 ! R17   R(15,17)                1.335          calculate D2E/DX2 analytically  !
 ! R18   R(17,18)                1.0101         calculate D2E/DX2 analytically  !
 ! R19   R(17,19)                1.4491         calculate D2E/DX2 analytically  !
 ! R20   R(19,20)                1.09           calculate D2E/DX2 analytically  !
 ! R21   R(19,21)                1.09           calculate D2E/DX2 analytically  !
 ! R22   R(19,22)                1.09           calculate D2E/DX2 analytically  !
 ! A1    A(1,2,3)              109.4971         calculate D2E/DX2 analytically  !
 ! A2    A(1,2,4)              109.5001         calculate D2E/DX2 analytically  !
 ! A3    A(1,2,5)              111.0994         calculate D2E/DX2 analytically  !
 ! A4    A(3,2,4)              109.4493         calculate D2E/DX2 analytically  !
 ! A5    A(3,2,5)              108.6331         calculate D2E/DX2 analytically  !
 ! A6    A(4,2,5)              108.6352         calculate D2E/DX2 analytically  !
 ! A7    A(2,5,6)              120.4996         calculate D2E/DX2 analytically  !
 ! A8    A(2,5,7)              116.6031         calculate D2E/DX2 analytically  !
 ! A9    A(6,5,7)              122.8973         calculate D2E/DX2 analytically  !
 ! A10   A(5,6,16)             114.0717         calculate D2E/DX2 analytically  !
 ! A11   A(5,7,8)              119.9941         calculate D2E/DX2 analytically  !
 ! A12   A(5,7,9)              121.9053         calculate D2E/DX2 analytically  !
 ! A13   A(8,7,9)              118.1007         calculate D2E/DX2 analytically  !
 ! A14   A(7,9,10)             109.5            calculate D2E/DX2 analytically  !
 ! A15   A(7,9,11)             111.0992         calculate D2E/DX2 analytically  !
 ! A16   A(7,9,15)             111.0966         calculate D2E/DX2 analytically  !
 ! A17   A(10,9,11)            108.6382         calculate D2E/DX2 analytically  !
 ! A18   A(10,9,15)            108.6373         calculate D2E/DX2 analytically  !
 ! A19   A(11,9,15)            107.7947         calculate D2E/DX2 analytically  !
 ! A20   A(9,11,12)            109.5007         calculate D2E/DX2 analytically  !
 ! A21   A(9,11,13)            109.4959         calculate D2E/DX2 analytically  !
 ! A22   A(9,11,14)            109.4978         calculate D2E/DX2 analytically  !
 ! A23   A(12,11,13)           109.441          calculate D2E/DX2 analytically  !
 ! A24   A(12,11,14)           109.4482         calculate D2E/DX2 analytically  !
 ! A25   A(13,11,14)           109.4436         calculate D2E/DX2 analytically  !
 ! A26   A(9,15,16)            120.5            calculate D2E/DX2 analytically  !
 ! A27   A(9,15,17)            116.6011         calculate D2E/DX2 analytically  !
 ! A28   A(16,15,17)           122.8989         calculate D2E/DX2 analytically  !
 ! A29   A(6,16,15)            116.6199         calculate D2E/DX2 analytically  !
 ! A30   A(15,17,18)           119.9988         calculate D2E/DX2 analytically  !
 ! A31   A(15,17,19)           121.9048         calculate D2E/DX2 analytically  !
 ! A32   A(18,17,19)           118.0964         calculate D2E/DX2 analytically  !
 ! A33   A(17,19,20)           109.491          calculate D2E/DX2 analytically  !
 ! A34   A(17,19,21)           109.5024         calculate D2E/DX2 analytically  !
 ! A35   A(17,19,22)           109.4952         calculate D2E/DX2 analytically  !
 ! A36   A(20,19,21)           109.447          calculate D2E/DX2 analytically  !
 ! A37   A(20,19,22)           109.443          calculate D2E/DX2 analytically  !
 ! A38   A(21,19,22)           109.4486         calculate D2E/DX2 analytically  !
 ! D1    D(1,2,5,6)              0.003          calculate D2E/DX2 analytically  !
 ! D2    D(1,2,5,7)            179.9971         calculate D2E/DX2 analytically  !
 ! D3    D(3,2,5,6)            120.5094         calculate D2E/DX2 analytically  !
 ! D4    D(3,2,5,7)            -59.4964         calculate D2E/DX2 analytically  !
 ! D5    D(4,2,5,6)           -120.5085         calculate D2E/DX2 analytically  !
 ! D6    D(4,2,5,7)             59.4856         calculate D2E/DX2 analytically  !
 ! D7    D(2,5,6,16)           152.9243         calculate D2E/DX2 analytically  !
 ! D8    D(7,5,6,16)           -27.0695         calculate D2E/DX2 analytically  !
 ! D9    D(2,5,7,8)              0.0039         calculate D2E/DX2 analytically  !
 ! D10   D(2,5,7,9)            179.9999         calculate D2E/DX2 analytically  !
 ! D11   D(6,5,7,8)            179.998          calculate D2E/DX2 analytically  !
 ! D12   D(6,5,7,9)             -0.0061         calculate D2E/DX2 analytically  !
 ! D13   D(5,6,16,15)           24.865          calculate D2E/DX2 analytically  !
 ! D14   D(5,7,9,10)           150.0036         calculate D2E/DX2 analytically  !
 ! D15   D(5,7,9,11)           -89.9938         calculate D2E/DX2 analytically  !
 ! D16   D(5,7,9,15)            30.0038         frozen, calculate D2E/DX2 analyt!
 ! D17   D(8,7,9,10)           -30.0003         calculate D2E/DX2 analytically  !
 ! D18   D(8,7,9,11)            90.0022         calculate D2E/DX2 analytically  !
 ! D19   D(8,7,9,15)          -150.0002         calculate D2E/DX2 analytically  !
 ! D20   D(7,9,11,12)           60.0024         calculate D2E/DX2 analytically  !
 ! D21   D(7,9,11,13)          179.9986         calculate D2E/DX2 analytically  !
 ! D22   D(7,9,11,14)          -60.0038         calculate D2E/DX2 analytically  !
 ! D23   D(10,9,11,12)        -179.4843         calculate D2E/DX2 analytically  !
 ! D24   D(10,9,11,13)         -59.4881         calculate D2E/DX2 analytically  !
 ! D25   D(10,9,11,14)          60.5095         calculate D2E/DX2 analytically  !
 ! D26   D(15,9,11,12)         -61.938          calculate D2E/DX2 analytically  !
 ! D27   D(15,9,11,13)          58.0582         calculate D2E/DX2 analytically  !
 ! D28   D(15,9,11,14)         178.0558         calculate D2E/DX2 analytically  !
 ! D29   D(7,9,15,16)          -30.0006         calculate D2E/DX2 analytically  !
 ! D30   D(7,9,15,17)          150.0013         frozen, calculate D2E/DX2 analyt!
 ! D31   D(10,9,15,16)        -150.5117         calculate D2E/DX2 analytically  !
 ! D32   D(10,9,15,17)          29.4902         calculate D2E/DX2 analytically  !
 ! D33   D(11,9,15,16)          91.9414         calculate D2E/DX2 analytically  !
 ! D34   D(11,9,15,17)         -88.0567         calculate D2E/DX2 analytically  !
 ! D35   D(9,15,16,6)            5.2273         calculate D2E/DX2 analytically  !
 ! D36   D(17,15,16,6)        -174.7747         calculate D2E/DX2 analytically  !
 ! D37   D(9,15,17,18)          -0.0061         calculate D2E/DX2 analytically  !
 ! D38   D(9,15,17,19)        -179.9984         calculate D2E/DX2 analytically  !
 ! D39   D(16,15,17,18)        179.9959         calculate D2E/DX2 analytically  !
 ! D40   D(16,15,17,19)          0.0036         calculate D2E/DX2 analytically  !
 ! D41   D(15,17,19,20)         -0.0048         calculate D2E/DX2 analytically  !
 ! D42   D(15,17,19,21)        119.9968         calculate D2E/DX2 analytically  !
 ! D43   D(15,17,19,22)       -119.9971         calculate D2E/DX2 analytically  !
 ! D44   D(18,17,19,20)       -179.9973         calculate D2E/DX2 analytically  !
 ! D45   D(18,17,19,21)        -59.9957         calculate D2E/DX2 analytically  !
 ! D46   D(18,17,19,22)         60.0105         calculate D2E/DX2 analytically  !
 --------------------------------------------------------------------------------
 Trust Radius=3.00D-01 FncErr=1.00D-07 GrdErr=1.00D-06
 Number of steps in this run= 132 maximum allowed number of steps= 132.
 GradGradGradGradGradGradGradGradGradGradGradGradGradGradGradGradGradGrad

                          Input orientation:                          
 ---------------------------------------------------------------------
 Center     Atomic      Atomic             Coordinates (Angstroms)
 Number     Number       Type             X           Y           Z
 ---------------------------------------------------------------------
      1          1           0        0.366800    4.290000   -0.984200
      2          6           0        1.176900    3.748100   -0.496000
      3          1           0        1.320900    2.787000   -0.989500
      4          1           0        0.925300    3.584000    0.551700
      5          6           0        2.487100    4.535100   -0.566700
      6          8           0        2.527600    5.630400   -1.122700
      7          7           0        3.555400    3.969700    0.000000
      8          1           0        3.472300    3.067000    0.445500
      9          6           0        4.853300    4.613900    0.000000
     10          1           0        5.407600    4.315500    0.889800
     11          6           0        5.661300    4.220800   -1.232200
     12          1           0        5.123300    4.521400   -2.131200
     13          1           0        6.630500    4.718900   -1.205800
     14          1           0        5.808500    3.140900   -1.241400
     15          6           0        4.712700    6.129400    0.000000
     16          8           0        3.741900    6.665800   -0.529500
     17          7           0        5.686800    6.820100    0.596800
     18          1           0        6.465300    6.333900    1.018500
     19          6           0        5.669000    8.267500    0.663800
     20          1           0        4.773500    8.643500    0.169000
     21          1           0        5.667000    8.583500    1.707000
     22          1           0        6.553000    8.665600    0.165700
 ---------------------------------------------------------------------
                    Distance matrix (angstroms):
                    1          2          3          4          5
     1  H    0.000000
     2  C    1.090072   0.000000
     3  H    1.780265   1.089950   0.000000
     4  H    1.780266   1.089911   1.779608   0.000000
     5  C    2.174868   1.530030   2.143510   2.143509   0.000000
     6  O    2.546549   2.400041   3.091729   3.091720   1.229007
     7  N    3.352374   2.439751   2.714936   2.714878   1.334950
     8  H    3.630964   2.572777   2.601182   2.601111   2.037274
     9  C    4.604589   3.809402   4.098112   4.098079   2.434391
    10  H    5.377936   4.487896   4.750705   4.554165   3.270923
    11  C    5.300757   4.568947   4.577527   5.100736   3.258408
    12  H    4.898311   4.341192   4.332421   5.069504   3.065518
    13  H    6.282277   5.584624   5.654279   6.076686   4.196426
    14  H    5.567646   4.730331   4.508575   5.220842   3.664794
    15  C    4.820673   4.291677   4.863646   4.596502   2.795753
    16  O    4.152406   3.885012   4.595425   4.312739   2.473012
    17  N    6.099456   5.565123   6.151693   5.757279   4.100370
    18  H    6.736471   6.078425   6.563339   6.202536   4.644848
    19  C    6.830061   6.476811   7.188550   6.667115   5.056622
    20  H    6.300939   6.110867   6.896460   6.368174   4.758974
    21  H    7.332723   6.956673   7.730402   6.986661   5.627701
    22  H    7.664021   7.315880   7.954074   7.592276   5.842002
                    6          7          8          9         10
     6  O    0.000000
     7  N    2.252721   0.000000
     8  H    3.150036   1.010071   0.000000
     9  C    2.775357   1.448978   2.120974   0.000000
    10  H    3.751469   2.083739   2.345536   1.089970   0.000000
    11  C    3.437883   2.452791   2.989591   1.525027   2.139209
    12  H    2.997434   2.702720   3.388283   2.150225   3.041326
    13  H    4.203751   3.386959   3.928077   2.150214   2.459625
    14  H    4.120195   2.702673   2.882520   2.150165   2.466256
    15  C    2.506814   2.450234   3.333970   1.522008   2.136554
    16  O    1.702488   2.753926   3.738271   2.392880   3.211367
    17  N    3.788484   3.608852   4.360351   2.432737   2.537089
    18  H    4.537084   3.885139   4.467551   2.567934   2.282374
    19  C    4.473731   4.835186   5.649632   3.801946   3.967078
    20  H    3.973830   4.832881   5.732968   4.033932   4.433195
    21  H    5.155951   5.353490   6.069585   4.397008   4.353266
    22  H    5.203485   5.573557   6.396352   4.396898   4.556274
                   11         12         13         14         15
    11  C    0.000000
    12  H    1.089957   0.000000
    13  H    1.090023   1.779613   0.000000
    14  H    1.089925   1.779613   1.779617   0.000000
    15  C    2.461892   2.701161   2.668599   3.416575   0.000000
    16  O    3.186834   3.012003   3.548494   4.147597   1.229043
    17  N    3.178404   3.611584   2.924889   4.114645   1.334956
    18  H    3.190182   3.873852   2.753730   3.966583   2.037344
    19  C    4.468854   4.705643   4.124615   5.470948   2.434463
    20  H    4.723540   4.733391   4.554230   5.773999   2.520507
    21  H    5.260426   5.614984   4.934356   6.191525   3.138016
    22  H    4.743996   4.949160   4.178930   5.749480   3.137909
                   16         17         18         19         20
    16  O    0.000000
    17  N    2.252775   0.000000
    18  H    3.150138   1.010091   0.000000
    19  C    2.775450   1.449059   2.121017   0.000000
    20  H    2.337391   2.083727   2.986317   1.090011   0.000000
    21  H    3.519306   2.083870   2.484354   1.090012   1.779715
    22  H    3.519203   2.083751   2.484308   1.089974   1.779640
                   21         22
    21  H    0.000000
    22  H    1.779703   0.000000
 Stoichiometry    C6H12N2O2
 Framework group  C1[X(C6H12N2O2)]
 Deg. of freedom    60
 Full point group                 C1      NOp   1
 Largest Abelian subgroup         C1      NOp   1
 Largest concise Abelian subgroup C1      NOp   1
                         Standard orientation:                         
 ---------------------------------------------------------------------
 Center     Atomic      Atomic             Coordinates (Angstroms)
 Number     Number       Type             X           Y           Z
 ---------------------------------------------------------------------
      1          1           0       -3.557236   -1.627040    0.193792
      2          6           0       -3.238898   -0.732331   -0.341385
      3          1           0       -3.874165    0.106655   -0.057608
      4          1           0       -3.320208   -0.902263   -1.414892
      5          6           0       -1.787161   -0.380020   -0.010735
      6          8           0       -1.139080   -1.073960    0.769584
      7          7           0       -1.283304    0.701646   -0.609248
      8          1           0       -1.855691    1.240533   -1.243454
      9          6           0        0.078538    1.139765   -0.379084
     10          1           0        0.455357    1.640338   -1.270975
     11          6           0        0.151618    2.112351    0.793284
     12          1           0       -0.213856    1.622477    1.695757
     13          1           0        1.185186    2.424496    0.943116
     14          1           0       -0.463980    2.986126    0.579996
     15          6           0        0.987284   -0.039425   -0.062541
     16          8           0        0.541578   -1.036941    0.500360
     17          7           0        2.266390    0.077093   -0.426436
     18          1           0        2.585880    0.917346   -0.887070
     19          6           0        3.231354   -0.975743   -0.181171
     20          1           0        2.739797   -1.810392    0.318685
     21          1           0        3.648388   -1.315234   -1.129302
     22          1           0        4.032533   -0.594585    0.451976
 ---------------------------------------------------------------------
 Rotational constants (GHZ):      2.4431679      0.9115729      0.7505208
 Standard basis: 6-31G(d) (6D, 7F)
 There are   174 symmetry adapted basis functions of A   symmetry.
 Integral buffers will be    131072 words long.
 Raffenetti 2 integral format.
 Two-electron integral symmetry is turned on.
   174 basis functions,   328 primitive gaussians,   174 cartesian basis functions
    39 alpha electrons       39 beta electrons
       nuclear repulsion energy       580.8633638536 Hartrees.
 NAtoms=   22 NActive=   22 NUniq=   22 SFac= 7.50D-01 NAtFMM=   80 NAOKFM=F Big=F
 One-electron integrals computed using PRISM.
 NBasis=   174 RedAO= T  NBF=   174
 NBsUse=   174 1.00D-06 NBFU=   174
 Harris functional with IExCor=  402 diagonalized for initial guess.
 ExpMin= 1.61D-01 ExpMax= 5.48D+03 ExpMxC= 8.25D+02 IAcc=1 IRadAn=         1 AccDes= 0.00D+00
 HarFok:  IExCor=  402 AccDes= 0.00D+00 IRadAn=         1 IDoV= 1
 ScaDFX=  1.000000  1.000000  1.000000  1.000000
 FoFCou: FMM=F IPFlag=           0 FMFlag=      100000 FMFlg1=           0
         NFxFlg=           0 DoJE=T BraDBF=F KetDBF=T FulRan=T
         Omega=  0.000000  0.000000  1.000000  0.000000  0.000000 ICntrl=     500 IOpCl=  0
         NMat0=    1 NMatS0=    1 NMatT0=    0 NMatD0=    1 NMtDS0=    0 NMtDT0=    0
         I1Cent=           4 NGrid=           0.
 Petite list used in FoFCou.
 Initial guess orbital symmetries:
       Occupied  (A) (A) (A) (A) (A) (A) (A) (A) (A) (A) (A) (A)
                 (A) (A) (A) (A) (A) (A) (A) (A) (A) (A) (A) (A)
                 (A) (A) (A) (A) (A) (A) (A) (A) (A) (A) (A) (A)
                 (A) (A) (A)
       Virtual   (A) (A) (A) (A) (A) (A) (A) (A) (A) (A) (A) (A)
                 (A) (A) (A) (A) (A) (A) (A) (A) (A) (A) (A) (A)
                 (A) (A) (A) (A) (A) (A) (A) (A) (A) (A) (A) (A)
                 (A) (A) (A) (A) (A) (A) (A) (A) (A) (A) (A) (A)
                 (A) (A) (A) (A) (A) (A) (A) (A) (A) (A) (A) (A)
                 (A) (A) (A) (A) (A) (A) (A) (A) (A) (A) (A) (A)
                 (A) (A) (A) (A) (A) (A) (A) (A) (A) (A) (A) (A)
                 (A) (A) (A) (A) (A) (A) (A) (A) (A) (A) (A) (A)
                 (A) (A) (A) (A) (A) (A) (A) (A) (A) (A) (A) (A)
                 (A) (A) (A) (A) (A) (A) (A) (A) (A) (A) (A) (A)
                 (A) (A) (A) (A) (A) (A) (A) (A) (A) (A) (A) (A)
                 (A) (A) (A)
 The electronic state of the initial guess is 1-A.
 Requested convergence on RMS density matrix=1.00D-08 within 128 cycles.
 Requested convergence on MAX density matrix=1.00D-06.
 Requested convergence on             energy=1.00D-06.
 No special actions if energy rises.
 Integral accuracy reduced to 1.0D-05 until final iterations.
 EnCoef did     3 forward-backward iterations
 Initial convergence to 1.0D-05 achieved.  Increase integral accuracy.
 SCF Done:  E(RB3LYP) =  -495.687884243     A.U. after   19 cycles
             Convg  =    0.4045D-08             -V/T =  2.0070
 Range of M.O.s used for correlation:     1   174
 NBasis=   174 NAE=    39 NBE=    39 NFC=     0 NFV=     0
 NROrb=    174 NOA=    39 NOB=    39 NVA=   135 NVB=   135
 Symmetrizing basis deriv contribution to polar:
 IMax=3 JMax=2 DiffMx= 0.00D+00
 G2DrvN: will do    23 centers at a time, making    1 passes doing MaxLOS=2.
 Calling FoFCou, ICntrl=  3107 FMM=F I1Cent=   0 AccDes= 0.00D+00.
 FoFDir/FoFCou used for L=0 through L=2.
 End of G2Drv Frequency-dependent properties file   721 does not exist.
 End of G2Drv Frequency-dependent properties file   722 does not exist.
          IDoAtm=1111111111111111111111
          Differentiating once with respect to nuclear coordinates.
          There are    69 degrees of freedom in the 1st order CPHF.  IDoFFX=5.
     63 vectors produced by pass  0 Test12= 7.63D-11 1.45D-07 XBig12= 2.00D-01 2.52D-01.
 AX will form    63 AO Fock derivatives at one time.
     63 vectors produced by pass  1 Test12= 7.63D-11 1.45D-07 XBig12= 4.20D-02 5.57D-02.
     63 vectors produced by pass  2 Test12= 7.63D-11 1.45D-07 XBig12= 7.49D-05 1.12D-03.
     63 vectors produced by pass  3 Test12= 7.63D-11 1.45D-07 XBig12= 3.14D-07 8.54D-05.
     32 vectors produced by pass  4 Test12= 7.63D-11 1.45D-07 XBig12= 4.11D-10 2.49D-06.
 Inverted reduced A of dimension   284 with in-core refinement.
 End of Minotr Frequency-dependent properties file   721 does not exist.
 End of Minotr Frequency-dependent properties file   722 does not exist.

 **********************************************************************

            Population analysis using the SCF density.

 **********************************************************************

 Orbital symmetries:
       Occupied  (A) (A) (A) (A) (A) (A) (A) (A) (A) (A) (A) (A)
                 (A) (A) (A) (A) (A) (A) (A) (A) (A) (A) (A) (A)
                 (A) (A) (A) (A) (A) (A) (A) (A) (A) (A) (A) (A)
                 (A) (A) (A)
       Virtual   (A) (A) (A) (A) (A) (A) (A) (A) (A) (A) (A) (A)
                 (A) (A) (A) (A) (A) (A) (A) (A) (A) (A) (A) (A)
                 (A) (A) (A) (A) (A) (A) (A) (A) (A) (A) (A) (A)
                 (A) (A) (A) (A) (A) (A) (A) (A) (A) (A) (A) (A)
                 (A) (A) (A) (A) (A) (A) (A) (A) (A) (A) (A) (A)
                 (A) (A) (A) (A) (A) (A) (A) (A) (A) (A) (A) (A)
                 (A) (A) (A) (A) (A) (A) (A) (A) (A) (A) (A) (A)
                 (A) (A) (A) (A) (A) (A) (A) (A) (A) (A) (A) (A)
                 (A) (A) (A) (A) (A) (A) (A) (A) (A) (A) (A) (A)
                 (A) (A) (A) (A) (A) (A) (A) (A) (A) (A) (A) (A)
                 (A) (A) (A) (A) (A) (A) (A) (A) (A) (A) (A) (A)
                 (A) (A) (A)
 The electronic state is 1-A.
 Alpha  occ. eigenvalues --  -19.07224 -19.06257 -14.35465 -14.34826 -10.26598
 Alpha  occ. eigenvalues --  -10.24773 -10.23460 -10.20890 -10.18112 -10.16703
 Alpha  occ. eigenvalues --   -1.04299  -0.98618  -0.92550  -0.90629  -0.77959
 Alpha  occ. eigenvalues --   -0.71472  -0.70312  -0.64019  -0.59899  -0.57644
 Alpha  occ. eigenvalues --   -0.52108  -0.48994  -0.47466  -0.45754  -0.44616
 Alpha  occ. eigenvalues --   -0.43732  -0.41620  -0.40523  -0.39936  -0.38789
 Alpha  occ. eigenvalues --   -0.38015  -0.36955  -0.35317  -0.33994  -0.31382
 Alpha  occ. eigenvalues --   -0.28316  -0.24873  -0.22351  -0.09814
 Alpha virt. eigenvalues --    0.04001   0.05992   0.06583   0.08349   0.12818
 Alpha virt. eigenvalues --    0.13515   0.13751   0.15858   0.16801   0.17247
 Alpha virt. eigenvalues --    0.17481   0.17805   0.18255   0.18943   0.19686
 Alpha virt. eigenvalues --    0.21207   0.23492   0.27026   0.28280   0.34090
 Alpha virt. eigenvalues --    0.37460   0.42186   0.44867   0.51320   0.51733
 Alpha virt. eigenvalues --    0.52473   0.53763   0.56142   0.56268   0.56869
 Alpha virt. eigenvalues --    0.58104   0.60857   0.61303   0.62787   0.67154
 Alpha virt. eigenvalues --    0.68054   0.69411   0.73292   0.73773   0.75540
 Alpha virt. eigenvalues --    0.77584   0.78111   0.80112   0.82500   0.83087
 Alpha virt. eigenvalues --    0.85337   0.86021   0.87405   0.89127   0.89658
 Alpha virt. eigenvalues --    0.90198   0.91849   0.92363   0.93037   0.94991
 Alpha virt. eigenvalues --    0.95474   0.96792   0.97048   0.99525   1.03758
 Alpha virt. eigenvalues --    1.05670   1.09579   1.14479   1.19110   1.19765
 Alpha virt. eigenvalues --    1.29666   1.31297   1.33903   1.37420   1.40726
 Alpha virt. eigenvalues --    1.40794   1.42038   1.44043   1.50788   1.53930
 Alpha virt. eigenvalues --    1.55296   1.57086   1.63460   1.69238   1.72058
 Alpha virt. eigenvalues --    1.72839   1.76331   1.79129   1.80708   1.84243
 Alpha virt. eigenvalues --    1.85810   1.88510   1.91696   1.92169   1.94458
 Alpha virt. eigenvalues --    1.95923   2.00025   2.01511   2.03668   2.06228
 Alpha virt. eigenvalues --    2.07981   2.12184   2.18313   2.18500   2.22545
 Alpha virt. eigenvalues --    2.23103   2.24833   2.27808   2.30689   2.31232
 Alpha virt. eigenvalues --    2.32083   2.37914   2.39826   2.44171   2.45403
 Alpha virt. eigenvalues --    2.50708   2.53157   2.63142   2.64809   2.66915
 Alpha virt. eigenvalues --    2.69060   2.74208   2.77578   2.87564   2.92114
 Alpha virt. eigenvalues --    2.98271   3.02989   3.06131   3.25584   3.32429
 Alpha virt. eigenvalues --    3.97841   4.00812   4.09975   4.20043   4.23093
 Alpha virt. eigenvalues --    4.26157   4.36511   4.47497   4.55837   4.68628
          Condensed to atoms (all electrons):
              1          2          3          4          5          6
     1  H    0.507969   0.360236  -0.022606  -0.020435  -0.015703   0.005134
     2  C    0.360236   5.411696   0.350517   0.314573   0.316561  -0.065122
     3  H   -0.022606   0.350517   0.571787  -0.030205  -0.025132   0.000889
     4  H   -0.020435   0.314573  -0.030205   0.613289  -0.029995   0.000825
     5  C   -0.015703   0.316561  -0.025132  -0.029995   4.476784   0.539673
     6  O    0.005134  -0.065122   0.000889   0.000825   0.539673   8.421434
     7  N    0.004652  -0.163941   0.004532   0.013869   0.188457  -0.130167
     8  H   -0.000224   0.003969   0.001016  -0.001200  -0.008363   0.005097
     9  C   -0.000178   0.009417  -0.000291  -0.000316  -0.006314   0.037157
    10  H    0.000002  -0.000224  -0.000003   0.000008   0.003216   0.000286
    11  C    0.000006  -0.000366   0.000040   0.000016  -0.002852  -0.003872
    12  H    0.000002   0.000005  -0.000032   0.000002   0.004364   0.002894
    13  H    0.000000   0.000008   0.000000   0.000000   0.000098   0.000081
    14  H    0.000000   0.000032   0.000004  -0.000005   0.000134   0.000147
    15  C    0.000022  -0.000779   0.000033   0.000071  -0.015885   0.014887
    16  O    0.000070  -0.003622  -0.000020   0.000360   0.014503  -0.405808
    17  N    0.000000  -0.000022   0.000000   0.000002  -0.000760  -0.001564
    18  H    0.000000   0.000003   0.000000  -0.000001   0.000204   0.000206
    19  C    0.000000   0.000000   0.000000   0.000000   0.000009  -0.000041
    20  H    0.000000   0.000002   0.000000   0.000000   0.000023   0.000566
    21  H    0.000000   0.000000   0.000000   0.000000   0.000002   0.000005
    22  H    0.000000   0.000000   0.000000   0.000000   0.000001   0.000004
              7          8          9         10         11         12
     1  H    0.004652  -0.000224  -0.000178   0.000002   0.000006   0.000002
     2  C   -0.163941   0.003969   0.009417  -0.000224  -0.000366   0.000005
     3  H    0.004532   0.001016  -0.000291  -0.000003   0.000040  -0.000032
     4  H    0.013869  -0.001200  -0.000316   0.000008   0.000016   0.000002
     5  C    0.188457  -0.008363  -0.006314   0.003216  -0.002852   0.004364
     6  O   -0.130167   0.005097   0.037157   0.000286  -0.003872   0.002894
     7  N    7.284496   0.289141   0.200902  -0.038915  -0.070009  -0.007767
     8  H    0.289141   0.426337  -0.030355  -0.005114   0.000789  -0.000180
     9  C    0.200902  -0.030355   5.173944   0.362184   0.343358  -0.027663
    10  H   -0.038915  -0.005114   0.362184   0.626038  -0.051820   0.005606
    11  C   -0.070009   0.000789   0.343358  -0.051820   5.166318   0.379921
    12  H   -0.007767  -0.000180  -0.027663   0.005606   0.379921   0.512199
    13  H    0.005867  -0.000115  -0.028294  -0.001067   0.351224  -0.025728
    14  H    0.000581   0.002028  -0.029882  -0.005033   0.358951  -0.027321
    15  C   -0.006060   0.001993   0.292163  -0.035206  -0.039823  -0.006755
    16  O    0.022736  -0.000637  -0.128733   0.002726   0.000851   0.002476
    17  N    0.003388  -0.000187  -0.140276   0.003049   0.001136  -0.000033
    18  H   -0.000342   0.000042   0.011770   0.003101  -0.002103  -0.000006
    19  C   -0.000134   0.000005   0.007449  -0.000133  -0.000379  -0.000005
    20  H   -0.000039   0.000001   0.001912  -0.000048  -0.000070  -0.000008
    21  H    0.000004   0.000000  -0.000051  -0.000020  -0.000012   0.000000
    22  H   -0.000001   0.000000  -0.000070  -0.000008   0.000049   0.000000
             13         14         15         16         17         18
     1  H    0.000000   0.000000   0.000022   0.000070   0.000000   0.000000
     2  C    0.000008   0.000032  -0.000779  -0.003622  -0.000022   0.000003
     3  H    0.000000   0.000004   0.000033  -0.000020   0.000000   0.000000
     4  H    0.000000  -0.000005   0.000071   0.000360   0.000002  -0.000001
     5  C    0.000098   0.000134  -0.015885   0.014503  -0.000760   0.000204
     6  O    0.000081   0.000147   0.014887  -0.405808  -0.001564   0.000206
     7  N    0.005867   0.000581  -0.006060   0.022736   0.003388  -0.000342
     8  H   -0.000115   0.002028   0.001993  -0.000637  -0.000187   0.000042
     9  C   -0.028294  -0.029882   0.292163  -0.128733  -0.140276   0.011770
    10  H   -0.001067  -0.005033  -0.035206   0.002726   0.003049   0.003101
    11  C    0.351224   0.358951  -0.039823   0.000851   0.001136  -0.002103
    12  H   -0.025728  -0.027321  -0.006755   0.002476  -0.000033  -0.000006
    13  H    0.583061  -0.025472  -0.003156  -0.000484   0.002655   0.002072
    14  H   -0.025472   0.581064   0.003973  -0.000185  -0.000160   0.000085
    15  C   -0.003156   0.003973   4.465732   0.525618   0.236932  -0.016661
    16  O   -0.000484  -0.000185   0.525618   8.457481  -0.081650   0.003062
    17  N    0.002655  -0.000160   0.236932  -0.081650   7.185696   0.253239
    18  H    0.002072   0.000085  -0.016661   0.003062   0.253239   0.468020
    19  C   -0.000045   0.000011  -0.030451  -0.010675   0.265120  -0.028034
    20  H    0.000013   0.000001   0.008775   0.023920  -0.045063   0.005662
    21  H    0.000008   0.000000   0.002084   0.000759  -0.046718   0.000328
    22  H   -0.000020  -0.000001   0.003290   0.000766  -0.047466   0.000336
             19         20         21         22
     1  H    0.000000   0.000000   0.000000   0.000000
     2  C    0.000000   0.000002   0.000000   0.000000
     3  H    0.000000   0.000000   0.000000   0.000000
     4  H    0.000000   0.000000   0.000000   0.000000
     5  C    0.000009   0.000023   0.000002   0.000001
     6  O   -0.000041   0.000566   0.000005   0.000004
     7  N   -0.000134  -0.000039   0.000004  -0.000001
     8  H    0.000005   0.000001   0.000000   0.000000
     9  C    0.007449   0.001912  -0.000051  -0.000070
    10  H   -0.000133  -0.000048  -0.000020  -0.000008
    11  C   -0.000379  -0.000070  -0.000012   0.000049
    12  H   -0.000005  -0.000008   0.000000   0.000000
    13  H   -0.000045   0.000013   0.000008  -0.000020
    14  H    0.000011   0.000001   0.000000  -0.000001
    15  C   -0.030451   0.008775   0.002084   0.003290
    16  O   -0.010675   0.023920   0.000759   0.000766
    17  N    0.265120  -0.045063  -0.046718  -0.047466
    18  H   -0.028034   0.005662   0.000328   0.000336
    19  C    4.986353   0.361114   0.380115   0.379421
    20  H    0.361114   0.480248  -0.022225  -0.022393
    21  H    0.380115  -0.022225   0.572722  -0.039275
    22  H    0.379421  -0.022393  -0.039275   0.573189
 Mulliken atomic charges:
              1
     1  H    0.181053
     2  C   -0.532944
     3  H    0.149471
     4  H    0.139142
     5  C    0.560974
     6  O   -0.422711
     7  N   -0.601251
     8  H    0.315957
     9  C   -0.047833
    10  H    0.131376
    11  C   -0.431355
    12  H    0.188028
    13  H    0.139293
    14  H    0.141048
    15  C    0.599205
    16  O   -0.423515
    17  N   -0.587318
    18  H    0.299016
    19  C   -0.309698
    20  H    0.207608
    21  H    0.152274
    22  H    0.152179
 Sum of Mulliken atomic charges =   0.00000
 Mulliken charges with hydrogens summed into heavy atoms:
              1
     2  C   -0.063278
     5  C    0.560974
     6  O   -0.422711
     7  N   -0.285294
     9  C    0.083542
    11  C    0.037014
    15  C    0.599205
    16  O   -0.423515
    17  N   -0.288301
    19  C    0.202363
 Sum of Mulliken charges with hydrogens summed into heavy atoms =   0.00000
 APT atomic charges:
              1
     1  H    0.549419
     2  C   -1.225379
     3  H    0.466759
     4  H    0.319799
     5  C    0.171560
     6  O   -0.446344
     7  N   -0.796768
     8  H    0.707386
     9  C   -0.416976
    10  H    0.426231
    11  C   -1.162087
    12  H    0.302155
    13  H    0.410589
    14  H    0.494059
    15  C    0.116287
    16  O   -0.163997
    17  N   -0.471077
    18  H    0.586048
    19  C   -1.319869
    20  H    0.312627
    21  H    0.556556
    22  H    0.583023
 Sum of APT charges=   0.00000
 APT Atomic charges with hydrogens summed into heavy atoms:
              1
     1  H    0.000000
     2  C    0.110596
     3  H    0.000000
     4  H    0.000000
     5  C    0.171560
     6  O   -0.446344
     7  N   -0.089383
     8  H    0.000000
     9  C    0.009256
    10  H    0.000000
    11  C    0.044716
    12  H    0.000000
    13  H    0.000000
    14  H    0.000000
    15  C    0.116287
    16  O   -0.163997
    17  N    0.114972
    18  H    0.000000
    19  C    0.132337
    20  H    0.000000
    21  H    0.000000
    22  H    0.000000
 Sum of APT charges=   0.00000
 Electronic spatial extent (au):  <R**2>=           1638.4286
 Charge=              0.0000 electrons
 Dipole moment (field-independent basis, Debye):
    X=              1.4459    Y=              4.1119    Z=             -3.1441  Tot=              5.3743
 Quadrupole moment (field-independent basis, Debye-Ang):
   XX=            -49.4868   YY=            -59.7427   ZZ=            -59.7561
   XY=             -1.6527   XZ=              0.9356   YZ=              0.1088
 Traceless Quadrupole moment (field-independent basis, Debye-Ang):
   XX=              6.8417   YY=             -3.4142   ZZ=             -3.4275
   XY=             -1.6527   XZ=              0.9356   YZ=              0.1088
 Octapole moment (field-independent basis, Debye-Ang**2):
  XXX=             16.9329  YYY=             -1.1708  ZZZ=             -0.7172  XYY=              2.5282
  XXY=              0.5616  XXZ=             -6.7583  XZZ=              1.0439  YZZ=              3.0309
  YYZ=             -5.9770  XYZ=             -0.5486
 Hexadecapole moment (field-independent basis, Debye-Ang**3):
 XXXX=          -1386.0956 YYYY=           -506.0673 ZZZZ=           -175.0620 XXXY=             -9.1571
 XXXZ=            -15.8332 YYYX=             -5.7902 YYYZ=            -13.5592 ZZZX=             -0.3289
 ZZZY=             -9.3971 XXYY=           -307.7133 XXZZ=           -268.3484 YYZZ=           -112.4100
 XXYZ=            -12.2441 YYXZ=              1.0058 ZZXY=             -4.6479
 N-N= 5.808633638536D+02 E-N=-2.319553271196D+03  KE= 4.922367249324D+02
  Exact polarizability:   0.000   0.000   0.000   0.000   0.000   0.000
 Approx polarizability: 144.511   6.030 122.807  -1.943 -25.298 102.485
 Calling FoFJK, ICntrl=    100147 FMM=F ISym2X=0 I1Cent= 0 IOpClX= 0 NMat=1 NMatS=1 NMatT=0.
 ***** Axes restored to original set *****
 -------------------------------------------------------------------
 Center     Atomic                   Forces (Hartrees/Bohr)
 Number     Number              X              Y              Z
 -------------------------------------------------------------------
      1        1           0.003664252    0.002589168   -0.000254938
      2        6           0.007560800   -0.000251297    0.014955405
      3        1          -0.002356213   -0.005505964   -0.000458692
      4        1          -0.007951894   -0.007270539    0.005188335
      5        6          -0.060750597    0.030211535   -0.041075437
      6        8          -0.138688920   -0.151965886   -0.081562892
      7        7           0.025518781   -0.015664629    0.021978056
      8        1           0.000298056   -0.000841883   -0.000843459
      9        6           0.010100412   -0.001403123   -0.008086735
     10        1          -0.000500830   -0.003380470    0.005428176
     11        6           0.003387504   -0.003519089   -0.000552728
     12        1          -0.000164251    0.000449709   -0.002382340
     13        1           0.004901876   -0.000129591   -0.003203904
     14        1           0.002226398   -0.004027913   -0.002760822
     15        6          -0.040397305    0.016225614   -0.010955385
     16        8           0.159558209    0.133589455    0.085490668
     17        7           0.021525426    0.007001190    0.012624167
     18        1           0.004305537   -0.000406799    0.003142519
     19        6           0.005023334    0.000074042    0.001523099
     20        1          -0.000763382   -0.004476409   -0.000712734
     21        1           0.000493602    0.003976350    0.003460064
     22        1           0.003009205    0.004726530   -0.000940422
 -------------------------------------------------------------------
 Cartesian Forces:  Max     0.159558209 RMS     0.040986785

 GradGradGradGradGradGradGradGradGradGradGradGradGradGradGradGradGradGrad
 Berny optimization.
 Internal  Forces:  Max     0.218206566 RMS     0.023385303
 Search for a local minimum.
 Step number   1 out of a maximum of  132
 All quantities printed in internal units (Hartrees-Bohrs-Radians)
 Mixed Optimization -- RFO/linear search
 Second derivative matrix not updated -- analytic derivatives used.
     Eigenvalues ---   -0.01480  -0.00048  -0.00037   0.00296   0.00347
     Eigenvalues ---    0.00364   0.01203   0.01985   0.02437   0.03229
     Eigenvalues ---    0.04547   0.04707   0.04856   0.05103   0.05820
     Eigenvalues ---    0.06014   0.06325   0.06389   0.06640   0.11725
     Eigenvalues ---    0.11959   0.12199   0.12378   0.13100   0.13178
     Eigenvalues ---    0.13292   0.13615   0.15128   0.16558   0.17457
     Eigenvalues ---    0.18430   0.18633   0.19687   0.21140   0.22356
     Eigenvalues ---    0.22600   0.27217   0.29179   0.31205   0.32822
     Eigenvalues ---    0.34275   0.34533   0.34710   0.34859   0.34995
     Eigenvalues ---    0.35179   0.35253   0.35773   0.35811   0.35963
     Eigenvalues ---    0.37865   0.39130   0.45623   0.46389   0.49387
     Eigenvalues ---    0.51151   0.70963   0.782801000.000001000.00000
     Eigenvalues --- 1000.000001000.000001000.000001000.000001000.00000
     Eigenvalues --- 1000.000001000.000001000.000001000.000001000.00000
     Eigenvalues --- 1000.000001000.000001000.000001000.000001000.00000
     Eigenvalues --- 1000.000001000.000001000.000001000.000001000.00000
     Eigenvalues --- 1000.000001000.000001000.000001000.000001000.00000
     Eigenvalues --- 1000.000001000.000001000.000001000.000001000.00000
     Eigenvalues --- 1000.000001000.000001000.000001000.000001000.00000
     Eigenvalues --- 1000.000001000.000001000.000001000.000001000.00000
     Eigenvalues --- 1000.000001000.000001000.000001000.000001000.00000
     Eigenvalues --- 1000.00000
 RFO step:  Lambda=-1.22845801D-01 EMin=-1.48017968D-02
 Linear search not attempted -- first point.
 Maximum step size (   0.300) exceeded in Quadratic search.
    -- Step size scaled by   0.271
 Iteration  1 RMS(Cart)=  0.04667490 RMS(Int)=  0.00120921
 Iteration  2 RMS(Cart)=  0.00178070 RMS(Int)=  0.00042742
 Iteration  3 RMS(Cart)=  0.00000342 RMS(Int)=  0.00042741
 Iteration  4 RMS(Cart)=  0.00000000 RMS(Int)=  0.00042741
 Iteration  1 RMS(Cart)=  0.00009295 RMS(Int)=  0.00007883
 Iteration  2 RMS(Cart)=  0.00005401 RMS(Int)=  0.00008651
 Iteration  3 RMS(Cart)=  0.00003311 RMS(Int)=  0.00009854
 Iteration  4 RMS(Cart)=  0.00002262 RMS(Int)=  0.00010899
 Iteration  5 RMS(Cart)=  0.00001748 RMS(Int)=  0.00011724
 Iteration  6 RMS(Cart)=  0.00001460 RMS(Int)=  0.00012371
 Iteration  7 RMS(Cart)=  0.00001253 RMS(Int)=  0.00012882
 Iteration  8 RMS(Cart)=  0.00001078 RMS(Int)=  0.00013292
 Iteration  9 RMS(Cart)=  0.00000922 RMS(Int)=  0.00013624
 Iteration 10 RMS(Cart)=  0.00000783 RMS(Int)=  0.00013896
 Iteration 11 RMS(Cart)=  0.00000661 RMS(Int)=  0.00014119
 Iteration 12 RMS(Cart)=  0.00000555 RMS(Int)=  0.00014303
 Iteration 13 RMS(Cart)=  0.00000464 RMS(Int)=  0.00014456
 Iteration 14 RMS(Cart)=  0.00000387 RMS(Int)=  0.00014582
 Iteration 15 RMS(Cart)=  0.00000322 RMS(Int)=  0.00014687
 Iteration 16 RMS(Cart)=  0.00000267 RMS(Int)=  0.00014774
 Iteration 17 RMS(Cart)=  0.00000222 RMS(Int)=  0.00014846
 Iteration 18 RMS(Cart)=  0.00000184 RMS(Int)=  0.00014906
 Iteration 19 RMS(Cart)=  0.00000152 RMS(Int)=  0.00014956
 Iteration 20 RMS(Cart)=  0.00000126 RMS(Int)=  0.00014997
 Iteration 21 RMS(Cart)=  0.00000104 RMS(Int)=  0.00015031
 Iteration 22 RMS(Cart)=  0.00000086 RMS(Int)=  0.00015059
 Variable       Old X    -DE/DX   Delta X   Delta X   Delta X     New X
                                 (Linear)    (Quad)   (Total)
    R1        2.05994  -0.00132   0.00000  -0.00074  -0.00074   2.05920
    R2        2.05971   0.00475   0.00000   0.00277   0.00277   2.06248
    R3        2.05963   0.00792   0.00000   0.00096   0.00096   2.06060
    R4        2.89134   0.00548   0.00000   0.00917   0.00917   2.90050
    R5        2.32249  -0.01384   0.00000  -0.01514  -0.01521   2.30728
    R6        2.52269   0.04784   0.00000   0.01709   0.01716   2.53985
    R7        3.21724   0.21821   0.00000   0.15096   0.15119   3.36843
    R8        1.90876   0.00036   0.00000   0.00045   0.00045   1.90921
    R9        2.73817   0.02404   0.00000   0.00820   0.00838   2.74655
   R10        2.05975   0.00510   0.00000   0.00309   0.00309   2.06283
   R11        2.88188   0.01455   0.00000   0.00691   0.00691   2.88879
   R12        2.87618   0.02623   0.00000   0.00823   0.00781   2.88399
   R13        2.05972   0.00217   0.00000   0.00160   0.00160   2.06132
   R14        2.05984   0.00422   0.00000   0.00196   0.00196   2.06180
   R15        2.05966   0.00431   0.00000   0.00251   0.00251   2.06217
   R16        2.32256  -0.00853   0.00000  -0.01022  -0.01028   2.31228
   R17        2.52270   0.03869   0.00000   0.01879   0.01879   2.54149
   R18        1.90880   0.00483   0.00000  -0.00116  -0.00116   1.90764
   R19        2.73833   0.00435   0.00000   0.00054   0.00054   2.73887
   R20        2.05982  -0.00060   0.00000   0.00050   0.00050   2.06032
   R21        2.05982   0.00447   0.00000   0.00246   0.00246   2.06228
   R22        2.05975   0.00459   0.00000   0.00296   0.00296   2.06271
    A1        1.91109   0.00042   0.00000   0.00186   0.00187   1.91296
    A2        1.91114  -0.00183   0.00000  -0.00072  -0.00080   1.91034
    A3        1.93905  -0.00955   0.00000  -0.00906  -0.00909   1.92996
    A4        1.91025  -0.00686   0.00000  -0.00360  -0.00358   1.90667
    A5        1.89600   0.00414   0.00000   0.01890   0.01891   1.91492
    A6        1.89604   0.01373   0.00000  -0.00731  -0.00734   1.88870
    A7        2.10312   0.02282   0.00000   0.01019   0.01038   2.11349
    A8        2.03511  -0.00868   0.00000  -0.02456  -0.02437   2.01074
    A9        2.14496  -0.01414   0.00000   0.01436   0.01399   2.15895
   A10        1.99093  -0.01422   0.00000  -0.02483  -0.02639   1.96454
   A11        2.09429  -0.01253   0.00000  -0.02030  -0.02029   2.07400
   A12        2.12765   0.02520   0.00000   0.03521   0.03506   2.16271
   A13        2.06125  -0.01266   0.00000  -0.01491  -0.01495   2.04630
   A14        1.91114  -0.00478   0.00000  -0.00482  -0.00496   1.90617
   A15        1.93905  -0.00495   0.00000  -0.00285  -0.00266   1.93639
   A16        1.93900   0.01044   0.00000  -0.00080  -0.00076   1.93824
   A17        1.89609   0.00245   0.00000   0.00051   0.00049   1.89658
   A18        1.89608  -0.00826   0.00000   0.00602   0.00622   1.90230
   A19        1.88137   0.00499   0.00000   0.00229   0.00199   1.88336
   A20        1.91115  -0.00016   0.00000   0.00004   0.00003   1.91118
   A21        1.91106   0.00509   0.00000   0.00303   0.00302   1.91409
   A22        1.91110   0.00360   0.00000   0.00569   0.00568   1.91678
   A23        1.91011  -0.00259   0.00000  -0.00295  -0.00295   1.90715
   A24        1.91023  -0.00208   0.00000  -0.00219  -0.00220   1.90804
   A25        1.91015  -0.00387   0.00000  -0.00362  -0.00363   1.90652
   A26        2.10312   0.00437   0.00000  -0.00496  -0.00630   2.09682
   A27        2.03507  -0.01752   0.00000  -0.00912  -0.00846   2.02662
   A28        2.14499   0.01314   0.00000   0.01409   0.01475   2.15974
   A29        2.03540  -0.01633   0.00000   0.02060   0.01964   2.05504
   A30        2.09437   0.00021   0.00000   0.00248   0.00247   2.09684
   A31        2.12764   0.00382   0.00000  -0.00319  -0.00320   2.12444
   A32        2.06117  -0.00403   0.00000   0.00072   0.00071   2.06188
   A33        1.91098  -0.00856   0.00000  -0.00826  -0.00825   1.90272
   A34        1.91118   0.00461   0.00000   0.00610   0.00609   1.91726
   A35        1.91105   0.00553   0.00000   0.00602   0.00601   1.91706
   A36        1.91021   0.00095   0.00000  -0.00062  -0.00061   1.90960
   A37        1.91014   0.00070   0.00000  -0.00037  -0.00036   1.90978
   A38        1.91024  -0.00323   0.00000  -0.00286  -0.00289   1.90735
    D1        0.00005   0.00130   0.00000   0.05580   0.05602   0.05607
    D2        3.14154   0.00027   0.00000   0.05417   0.05403  -3.08761
    D3        2.10329  -0.00140   0.00000   0.06472   0.06490   2.16819
    D4       -1.03841  -0.00243   0.00000   0.06309   0.06291  -0.97549
    D5       -2.10327   0.00059   0.00000   0.06703   0.06717  -2.03610
    D6        1.03822  -0.00044   0.00000   0.06540   0.06519   1.10341
    D7        2.66903  -0.00249   0.00000   0.09232   0.09055   2.75958
    D8       -0.47245  -0.00139   0.00000   0.09406   0.09271  -0.37974
    D9        0.00007   0.00989   0.00000  -0.01480  -0.01562  -0.01555
   D10        3.14159   0.00847   0.00000  -0.03482  -0.03639   3.10520
   D11        3.14156   0.00883   0.00000  -0.01648  -0.01767   3.12389
   D12       -0.00011   0.00741   0.00000  -0.03649  -0.03844  -0.03854
   D13        0.43398   0.00564   0.00000  -0.10045  -0.10019   0.33379
   D14        2.61806   0.00588   0.00000   0.00385   0.00402   2.62208
   D15       -1.57069   0.00269   0.00000  -0.00045  -0.00024  -1.57092
   D16        0.52367   0.01267   0.00000   0.00000  -0.00001   0.52366
   D17       -0.52360   0.00449   0.00000  -0.01581  -0.01644  -0.54005
   D18        1.57084   0.00130   0.00000  -0.02011  -0.02070   1.55014
   D19       -2.61800   0.01128   0.00000  -0.01966  -0.02047  -2.63847
   D20        1.04724   0.00689   0.00000   0.00336   0.00337   1.05061
   D21        3.14157   0.00674   0.00000   0.00162   0.00163  -3.13999
   D22       -1.04726   0.00733   0.00000   0.00253   0.00254  -1.04472
   D23       -3.13259  -0.00051   0.00000  -0.00404  -0.00409  -3.13668
   D24       -1.03826  -0.00066   0.00000  -0.00578  -0.00583  -1.04409
   D25        1.05609  -0.00007   0.00000  -0.00487  -0.00491   1.05118
   D26       -1.08102  -0.00624   0.00000   0.00461   0.00465  -1.07637
   D27        1.01331  -0.00639   0.00000   0.00288   0.00291   1.01622
   D28        3.10766  -0.00580   0.00000   0.00379   0.00383   3.11149
   D29       -0.52361  -0.00216   0.00000  -0.00166  -0.00210  -0.52571
   D30        2.61802  -0.00173   0.00000   0.00000  -0.00001   2.61801
   D31       -2.62693   0.00263   0.00000   0.00091   0.00049  -2.62643
   D32        0.51470   0.00307   0.00000   0.00257   0.00259   0.51729
   D33        1.60468   0.00144   0.00000  -0.00418  -0.00456   1.60012
   D34       -1.53688   0.00187   0.00000  -0.00252  -0.00246  -1.53934
   D35        0.09123   0.00185   0.00000   0.05274   0.05316   0.14439
   D36       -3.05039   0.00139   0.00000   0.05098   0.05090  -2.99950
   D37       -0.00011  -0.00086   0.00000  -0.01558  -0.01582  -0.01593
   D38       -3.14156  -0.00105   0.00000  -0.00798  -0.00822   3.13340
   D39        3.14152  -0.00042   0.00000  -0.01388  -0.01364   3.12788
   D40        0.00006  -0.00061   0.00000  -0.00628  -0.00604  -0.00598
   D41       -0.00008   0.00017   0.00000   0.00263   0.00263   0.00254
   D42        2.09434  -0.00109   0.00000   0.00053   0.00052   2.09486
   D43       -2.09434   0.00117   0.00000   0.00445   0.00447  -2.08988
   D44       -3.14155  -0.00001   0.00000   0.01008   0.01008  -3.13146
   D45       -1.04712  -0.00128   0.00000   0.00799   0.00797  -1.03915
   D46        1.04738   0.00099   0.00000   0.01191   0.01193   1.05931
         Item               Value     Threshold  Converged?
 Maximum Force            0.216250     0.000450     NO 
 RMS     Force            0.023482     0.000300     NO 
 Maximum Displacement     0.211263     0.001800     NO 
 RMS     Displacement     0.046304     0.001200     NO 
 Predicted change in Energy=-3.270629D-02
 GradGradGradGradGradGradGradGradGradGradGradGradGradGradGradGradGradGrad

                          Input orientation:                          
 ---------------------------------------------------------------------
 Center     Atomic      Atomic             Coordinates (Angstroms)
 Number     Number       Type             X           Y           Z
 ---------------------------------------------------------------------
      1          1           0        0.349921    4.178205   -1.031543
      2          6           0        1.170954    3.690290   -0.506899
      3          1           0        1.364438    2.714723   -0.956366
      4          1           0        0.903267    3.556203    0.541616
      5          6           0        2.440022    4.551173   -0.571755
      6          8           0        2.429580    5.650841   -1.102194
      7          7           0        3.531219    4.005625   -0.007762
      8          1           0        3.452937    3.095983    0.424849
      9          6           0        4.841043    4.635476   -0.000215
     10          1           0        5.384615    4.323410    0.893507
     11          6           0        5.650097    4.228847   -1.231861
     12          1           0        5.120956    4.539087   -2.133864
     13          1           0        6.628339    4.711233   -1.204331
     14          1           0        5.783548    3.145876   -1.245975
     15          6           0        4.717907    6.156643   -0.000851
     16          8           0        3.759089    6.695190   -0.537364
     17          7           0        5.709058    6.831088    0.608655
     18          1           0        6.469425    6.330349    1.044717
     19          6           0        5.719561    8.279062    0.670824
     20          1           0        4.832378    8.662771    0.166473
     21          1           0        5.714392    8.605325    1.712213
     22          1           0        6.613256    8.664599    0.176728
 ---------------------------------------------------------------------
                    Distance matrix (angstroms):
                    1          2          3          4          5
     1  H    0.000000
     2  C    1.089682   0.000000
     3  H    1.782323   1.091415   0.000000
     4  H    1.779862   1.090422   1.778965   0.000000
     5  C    2.172334   1.534880   2.162719   2.142703   0.000000
     6  O    2.549242   2.404636   3.126753   3.069080   1.220960
     7  N    3.346427   2.432987   2.694665   2.722119   1.344032
     8  H    3.594578   2.535507   2.532773   2.593502   2.033911
     9  C    4.630649   3.823565   4.085376   4.118797   2.469548
    10  H    5.392129   4.485189   4.708687   4.560145   3.296893
    11  C    5.304202   4.569281   4.553608   5.111758   3.293056
    12  H    4.910003   4.355455   4.338921   5.090497   3.102860
    13  H    6.303373   5.595693   5.635264   6.095809   4.238841
    14  H    5.534978   4.703046   4.449528   5.213540   3.688983
    15  C    4.904676   4.349696   4.899549   4.648445   2.844684
    16  O    4.266363   3.965954   4.664121   4.378716   2.517524
    17  N    6.200677   5.630582   6.186232   5.815926   4.156678
    18  H    6.811087   6.119740   6.567951   6.239480   4.691965
    19  C    6.967648   6.567623   7.250980   6.746761   5.118255
    20  H    6.452829   6.211684   6.976149   6.454122   4.813895
    21  H    7.476974   7.051585   7.793754   7.071835   5.689829
    22  H    7.798527   7.404711   8.014675   7.670256   5.907316
                    6          7          8          9         10
     6  O    0.000000
     7  N    2.262328   0.000000
     8  H    3.147446   1.010312   0.000000
     9  C    2.839098   1.453412   2.116024   0.000000
    10  H    3.804883   2.085270   2.336151   1.091603   0.000000
    11  C    3.522869   2.457211   2.975833   1.528682   2.143972
    12  H    3.089312   2.707795   3.378143   2.154089   3.046475
    13  H    4.303821   3.394379   3.917454   2.156401   2.469450
    14  H    4.188630   2.710226   2.868081   2.158505   2.474494
    15  C    2.589446   2.456655   3.339014   1.526143   2.145954
    16  O    1.782496   2.750665   3.738164   2.387797   3.211708
    17  N    3.882649   3.620247   4.367479   2.438213   2.544572
    18  H    4.625073   3.891671   4.465934   2.572179   2.286368
    19  C    4.568929   4.848874   5.662367   3.807598   3.976047
    20  H    4.056436   4.838634   5.740971   4.030753   4.434366
    21  H    5.238306   5.374178   6.092974   4.410765   4.371935
    22  H    5.312393   5.589188   6.407704   4.405211   4.568287
                   11         12         13         14         15
    11  C    0.000000
    12  H    1.090802   0.000000
    13  H    1.091060   1.779289   0.000000
    14  H    1.091254   1.780003   1.779255   0.000000
    15  C    2.469972   2.707154   2.680920   3.427921   0.000000
    16  O    3.184507   3.008700   3.551553   4.147070   1.223606
    17  N    3.187889   3.622229   2.936969   4.126256   1.344899
    18  H    3.204749   3.889777   2.775790   3.982282   2.047242
    19  C    4.475408   4.712962   4.131766   5.479763   2.441130
    20  H    4.720560   4.730708   4.551839   5.773722   2.514315
    21  H    5.274966   5.628389   4.950301   6.209769   3.150176
    22  H    4.752651   4.958391   4.187679   5.759236   3.148607
                   16         17         18         19         20
    16  O    0.000000
    17  N    2.265879   0.000000
    18  H    3.159432   1.009478   0.000000
    19  C    2.794963   1.449346   2.121219   0.000000
    20  H    2.349194   2.078258   2.981850   1.090274   0.000000
    21  H    3.540116   2.089446   2.488200   1.091314   1.780607
    22  H    3.540448   2.089473   2.494557   1.091540   1.780908
                   21         22
    21  H    0.000000
    22  H    1.780220   0.000000
 Stoichiometry    C6H12N2O2
 Framework group  C1[X(C6H12N2O2)]
 Deg. of freedom    60
 Full point group                 C1      NOp   1
 Largest Abelian subgroup         C1      NOp   1
 Largest concise Abelian subgroup C1      NOp   1
                         Standard orientation:                         
 ---------------------------------------------------------------------
 Center     Atomic      Atomic             Coordinates (Angstroms)
 Number     Number       Type             X           Y           Z
 ---------------------------------------------------------------------
      1          1           0       -3.663360   -1.519008    0.203597
      2          6           0       -3.288152   -0.658819   -0.350210
      3          1           0       -3.883464    0.222512   -0.105168
      4          1           0       -3.361243   -0.855762   -1.420206
      5          6           0       -1.814208   -0.399122   -0.009766
      6          8           0       -1.199910   -1.141649    0.739924
      7          7           0       -1.274020    0.684024   -0.594074
      8          1           0       -1.846219    1.239163   -1.214669
      9          6           0        0.090951    1.130290   -0.370231
     10          1           0        0.455581    1.634876   -1.266911
     11          6           0        0.161020    2.107109    0.803559
     12          1           0       -0.196039    1.614616    1.708991
     13          1           0        1.192743    2.429504    0.951950
     14          1           0       -0.461925    2.978984    0.597138
     15          6           0        1.008357   -0.048042   -0.055571
     16          8           0        0.564698   -1.038067    0.510315
     17          7           0        2.292560    0.084378   -0.432456
     18          1           0        2.597767    0.921351   -0.907189
     19          6           0        3.270651   -0.956059   -0.184604
     20          1           0        2.782729   -1.788887    0.322374
     21          1           0        3.690487   -1.302903   -1.130332
     22          1           0        4.073153   -0.567673    0.445164
 ---------------------------------------------------------------------
 Rotational constants (GHZ):      2.4550799      0.8887381      0.7350140
 Standard basis: 6-31G(d) (6D, 7F)
 There are   174 symmetry adapted basis functions of A   symmetry.
 Integral buffers will be    131072 words long.
 Raffenetti 2 integral format.
 Two-electron integral symmetry is turned on.
   174 basis functions,   328 primitive gaussians,   174 cartesian basis functions
    39 alpha electrons       39 beta electrons
       nuclear repulsion energy       577.0665835631 Hartrees.
 NAtoms=   22 NActive=   22 NUniq=   22 SFac= 7.50D-01 NAtFMM=   80 NAOKFM=F Big=F
 One-electron integrals computed using PRISM.
 NBasis=   174 RedAO= T  NBF=   174
 NBsUse=   174 1.00D-06 NBFU=   174
 Initial guess read from the read-write file.
 B after Tr=     0.000000    0.000000    0.000000
         Rot=    1.000000    0.000000    0.000000    0.000000 Ang=   0.00 deg.
 Initial guess orbital symmetries:
       Occupied  (A) (A) (A) (A) (A) (A) (A) (A) (A) (A) (A) (A)
                 (A) (A) (A) (A) (A) (A) (A) (A) (A) (A) (A) (A)
                 (A) (A) (A) (A) (A) (A) (A) (A) (A) (A) (A) (A)
                 (A) (A) (A)
       Virtual   (A) (A) (A) (A) (A) (A) (A) (A) (A) (A) (A) (A)
                 (A) (A) (A) (A) (A) (A) (A) (A) (A) (A) (A) (A)
                 (A) (A) (A) (A) (A) (A) (A) (A) (A) (A) (A) (A)
                 (A) (A) (A) (A) (A) (A) (A) (A) (A) (A) (A) (A)
                 (A) (A) (A) (A) (A) (A) (A) (A) (A) (A) (A) (A)
                 (A) (A) (A) (A) (A) (A) (A) (A) (A) (A) (A) (A)
                 (A) (A) (A) (A) (A) (A) (A) (A) (A) (A) (A) (A)
                 (A) (A) (A) (A) (A) (A) (A) (A) (A) (A) (A) (A)
                 (A) (A) (A) (A) (A) (A) (A) (A) (A) (A) (A) (A)
                 (A) (A) (A) (A) (A) (A) (A) (A) (A) (A) (A) (A)
                 (A) (A) (A) (A) (A) (A) (A) (A) (A) (A) (A) (A)
                 (A) (A) (A)
 Harris functional with IExCor=  402 diagonalized for initial guess.
 ExpMin= 1.61D-01 ExpMax= 5.48D+03 ExpMxC= 8.25D+02 IAcc=1 IRadAn=         1 AccDes= 0.00D+00
 HarFok:  IExCor=  402 AccDes= 0.00D+00 IRadAn=         1 IDoV= 1
 ScaDFX=  1.000000  1.000000  1.000000  1.000000
 FoFCou: FMM=F IPFlag=           0 FMFlag=      100000 FMFlg1=           0
         NFxFlg=           0 DoJE=T BraDBF=F KetDBF=T FulRan=T
         Omega=  0.000000  0.000000  1.000000  0.000000  0.000000 ICntrl=     500 IOpCl=  0
         NMat0=    1 NMatS0=    1 NMatT0=    0 NMatD0=    1 NMtDS0=    0 NMtDT0=    0
         I1Cent=           4 NGrid=           0.
 Petite list used in FoFCou.
 Requested convergence on RMS density matrix=1.00D-08 within 128 cycles.
 Requested convergence on MAX density matrix=1.00D-06.
 Requested convergence on             energy=1.00D-06.
 No special actions if energy rises.
 Integral accuracy reduced to 1.0D-05 until final iterations.
 Initial convergence to 1.0D-05 achieved.  Increase integral accuracy.
 SCF Done:  E(RB3LYP) =  -495.720427074     A.U. after   15 cycles
             Convg  =    0.6505D-08             -V/T =  2.0074
 Calling FoFJK, ICntrl=      2127 FMM=F ISym2X=0 I1Cent= 0 IOpClX= 0 NMat=1 NMatS=1 NMatT=0.
 ***** Axes restored to original set *****
 -------------------------------------------------------------------
 Center     Atomic                   Forces (Hartrees/Bohr)
 Number     Number              X              Y              Z
 -------------------------------------------------------------------
      1        1           0.002768876    0.002348213   -0.000263396
      2        6           0.007417652   -0.000725042    0.010299983
      3        1          -0.001932337   -0.004576610   -0.000063816
      4        1          -0.006299794   -0.005844327    0.004224657
      5        6          -0.047857022    0.020727286   -0.031542533
      6        8          -0.121005365   -0.113447273   -0.057994221
      7        7           0.020782710   -0.011118689    0.019738996
      8        1           0.000525760   -0.000590737   -0.000784070
      9        6           0.008428573   -0.001116947   -0.008899324
     10        1          -0.000950463   -0.003093220    0.004498435
     11        6           0.002746039   -0.003083884    0.000085494
     12        1          -0.000082169    0.000404786   -0.001912845
     13        1           0.004031855   -0.000223681   -0.002719203
     14        1           0.001731150   -0.003159891   -0.002311021
     15        6          -0.031257937    0.011935382   -0.007529615
     16        8           0.135785836    0.103612785    0.059451553
     17        7           0.015953321    0.005144711    0.010483513
     18        1           0.002859426   -0.000558880    0.002628808
     19        6           0.004474366   -0.000366722    0.001292874
     20        1          -0.000698684   -0.003576209   -0.000614849
     21        1           0.000235910    0.003380830    0.002692599
     22        1           0.002342296    0.003928119   -0.000762019
 -------------------------------------------------------------------
 Cartesian Forces:  Max     0.135785836 RMS     0.032669054

 GradGradGradGradGradGradGradGradGradGradGradGradGradGradGradGradGradGrad
 Berny optimization.
 Using GEDIIS/GDIIS optimizer.
 Internal  Forces:  Max     0.175416104 RMS     0.018704061
 Search for a local minimum.
 Step number   2 out of a maximum of  132
 All quantities printed in internal units (Hartrees-Bohrs-Radians)
 Mixed Optimization -- RFO/linear search
 Update second derivatives using D2CorX and points    1    2
 DE= -3.25D-02 DEPred=-3.27D-02 R= 9.95D-01
 SS=  1.41D+00  RLast= 3.00D-01 DXNew= 5.0454D-01 8.9966D-01
 Trust test= 9.95D-01 RLast= 3.00D-01 DXMaxT set to 5.05D-01
 Use linear search instead of GDIIS.
 Linear search step of   0.594 exceeds DXMaxT=   0.505 but not scaled.
 Quartic linear search produced a step of  2.00000.
 Iteration  1 RMS(Cart)=  0.07974303 RMS(Int)=  0.00900075
 Iteration  2 RMS(Cart)=  0.01285887 RMS(Int)=  0.00249742
 Iteration  3 RMS(Cart)=  0.00007383 RMS(Int)=  0.00249690
 Iteration  4 RMS(Cart)=  0.00000024 RMS(Int)=  0.00249690
 Iteration  1 RMS(Cart)=  0.00051437 RMS(Int)=  0.00045493
 Iteration  2 RMS(Cart)=  0.00029792 RMS(Int)=  0.00049860
 Iteration  3 RMS(Cart)=  0.00018408 RMS(Int)=  0.00056794
 Iteration  4 RMS(Cart)=  0.00012859 RMS(Int)=  0.00062894
 Iteration  5 RMS(Cart)=  0.00010179 RMS(Int)=  0.00067777
 Iteration  6 RMS(Cart)=  0.00008625 RMS(Int)=  0.00071640
 Iteration  7 RMS(Cart)=  0.00007450 RMS(Int)=  0.00074721
 Iteration  8 RMS(Cart)=  0.00006422 RMS(Int)=  0.00077205
 Iteration  9 RMS(Cart)=  0.00005492 RMS(Int)=  0.00079226
 Iteration 10 RMS(Cart)=  0.00004659 RMS(Int)=  0.00080883
 Iteration 11 RMS(Cart)=  0.00003926 RMS(Int)=  0.00082247
 Iteration 12 RMS(Cart)=  0.00003291 RMS(Int)=  0.00083374
 Iteration 13 RMS(Cart)=  0.00002748 RMS(Int)=  0.00084306
 Iteration 14 RMS(Cart)=  0.00002288 RMS(Int)=  0.00085077
 Iteration 15 RMS(Cart)=  0.00001900 RMS(Int)=  0.00085716
 Iteration 16 RMS(Cart)=  0.00001576 RMS(Int)=  0.00086245
 Iteration 17 RMS(Cart)=  0.00001306 RMS(Int)=  0.00086684
 Iteration 18 RMS(Cart)=  0.00001081 RMS(Int)=  0.00087047
 Iteration 19 RMS(Cart)=  0.00000894 RMS(Int)=  0.00087347
 Iteration 20 RMS(Cart)=  0.00000740 RMS(Int)=  0.00087596
 Iteration 21 RMS(Cart)=  0.00000611 RMS(Int)=  0.00087802
 Iteration 22 RMS(Cart)=  0.00000505 RMS(Int)=  0.00087973
 Iteration 23 RMS(Cart)=  0.00000418 RMS(Int)=  0.00088114
 Iteration 24 RMS(Cart)=  0.00000345 RMS(Int)=  0.00088230
 Iteration 25 RMS(Cart)=  0.00000285 RMS(Int)=  0.00088327
 Iteration 26 RMS(Cart)=  0.00000236 RMS(Int)=  0.00088406
 Iteration 27 RMS(Cart)=  0.00000195 RMS(Int)=  0.00088472
 Iteration 28 RMS(Cart)=  0.00000161 RMS(Int)=  0.00088527
 Iteration 29 RMS(Cart)=  0.00000133 RMS(Int)=  0.00088572
 Iteration 30 RMS(Cart)=  0.00000110 RMS(Int)=  0.00088609
 Iteration 31 RMS(Cart)=  0.00000091 RMS(Int)=  0.00088639
 Variable       Old X    -DE/DX   Delta X   Delta X   Delta X     New X
                                 (Linear)    (Quad)   (Total)
    R1        2.05920  -0.00090  -0.00147   0.00000  -0.00147   2.05773
    R2        2.06248   0.00377   0.00554   0.00000   0.00554   2.06801
    R3        2.06060   0.00632   0.00193   0.00000   0.00193   2.06253
    R4        2.90050   0.00391   0.01833   0.00000   0.01833   2.91884
    R5        2.30728  -0.00826  -0.03041   0.00000  -0.03074   2.27654
    R6        2.53985   0.03878   0.03433   0.00000   0.03465   2.57450
    R7        3.36843   0.17542   0.30239   0.00000   0.30290   3.67133
    R8        1.90921   0.00015   0.00091   0.00000   0.00091   1.91012
    R9        2.74655   0.01823   0.01676   0.00000   0.01805   2.76460
   R10        2.06283   0.00409   0.00617   0.00000   0.00617   2.06900
   R11        2.88879   0.01160   0.01381   0.00000   0.01381   2.90260
   R12        2.88399   0.01998   0.01563   0.00000   0.01373   2.89773
   R13        2.06132   0.00174   0.00319   0.00000   0.00319   2.06451
   R14        2.06180   0.00345   0.00392   0.00000   0.00392   2.06573
   R15        2.06217   0.00338   0.00502   0.00000   0.00502   2.06719
   R16        2.31228  -0.00587  -0.02055   0.00000  -0.02058   2.29170
   R17        2.54149   0.02967   0.03758   0.00000   0.03758   2.57907
   R18        1.90764   0.00357  -0.00231   0.00000  -0.00231   1.90532
   R19        2.73887   0.00351   0.00108   0.00000   0.00108   2.73995
   R20        2.06032  -0.00041   0.00099   0.00000   0.00099   2.06131
   R21        2.06228   0.00359   0.00492   0.00000   0.00492   2.06720
   R22        2.06271   0.00365   0.00592   0.00000   0.00592   2.06863
    A1        1.91296   0.00033   0.00375   0.00000   0.00381   1.91677
    A2        1.91034  -0.00150  -0.00160   0.00000  -0.00206   1.90828
    A3        1.92996  -0.00783  -0.01818   0.00000  -0.01835   1.91161
    A4        1.90667  -0.00568  -0.00715   0.00000  -0.00705   1.89962
    A5        1.91492   0.00379   0.03782   0.00000   0.03790   1.95282
    A6        1.88870   0.01096  -0.01468   0.00000  -0.01484   1.87386
    A7        2.11349   0.01735   0.02076   0.00000   0.02221   2.13570
    A8        2.01074  -0.00763  -0.04874   0.00000  -0.04719   1.96355
    A9        2.15895  -0.00973   0.02798   0.00000   0.02495   2.18390
   A10        1.96454  -0.01231  -0.05278   0.00000  -0.06077   1.90377
   A11        2.07400  -0.01028  -0.04058   0.00000  -0.04024   2.03376
   A12        2.16271   0.02086   0.07012   0.00000   0.06893   2.23164
   A13        2.04630  -0.01060  -0.02990   0.00000  -0.03026   2.01604
   A14        1.90617  -0.00463  -0.00992   0.00000  -0.01072   1.89545
   A15        1.93639  -0.00311  -0.00531   0.00000  -0.00418   1.93221
   A16        1.93824   0.00819  -0.00152   0.00000  -0.00138   1.93686
   A17        1.89658   0.00191   0.00097   0.00000   0.00084   1.89742
   A18        1.90230  -0.00595   0.01244   0.00000   0.01360   1.91590
   A19        1.88336   0.00350   0.00397   0.00000   0.00231   1.88567
   A20        1.91118  -0.00019   0.00007   0.00000   0.00006   1.91124
   A21        1.91409   0.00433   0.00605   0.00000   0.00602   1.92011
   A22        1.91678   0.00294   0.01137   0.00000   0.01132   1.92811
   A23        1.90715  -0.00218  -0.00590   0.00000  -0.00590   1.90126
   A24        1.90804  -0.00171  -0.00439   0.00000  -0.00441   1.90363
   A25        1.90652  -0.00324  -0.00727   0.00000  -0.00734   1.89918
   A26        2.09682   0.00373  -0.01259   0.00000  -0.02022   2.07660
   A27        2.02662  -0.01360  -0.01691   0.00000  -0.01310   2.01351
   A28        2.15974   0.00987   0.02951   0.00000   0.03329   2.19303
   A29        2.05504  -0.01329   0.03927   0.00000   0.03308   2.08811
   A30        2.09684  -0.00014   0.00494   0.00000   0.00489   2.10173
   A31        2.12444   0.00297  -0.00640   0.00000  -0.00645   2.11799
   A32        2.06188  -0.00284   0.00142   0.00000   0.00137   2.06324
   A33        1.90272  -0.00702  -0.01651   0.00000  -0.01644   1.88628
   A34        1.91726   0.00392   0.01217   0.00000   0.01212   1.92938
   A35        1.91706   0.00470   0.01202   0.00000   0.01197   1.92903
   A36        1.90960   0.00064  -0.00122   0.00000  -0.00116   1.90844
   A37        1.90978   0.00045  -0.00071   0.00000  -0.00065   1.90913
   A38        1.90735  -0.00271  -0.00578   0.00000  -0.00594   1.90140
    D1        0.05607   0.00104   0.11204   0.00000   0.11303   0.16910
    D2       -3.08761   0.00024   0.10806   0.00000   0.10750  -2.98012
    D3        2.16819  -0.00111   0.12980   0.00000   0.13060   2.29879
    D4       -0.97549  -0.00191   0.12583   0.00000   0.12506  -0.85043
    D5       -2.03610   0.00072   0.13435   0.00000   0.13490  -1.90120
    D6        1.10341  -0.00008   0.13037   0.00000   0.12936   1.23276
    D7        2.75958  -0.00126   0.18110   0.00000   0.17019   2.92977
    D8       -0.37974  -0.00039   0.18542   0.00000   0.17653  -0.20321
    D9       -0.01555   0.00665  -0.03125   0.00000  -0.03620  -0.05175
   D10        3.10520   0.00523  -0.07278   0.00000  -0.08203   3.02317
   D11        3.12389   0.00586  -0.03534   0.00000  -0.04193   3.08196
   D12       -0.03854   0.00444  -0.07687   0.00000  -0.08776  -0.12630
   D13        0.33379   0.00215  -0.20037   0.00000  -0.19825   0.13553
   D14        2.62208   0.00419   0.00805   0.00000   0.00905   2.63114
   D15       -1.57092   0.00165  -0.00047   0.00000   0.00078  -1.57015
   D16        0.52366   0.00943  -0.00001   0.00000   0.00000   0.52366
   D17       -0.54005   0.00278  -0.03288   0.00000  -0.03651  -0.57656
   D18        1.55014   0.00025  -0.04140   0.00000  -0.04479   1.50535
   D19       -2.63847   0.00803  -0.04094   0.00000  -0.04557  -2.68403
   D20        1.05061   0.00567   0.00673   0.00000   0.00676   1.05737
   D21       -3.13999   0.00554   0.00325   0.00000   0.00325  -3.13674
   D22       -1.04472   0.00607   0.00508   0.00000   0.00512  -1.03961
   D23       -3.13668  -0.00072  -0.00817   0.00000  -0.00842   3.13808
   D24       -1.04409  -0.00085  -0.01165   0.00000  -0.01193  -1.05602
   D25        1.05118  -0.00032  -0.00982   0.00000  -0.01007   1.04111
   D26       -1.07637  -0.00480   0.00931   0.00000   0.00955  -1.06682
   D27        1.01622  -0.00494   0.00583   0.00000   0.00605   1.02226
   D28        3.11149  -0.00440   0.00766   0.00000   0.00791   3.11940
   D29       -0.52571  -0.00267  -0.00420   0.00000  -0.00683  -0.53254
   D30        2.61801  -0.00242  -0.00001   0.00000   0.00000   2.61801
   D31       -2.62643   0.00180   0.00099   0.00000  -0.00146  -2.62789
   D32        0.51729   0.00206   0.00518   0.00000   0.00537   0.52266
   D33        1.60012   0.00083  -0.00912   0.00000  -0.01135   1.58877
   D34       -1.53934   0.00108  -0.00493   0.00000  -0.00452  -1.54387
   D35        0.14439   0.00224   0.10632   0.00000   0.10820   0.25259
   D36       -2.99950   0.00194   0.10179   0.00000   0.10054  -2.89896
   D37       -0.01593  -0.00094  -0.03164   0.00000  -0.03319  -0.04912
   D38        3.13340  -0.00100  -0.01644   0.00000  -0.01796   3.11544
   D39        3.12788  -0.00066  -0.02728   0.00000  -0.02576   3.10211
   D40       -0.00598  -0.00072  -0.01208   0.00000  -0.01053  -0.01651
   D41        0.00254   0.00006   0.00525   0.00000   0.00526   0.00781
   D42        2.09486  -0.00110   0.00103   0.00000   0.00095   2.09581
   D43       -2.08988   0.00097   0.00894   0.00000   0.00904  -2.08084
   D44       -3.13146  -0.00001   0.02017   0.00000   0.02016  -3.11131
   D45       -1.03915  -0.00117   0.01595   0.00000   0.01585  -1.02330
   D46        1.05931   0.00090   0.02385   0.00000   0.02393   1.08324
         Item               Value     Threshold  Converged?
 Maximum Force            0.174278     0.000450     NO 
[...]
    13  H    6.500561   5.768110   6.060047   6.068333   4.361253
    14  H    5.734224   5.014255   5.052173   5.557679   3.725487
    15  C    4.961093   4.201319   4.799552   4.087593   3.061531
    16  O    4.488272   3.936344   4.761710   3.767221   2.883567
    17  N    6.243943   5.422729   5.939483   5.170819   4.386287
    18  H    6.786897   5.887506   6.247718   5.701826   4.842159
    19  C    7.140879   6.422684   7.068884   6.040222   5.452689
    20  H    6.669571   6.070281   6.843493   5.631316   5.185532
    21  H    7.764136   6.987685   7.569229   6.479395   6.173088
    22  H    7.888162   7.214337   7.871636   6.935526   6.101231
                    6          7          8          9         10
     6  O    0.000000
     7  N    2.307337   0.000000
     8  H    3.118060   1.014761   0.000000
     9  C    3.062017   1.474664   2.047801   0.000000
    10  H    4.053329   2.061064   2.128044   1.095288   0.000000
    11  C    3.469479   2.464473   3.219413   1.545345   2.165651
    12  H    2.896264   2.716709   3.656601   2.162608   3.061416
    13  H    4.388930   3.428821   4.095627   2.200988   2.539686
    14  H    3.943876   2.682053   3.276520   2.176102   2.490229
    15  C    3.268553   2.571227   3.119760   1.549841   2.161961
    16  O    2.798181   2.980370   3.609442   2.463256   3.249676
    17  N    4.642289   3.702125   4.055687   2.429369   2.502986
    18  H    5.205071   3.898656   4.150686   2.509463   2.224416
    19  C    5.537698   5.000065   5.374757   3.813828   3.950817
    20  H    5.156876   5.017754   5.442330   4.055727   4.395771
    21  H    6.400114   5.645365   5.853094   4.491700   4.398650
    22  H    6.032391   5.631379   6.117337   4.339293   4.535282
                   11         12         13         14         15
    11  C    0.000000
    12  H    1.093442   0.000000
    13  H    1.096187   1.780725   0.000000
    14  H    1.094107   1.775943   1.782077   0.000000
    15  C    2.500249   2.752997   2.716866   3.461416   0.000000
    16  O    3.292947   3.156381   3.623727   4.271694   1.218384
    17  N    3.166872   3.653914   2.916220   4.088778   1.375459
    18  H    3.063309   3.795429   2.633232   3.818241   2.060735
    19  C    4.417670   4.717336   4.021758   5.409649   2.474895
    20  H    4.760465   4.856530   4.550799   5.804318   2.532629
    21  H    5.237121   5.664725   4.817961   6.152403   3.274674
    22  H    4.582076   4.807839   3.977228   5.583116   3.103304
                   16         17         18         19         20
    16  O    0.000000
    17  N    2.275736   0.000000
    18  H    3.159593   1.010380   0.000000
    19  C    2.814826   1.453435   2.122128   0.000000
    20  H    2.367192   2.060930   2.967024   1.090737   0.000000
    21  H    3.677067   2.103231   2.489543   1.095218   1.783555
    22  H    3.435131   2.124938   2.547472   1.097824   1.778934
                   21         22
    21  H    0.000000
    22  H    1.783859   0.000000
 Stoichiometry    C6H12N2O2
 Framework group  C1[X(C6H12N2O2)]
 Deg. of freedom    60
 Full point group                 C1      NOp   1
 Largest Abelian subgroup         C1      NOp   1
 Largest concise Abelian subgroup C1      NOp   1
                         Standard orientation:                         
 ---------------------------------------------------------------------
 Center     Atomic      Atomic             Coordinates (Angstroms)
 Number     Number       Type             X           Y           Z
 ---------------------------------------------------------------------
      1          1           0       -3.747850   -1.482436   -0.030724
      2          6           0       -3.013872   -1.038518   -0.704605
      3          1           0       -3.530844   -0.426394   -1.453498
      4          1           0       -2.486974   -1.843668   -1.231642
      5          6           0       -2.020355   -0.225326    0.116500
      6          8           0       -1.943993   -0.313367    1.324832
      7          7           0       -1.290941    0.709912   -0.637367
      8          1           0       -1.511748    0.607774   -1.622534
      9          6           0        0.147850    0.996382   -0.487541
     10          1           0        0.492737    1.307856   -1.479354
     11          6           0        0.336528    2.168401    0.501834
     12          1           0       -0.047225    1.869786    1.481210
     13          1           0        1.391791    2.446571    0.605120
     14          1           0       -0.227850    3.040323    0.157885
     15          6           0        1.038353   -0.177029   -0.005754
     16          8           0        0.665298   -1.102487    0.693400
     17          7           0        2.321030   -0.089469   -0.494588
     18          1           0        2.590362    0.740794   -1.003501
     19          6           0        3.375877   -0.988487   -0.056939
     20          1           0        2.896615   -1.844244    0.420234
     21          1           0        3.964460   -1.333244   -0.913802
     22          1           0        4.049185   -0.511928    0.667468
 ---------------------------------------------------------------------
 Rotational constants (GHZ):      2.2443610      0.8011556      0.7059551

 **********************************************************************

            Population analysis using the SCF density.

 **********************************************************************

 Orbital symmetries:
       Occupied  (A) (A) (A) (A) (A) (A) (A) (A) (A) (A) (A) (A)
                 (A) (A) (A) (A) (A) (A) (A) (A) (A) (A) (A) (A)
                 (A) (A) (A) (A) (A) (A) (A) (A) (A) (A) (A) (A)
                 (A) (A) (A)
       Virtual   (A) (A) (A) (A) (A) (A) (A) (A) (A) (A) (A) (A)
                 (A) (A) (A) (A) (A) (A) (A) (A) (A) (A) (A) (A)
                 (A) (A) (A) (A) (A) (A) (A) (A) (A) (A) (A) (A)
                 (A) (A) (A) (A) (A) (A) (A) (A) (A) (A) (A) (A)
                 (A) (A) (A) (A) (A) (A) (A) (A) (A) (A) (A) (A)
                 (A) (A) (A) (A) (A) (A) (A) (A) (A) (A) (A) (A)
                 (A) (A) (A) (A) (A) (A) (A) (A) (A) (A) (A) (A)
                 (A) (A) (A) (A) (A) (A) (A) (A) (A) (A) (A) (A)
                 (A) (A) (A) (A) (A) (A) (A) (A) (A) (A) (A) (A)
                 (A) (A) (A) (A) (A) (A) (A) (A) (A) (A) (A) (A)
                 (A) (A) (A) (A) (A) (A) (A) (A) (A) (A) (A) (A)
                 (A) (A) (A)
 The electronic state is 1-A.
 Alpha  occ. eigenvalues --  -19.11145 -19.10207 -14.36370 -14.35028 -10.28633
 Alpha  occ. eigenvalues --  -10.27910 -10.24424 -10.21878 -10.18491 -10.18253
 Alpha  occ. eigenvalues --   -1.03476  -1.01783  -0.92152  -0.91319  -0.77805
 Alpha  occ. eigenvalues --   -0.72415  -0.70536  -0.63950  -0.59022  -0.56425
 Alpha  occ. eigenvalues --   -0.51905  -0.49218  -0.46104  -0.45463  -0.44946
 Alpha  occ. eigenvalues --   -0.43846  -0.42199  -0.41048  -0.40395  -0.39057
 Alpha  occ. eigenvalues --   -0.38826  -0.37771  -0.37082  -0.35517  -0.33791
 Alpha  occ. eigenvalues --   -0.27154  -0.25320  -0.24374  -0.22406
 Alpha virt. eigenvalues --    0.01776   0.03595   0.05426   0.08022   0.11863
 Alpha virt. eigenvalues --    0.12886   0.14044   0.15275   0.15862   0.16203
 Alpha virt. eigenvalues --    0.16851   0.17376   0.18053   0.18471   0.19678
 Alpha virt. eigenvalues --    0.20537   0.21952   0.25999   0.26872   0.33338
 Alpha virt. eigenvalues --    0.34302   0.39500   0.40949   0.50459   0.51446
 Alpha virt. eigenvalues --    0.52390   0.53447   0.54680   0.55837   0.56709
 Alpha virt. eigenvalues --    0.56859   0.59877   0.60878   0.63989   0.65328
 Alpha virt. eigenvalues --    0.67586   0.69502   0.70851   0.72762   0.74724
 Alpha virt. eigenvalues --    0.75544   0.77917   0.78786   0.78925   0.84207
 Alpha virt. eigenvalues --    0.85500   0.86000   0.86412   0.87339   0.87977
 Alpha virt. eigenvalues --    0.88815   0.89969   0.90820   0.91564   0.93546
 Alpha virt. eigenvalues --    0.93859   0.95419   0.96095   0.98690   0.99076
 Alpha virt. eigenvalues --    1.02214   1.05897   1.09164   1.13574   1.14664
 Alpha virt. eigenvalues --    1.19032   1.21828   1.25712   1.32114   1.34525
 Alpha virt. eigenvalues --    1.38604   1.41022   1.42854   1.43450   1.50565
 Alpha virt. eigenvalues --    1.51466   1.58265   1.62233   1.66380   1.70644
 Alpha virt. eigenvalues --    1.72800   1.74387   1.76466   1.79236   1.82139
 Alpha virt. eigenvalues --    1.82899   1.83591   1.85368   1.87538   1.90985
 Alpha virt. eigenvalues --    1.93739   1.95193   1.97941   2.01419   2.03060
 Alpha virt. eigenvalues --    2.05127   2.06561   2.10221   2.11717   2.13494
 Alpha virt. eigenvalues --    2.19209   2.22662   2.23049   2.28372   2.29213
 Alpha virt. eigenvalues --    2.30389   2.31847   2.36590   2.39010   2.43208
 Alpha virt. eigenvalues --    2.44905   2.48965   2.51276   2.56199   2.60987
 Alpha virt. eigenvalues --    2.64246   2.67675   2.73830   2.75807   2.84430
 Alpha virt. eigenvalues --    2.93851   2.98571   3.00864   3.10856   3.14929
 Alpha virt. eigenvalues --    3.91335   3.95907   4.08315   4.12917   4.21174
 Alpha virt. eigenvalues --    4.24809   4.26081   4.44175   4.45309   4.63569
          Condensed to atoms (all electrons):
              1          2          3          4          5          6
     1  H    0.512228   0.353711  -0.023510  -0.020129  -0.019604   0.005413
     2  C    0.353711   5.373416   0.345022   0.351901   0.332875  -0.079800
     3  H   -0.023510   0.345022   0.569111  -0.028984  -0.024319   0.001823
     4  H   -0.020129   0.351901  -0.028984   0.538706  -0.019375   0.000245
     5  C   -0.019604   0.332875  -0.024319  -0.019375   4.324044   0.597947
     6  O    0.005413  -0.079800   0.001823   0.000245   0.597947   8.018977
     7  N    0.004884  -0.133880   0.005243   0.001377   0.238199  -0.091225
     8  H    0.000023   0.003276   0.000672   0.000069  -0.023116   0.004318
     9  C   -0.000170   0.007515   0.000170  -0.000604  -0.021717   0.008319
    10  H    0.000003  -0.000288  -0.000007   0.000002   0.003865   0.000012
    11  C    0.000008  -0.000187  -0.000018   0.000004  -0.003810  -0.002418
    12  H   -0.000001   0.000119  -0.000006  -0.000002   0.002862   0.006765
    13  H    0.000000   0.000005   0.000000   0.000000   0.000167   0.000054
    14  H    0.000000   0.000006   0.000001   0.000000   0.000133   0.000000
    15  C    0.000005  -0.000466   0.000011   0.000247   0.001003  -0.002076
    16  O    0.000014  -0.000845   0.000002   0.000377   0.014482  -0.007446
    17  N    0.000000  -0.000010   0.000000   0.000000   0.000198  -0.000028
    18  H    0.000000   0.000000   0.000000   0.000000  -0.000002   0.000001
    19  C    0.000000   0.000000   0.000000   0.000000   0.000000   0.000001
    20  H    0.000000   0.000000   0.000000   0.000000  -0.000004   0.000003
    21  H    0.000000   0.000000   0.000000   0.000000   0.000000   0.000000
    22  H    0.000000   0.000000   0.000000   0.000000   0.000000   0.000000
              7          8          9         10         11         12
     1  H    0.004884   0.000023  -0.000170   0.000003   0.000008  -0.000001
     2  C   -0.133880   0.003276   0.007515  -0.000288  -0.000187   0.000119
     3  H    0.005243   0.000672   0.000170  -0.000007  -0.000018  -0.000006
     4  H    0.001377   0.000069  -0.000604   0.000002   0.000004  -0.000002
     5  C    0.238199  -0.023116  -0.021717   0.003865  -0.003810   0.002862
     6  O   -0.091225   0.004318   0.008319   0.000012  -0.002418   0.006765
     7  N    7.145884   0.287371   0.261046  -0.039703  -0.061653  -0.005963
     8  H    0.287371   0.454496  -0.037180  -0.008930   0.005871   0.000043
     9  C    0.261046  -0.037180   5.096009   0.365103   0.333591  -0.029060
    10  H   -0.039703  -0.008930   0.365103   0.622814  -0.042704   0.004978
    11  C   -0.061653   0.005871   0.333591  -0.042704   5.166554   0.373902
    12  H   -0.005963   0.000043  -0.029060   0.004978   0.373902   0.498671
    13  H    0.004452  -0.000210  -0.031081  -0.001834   0.350491  -0.024106
    14  H    0.001031   0.000015  -0.025395  -0.004798   0.364748  -0.024717
    15  C   -0.029976   0.001563   0.316108  -0.041151  -0.046708  -0.004338
    16  O   -0.002396   0.000067  -0.075013   0.002367  -0.001344   0.001758
    17  N    0.002928  -0.000042  -0.115315   0.005133  -0.000778   0.000250
    18  H    0.000137  -0.000023   0.003443   0.001754   0.000047  -0.000060
    19  C   -0.000110   0.000000   0.005984  -0.000023  -0.000365  -0.000001
    20  H   -0.000004   0.000000   0.001200  -0.000065  -0.000047  -0.000006
    21  H    0.000002   0.000000  -0.000097  -0.000020  -0.000008   0.000000
    22  H    0.000000   0.000000  -0.000152  -0.000001   0.000094  -0.000002
             13         14         15         16         17         18
     1  H    0.000000   0.000000   0.000005   0.000014   0.000000   0.000000
     2  C    0.000005   0.000006  -0.000466  -0.000845  -0.000010   0.000000
     3  H    0.000000   0.000001   0.000011   0.000002   0.000000   0.000000
     4  H    0.000000   0.000000   0.000247   0.000377   0.000000   0.000000
     5  C    0.000167   0.000133   0.001003   0.014482   0.000198  -0.000002
     6  O    0.000054   0.000000  -0.002076  -0.007446  -0.000028   0.000001
     7  N    0.004452   0.001031  -0.029976  -0.002396   0.002928   0.000137
     8  H   -0.000210   0.000015   0.001563   0.000067  -0.000042  -0.000023
     9  C   -0.031081  -0.025395   0.316108  -0.075013  -0.115315   0.003443
    10  H   -0.001834  -0.004798  -0.041151   0.002367   0.005133   0.001754
    11  C    0.350491   0.364748  -0.046708  -0.001344  -0.000778   0.000047
    12  H   -0.024106  -0.024717  -0.004338   0.001758   0.000250  -0.000060
    13  H    0.594330  -0.027794  -0.001012  -0.000178   0.003366   0.001392
    14  H   -0.027794   0.556672   0.004029  -0.000052  -0.000065  -0.000063
    15  C   -0.001012   0.004029   4.393106   0.598769   0.248176  -0.022200
    16  O   -0.000178  -0.000052   0.598769   8.035983  -0.095683   0.003440
    17  N    0.003366  -0.000065   0.248176  -0.095683   7.102810   0.301089
    18  H    0.001392  -0.000063  -0.022200   0.003440   0.301089   0.420421
    19  C   -0.000109   0.000010  -0.021889  -0.007409   0.265439  -0.032952
    20  H    0.000005   0.000001  -0.000824   0.020637  -0.040638   0.004380
    21  H    0.000005   0.000000   0.002036   0.000425  -0.038935  -0.001077
    22  H   -0.000032  -0.000002   0.000535   0.000591  -0.044111  -0.000946
             19         20         21         22
     1  H    0.000000   0.000000   0.000000   0.000000
     2  C    0.000000   0.000000   0.000000   0.000000
     3  H    0.000000   0.000000   0.000000   0.000000
     4  H    0.000000   0.000000   0.000000   0.000000
     5  C    0.000000  -0.000004   0.000000   0.000000
     6  O    0.000001   0.000003   0.000000   0.000000
     7  N   -0.000110  -0.000004   0.000002   0.000000
     8  H    0.000000   0.000000   0.000000   0.000000
     9  C    0.005984   0.001200  -0.000097  -0.000152
    10  H   -0.000023  -0.000065  -0.000020  -0.000001
    11  C   -0.000365  -0.000047  -0.000008   0.000094
    12  H   -0.000001  -0.000006   0.000000  -0.000002
    13  H   -0.000109   0.000005   0.000005  -0.000032
    14  H    0.000010   0.000001   0.000000  -0.000002
    15  C   -0.021889  -0.000824   0.002036   0.000535
    16  O   -0.007409   0.020637   0.000425   0.000591
    17  N    0.265439  -0.040638  -0.038935  -0.044111
    18  H   -0.032952   0.004380  -0.001077  -0.000946
    19  C    4.963736   0.376423   0.378306   0.383519
    20  H    0.376423   0.482639  -0.022686  -0.027310
    21  H    0.378306  -0.022686   0.568134  -0.040590
    22  H    0.383519  -0.027310  -0.040590   0.570426
 Mulliken atomic charges:
              1
     1  H    0.187126
     2  C   -0.552370
     3  H    0.154790
     4  H    0.176167
     5  C    0.596173
     6  O   -0.460884
     7  N   -0.587644
     8  H    0.311718
     9  C   -0.062705
    10  H    0.133493
    11  C   -0.435269
    12  H    0.198915
    13  H    0.132089
    14  H    0.156241
    15  C    0.605051
    16  O   -0.488547
    17  N   -0.593786
    18  H    0.321220
    19  C   -0.310560
    20  H    0.206295
    21  H    0.154505
    22  H    0.157981
 Sum of Mulliken atomic charges =   0.00000
 Mulliken charges with hydrogens summed into heavy atoms:
              1
     2  C   -0.034286
     5  C    0.596173
     6  O   -0.460884
     7  N   -0.275926
     9  C    0.070789
    11  C    0.051977
    15  C    0.605051
    16  O   -0.488547
    17  N   -0.272567
    19  C    0.208221
 Sum of Mulliken charges with hydrogens summed into heavy atoms =   0.00000
 Electronic spatial extent (au):  <R**2>=           1762.5293
 Charge=              0.0000 electrons
 Dipole moment (field-independent basis, Debye):
    X=              2.6479    Y=              2.0118    Z=             -4.9203  Tot=              5.9387
 Quadrupole moment (field-independent basis, Debye-Ang):
   XX=            -50.5049   YY=            -59.9670   ZZ=            -61.0208
   XY=              2.3822   XZ=              4.4294   YZ=              1.1764
 Traceless Quadrupole moment (field-independent basis, Debye-Ang):
   XX=              6.6593   YY=             -2.8028   ZZ=             -3.8565
   XY=              2.3822   XZ=              4.4294   YZ=              1.1764
 Octapole moment (field-independent basis, Debye-Ang**2):
  XXX=             21.4251  YYY=             -4.1828  ZZZ=             -6.7283  XYY=              2.6324
  XXY=             -7.6069  XXZ=            -14.3626  XZZ=              4.1607  YZZ=              4.3691
  YYZ=             -1.5712  XYZ=             -3.2264
 Hexadecapole moment (field-independent basis, Debye-Ang**3):
 XXXX=          -1429.3705 YYYY=           -495.5161 ZZZZ=           -231.8865 XXXY=              0.7703
 XXXZ=              0.2023 YYYX=             -0.6737 YYYZ=             -4.5961 ZZZX=              6.7420
 ZZZY=             -7.3923 XXYY=           -328.4018 XXZZ=           -299.5016 YYZZ=           -121.3759
 XXYZ=             -6.2613 YYXZ=             -5.9741 ZZXY=             -2.7746
 N-N= 5.583814685831D+02 E-N=-2.273108083858D+03  KE= 4.912098174671D+02
 1\1\GINC-NODE006\FOpt\RB3LYP\6-31G(d)\C6H12N2O2\STEBOSS\10-Feb-2017\0\
 \# b3lyp/6-31G* Opt=(ModRedundant, maxcycles=1000, calcfc) geom=nocrow
 d\\Phi Psi fixed scan\\0,1\H,0.2978468206,3.8986734123,-0.8874671872\C
 ,1.1537626849,3.8078331411,-0.2173494474\H,1.2358644793,2.7706656895,0
 .1295491921\H,0.9840412997,4.4449575285,0.6595333331\C,2.4061085567,4.
 2690012566,-0.9532320701\O,2.3610502609,4.8767969422,-2.0030903206\N,3
 .6047028171,3.8270670612,-0.3674869803\H,3.4065995151,3.3406735398,0.5
 007971014\C,4.8281692212,4.6342851959,-0.2057418141\H,5.323540766,4.24
 51156103,0.6902544554\C,5.7510001327,4.4159482763,-1.4259071665\H,5.23
 7239253,4.7666248162,-2.3251803287\H,6.6961167652,4.9616253476,-1.3228
 66229\H,5.9680623533,3.349928373,-1.5423388759\C,4.6290336198,6.161296
 8408,-0.0308458285\O,3.6936023165,6.8042181532,-0.4736563229\N,5.62205
 73394,6.729879473,0.7323737644\H,6.4108481232,6.1600809363,1.004414229
 8\C,5.733521139,8.168743172,0.9047659403\H,4.7779240935,8.6062075352,0
 .6129348468\H,5.9400655526,8.4135390083,1.9521036457\H,6.5248428904,8.
 5988386906,0.2770360623\\Version=EM64L-G09RevA.02\State=1-A\HF=-495.82
 50249\RMSD=4.948e-09\RMSF=4.829e-03\Dipole=1.3585502,-0.6393327,1.7901
 822\Quadrupole=3.0884249,0.5462349,-3.6346597,4.4242693,-1.4448793,-0.
 3144349\PG=C01 [X(C6H12N2O2)]\\@


 NEVER LOSE YOUR IGNORANCE, IT CAN'T BE REPLACED.
   -- ANDY CAPP
 Job cpu time:  0 days  2 hours  8 minutes 44.3 seconds.
 File lengths (MBytes):  RWF=    186 Int=      0 D2E=      0 Chk=      4 Scr=      2
 Normal termination of Gaussian 09 at Fri Feb 10 23:59:36 2017.
