 Entering Gaussian System, Link 0=g09
 Initial command:
 /home/steboss/Software/g09/l1.exe /home/steboss/projects/phi_psi_scan/alanine/30/4497/Gau-14004.inp -scrdir=/home/steboss/projects/phi_psi_scan/alanine/30/4497/
 Entering Link 1 = /home/steboss/Software/g09/l1.exe PID=     14006.
  
 Copyright (c) 1988,1990,1992,1993,1995,1998,2003,2009, Gaussian, Inc.
                  All Rights Reserved.
  
 This is part of the Gaussian(R) 09 program.  It is based on
 the Gaussian(R) 03 system (copyright 2003, Gaussian, Inc.),
 the Gaussian(R) 98 system (copyright 1998, Gaussian, Inc.),
 the Gaussian(R) 94 system (copyright 1995, Gaussian, Inc.),
 the Gaussian 92(TM) system (copyright 1992, Gaussian, Inc.),
 the Gaussian 90(TM) system (copyright 1990, Gaussian, Inc.),
 the Gaussian 88(TM) system (copyright 1988, Gaussian, Inc.),
 the Gaussian 86(TM) system (copyright 1986, Carnegie Mellon
 University), and the Gaussian 82(TM) system (copyright 1983,
 Carnegie Mellon University). Gaussian is a federally registered
 trademark of Gaussian, Inc.
  
 This software contains proprietary and confidential information,
 including trade secrets, belonging to Gaussian, Inc.
  
 This software is provided under written license and may be
 used, copied, transmitted, or stored only in accord with that
 written license.
  
 The following legend is applicable only to US Government
 contracts under FAR:
  
                    RESTRICTED RIGHTS LEGEND
  
 Use, reproduction and disclosure by the US Government is
 subject to restrictions as set forth in subparagraphs (a)
 and (c) of the Commercial Computer Software - Restricted
 Rights clause in FAR 52.227-19.
  
 Gaussian, Inc.
 340 Quinnipiac St., Bldg. 40, Wallingford CT 06492
  
  
 ---------------------------------------------------------------
 Warning -- This program may not be used in any manner that
 competes with the business of Gaussian, Inc. or will provide
 assistance to any competitor of Gaussian, Inc.  The licensee
 of this program is prohibited from giving any competitor of
 Gaussian, Inc. access to this program.  By using this program,
 the user acknowledges that Gaussian, Inc. is engaged in the
 business of creating and licensing software in the field of
 computational chemistry and represents and warrants to the
 licensee that it is not a competitor of Gaussian, Inc. and that
 it will not use this program in any manner prohibited above.
 ---------------------------------------------------------------
  

 Cite this work as:
 Gaussian 09, Revision A.02,
 M. J. Frisch, G. W. Trucks, H. B. Schlegel, G. E. Scuseria, 
 M. A. Robb, J. R. Cheeseman, G. Scalmani, V. Barone, B. Mennucci, 
 G. A. Petersson, H. Nakatsuji, M. Caricato, X. Li, H. P. Hratchian, 
 A. F. Izmaylov, J. Bloino, G. Zheng, J. L. Sonnenberg, M. Hada, 
 M. Ehara, K. Toyota, R. Fukuda, J. Hasegawa, M. Ishida, T. Nakajima, 
 Y. Honda, O. Kitao, H. Nakai, T. Vreven, J. A. Montgomery, Jr., 
 J. E. Peralta, F. Ogliaro, M. Bearpark, J. J. Heyd, E. Brothers, 
 K. N. Kudin, V. N. Staroverov, R. Kobayashi, J. Normand, 
 K. Raghavachari, A. Rendell, J. C. Burant, S. S. Iyengar, J. Tomasi, 
 M. Cossi, N. Rega, J. M. Millam, M. Klene, J. E. Knox, J. B. Cross, 
 V. Bakken, C. Adamo, J. Jaramillo, R. Gomperts, R. E. Stratmann, 
 O. Yazyev, A. J. Austin, R. Cammi, C. Pomelli, J. W. Ochterski, 
 R. L. Martin, K. Morokuma, V. G. Zakrzewski, G. A. Voth, 
 P. Salvador, J. J. Dannenberg, S. Dapprich, A. D. Daniels, 
 O. Farkas, J. B. Foresman, J. V. Ortiz, J. Cioslowski, 
 and D. J. Fox, Gaussian, Inc., Wallingford CT, 2009.
 
 ******************************************
 Gaussian 09:  EM64L-G09RevA.02 11-Jun-2009
                10-Feb-2017 
 ******************************************
 %chk=structure_225.chk
 %NProcShared=8
 Will use up to    8 processors via shared memory.
 ----------------------------------------------------------------------
 # b3lyp/6-31G* Opt=(ModRedundant, maxcycles=1000, calcfc) geom=nocrowd
 ----------------------------------------------------------------------
 1/6=1000,10=4,14=-1,18=120,19=15,26=3,38=1/1,3;
 2/9=110,12=1,17=6,18=5,40=1/2;
 3/5=1,6=6,7=1,11=2,16=1,25=1,30=1,71=2,74=-5/1,2,3;
 4//1;
 5/5=2,38=5/2;
 8/6=4,10=90,11=11/1;
 11/6=1,8=1,9=11,15=111,16=1/1,2,10;
 10/6=1,7=6,13=1/2;
 6/7=2,8=2,9=2,10=2,28=1/1;
 7/10=1,18=20,25=1/1,2,3,16;
 1/6=1000,10=4,14=-1,18=20,19=15/3(2);
 2/9=110,12=1/2;
 99//99;
 2/9=110,12=1/2;
 3/5=1,6=6,7=1,11=2,16=1,25=1,30=1,71=1,74=-5/1,2,3;
 4/5=5,16=3/1;
 5/5=2,38=5/2;
 7//1,2,3,16;
 1/6=1000,14=-1,18=20,19=15/3(-5);
 2/9=110,12=1/2;
 6/7=2,8=2,9=2,10=2,19=2,28=1/1;
 99/9=1/99;
 ------------------
 Phi Psi fixed scan
 ------------------
 Symbolic Z-matrix:
 Charge =  0 Multiplicity = 1
 H                     0.3668    4.29     -0.9842 
 C                     1.1769    3.7481   -0.496 
 H                     1.3209    2.787    -0.9895 
 H                     0.9253    3.584     0.5517 
 C                     2.4871    4.5351   -0.5667 
 O                     2.5276    5.6304   -1.1227 
 N                     3.5554    3.9697    0. 
 H                     3.4723    3.067     0.4455 
 C                     4.8533    4.6139    0. 
 H                     5.4076    4.3155    0.8898 
 C                     5.6613    4.2208   -1.2322 
 H                     5.1233    4.5214   -2.1312 
 H                     6.6305    4.7189   -1.2058 
 H                     5.8085    3.1409   -1.2414 
 C                     4.7127    6.1294    0. 
 O                     3.9095    6.6814    0.7488 
 N                     5.4979    6.8026   -0.8441 
 H                     6.143     6.3041   -1.4403 
 C                     5.4589    8.248    -0.9387 
 H                     4.72      8.6386   -0.239 
 H                     6.4402    8.6552   -0.695 
 H                     5.1871    8.539    -1.9534 
 
 The following ModRedundant input section has been read:
 D    5    7    9   15 F                                                       
 D    7    9   15   17 F                                                       

 GradGradGradGradGradGradGradGradGradGradGradGradGradGradGradGradGradGrad
 Berny optimization.
 Initialization pass.
                           ----------------------------
                           !    Initial Parameters    !
                           ! (Angstroms and Degrees)  !
 --------------------------                            --------------------------
 ! Name  Definition              Value          Derivative Info.                !
 --------------------------------------------------------------------------------
 ! R1    R(1,2)                  1.0901         calculate D2E/DX2 analytically  !
 ! R2    R(2,3)                  1.09           calculate D2E/DX2 analytically  !
 ! R3    R(2,4)                  1.0899         calculate D2E/DX2 analytically  !
 ! R4    R(2,5)                  1.53           calculate D2E/DX2 analytically  !
 ! R5    R(5,6)                  1.229          calculate D2E/DX2 analytically  !
 ! R6    R(5,7)                  1.3349         calculate D2E/DX2 analytically  !
 ! R7    R(7,8)                  1.0101         calculate D2E/DX2 analytically  !
 ! R8    R(7,9)                  1.449          calculate D2E/DX2 analytically  !
 ! R9    R(9,10)                 1.09           calculate D2E/DX2 analytically  !
 ! R10   R(9,11)                 1.525          calculate D2E/DX2 analytically  !
 ! R11   R(9,15)                 1.522          calculate D2E/DX2 analytically  !
 ! R12   R(11,12)                1.09           calculate D2E/DX2 analytically  !
 ! R13   R(11,13)                1.09           calculate D2E/DX2 analytically  !
 ! R14   R(11,14)                1.0899         calculate D2E/DX2 analytically  !
 ! R15   R(15,16)                1.229          calculate D2E/DX2 analytically  !
 ! R16   R(15,17)                1.335          calculate D2E/DX2 analytically  !
 ! R17   R(17,18)                1.01           calculate D2E/DX2 analytically  !
 ! R18   R(17,19)                1.449          calculate D2E/DX2 analytically  !
 ! R19   R(19,20)                1.09           calculate D2E/DX2 analytically  !
 ! R20   R(19,21)                1.09           calculate D2E/DX2 analytically  !
 ! R21   R(19,22)                1.09           calculate D2E/DX2 analytically  !
 ! A1    A(1,2,3)              109.4971         calculate D2E/DX2 analytically  !
 ! A2    A(1,2,4)              109.5001         calculate D2E/DX2 analytically  !
 ! A3    A(1,2,5)              111.0994         calculate D2E/DX2 analytically  !
 ! A4    A(3,2,4)              109.4493         calculate D2E/DX2 analytically  !
 ! A5    A(3,2,5)              108.6331         calculate D2E/DX2 analytically  !
 ! A6    A(4,2,5)              108.6352         calculate D2E/DX2 analytically  !
 ! A7    A(2,5,6)              120.4996         calculate D2E/DX2 analytically  !
 ! A8    A(2,5,7)              116.6031         calculate D2E/DX2 analytically  !
 ! A9    A(6,5,7)              122.8973         calculate D2E/DX2 analytically  !
 ! A10   A(5,7,8)              119.9941         calculate D2E/DX2 analytically  !
 ! A11   A(5,7,9)              121.9053         calculate D2E/DX2 analytically  !
 ! A12   A(8,7,9)              118.1007         calculate D2E/DX2 analytically  !
 ! A13   A(7,9,10)             109.5            calculate D2E/DX2 analytically  !
 ! A14   A(7,9,11)             111.0992         calculate D2E/DX2 analytically  !
 ! A15   A(7,9,15)             111.0966         calculate D2E/DX2 analytically  !
 ! A16   A(10,9,11)            108.6382         calculate D2E/DX2 analytically  !
 ! A17   A(10,9,15)            108.6373         calculate D2E/DX2 analytically  !
 ! A18   A(11,9,15)            107.7947         calculate D2E/DX2 analytically  !
 ! A19   A(9,11,12)            109.5007         calculate D2E/DX2 analytically  !
 ! A20   A(9,11,13)            109.4959         calculate D2E/DX2 analytically  !
 ! A21   A(9,11,14)            109.4978         calculate D2E/DX2 analytically  !
 ! A22   A(12,11,13)           109.441          calculate D2E/DX2 analytically  !
 ! A23   A(12,11,14)           109.4482         calculate D2E/DX2 analytically  !
 ! A24   A(13,11,14)           109.4436         calculate D2E/DX2 analytically  !
 ! A25   A(9,15,16)            120.5029         calculate D2E/DX2 analytically  !
 ! A26   A(9,15,17)            116.6012         calculate D2E/DX2 analytically  !
 ! A27   A(16,15,17)           122.8959         calculate D2E/DX2 analytically  !
 ! A28   A(15,17,18)           120.0006         calculate D2E/DX2 analytically  !
 ! A29   A(15,17,19)           121.9013         calculate D2E/DX2 analytically  !
 ! A30   A(18,17,19)           118.0981         calculate D2E/DX2 analytically  !
 ! A31   A(17,19,20)           109.4988         calculate D2E/DX2 analytically  !
 ! A32   A(17,19,21)           109.5003         calculate D2E/DX2 analytically  !
 ! A33   A(17,19,22)           109.4985         calculate D2E/DX2 analytically  !
 ! A34   A(20,19,21)           109.444          calculate D2E/DX2 analytically  !
 ! A35   A(20,19,22)           109.4425         calculate D2E/DX2 analytically  !
 ! A36   A(21,19,22)           109.4431         calculate D2E/DX2 analytically  !
 ! D1    D(1,2,5,6)              0.003          calculate D2E/DX2 analytically  !
 ! D2    D(1,2,5,7)            179.9971         calculate D2E/DX2 analytically  !
 ! D3    D(3,2,5,6)            120.5094         calculate D2E/DX2 analytically  !
 ! D4    D(3,2,5,7)            -59.4964         calculate D2E/DX2 analytically  !
 ! D5    D(4,2,5,6)           -120.5085         calculate D2E/DX2 analytically  !
 ! D6    D(4,2,5,7)             59.4856         calculate D2E/DX2 analytically  !
 ! D7    D(2,5,7,8)              0.0039         calculate D2E/DX2 analytically  !
 ! D8    D(2,5,7,9)            179.9999         calculate D2E/DX2 analytically  !
 ! D9    D(6,5,7,8)            179.998          calculate D2E/DX2 analytically  !
 ! D10   D(6,5,7,9)             -0.0061         calculate D2E/DX2 analytically  !
 ! D11   D(5,7,9,10)           150.0036         calculate D2E/DX2 analytically  !
 ! D12   D(5,7,9,11)           -89.9938         calculate D2E/DX2 analytically  !
 ! D13   D(5,7,9,15)            30.0038         frozen, calculate D2E/DX2 analyt!
 ! D14   D(8,7,9,10)           -30.0003         calculate D2E/DX2 analytically  !
 ! D15   D(8,7,9,11)            90.0022         calculate D2E/DX2 analytically  !
 ! D16   D(8,7,9,15)          -150.0002         calculate D2E/DX2 analytically  !
 ! D17   D(7,9,11,12)           60.0024         calculate D2E/DX2 analytically  !
 ! D18   D(7,9,11,13)          179.9986         calculate D2E/DX2 analytically  !
 ! D19   D(7,9,11,14)          -60.0038         calculate D2E/DX2 analytically  !
 ! D20   D(10,9,11,12)        -179.4843         calculate D2E/DX2 analytically  !
 ! D21   D(10,9,11,13)         -59.4881         calculate D2E/DX2 analytically  !
 ! D22   D(10,9,11,14)          60.5095         calculate D2E/DX2 analytically  !
 ! D23   D(15,9,11,12)         -61.938          calculate D2E/DX2 analytically  !
 ! D24   D(15,9,11,13)          58.0582         calculate D2E/DX2 analytically  !
 ! D25   D(15,9,11,14)         178.0558         calculate D2E/DX2 analytically  !
 ! D26   D(7,9,15,16)           45.001          calculate D2E/DX2 analytically  !
 ! D27   D(7,9,15,17)         -134.9977         frozen, calculate D2E/DX2 analyt!
 ! D28   D(10,9,15,16)         -75.5101         calculate D2E/DX2 analytically  !
 ! D29   D(10,9,15,17)         104.4912         calculate D2E/DX2 analytically  !
 ! D30   D(11,9,15,16)         166.9431         calculate D2E/DX2 analytically  !
 ! D31   D(11,9,15,17)         -13.0557         calculate D2E/DX2 analytically  !
 ! D32   D(9,15,17,18)          -0.0065         calculate D2E/DX2 analytically  !
 ! D33   D(9,15,17,19)        -179.9968         calculate D2E/DX2 analytically  !
 ! D34   D(16,15,17,18)        179.9949         calculate D2E/DX2 analytically  !
 ! D35   D(16,15,17,19)          0.0045         calculate D2E/DX2 analytically  !
 ! D36   D(15,17,19,20)         -0.0032         calculate D2E/DX2 analytically  !
 ! D37   D(15,17,19,21)        119.9981         calculate D2E/DX2 analytically  !
 ! D38   D(15,17,19,22)       -120.0017         calculate D2E/DX2 analytically  !
 ! D39   D(18,17,19,20)       -179.9937         calculate D2E/DX2 analytically  !
 ! D40   D(18,17,19,21)        -59.9924         calculate D2E/DX2 analytically  !
 ! D41   D(18,17,19,22)         60.0078         calculate D2E/DX2 analytically  !
 --------------------------------------------------------------------------------
 Trust Radius=3.00D-01 FncErr=1.00D-07 GrdErr=1.00D-06
 Number of steps in this run= 132 maximum allowed number of steps= 132.
 GradGradGradGradGradGradGradGradGradGradGradGradGradGradGradGradGradGrad

                          Input orientation:                          
 ---------------------------------------------------------------------
 Center     Atomic      Atomic             Coordinates (Angstroms)
 Number     Number       Type             X           Y           Z
 ---------------------------------------------------------------------
      1          1           0        0.366800    4.290000   -0.984200
      2          6           0        1.176900    3.748100   -0.496000
      3          1           0        1.320900    2.787000   -0.989500
      4          1           0        0.925300    3.584000    0.551700
      5          6           0        2.487100    4.535100   -0.566700
      6          8           0        2.527600    5.630400   -1.122700
      7          7           0        3.555400    3.969700    0.000000
      8          1           0        3.472300    3.067000    0.445500
      9          6           0        4.853300    4.613900    0.000000
     10          1           0        5.407600    4.315500    0.889800
     11          6           0        5.661300    4.220800   -1.232200
     12          1           0        5.123300    4.521400   -2.131200
     13          1           0        6.630500    4.718900   -1.205800
     14          1           0        5.808500    3.140900   -1.241400
     15          6           0        4.712700    6.129400    0.000000
     16          8           0        3.909500    6.681400    0.748800
     17          7           0        5.497900    6.802600   -0.844100
     18          1           0        6.143000    6.304100   -1.440300
     19          6           0        5.458900    8.248000   -0.938700
     20          1           0        4.720000    8.638600   -0.239000
     21          1           0        6.440200    8.655200   -0.695000
     22          1           0        5.187100    8.539000   -1.953400
 ---------------------------------------------------------------------
                    Distance matrix (angstroms):
                    1          2          3          4          5
     1  H    0.000000
     2  C    1.090072   0.000000
     3  H    1.780265   1.089950   0.000000
     4  H    1.780266   1.089911   1.779608   0.000000
     5  C    2.174868   1.530030   2.143510   2.143509   0.000000
     6  O    2.546549   2.400041   3.091729   3.091720   1.229007
     7  N    3.352374   2.439751   2.714936   2.714878   1.334950
     8  H    3.630964   2.572777   2.601182   2.601111   2.037274
     9  C    4.604589   3.809402   4.098112   4.098079   2.434391
    10  H    5.377936   4.487896   4.750705   4.554165   3.270923
    11  C    5.300757   4.568947   4.577527   5.100736   3.258408
    12  H    4.898311   4.341192   4.332421   5.069504   3.065518
    13  H    6.282277   5.584624   5.654279   6.076686   4.196426
    14  H    5.567646   4.730331   4.508575   5.220842   3.664794
    15  C    4.820673   4.291677   4.863646   4.596502   2.795753
    16  O    4.612245   4.197723   4.988876   4.305599   2.891430
    17  N    5.714978   5.303035   5.795991   5.763360   3.779342
    18  H    6.134257   5.664538   5.985471   6.212198   4.154292
    19  C    6.449598   6.227408   6.851872   6.672909   4.770284
    20  H    6.198064   6.044551   6.808697   6.369767   4.683155
    21  H    7.484971   7.198719   7.792928   7.595094   5.711277
    22  H    6.498357   6.415485   6.997293   6.999321   5.024356
                    6          7          8          9         10
     6  O    0.000000
     7  N    2.252721   0.000000
     8  H    3.150036   1.010071   0.000000
     9  C    2.775357   1.448978   2.120974   0.000000
    10  H    3.751469   2.083739   2.345536   1.089970   0.000000
    11  C    3.437883   2.452791   2.989591   1.525027   2.139209
    12  H    2.997434   2.702720   3.388283   2.150225   3.041326
    13  H    4.203751   3.386959   3.928077   2.150214   2.459625
    14  H    4.120195   2.702673   2.882520   2.150165   2.466256
    15  C    2.506814   2.450234   3.333970   1.522008   2.136554
    16  O    2.552795   2.835384   3.653358   2.392910   2.803867
    17  N    3.205363   3.537108   4.440814   2.432781   3.033188
    18  H    3.691322   3.770883   4.600837   2.567989   3.150351
    19  C    3.934235   4.775806   5.718859   3.801919   4.337119
    20  H    3.825809   4.817888   5.750480   4.033993   4.520639
    21  H    4.963948   5.546080   6.429397   4.396974   4.734010
    22  H    4.027773   5.230365   6.215951   4.396999   5.096112
                   11         12         13         14         15
    11  C    0.000000
    12  H    1.089957   0.000000
    13  H    1.090023   1.779613   0.000000
    14  H    1.089925   1.779613   1.779617   0.000000
    15  C    2.461892   2.701161   2.668599   3.416575   0.000000
    16  O    3.612162   3.799120   3.882745   4.483552   1.229039
    17  N    2.615915   2.645907   2.399045   3.696264   1.335006
    18  H    2.148367   2.166830   1.674964   3.187050   2.037337
    19  C    4.042950   3.927115   3.728074   5.127994   2.434428
    20  H    4.624873   4.549111   4.466404   5.693360   2.520567
    21  H    4.534222   4.570033   3.973863   5.577195   3.137985
    22  H    4.403617   4.022038   4.151563   5.480198   3.137993
                   16         17         18         19         20
    16  O    0.000000
    17  N    2.252784   0.000000
    18  H    3.150085   1.010005   0.000000
    19  C    2.775344   1.449017   2.120930   0.000000
    20  H    2.337368   2.083788   2.986292   1.090010   0.000000
    21  H    3.519217   2.083815   2.484245   1.090023   1.779691
    22  H    3.519208   2.083801   2.484310   1.090033   1.779683
                   21         22
    21  H    0.000000
    22  H    1.779700   0.000000
 Stoichiometry    C6H12N2O2
 Framework group  C1[X(C6H12N2O2)]
 Deg. of freedom    60
 Full point group                 C1      NOp   1
 Largest Abelian subgroup         C1      NOp   1
 Largest concise Abelian subgroup C1      NOp   1
                         Standard orientation:                         
 ---------------------------------------------------------------------
 Center     Atomic      Atomic             Coordinates (Angstroms)
 Number     Number       Type             X           Y           Z
 ---------------------------------------------------------------------
      1          1           0        3.401395   -1.615700   -0.824617
      2          6           0        3.217574   -0.711585   -0.244063
      3          1           0        3.754131    0.124289   -0.692855
      4          1           0        3.565035   -0.858856    0.778429
      5          6           0        1.725886   -0.372963   -0.209534
      6          8           0        0.910791   -1.085933   -0.790699
      7          7           0        1.376338    0.718515    0.474997
      8          1           0        2.083271    1.273087    0.936451
      9          6           0       -0.004117    1.145427    0.582831
     10          1           0       -0.152023    1.662614    1.530817
     11          6           0       -0.375959    2.093160   -0.552618
     12          1           0       -0.241776    1.586398   -1.508229
     13          1           0       -1.417275    2.397319   -0.446328
     14          1           0        0.264871    2.974024   -0.515845
     15          6           0       -0.951601   -0.044287    0.524820
     16          8           0       -0.717498   -1.060518    1.175208
     17          7           0       -2.025381    0.084284   -0.257936
     18          1           0       -2.174975    0.939805   -0.773511
     19          6           0       -3.002281   -0.976694   -0.398091
     20          1           0       -2.705264   -1.827988    0.214445
     21          1           0       -3.978474   -0.617904   -0.071795
     22          1           0       -3.058977   -1.283421   -1.442541
 ---------------------------------------------------------------------
 Rotational constants (GHZ):      2.2592594      0.9539403      0.7997511
 Standard basis: 6-31G(d) (6D, 7F)
 There are   174 symmetry adapted basis functions of A   symmetry.
 Integral buffers will be    131072 words long.
 Raffenetti 2 integral format.
 Two-electron integral symmetry is turned on.
   174 basis functions,   328 primitive gaussians,   174 cartesian basis functions
    39 alpha electrons       39 beta electrons
       nuclear repulsion energy       578.5381926103 Hartrees.
 NAtoms=   22 NActive=   22 NUniq=   22 SFac= 7.50D-01 NAtFMM=   80 NAOKFM=F Big=F
 One-electron integrals computed using PRISM.
 NBasis=   174 RedAO= T  NBF=   174
 NBsUse=   174 1.00D-06 NBFU=   174
 Harris functional with IExCor=  402 diagonalized for initial guess.
 ExpMin= 1.61D-01 ExpMax= 5.48D+03 ExpMxC= 8.25D+02 IAcc=1 IRadAn=         1 AccDes= 0.00D+00
 HarFok:  IExCor=  402 AccDes= 0.00D+00 IRadAn=         1 IDoV= 1
 ScaDFX=  1.000000  1.000000  1.000000  1.000000
 FoFCou: FMM=F IPFlag=           0 FMFlag=      100000 FMFlg1=           0
         NFxFlg=           0 DoJE=T BraDBF=F KetDBF=T FulRan=T
         Omega=  0.000000  0.000000  1.000000  0.000000  0.000000 ICntrl=     500 IOpCl=  0
         NMat0=    1 NMatS0=    1 NMatT0=    0 NMatD0=    1 NMtDS0=    0 NMtDT0=    0
         I1Cent=           4 NGrid=           0.
 Petite list used in FoFCou.
 Initial guess orbital symmetries:
       Occupied  (A) (A) (A) (A) (A) (A) (A) (A) (A) (A) (A) (A)
                 (A) (A) (A) (A) (A) (A) (A) (A) (A) (A) (A) (A)
                 (A) (A) (A) (A) (A) (A) (A) (A) (A) (A) (A) (A)
                 (A) (A) (A)
       Virtual   (A) (A) (A) (A) (A) (A) (A) (A) (A) (A) (A) (A)
                 (A) (A) (A) (A) (A) (A) (A) (A) (A) (A) (A) (A)
                 (A) (A) (A) (A) (A) (A) (A) (A) (A) (A) (A) (A)
                 (A) (A) (A) (A) (A) (A) (A) (A) (A) (A) (A) (A)
                 (A) (A) (A) (A) (A) (A) (A) (A) (A) (A) (A) (A)
                 (A) (A) (A) (A) (A) (A) (A) (A) (A) (A) (A) (A)
                 (A) (A) (A) (A) (A) (A) (A) (A) (A) (A) (A) (A)
                 (A) (A) (A) (A) (A) (A) (A) (A) (A) (A) (A) (A)
                 (A) (A) (A) (A) (A) (A) (A) (A) (A) (A) (A) (A)
                 (A) (A) (A) (A) (A) (A) (A) (A) (A) (A) (A) (A)
                 (A) (A) (A) (A) (A) (A) (A) (A) (A) (A) (A) (A)
                 (A) (A) (A)
 The electronic state of the initial guess is 1-A.
 Requested convergence on RMS density matrix=1.00D-08 within 128 cycles.
 Requested convergence on MAX density matrix=1.00D-06.
 Requested convergence on             energy=1.00D-06.
 No special actions if energy rises.
 Integral accuracy reduced to 1.0D-05 until final iterations.
 Initial convergence to 1.0D-05 achieved.  Increase integral accuracy.
 SCF Done:  E(RB3LYP) =  -495.819231402     A.U. after   15 cycles
             Convg  =    0.5307D-08             -V/T =  2.0086
 Range of M.O.s used for correlation:     1   174
 NBasis=   174 NAE=    39 NBE=    39 NFC=     0 NFV=     0
 NROrb=    174 NOA=    39 NOB=    39 NVA=   135 NVB=   135
 Symmetrizing basis deriv contribution to polar:
 IMax=3 JMax=2 DiffMx= 0.00D+00
 G2DrvN: will do    23 centers at a time, making    1 passes doing MaxLOS=2.
 Calling FoFCou, ICntrl=  3107 FMM=F I1Cent=   0 AccDes= 0.00D+00.
 FoFDir/FoFCou used for L=0 through L=2.
 End of G2Drv Frequency-dependent properties file   721 does not exist.
 End of G2Drv Frequency-dependent properties file   722 does not exist.
          IDoAtm=1111111111111111111111
          Differentiating once with respect to nuclear coordinates.
          There are    69 degrees of freedom in the 1st order CPHF.  IDoFFX=5.
     63 vectors produced by pass  0 Test12= 7.63D-11 1.45D-07 XBig12= 1.62D-01 9.81D-02.
 AX will form    63 AO Fock derivatives at one time.
     63 vectors produced by pass  1 Test12= 7.63D-11 1.45D-07 XBig12= 3.49D-02 6.12D-02.
     63 vectors produced by pass  2 Test12= 7.63D-11 1.45D-07 XBig12= 5.40D-05 1.47D-03.
     63 vectors produced by pass  3 Test12= 7.63D-11 1.45D-07 XBig12= 2.25D-07 8.25D-05.
     28 vectors produced by pass  4 Test12= 7.63D-11 1.45D-07 XBig12= 2.62D-10 1.46D-06.
 Inverted reduced A of dimension   280 with in-core refinement.
 End of Minotr Frequency-dependent properties file   721 does not exist.
 End of Minotr Frequency-dependent properties file   722 does not exist.

 **********************************************************************

            Population analysis using the SCF density.

 **********************************************************************

 Orbital symmetries:
       Occupied  (A) (A) (A) (A) (A) (A) (A) (A) (A) (A) (A) (A)
                 (A) (A) (A) (A) (A) (A) (A) (A) (A) (A) (A) (A)
                 (A) (A) (A) (A) (A) (A) (A) (A) (A) (A) (A) (A)
                 (A) (A) (A)
       Virtual   (A) (A) (A) (A) (A) (A) (A) (A) (A) (A) (A) (A)
                 (A) (A) (A) (A) (A) (A) (A) (A) (A) (A) (A) (A)
                 (A) (A) (A) (A) (A) (A) (A) (A) (A) (A) (A) (A)
                 (A) (A) (A) (A) (A) (A) (A) (A) (A) (A) (A) (A)
                 (A) (A) (A) (A) (A) (A) (A) (A) (A) (A) (A) (A)
                 (A) (A) (A) (A) (A) (A) (A) (A) (A) (A) (A) (A)
                 (A) (A) (A) (A) (A) (A) (A) (A) (A) (A) (A) (A)
                 (A) (A) (A) (A) (A) (A) (A) (A) (A) (A) (A) (A)
                 (A) (A) (A) (A) (A) (A) (A) (A) (A) (A) (A) (A)
                 (A) (A) (A) (A) (A) (A) (A) (A) (A) (A) (A) (A)
                 (A) (A) (A) (A) (A) (A) (A) (A) (A) (A) (A) (A)
                 (A) (A) (A)
 The electronic state is 1-A.
 Alpha  occ. eigenvalues --  -19.09310 -19.07789 -14.36090 -14.34804 -10.27435
 Alpha  occ. eigenvalues --  -10.26518 -10.23625 -10.20426 -10.19071 -10.18301
 Alpha  occ. eigenvalues --   -1.02792  -1.00190  -0.92537  -0.91090  -0.78931
 Alpha  occ. eigenvalues --   -0.72676  -0.69661  -0.65430  -0.59879  -0.57448
 Alpha  occ. eigenvalues --   -0.52910  -0.50337  -0.45688  -0.44679  -0.44199
 Alpha  occ. eigenvalues --   -0.43710  -0.42485  -0.41520  -0.39866  -0.38694
 Alpha  occ. eigenvalues --   -0.38336  -0.37374  -0.37229  -0.35704  -0.33276
 Alpha  occ. eigenvalues --   -0.25372  -0.23623  -0.22555  -0.21949
 Alpha virt. eigenvalues --    0.03851   0.04353   0.07674   0.09037   0.11947
 Alpha virt. eigenvalues --    0.13280   0.13717   0.14675   0.15564   0.16954
 Alpha virt. eigenvalues --    0.17383   0.17703   0.18338   0.19206   0.20587
 Alpha virt. eigenvalues --    0.21533   0.22684   0.26788   0.28545   0.34207
 Alpha virt. eigenvalues --    0.36912   0.41432   0.42463   0.51214   0.51815
 Alpha virt. eigenvalues --    0.52851   0.54129   0.55234   0.55546   0.57825
 Alpha virt. eigenvalues --    0.58275   0.60264   0.62446   0.64823   0.66862
 Alpha virt. eigenvalues --    0.68750   0.70770   0.72168   0.72871   0.74746
 Alpha virt. eigenvalues --    0.75831   0.77779   0.79357   0.81516   0.83688
 Alpha virt. eigenvalues --    0.85781   0.86284   0.87746   0.88666   0.89154
 Alpha virt. eigenvalues --    0.90135   0.90485   0.91508   0.93631   0.94840
 Alpha virt. eigenvalues --    0.95243   0.95751   0.96618   0.98031   1.02111
 Alpha virt. eigenvalues --    1.04514   1.08147   1.14629   1.16343   1.21576
 Alpha virt. eigenvalues --    1.26139   1.29444   1.31116   1.33142   1.37128
 Alpha virt. eigenvalues --    1.37333   1.41306   1.45110   1.47350   1.51098
 Alpha virt. eigenvalues --    1.53846   1.55753   1.64820   1.69196   1.73981
 Alpha virt. eigenvalues --    1.74985   1.76637   1.81524   1.82683   1.84805
 Alpha virt. eigenvalues --    1.86235   1.88645   1.90167   1.91313   1.94891
 Alpha virt. eigenvalues --    1.96823   1.99463   1.99724   2.01822   2.04931
 Alpha virt. eigenvalues --    2.07525   2.09615   2.12361   2.17296   2.18558
 Alpha virt. eigenvalues --    2.21679   2.24175   2.26341   2.28273   2.31736
 Alpha virt. eigenvalues --    2.31873   2.36779   2.37702   2.41003   2.43758
 Alpha virt. eigenvalues --    2.46950   2.51109   2.53573   2.59384   2.66117
 Alpha virt. eigenvalues --    2.69030   2.70526   2.71454   2.79467   2.89565
 Alpha virt. eigenvalues --    2.95283   2.99272   3.03304   3.19930   3.22365
 Alpha virt. eigenvalues --    3.98656   4.01401   4.08723   4.20038   4.24980
 Alpha virt. eigenvalues --    4.27007   4.29879   4.42515   4.46647   4.72436
          Condensed to atoms (all electrons):
              1          2          3          4          5          6
     1  H    0.499083   0.360706  -0.021959  -0.020121  -0.016831   0.005039
     2  C    0.360706   5.345782   0.347152   0.349778   0.345900  -0.076513
     3  H   -0.021959   0.347152   0.565612  -0.028244  -0.024995   0.001426
     4  H   -0.020121   0.349778  -0.028244   0.552389  -0.027180   0.000986
     5  C   -0.016831   0.345900  -0.024995  -0.027180   4.337660   0.584711
     6  O    0.005039  -0.076513   0.001426   0.000986   0.584711   8.083115
     7  N    0.004440  -0.138157   0.004537   0.005309   0.230033  -0.102945
     8  H   -0.000167   0.000898   0.000856   0.000603  -0.017571   0.003873
     9  C   -0.000152   0.007164  -0.000252  -0.000045  -0.031289   0.005350
    10  H    0.000002  -0.000178  -0.000007   0.000001   0.004843   0.000562
    11  C    0.000005  -0.000218   0.000032   0.000003  -0.002775  -0.002433
    12  H    0.000001   0.000052  -0.000037   0.000001   0.004865   0.004040
    13  H    0.000000   0.000007  -0.000001   0.000000   0.000160   0.000028
    14  H    0.000000  -0.000007   0.000002  -0.000001  -0.000097   0.000006
    15  C    0.000003   0.000076   0.000005  -0.000028   0.001486   0.026393
    16  O    0.000013  -0.000535  -0.000001   0.000088   0.007818  -0.025990
    17  N    0.000000  -0.000049   0.000001   0.000001   0.000121  -0.005943
    18  H    0.000000   0.000000   0.000000   0.000000  -0.000179  -0.000035
    19  C    0.000000   0.000000   0.000000   0.000000  -0.000006   0.000111
    20  H    0.000000   0.000000   0.000000   0.000000  -0.000023   0.000030
    21  H    0.000000   0.000000   0.000000   0.000000  -0.000001   0.000001
    22  H    0.000000   0.000000   0.000000   0.000000   0.000005   0.000122
              7          8          9         10         11         12
     1  H    0.004440  -0.000167  -0.000152   0.000002   0.000005   0.000001
     2  C   -0.138157   0.000898   0.007164  -0.000178  -0.000218   0.000052
     3  H    0.004537   0.000856  -0.000252  -0.000007   0.000032  -0.000037
     4  H    0.005309   0.000603  -0.000045   0.000001   0.000003   0.000001
     5  C    0.230033  -0.017571  -0.031289   0.004843  -0.002775   0.004865
     6  O   -0.102945   0.003873   0.005350   0.000562  -0.002433   0.004040
     7  N    7.151176   0.302899   0.252855  -0.035924  -0.067955  -0.008584
     8  H    0.302899   0.415443  -0.030492  -0.003759   0.001103  -0.000079
     9  C    0.252855  -0.030492   5.125598   0.368023   0.302961  -0.028225
    10  H   -0.035924  -0.003759   0.368023   0.572438  -0.050634   0.005262
    11  C   -0.067955   0.001103   0.302961  -0.050634   5.258939   0.377013
    12  H   -0.008584  -0.000079  -0.028225   0.005262   0.377013   0.523756
    13  H    0.006188  -0.000120  -0.028143  -0.002253   0.346244  -0.035372
    14  H   -0.000182   0.001357  -0.022940  -0.002968   0.356407  -0.024802
    15  C   -0.037004   0.003114   0.322624  -0.021121  -0.054082  -0.005104
    16  O    0.002183  -0.000198  -0.084284  -0.000756   0.004188  -0.000060
    17  N    0.001416  -0.000135  -0.124376   0.000570   0.001347   0.000088
    18  H    0.000379  -0.000003  -0.005100   0.000358   0.006616   0.000755
    19  C   -0.000065   0.000003   0.007634  -0.000175  -0.000144  -0.000174
    20  H   -0.000003   0.000000   0.001134  -0.000019  -0.000102  -0.000019
    21  H   -0.000002   0.000000  -0.000272   0.000031   0.000082   0.000013
    22  H    0.000006   0.000000  -0.000059  -0.000005  -0.000095   0.000001
             13         14         15         16         17         18
     1  H    0.000000   0.000000   0.000003   0.000013   0.000000   0.000000
     2  C    0.000007  -0.000007   0.000076  -0.000535  -0.000049   0.000000
     3  H   -0.000001   0.000002   0.000005  -0.000001   0.000001   0.000000
     4  H    0.000000  -0.000001  -0.000028   0.000088   0.000001   0.000000
     5  C    0.000160  -0.000097   0.001486   0.007818   0.000121  -0.000179
     6  O    0.000028   0.000006   0.026393  -0.025990  -0.005943  -0.000035
     7  N    0.006188  -0.000182  -0.037004   0.002183   0.001416   0.000379
     8  H   -0.000120   0.001357   0.003114  -0.000198  -0.000135  -0.000003
     9  C   -0.028143  -0.022940   0.322624  -0.084284  -0.124376  -0.005100
    10  H   -0.002253  -0.002968  -0.021121  -0.000756   0.000570   0.000358
    11  C    0.346244   0.356407  -0.054082   0.004188   0.001347   0.006616
    12  H   -0.035372  -0.024802  -0.005104  -0.000060   0.000088   0.000755
    13  H    0.596972  -0.023473  -0.004998  -0.000138  -0.005517   0.008176
    14  H   -0.023473   0.567111   0.003342  -0.000085   0.000854  -0.000052
    15  C   -0.004998   0.003342   4.322461   0.549721   0.278920  -0.015791
    16  O   -0.000138  -0.000085   0.549721   8.156700  -0.090199   0.004067
    17  N   -0.005517   0.000854   0.278920  -0.090199   7.106150   0.289464
    18  H    0.008176  -0.000052  -0.015791   0.004067   0.289464   0.417058
    19  C    0.000485  -0.000007  -0.027958  -0.010192   0.271677  -0.030589
    20  H   -0.000022   0.000002  -0.000470   0.023518  -0.036665   0.003774
    21  H   -0.000131   0.000001   0.001289   0.000589  -0.045079  -0.000522
    22  H    0.000072  -0.000001   0.002428   0.000597  -0.044754  -0.000758
             19         20         21         22
     1  H    0.000000   0.000000   0.000000   0.000000
     2  C    0.000000   0.000000   0.000000   0.000000
     3  H    0.000000   0.000000   0.000000   0.000000
     4  H    0.000000   0.000000   0.000000   0.000000
     5  C   -0.000006  -0.000023  -0.000001   0.000005
     6  O    0.000111   0.000030   0.000001   0.000122
     7  N   -0.000065  -0.000003  -0.000002   0.000006
     8  H    0.000003   0.000000   0.000000   0.000000
     9  C    0.007634   0.001134  -0.000272  -0.000059
    10  H   -0.000175  -0.000019   0.000031  -0.000005
    11  C   -0.000144  -0.000102   0.000082  -0.000095
    12  H   -0.000174  -0.000019   0.000013   0.000001
    13  H    0.000485  -0.000022  -0.000131   0.000072
    14  H   -0.000007   0.000002   0.000001  -0.000001
    15  C   -0.027958  -0.000470   0.001289   0.002428
    16  O   -0.010192   0.023518   0.000589   0.000597
    17  N    0.271677  -0.036665  -0.045079  -0.044754
    18  H   -0.030589   0.003774  -0.000522  -0.000758
    19  C    4.959918   0.373941   0.380336   0.383167
    20  H    0.373941   0.472129  -0.024756  -0.022894
    21  H    0.380336  -0.024756   0.581685  -0.040452
    22  H    0.383167  -0.022894  -0.040452   0.563488
 Mulliken atomic charges:
              1
     1  H    0.189938
     2  C   -0.541859
     3  H    0.155873
     4  H    0.166459
     5  C    0.603347
     6  O   -0.501934
     7  N   -0.570603
     8  H    0.322374
     9  C   -0.037713
    10  H    0.165707
    11  C   -0.476504
    12  H    0.186609
    13  H    0.141836
    14  H    0.145534
    15  C    0.654695
    16  O   -0.537046
    17  N   -0.597892
    18  H    0.322380
    19  C   -0.307960
    20  H    0.210443
    21  H    0.147188
    22  H    0.159130
 Sum of Mulliken atomic charges =   0.00000
 Mulliken charges with hydrogens summed into heavy atoms:
              1
     2  C   -0.029589
     5  C    0.603347
     6  O   -0.501934
     7  N   -0.248229
     9  C    0.127994
    11  C   -0.002525
    15  C    0.654695
    16  O   -0.537046
    17  N   -0.275512
    19  C    0.208801
 Sum of Mulliken charges with hydrogens summed into heavy atoms =   0.00000
 APT atomic charges:
              1
     1  H    0.542020
     2  C   -1.265939
     3  H    0.455794
     4  H    0.426901
     5  C    0.300200
     6  O   -0.490487
     7  N   -0.801507
     8  H    0.736505
     9  C   -0.422901
    10  H    0.499080
    11  C   -1.160622
    12  H    0.276910
    13  H    0.398492
    14  H    0.502035
    15  C   -0.025601
    16  O   -0.242934
    17  N   -0.435336
    18  H    0.553592
    19  C   -1.283344
    20  H    0.370225
    21  H    0.619226
    22  H    0.447691
 Sum of APT charges=   0.00000
 APT Atomic charges with hydrogens summed into heavy atoms:
              1
     1  H    0.000000
     2  C    0.158776
     3  H    0.000000
     4  H    0.000000
     5  C    0.300200
     6  O   -0.490487
     7  N   -0.065001
     8  H    0.000000
     9  C    0.076178
    10  H    0.000000
    11  C    0.016815
    12  H    0.000000
    13  H    0.000000
    14  H    0.000000
    15  C   -0.025601
    16  O   -0.242934
    17  N    0.118256
    18  H    0.000000
    19  C    0.153797
    20  H    0.000000
    21  H    0.000000
    22  H    0.000000
 Sum of APT charges=   0.00000
 Electronic spatial extent (au):  <R**2>=           1581.3288
 Charge=              0.0000 electrons
 Dipole moment (field-independent basis, Debye):
    X=              0.3602    Y=              4.8454    Z=             -0.4058  Tot=              4.8757
 Quadrupole moment (field-independent basis, Debye-Ang):
   XX=            -46.2989   YY=            -59.8564   ZZ=            -61.9855
   XY=              0.9700   XZ=              5.0691   YZ=              2.5031
 Traceless Quadrupole moment (field-independent basis, Debye-Ang):
   XX=              9.7481   YY=             -3.8095   ZZ=             -5.9386
   XY=              0.9700   XZ=              5.0691   YZ=              2.5031
 Octapole moment (field-independent basis, Debye-Ang**2):
  XXX=              0.9969  YYY=              0.7364  ZZZ=             -0.6628  XYY=              0.3022
  XXY=             -1.7668  XXZ=             -2.0433  XZZ=              1.4568  YZZ=              5.7658
  YYZ=              2.1752  XYZ=              0.6988
 Hexadecapole moment (field-independent basis, Debye-Ang**3):
 XXXX=          -1258.6722 YYYY=           -502.9111 ZZZZ=           -211.4120 XXXY=              8.7652
 XXXZ=             13.6246 YYYX=              9.0754 YYYZ=              8.5755 ZZZX=              7.1900
 ZZZY=              8.1104 XXYY=           -284.1652 XXZZ=           -250.5763 YYZZ=           -120.4349
 XXYZ=              4.9196 YYXZ=              6.9493 ZZXY=              0.7406
 N-N= 5.785381926103D+02 E-N=-2.314031759488D+03  KE= 4.916102351717D+02
  Exact polarizability:   0.000   0.000   0.000   0.000   0.000   0.000
 Approx polarizability: 118.215   1.188 118.441  15.651   3.929 101.753
 Calling FoFJK, ICntrl=    100147 FMM=F ISym2X=0 I1Cent= 0 IOpClX= 0 NMat=1 NMatS=1 NMatT=0.
 ***** Axes restored to original set *****
 -------------------------------------------------------------------
 Center     Atomic                   Forces (Hartrees/Bohr)
 Number     Number              X              Y              Z
 -------------------------------------------------------------------
      1        1           0.003187347    0.002403373   -0.000383498
      2        6           0.010435147   -0.000000768    0.004202210
      3        1          -0.003168601   -0.005867217   -0.000139975
      4        1          -0.004231541   -0.003979866    0.003266143
      5        6          -0.038113608    0.023568244   -0.021678975
      6        8          -0.001189750   -0.011663145   -0.010364784
      7        7           0.020031216   -0.011973220    0.016352968
      8        1          -0.000324608    0.000809858    0.000804509
      9        6           0.009925489    0.000459947   -0.018027810
     10        1          -0.001764314   -0.000011007    0.005646712
     11        6          -0.000025425   -0.017048681    0.000555730
     12        1          -0.000422277   -0.001581191   -0.002963701
     13        1           0.006395663   -0.009057074   -0.001215002
     14        1           0.003580036   -0.003076054   -0.003804934
     15        6          -0.033282566    0.008805638    0.031762974
     16        8           0.013326040    0.001269359    0.009734143
     17        7           0.017263340    0.014689744   -0.010992820
     18        1          -0.004879880    0.008810501    0.001118691
     19        6           0.001464031   -0.001396977   -0.001308512
     20        1          -0.000511210   -0.003421704    0.000300338
     21        1           0.003272909    0.004599255    0.000255741
     22        1          -0.000967437    0.003660986   -0.003120149
 -------------------------------------------------------------------
 Cartesian Forces:  Max     0.038113608 RMS     0.010988677

 GradGradGradGradGradGradGradGradGradGradGradGradGradGradGradGradGradGrad
 Berny optimization.
 Internal  Forces:  Max     0.043930039 RMS     0.012097577
 Search for a local minimum.
 Step number   1 out of a maximum of  132
 All quantities printed in internal units (Hartrees-Bohrs-Radians)
 Mixed Optimization -- RFO/linear search
 Second derivative matrix not updated -- analytic derivatives used.
     Eigenvalues ---   -0.00070  -0.00053   0.00087   0.00338   0.00792
     Eigenvalues ---    0.01449   0.01679   0.02402   0.03901   0.04498
     Eigenvalues ---    0.04819   0.05208   0.05293   0.05828   0.05996
     Eigenvalues ---    0.06144   0.06390   0.06587   0.11408   0.12183
     Eigenvalues ---    0.12436   0.12757   0.13279   0.13334   0.13472
     Eigenvalues ---    0.14297   0.15511   0.17697   0.18083   0.18571
     Eigenvalues ---    0.20076   0.21311   0.22302   0.23640   0.24635
     Eigenvalues ---    0.26964   0.29494   0.30869   0.34433   0.34514
     Eigenvalues ---    0.34682   0.34840   0.35060   0.35068   0.35379
     Eigenvalues ---    0.35670   0.35861   0.35893   0.36999   0.39382
     Eigenvalues ---    0.45754   0.46466   0.47988   0.53070   0.65013
     Eigenvalues ---    0.77679   0.81501   0.828391000.000001000.00000
     Eigenvalues --- 1000.000001000.000001000.000001000.000001000.00000
     Eigenvalues --- 1000.000001000.000001000.000001000.000001000.00000
     Eigenvalues --- 1000.000001000.000001000.000001000.000001000.00000
     Eigenvalues --- 1000.000001000.000001000.000001000.000001000.00000
     Eigenvalues --- 1000.000001000.000001000.000001000.000001000.00000
     Eigenvalues --- 1000.000001000.000001000.000001000.000001000.00000
     Eigenvalues --- 1000.000001000.000001000.000001000.000001000.00000
     Eigenvalues --- 1000.000001000.000001000.00000
 RFO step:  Lambda=-2.53155665D-02 EMin=-6.98490615D-04
 Linear search not attempted -- first point.
 Maximum step size (   0.300) exceeded in Quadratic search.
    -- Step size scaled by   0.255
 Iteration  1 RMS(Cart)=  0.05429320 RMS(Int)=  0.00240493
 Iteration  2 RMS(Cart)=  0.00259154 RMS(Int)=  0.00015975
 Iteration  3 RMS(Cart)=  0.00000580 RMS(Int)=  0.00015969
 Iteration  4 RMS(Cart)=  0.00000000 RMS(Int)=  0.00015969
 Iteration  1 RMS(Cart)=  0.00000786 RMS(Int)=  0.00000303
 Iteration  2 RMS(Cart)=  0.00000439 RMS(Int)=  0.00000338
 Iteration  3 RMS(Cart)=  0.00000252 RMS(Int)=  0.00000382
 Iteration  4 RMS(Cart)=  0.00000149 RMS(Int)=  0.00000412
 Iteration  5 RMS(Cart)=  0.00000090 RMS(Int)=  0.00000431
 Variable       Old X    -DE/DX   Delta X   Delta X   Delta X     New X
                                 (Linear)    (Quad)   (Total)
    R1        2.05994  -0.00100   0.00000  -0.00001  -0.00001   2.05993
    R2        2.05971   0.00482   0.00000   0.00296   0.00296   2.06266
    R3        2.05963   0.00471   0.00000   0.00278   0.00278   2.06242
    R4        2.89134  -0.00118   0.00000  -0.00371  -0.00371   2.88763
    R5        2.32249  -0.00575   0.00000  -0.00221  -0.00221   2.32028
    R6        2.52269   0.03901   0.00000   0.01438   0.01438   2.53707
    R7        1.90876  -0.00034   0.00000  -0.00012  -0.00012   1.90864
    R8        2.73817   0.01496   0.00000   0.00364   0.00364   2.74181
    R9        2.05975   0.00372   0.00000   0.00266   0.00266   2.06241
   R10        2.88188   0.01898   0.00000   0.00669   0.00669   2.88858
   R11        2.87618   0.03727   0.00000   0.01246   0.01246   2.88864
   R12        2.05972   0.00222   0.00000   0.00264   0.00264   2.06236
   R13        2.05984   0.00152   0.00000   0.00337   0.00337   2.06321
   R14        2.05966   0.00356   0.00000   0.00206   0.00206   2.06172
   R15        2.32255  -0.00221   0.00000  -0.00252  -0.00252   2.32002
   R16        2.52280   0.03146   0.00000   0.01114   0.01114   2.53394
   R17        1.90863  -0.00813   0.00000  -0.00157  -0.00157   1.90706
   R18        2.73825   0.00360   0.00000   0.00108   0.00108   2.73932
   R19        2.05982  -0.00068   0.00000   0.00014   0.00014   2.05996
   R20        2.05985   0.00472   0.00000   0.00206   0.00206   2.06191
   R21        2.05986   0.00412   0.00000   0.00362   0.00362   2.06348
    A1        1.91109  -0.00006   0.00000   0.00008   0.00011   1.91119
    A2        1.91114  -0.00020   0.00000  -0.00206  -0.00206   1.90908
    A3        1.93905  -0.00813   0.00000  -0.00980  -0.00979   1.92926
    A4        1.91025  -0.00507   0.00000  -0.00575  -0.00579   1.90446
    A5        1.89600   0.00664   0.00000   0.01321   0.01320   1.90920
    A6        1.89604   0.00686   0.00000   0.00441   0.00439   1.90043
    A7        2.10312   0.00281   0.00000   0.01051   0.01051   2.11362
    A8        2.03511  -0.01539   0.00000  -0.00658  -0.00658   2.02853
    A9        2.14496   0.01258   0.00000  -0.00393  -0.00393   2.14103
   A10        2.09429  -0.01635   0.00000  -0.00229  -0.00240   2.09189
   A11        2.12765   0.03251   0.00000   0.00632   0.00621   2.13385
   A12        2.06125  -0.01616   0.00000  -0.00403  -0.00415   2.05710
   A13        1.91114   0.00550   0.00000  -0.00355  -0.00363   1.90750
   A14        1.93905  -0.02442   0.00000  -0.00291  -0.00293   1.93611
   A15        1.93900  -0.00193   0.00000  -0.00383  -0.00393   1.93508
   A16        1.89609  -0.00305   0.00000  -0.00033  -0.00027   1.89583
   A17        1.89608  -0.01977   0.00000  -0.01387  -0.01393   1.88215
   A18        1.88137   0.04393   0.00000   0.02457   0.02459   1.90596
   A19        1.91115   0.00142   0.00000   0.00198   0.00197   1.91312
   A20        1.91106   0.00850   0.00000   0.00673   0.00672   1.91778
   A21        1.91110   0.00385   0.00000   0.00481   0.00481   1.91590
   A22        1.91011  -0.00148   0.00000   0.00016   0.00014   1.91024
   A23        1.91023  -0.00372   0.00000  -0.00678  -0.00678   1.90345
   A24        1.91015  -0.00859   0.00000  -0.00692  -0.00694   1.90322
   A25        2.10317  -0.01194   0.00000  -0.00225  -0.00235   2.10082
   A26        2.03507   0.02698   0.00000  -0.00124  -0.00134   2.03374
   A27        2.14494  -0.01504   0.00000   0.00349   0.00339   2.14833
   A28        2.09441   0.00700   0.00000  -0.00134  -0.00222   2.09218
   A29        2.12758  -0.00313   0.00000   0.00007  -0.00082   2.12676
   A30        2.06120  -0.00387   0.00000   0.00128   0.00039   2.06159
   A31        1.91112  -0.00679   0.00000  -0.00842  -0.00841   1.90271
   A32        1.91114   0.00510   0.00000   0.00092   0.00091   1.91205
   A33        1.91111   0.00411   0.00000   0.01068   0.01068   1.92179
   A34        1.91016   0.00030   0.00000   0.00334   0.00334   1.91350
   A35        1.91013   0.00008   0.00000  -0.00489  -0.00487   1.90526
   A36        1.91014  -0.00281   0.00000  -0.00165  -0.00167   1.90847
    D1        0.00005  -0.00240   0.00000   0.04867   0.04867   0.04872
    D2        3.14154   0.00245   0.00000   0.05047   0.05048  -3.09116
    D3        2.10329  -0.00322   0.00000   0.05124   0.05120   2.15449
    D4       -1.03841   0.00163   0.00000   0.05304   0.05301  -0.98540
    D5       -2.10327  -0.00157   0.00000   0.05442   0.05444  -2.04883
    D6        1.03822   0.00328   0.00000   0.05622   0.05625   1.09447
    D7        0.00007   0.00747   0.00000   0.00776   0.00776   0.00783
    D8        3.14159   0.00275   0.00000   0.03669   0.03670  -3.10490
    D9        3.14156   0.01244   0.00000   0.00961   0.00960  -3.13202
   D10       -0.00011   0.00773   0.00000   0.03854   0.03854   0.03843
   D11        2.61806   0.00982   0.00000  -0.02198  -0.02199   2.59607
   D12       -1.57069  -0.00582   0.00000  -0.02654  -0.02650  -1.59719
   D13        0.52367   0.03206   0.00000   0.00000   0.00000   0.52367
   D14       -0.52360   0.00519   0.00000   0.00642   0.00640  -0.51720
   D15        1.57084  -0.01045   0.00000   0.00186   0.00188   1.57272
   D16       -2.61800   0.02743   0.00000   0.02840   0.02839  -2.58961
   D17        1.04724   0.00672   0.00000  -0.00485  -0.00483   1.04241
   D18        3.14157   0.01100   0.00000   0.00069   0.00072  -3.14090
   D19       -1.04726   0.00805   0.00000  -0.00071  -0.00068  -1.04794
   D20       -3.13259  -0.00356   0.00000  -0.01126  -0.01129   3.13930
   D21       -1.03826   0.00072   0.00000  -0.00572  -0.00575  -1.04401
   D22        1.05609  -0.00223   0.00000  -0.00712  -0.00715   1.04894
   D23       -1.08102  -0.00455   0.00000  -0.01441  -0.01442  -1.09544
   D24        1.01331  -0.00027   0.00000  -0.00887  -0.00887   1.00444
   D25        3.10766  -0.00322   0.00000  -0.01027  -0.01027   3.09739
   D26        0.78542   0.00713   0.00000   0.02521   0.02519   0.81061
   D27       -2.35615  -0.00033   0.00000   0.00000   0.00000  -2.35615
   D28       -1.31790   0.01430   0.00000   0.04095   0.04085  -1.27705
   D29        1.82372   0.00684   0.00000   0.01573   0.01566   1.83938
   D30        2.91371   0.00448   0.00000   0.03533   0.03537   2.94908
   D31       -0.22786  -0.00298   0.00000   0.01012   0.01018  -0.21768
   D32       -0.00011   0.00484   0.00000   0.08143   0.08142   0.08130
   D33       -3.14154   0.00382   0.00000   0.00152   0.00160  -3.13994
   D34        3.14150  -0.00281   0.00000   0.05556   0.05548  -3.08621
   D35        0.00008  -0.00383   0.00000  -0.02435  -0.02434  -0.02426
   D36       -0.00006   0.00023   0.00000   0.12147   0.12147   0.12142
   D37        2.09436  -0.00043   0.00000   0.12097   0.12098   2.21534
   D38       -2.09443   0.00178   0.00000   0.12608   0.12611  -1.96832
   D39       -3.14148  -0.00077   0.00000   0.04302   0.04300  -3.09848
   D40       -1.04706  -0.00143   0.00000   0.04252   0.04250  -1.00456
   D41        1.04733   0.00078   0.00000   0.04763   0.04763   1.09497
         Item               Value     Threshold  Converged?
 Maximum Force            0.039011     0.000450     NO 
 RMS     Force            0.011037     0.000300     NO 
 Maximum Displacement     0.222275     0.001800     NO 
 RMS     Displacement     0.054594     0.001200     NO 
 Predicted change in Energy=-6.165876D-03
 GradGradGradGradGradGradGradGradGradGradGradGradGradGradGradGradGradGrad

                          Input orientation:                          
 ---------------------------------------------------------------------
 Center     Atomic      Atomic             Coordinates (Angstroms)
 Number     Number       Type             X           Y           Z
 ---------------------------------------------------------------------
      1          1           0        0.374565    4.269416   -1.031400
      2          6           0        1.170618    3.753373   -0.494516
      3          1           0        1.306890    2.755648   -0.915678
      4          1           0        0.897760    3.662717    0.558312
      5          6           0        2.481076    4.532113   -0.600582
      6          8           0        2.531556    5.612567   -1.181664
      7          7           0        3.555583    3.966073   -0.028306
      8          1           0        3.467400    3.071311    0.431847
      9          6           0        4.854723    4.611899   -0.011916
     10          1           0        5.390375    4.321461    0.893531
     11          6           0        5.686307    4.196693   -1.225422
     12          1           0        5.163620    4.477885   -2.141271
     13          1           0        6.659206    4.691277   -1.195621
     14          1           0        5.835912    3.116011   -1.218055
     15          6           0        4.706513    6.133258   -0.000681
     16          8           0        3.913362    6.673966    0.764697
     17          7           0        5.499986    6.818406   -0.836738
     18          1           0        6.099959    6.323043   -1.479452
     19          6           0        5.457037    8.265020   -0.919004
     20          1           0        4.802163    8.646080   -0.135285
     21          1           0        6.462011    8.668372   -0.785349
     22          1           0        5.069477    8.574411   -1.891847
 ---------------------------------------------------------------------
                    Distance matrix (angstroms):
                    1          2          3          4          5
     1  H    0.000000
     2  C    1.090067   0.000000
     3  H    1.781605   1.091514   0.000000
     4  H    1.780170   1.091384   1.778429   0.000000
     5  C    2.166103   1.528066   2.152633   2.146107   0.000000
     6  O    2.545436   2.404356   3.119702   3.082000   1.227837
     7  N    3.349193   2.439395   2.703549   2.738644   1.342560
     8  H    3.625215   2.568767   2.565789   2.639850   2.042716
     9  C    4.607436   3.813476   4.104823   4.108974   2.446855
    10  H    5.372748   4.478364   4.732849   4.553011   3.277312
    11  C    5.315782   4.595889   4.620805   5.137803   3.282748
    12  H    4.920399   4.379587   4.398016   5.113689   3.093979
    13  H    6.300925   5.612113   5.698448   6.109704   4.223290
    14  H    5.584935   4.763896   4.553387   5.276336   3.693446
    15  C    4.827221   4.290720   4.878822   4.574128   2.806442
    16  O    4.640142   4.199777   4.997057   4.266624   2.915984
    17  N    5.727581   5.315540   5.839032   5.751959   3.794302
    18  H    6.099039   5.645503   6.001471   6.188110   4.132331
    19  C    6.465988   6.237670   6.897602   6.644597   4.784593
    20  H    6.289821   6.103749   6.893703   6.368623   4.746438
    21  H    7.514543   7.227769   7.845544   7.604137   5.743746
    22  H    6.427718   6.355788   6.997712   6.894291   4.970650
                    6          7          8          9         10
     6  O    0.000000
     7  N    2.256060   0.000000
     8  H    3.152333   1.010008   0.000000
     9  C    2.786890   1.450906   2.120142   0.000000
    10  H    3.761149   2.083878   2.339628   1.091380   0.000000
    11  C    3.458189   2.454843   2.989410   1.528569   2.143153
    12  H    3.022601   2.704137   3.387706   2.155814   3.047280
    13  H    4.229240   3.394263   3.931993   2.159541   2.472095
    14  H    4.141605   2.708877   2.886871   2.157588   2.471925
    15  C    2.529087   2.453996   3.331366   1.528602   2.133047
    16  O    2.612332   2.844213   3.645380   2.396124   2.780727
    17  N    3.222515   3.545430   4.447633   2.442411   3.039833
    18  H    3.650611   3.759652   4.599695   2.575323   3.184477
    19  C    3.957643   4.784330   5.723466   3.811939   4.340666
    20  H    3.931001   4.844366   5.760320   4.036409   4.484060
    21  H    4.994346   5.579611   6.463463   4.431314   4.781493
    22  H    3.964584   5.196291   6.184684   4.391100   5.094005
                   11         12         13         14         15
    11  C    0.000000
    12  H    1.091352   0.000000
    13  H    1.091803   1.782293   0.000000
    14  H    1.091013   1.777359   1.777577   0.000000
    15  C    2.492041   2.744328   2.705587   3.444027   0.000000
    16  O    3.638789   3.851048   3.913255   4.504059   1.227704
    17  N    2.656910   2.700554   2.448932   3.737109   1.340902
    18  H    2.181056   2.172405   1.748136   3.228484   2.040705
    19  C    4.086287   3.990291   3.780657   5.171583   2.439470
    20  H    4.665528   4.639880   4.495931   5.729110   2.518242
    21  H    4.559747   4.591789   4.003061   5.604280   3.181867
    22  H    4.470907   4.105192   4.253316   5.552977   3.109257
                   16         17         18         19         20
    16  O    0.000000
    17  N    2.258945   0.000000
    18  H    3.152865   1.009175   0.000000
    19  C    2.783744   1.449587   2.121020   0.000000
    20  H    2.342898   2.078313   2.981201   1.090083   0.000000
    21  H    3.588302   2.085787   2.472535   1.091114   1.782743
    22  H    3.464898   2.093357   2.510103   1.091947   1.778230
                   21         22
    21  H    0.000000
    22  H    1.781100   0.000000
 Stoichiometry    C6H12N2O2
 Framework group  C1[X(C6H12N2O2)]
 Deg. of freedom    60
 Full point group                 C1      NOp   1
 Largest Abelian subgroup         C1      NOp   1
 Largest concise Abelian subgroup C1      NOp   1
                         Standard orientation:                         
 ---------------------------------------------------------------------
 Center     Atomic      Atomic             Coordinates (Angstroms)
 Number     Number       Type             X           Y           Z
 ---------------------------------------------------------------------
      1          1           0        3.409509   -1.602696   -0.840680
      2          6           0        3.218371   -0.730713   -0.215092
      3          1           0        3.794215    0.118386   -0.587702
      4          1           0        3.523073   -0.946836    0.810367
      5          6           0        1.731375   -0.378976   -0.225553
      6          8           0        0.920432   -1.070046   -0.835780
      7          7           0        1.376244    0.717637    0.462770
      8          1           0        2.080248    1.259860    0.942862
      9          6           0       -0.005111    1.146348    0.577628
     10          1           0       -0.149537    1.643944    1.538175
     11          6           0       -0.367607    2.125544   -0.538749
     12          1           0       -0.226540    1.644455   -1.508132
     13          1           0       -1.408902    2.437172   -0.435665
     14          1           0        0.274767    3.005497   -0.480872
     15          6           0       -0.953360   -0.051363    0.523436
     16          8           0       -0.724975   -1.054629    1.193179
     17          7           0       -2.035362    0.076382   -0.258211
     18          1           0       -2.150989    0.903080   -0.825341
     19          6           0       -3.011498   -0.986751   -0.393149
     20          1           0       -2.771000   -1.781531    0.313084
     21          1           0       -4.008071   -0.596602   -0.180648
     22          1           0       -2.989618   -1.389998   -1.407674
 ---------------------------------------------------------------------
 Rotational constants (GHZ):      2.2251940      0.9479694      0.7944958
 Standard basis: 6-31G(d) (6D, 7F)
 There are   174 symmetry adapted basis functions of A   symmetry.
 Integral buffers will be    131072 words long.
 Raffenetti 2 integral format.
 Two-electron integral symmetry is turned on.
   174 basis functions,   328 primitive gaussians,   174 cartesian basis functions
    39 alpha electrons       39 beta electrons
       nuclear repulsion energy       576.4787818706 Hartrees.
 NAtoms=   22 NActive=   22 NUniq=   22 SFac= 7.50D-01 NAtFMM=   80 NAOKFM=F Big=F
 One-electron integrals computed using PRISM.
 NBasis=   174 RedAO= T  NBF=   174
 NBsUse=   174 1.00D-06 NBFU=   174
 Initial guess read from the read-write file.
 B after Tr=     0.000000    0.000000    0.000000
         Rot=    1.000000    0.000000    0.000000    0.000000 Ang=   0.00 deg.
 Initial guess orbital symmetries:
       Occupied  (A) (A) (A) (A) (A) (A) (A) (A) (A) (A) (A) (A)
                 (A) (A) (A) (A) (A) (A) (A) (A) (A) (A) (A) (A)
                 (A) (A) (A) (A) (A) (A) (A) (A) (A) (A) (A) (A)
                 (A) (A) (A)
       Virtual   (A) (A) (A) (A) (A) (A) (A) (A) (A) (A) (A) (A)
                 (A) (A) (A) (A) (A) (A) (A) (A) (A) (A) (A) (A)
                 (A) (A) (A) (A) (A) (A) (A) (A) (A) (A) (A) (A)
                 (A) (A) (A) (A) (A) (A) (A) (A) (A) (A) (A) (A)
                 (A) (A) (A) (A) (A) (A) (A) (A) (A) (A) (A) (A)
                 (A) (A) (A) (A) (A) (A) (A) (A) (A) (A) (A) (A)
                 (A) (A) (A) (A) (A) (A) (A) (A) (A) (A) (A) (A)
                 (A) (A) (A) (A) (A) (A) (A) (A) (A) (A) (A) (A)
                 (A) (A) (A) (A) (A) (A) (A) (A) (A) (A) (A) (A)
                 (A) (A) (A) (A) (A) (A) (A) (A) (A) (A) (A) (A)
                 (A) (A) (A) (A) (A) (A) (A) (A) (A) (A) (A) (A)
                 (A) (A) (A)
 Harris functional with IExCor=  402 diagonalized for initial guess.
 ExpMin= 1.61D-01 ExpMax= 5.48D+03 ExpMxC= 8.25D+02 IAcc=1 IRadAn=         1 AccDes= 0.00D+00
 HarFok:  IExCor=  402 AccDes= 0.00D+00 IRadAn=         1 IDoV= 1
 ScaDFX=  1.000000  1.000000  1.000000  1.000000
 FoFCou: FMM=F IPFlag=           0 FMFlag=      100000 FMFlg1=           0
         NFxFlg=           0 DoJE=T BraDBF=F KetDBF=T FulRan=T
         Omega=  0.000000  0.000000  1.000000  0.000000  0.000000 ICntrl=     500 IOpCl=  0
         NMat0=    1 NMatS0=    1 NMatT0=    0 NMatD0=    1 NMtDS0=    0 NMtDT0=    0
         I1Cent=           4 NGrid=           0.
 Petite list used in FoFCou.
 Requested convergence on RMS density matrix=1.00D-08 within 128 cycles.
 Requested convergence on MAX density matrix=1.00D-06.
 Requested convergence on             energy=1.00D-06.
 No special actions if energy rises.
 Integral accuracy reduced to 1.0D-05 until final iterations.
 Initial convergence to 1.0D-05 achieved.  Increase integral accuracy.
 SCF Done:  E(RB3LYP) =  -495.825409217     A.U. after   11 cycles
             Convg  =    0.7825D-08             -V/T =  2.0088
 Calling FoFJK, ICntrl=      2127 FMM=F ISym2X=0 I1Cent= 0 IOpClX= 0 NMat=1 NMatS=1 NMatT=0.
 ***** Axes restored to original set *****
 -------------------------------------------------------------------
 Center     Atomic                   Forces (Hartrees/Bohr)
 Number     Number              X              Y              Z
 -------------------------------------------------------------------
      1        1           0.002460262    0.001799581   -0.000426515
      2        6           0.008321015    0.000021471    0.003361330
      3        1          -0.002553356   -0.004446439    0.000231203
      4        1          -0.003418468   -0.002826037    0.002604659
      5        6          -0.028636089    0.017630447   -0.018164240
      6        8          -0.001036317   -0.009327056   -0.008127763
      7        7           0.015426924   -0.009069924    0.014153893
      8        1          -0.000701828    0.000889074    0.001037122
      9        6           0.008686244    0.000895213   -0.017608752
     10        1          -0.002067892   -0.000023464    0.004643899
     11        6           0.000127248   -0.012821056    0.000991473
     12        1          -0.000251559   -0.001319914   -0.002261427
     13        1           0.004916952   -0.007116750   -0.000779454
     14        1           0.002779138   -0.002393353   -0.002884484
     15        6          -0.027098653    0.006534153    0.025566925
     16        8           0.011072521    0.001003254    0.007920170
     17        7           0.013760237    0.011283188   -0.007807327
     18        1          -0.003714951    0.006636316    0.000952536
     19        6           0.000900738   -0.001203816   -0.001486363
     20        1          -0.000331215   -0.002532691    0.000289129
     21        1           0.002473141    0.003536014   -0.000037742
     22        1          -0.001114093    0.002851790   -0.002168272
 -------------------------------------------------------------------
 Cartesian Forces:  Max     0.028636089 RMS     0.008755532

 GradGradGradGradGradGradGradGradGradGradGradGradGradGradGradGradGradGrad
 Berny optimization.
 Using GEDIIS/GDIIS optimizer.
 Internal  Forces:  Max     0.034770606 RMS     0.009438026
 Search for a local minimum.
 Step number   2 out of a maximum of  132
 All quantities printed in internal units (Hartrees-Bohrs-Radians)
 Mixed Optimization -- RFO/linear search
 Update second derivatives using D2CorX and points    1    2
 DE= -6.18D-03 DEPred=-6.17D-03 R= 1.00D+00
 SS=  1.41D+00  RLast= 3.00D-01 DXNew= 5.0454D-01 8.9996D-01
 Trust test= 1.00D+00 RLast= 3.00D-01 DXMaxT set to 5.05D-01
 Use linear search instead of GDIIS.
 Linear search step of   0.594 exceeds DXMaxT=   0.505 but not scaled.
 Quartic linear search produced a step of  2.00000.
 Iteration  1 RMS(Cart)=  0.10210343 RMS(Int)=  0.01131115
 Iteration  2 RMS(Cart)=  0.01611070 RMS(Int)=  0.00100029
 Iteration  3 RMS(Cart)=  0.00032708 RMS(Int)=  0.00096282
 Iteration  4 RMS(Cart)=  0.00000018 RMS(Int)=  0.00096282
 Iteration  1 RMS(Cart)=  0.00005115 RMS(Int)=  0.00002007
 Iteration  2 RMS(Cart)=  0.00002884 RMS(Int)=  0.00002237
 Iteration  3 RMS(Cart)=  0.00001666 RMS(Int)=  0.00002531
 Iteration  4 RMS(Cart)=  0.00000989 RMS(Int)=  0.00002735
 Iteration  5 RMS(Cart)=  0.00000604 RMS(Int)=  0.00002863
 Iteration  6 RMS(Cart)=  0.00000378 RMS(Int)=  0.00002942
 Iteration  7 RMS(Cart)=  0.00000242 RMS(Int)=  0.00002991
 Iteration  8 RMS(Cart)=  0.00000158 RMS(Int)=  0.00003021
 Iteration  9 RMS(Cart)=  0.00000104 RMS(Int)=  0.00003041
 Iteration 10 RMS(Cart)=  0.00000069 RMS(Int)=  0.00003053
 Variable       Old X    -DE/DX   Delta X   Delta X   Delta X     New X
                                 (Linear)    (Quad)   (Total)
    R1        2.05993  -0.00074  -0.00002   0.00000  -0.00002   2.05991
    R2        2.06266   0.00366   0.00591   0.00000   0.00591   2.06857
    R3        2.06242   0.00360   0.00556   0.00000   0.00556   2.06798
    R4        2.88763  -0.00095  -0.00742   0.00000  -0.00742   2.88020
    R5        2.32028  -0.00440  -0.00442   0.00000  -0.00442   2.31586
    R6        2.53707   0.02984   0.02876   0.00000   0.02876   2.56583
    R7        1.90864  -0.00025  -0.00024   0.00000  -0.00024   1.90840
    R8        2.74181   0.01151   0.00728   0.00000   0.00728   2.74910
    R9        2.06241   0.00284   0.00533   0.00000   0.00533   2.06774
   R10        2.88858   0.01446   0.01339   0.00000   0.01339   2.90196
   R11        2.88864   0.02855   0.02492   0.00000   0.02492   2.91356
   R12        2.06236   0.00168   0.00528   0.00000   0.00528   2.06763
   R13        2.06321   0.00114   0.00673   0.00000   0.00673   2.06994
   R14        2.06172   0.00273   0.00411   0.00000   0.00411   2.06583
   R15        2.32002  -0.00177  -0.00504   0.00000  -0.00504   2.31498
   R16        2.53394   0.02398   0.02228   0.00000   0.02228   2.55622
   R17        1.90706  -0.00607  -0.00314   0.00000  -0.00314   1.90393
   R18        2.73932   0.00279   0.00215   0.00000   0.00215   2.74148
   R19        2.05996  -0.00048   0.00028   0.00000   0.00028   2.06023
   R20        2.06191   0.00358   0.00412   0.00000   0.00412   2.06603
   R21        2.06348   0.00313   0.00724   0.00000   0.00724   2.07072
    A1        1.91119  -0.00005   0.00021   0.00000   0.00037   1.91156
    A2        1.90908  -0.00018  -0.00411   0.00000  -0.00411   1.90497
    A3        1.92926  -0.00627  -0.01958   0.00000  -0.01950   1.90976
    A4        1.90446  -0.00398  -0.01158   0.00000  -0.01185   1.89261
    A5        1.90920   0.00516   0.02640   0.00000   0.02635   1.93555
    A6        1.90043   0.00534   0.00879   0.00000   0.00865   1.90908
    A7        2.11362   0.00213   0.02102   0.00000   0.02102   2.13464
    A8        2.02853  -0.01184  -0.01316   0.00000  -0.01316   2.01537
    A9        2.14103   0.00970  -0.00786   0.00000  -0.00787   2.13316
   A10        2.09189  -0.01258  -0.00480   0.00000  -0.00549   2.08640
   A11        2.13385   0.02505   0.01241   0.00000   0.01172   2.14558
   A12        2.05710  -0.01237  -0.00830   0.00000  -0.00898   2.04812
   A13        1.90750   0.00393  -0.00727   0.00000  -0.00775   1.89976
   A14        1.93611  -0.01886  -0.00587   0.00000  -0.00601   1.93010
   A15        1.93508  -0.00165  -0.00785   0.00000  -0.00846   1.92662
   A16        1.89583  -0.00216  -0.00054   0.00000  -0.00017   1.89565
   A17        1.88215  -0.01602  -0.02786   0.00000  -0.02820   1.85395
   A18        1.90596   0.03477   0.04918   0.00000   0.04927   1.95523
   A19        1.91312   0.00112   0.00395   0.00000   0.00388   1.91700
   A20        1.91778   0.00664   0.01343   0.00000   0.01333   1.93111
   A21        1.91590   0.00290   0.00961   0.00000   0.00957   1.92548
   A22        1.91024  -0.00120   0.00027   0.00000   0.00015   1.91039
   A23        1.90345  -0.00289  -0.01356   0.00000  -0.01356   1.88989
   A24        1.90322  -0.00668  -0.01387   0.00000  -0.01395   1.88927
   A25        2.10082  -0.00903  -0.00470   0.00000  -0.00527   2.09556
   A26        2.03374   0.02047  -0.00267   0.00000  -0.00326   2.03048
   A27        2.14833  -0.01157   0.00679   0.00000   0.00618   2.15451
   A28        2.09218   0.00523  -0.00444   0.00000  -0.00976   2.08242
   A29        2.12676  -0.00246  -0.00163   0.00000  -0.00691   2.11985
   A30        2.06159  -0.00285   0.00078   0.00000  -0.00463   2.05696
   A31        1.90271  -0.00510  -0.01681   0.00000  -0.01675   1.88596
   A32        1.91205   0.00393   0.00182   0.00000   0.00174   1.91379
   A33        1.92179   0.00315   0.02137   0.00000   0.02136   1.94315
   A34        1.91350   0.00015   0.00668   0.00000   0.00667   1.92017
   A35        1.90526   0.00000  -0.00974   0.00000  -0.00961   1.89565
   A36        1.90847  -0.00215  -0.00334   0.00000  -0.00348   1.90500
    D1        0.04872  -0.00185   0.09735   0.00000   0.09739   0.14612
    D2       -3.09116   0.00200   0.10097   0.00000   0.10105  -2.99011
    D3        2.15449  -0.00255   0.10241   0.00000   0.10222   2.25670
    D4       -0.98540   0.00130   0.10603   0.00000   0.10587  -0.87952
    D5       -2.04883  -0.00116   0.10887   0.00000   0.10896  -1.93988
    D6        1.09447   0.00269   0.11249   0.00000   0.11262   1.20708
    D7        0.00783   0.00621   0.01552   0.00000   0.01553   0.02336
    D8       -3.10490   0.00225   0.07340   0.00000   0.07345  -3.03145
    D9       -3.13202   0.01013   0.01921   0.00000   0.01916  -3.11287
   D10        0.03843   0.00617   0.07708   0.00000   0.07707   0.11551
   D11        2.59607   0.00801  -0.04397   0.00000  -0.04400   2.55207
   D12       -1.59719  -0.00387  -0.05300   0.00000  -0.05278  -1.64997
   D13        0.52367   0.02627   0.00000   0.00000   0.00000   0.52367
   D14       -0.51720   0.00415   0.01280   0.00000   0.01268  -0.50452
   D15        1.57272  -0.00774   0.00377   0.00000   0.00390   1.57662
   D16       -2.58961   0.02241   0.05678   0.00000   0.05668  -2.53293
   D17        1.04241   0.00531  -0.00966   0.00000  -0.00952   1.03289
   D18       -3.14090   0.00868   0.00143   0.00000   0.00162  -3.13928
   D19       -1.04794   0.00639  -0.00136   0.00000  -0.00116  -1.04911
   D20        3.13930  -0.00276  -0.02259   0.00000  -0.02278   3.11652
   D21       -1.04401   0.00061  -0.01150   0.00000  -0.01164  -1.05565
   D22        1.04894  -0.00168  -0.01429   0.00000  -0.01443   1.03452
   D23       -1.09544  -0.00371  -0.02883   0.00000  -0.02888  -1.12432
   D24        1.00444  -0.00034  -0.01774   0.00000  -0.01774   0.98669
   D25        3.09739  -0.00263  -0.02053   0.00000  -0.02053   3.07686
   D26        0.81061   0.00555   0.05038   0.00000   0.05025   0.86086
   D27       -2.35615  -0.00038   0.00001   0.00000   0.00000  -2.35615
   D28       -1.27705   0.01167   0.08170   0.00000   0.08113  -1.19591
   D29        1.83938   0.00575   0.03132   0.00000   0.03088   1.87026
   D30        2.94908   0.00423   0.07074   0.00000   0.07096   3.02003
   D31       -0.21768  -0.00170   0.02036   0.00000   0.02070  -0.19698
   D32        0.08130   0.00410   0.16283   0.00000   0.16263   0.24393
   D33       -3.13994   0.00283   0.00320   0.00000   0.00384  -3.13610
   D34       -3.08621  -0.00194   0.11095   0.00000   0.11031  -2.97590
   D35       -0.02426  -0.00321  -0.04868   0.00000  -0.04848  -0.07274
   D36        0.12142   0.00029   0.24294   0.00000   0.24281   0.36422
   D37        2.21534  -0.00026   0.24195   0.00000   0.24182   2.45716
   D38       -1.96832   0.00153   0.25221   0.00000   0.25224  -1.71608
   D39       -3.09848  -0.00061   0.08600   0.00000   0.08602  -3.01246
   D40       -1.00456  -0.00116   0.08501   0.00000   0.08504  -0.91952
   D41        1.09497   0.00064   0.09527   0.00000   0.09546   1.19042
         Item               Value     Threshold  Converged?
 Maximum Force            0.029844     0.000450     NO 
 RMS     Force            0.008510     0.000300     NO 
 Maximum Displacement     0.421530     0.001800     NO 
 RMS     Displacement     0.109931     0.001200     NO 
 Predicted change in Energy=-8.369802D-03
 GradGradGradGradGradGradGradGradGradGradGradGradGradGradGradGradGradGrad

                          Input orientation:                          
 ---------------------------------------------------------------------
 Center     Atomic      Atomic             Coordinates (Angstroms)
 Number     Number       Type             X           Y           Z
 ---------------------------------------------------------------------
      1          1           0        0.393336    4.220593   -1.120103
      2          6           0        1.160985    3.768867   -0.491703
      3          1           0        1.280179    2.714492   -0.760641
      4          1           0        0.847175    3.825721    0.555124
      5          6           0        2.471493    4.526635   -0.668772
      6          8           0        2.541968    5.574532   -1.300270
      7          7           0        3.557849    3.958821   -0.084836
      8          1           0        3.458224    3.081366    0.405072
      9          6           0        4.859355    4.606983   -0.036920
     10          1           0        5.356452    4.333047    0.898563
     11          6           0        5.735631    4.146139   -1.210799
     12          1           0        5.244331    4.387774   -2.158105
     13          1           0        6.716739    4.631854   -1.174308
     14          1           0        5.887499    3.064341   -1.169399
     15          6           0        4.695216    6.139674   -0.004723
     16          8           0        3.922896    6.657604    0.792760
     17          7           0        5.504793    6.847317   -0.825460
     18          1           0        6.008478    6.368185   -1.554720
     19          6           0        5.448923    8.295965   -0.879358
     20          1           0        4.987391    8.650881    0.042391
     21          1           0        6.460773    8.699801   -0.970858
     22          1           0        4.846413    8.640406   -1.727336
 ---------------------------------------------------------------------
                    Distance matrix (angstroms):
                    1          2          3          4          5
     1  H    0.000000
     2  C    1.090059   0.000000
     3  H    1.784388   1.094641   0.000000
     4  H    1.779965   1.094328   1.775826   0.000000
     5  C    2.148510   1.524138   2.170605   2.151187   0.000000
     6  O    2.546022   2.412742   3.172244   3.061559   1.225498
     7  N    3.339827   2.438561   2.681948   2.788372   1.357779
     8  H    3.607982   2.560112   2.497472   2.719220   2.053188
     9  C    4.611713   3.819320   4.112881   4.130190   2.471351
    10  H    5.359120   4.455680   4.689209   4.550704   3.288921
    11  C    5.343583   4.646162   4.701415   5.207509   3.330641
    12  H    4.963622   4.453499   4.524077   5.197354   3.150560
    13  H    6.336994   5.663665   5.779583   6.171918   4.276536
    14  H    5.614728   4.826548   4.638628   5.381314   3.749404
    15  C    4.840776   4.283535   4.895484   4.524956   2.826270
    16  O    4.696366   4.197952   4.994511   4.187612   2.963727
    17  N    5.754431   5.334503   5.910313   5.720966   3.822437
    18  H    6.027508   5.602200   6.028004   6.128181   4.084908
    19  C    6.498120   6.247504   6.967449   6.573956   4.808044
    20  H    6.487232   6.225810   7.044785   6.378593   4.883124
    21  H    7.543166   7.254754   7.918753   7.589318   5.781084
    22  H    6.303441   6.232260   6.983479   6.662186   4.866613
                    6          7          8          9         10
     6  O    0.000000
     7  N    2.262701   0.000000
     8  H    3.156516   1.009882   0.000000
     9  C    2.811136   1.454760   2.118025   0.000000
    10  H    3.781200   2.083769   2.326694   1.094201   0.000000
    11  C    3.499685   2.458783   2.988539   1.535653   2.151307
    12  H    3.073604   2.706781   3.386260   2.166953   3.059213
    13  H    4.281732   3.408594   3.939083   2.178106   2.497291
[...]
    13  H    6.395190   5.753869   5.965512   6.247936   4.331227
    14  H    5.600795   4.944954   4.874786   5.617617   3.760488
    15  C    4.832145   4.149768   4.751064   4.229324   2.812614
    16  O    4.738907   4.011172   4.688954   3.769877   3.000540
    17  N    5.765925   5.244894   5.907293   5.405560   3.813314
    18  H    5.911138   5.473252   6.074527   5.819475   3.969068
    19  C    6.437852   6.035109   6.847482   6.030822   4.734251
    20  H    6.726631   6.228490   7.030943   6.040479   5.056422
    21  H    7.402337   7.029657   7.815690   7.087323   5.669562
    22  H    5.995669   5.761349   6.680467   5.756099   4.566956
                    6          7          8          9         10
     6  O    0.000000
     7  N    2.275317   0.000000
     8  H    3.130061   1.011964   0.000000
     9  C    2.822940   1.470234   2.104156   0.000000
    10  H    3.802919   2.067005   2.206317   1.095668   0.000000
    11  C    3.464404   2.467788   3.157504   1.535369   2.154780
    12  H    3.027788   2.748469   3.619137   2.176528   3.069568
    13  H    4.298048   3.425816   4.052960   2.188757   2.504996
    14  H    4.095326   2.686617   3.127842   2.166469   2.487539
    15  C    2.683216   2.483308   3.161769   1.553538   2.110186
    16  O    3.014537   2.899250   3.328256   2.405456   2.653409
    17  N    3.305309   3.599018   4.393087   2.489047   3.081809
    18  H    3.375949   3.723318   4.606890   2.623786   3.359221
    19  C    4.030307   4.799011   5.568048   3.845871   4.366985
    20  H    4.527954   5.063064   5.685663   4.126903   4.427145
    21  H    4.913568   5.655146   6.450982   4.571207   5.055335
    22  H    3.673926   4.943696   5.765295   4.270289   4.952735
                   11         12         13         14         15
    11  C    0.000000
    12  H    1.095566   0.000000
    13  H    1.095756   1.789343   0.000000
    14  H    1.094273   1.765806   1.770963   0.000000
    15  C    2.619356   2.917077   2.886337   3.546108   0.000000
    16  O    3.739647   4.061650   4.044748   4.556436   1.223948
    17  N    2.855334   2.922171   2.736593   3.934014   1.364608
    18  H    2.423396   2.257751   2.238858   3.507549   2.034588
    19  C    4.299804   4.242001   4.115184   5.384623   2.437903
    20  H    4.854458   4.983995   4.662165   5.893534   2.624548
    21  H    4.733868   4.639405   4.332841   5.814773   3.321504
    22  H    4.760470   4.492659   4.770275   5.835142   2.868947
                   16         17         18         19         20
    16  O    0.000000
    17  N    2.275642   0.000000
    18  H    3.135432   1.009768   0.000000
    19  C    2.769800   1.456197   2.112817   0.000000
    20  H    2.522254   2.079508   2.962335   1.091062   0.000000
    21  H    3.793936   2.088621   2.388500   1.093380   1.783740
    22  H    3.053911   2.125692   2.610481   1.097507   1.772700
                   21         22
    21  H    0.000000
    22  H    1.788358   0.000000
 Stoichiometry    C6H12N2O2
 Framework group  C1[X(C6H12N2O2)]
 Deg. of freedom    60
 Full point group                 C1      NOp   1
 Largest Abelian subgroup         C1      NOp   1
 Largest concise Abelian subgroup C1      NOp   1
                         Standard orientation:                         
 ---------------------------------------------------------------------
 Center     Atomic      Atomic             Coordinates (Angstroms)
 Number     Number       Type             X           Y           Z
 ---------------------------------------------------------------------
      1          1           0        3.464873   -1.464252   -0.898663
      2          6           0        3.080278   -0.958351   -0.011241
      3          1           0        3.807210   -0.213626    0.330164
      4          1           0        2.953375   -1.705633    0.781425
      5          6           0        1.725843   -0.352877   -0.335185
      6          8           0        0.985549   -0.807074   -1.196823
      7          7           0        1.394209    0.774126    0.387434
      8          1           0        1.978328    0.951696    1.194494
      9          6           0       -0.010663    1.177539    0.546124
     10          1           0       -0.107734    1.566837    1.565689
     11          6           0       -0.360875    2.295495   -0.446289
     12          1           0       -0.253068    1.941485   -1.477462
     13          1           0       -1.380844    2.664756   -0.291398
     14          1           0        0.325786    3.137204   -0.314168
     15          6           0       -0.937756   -0.068821    0.522342
     16          8           0       -0.715694   -1.000605    1.284256
     17          7           0       -2.068276    0.016468   -0.237134
     18          1           0       -2.051556    0.656188   -1.018230
     19          6           0       -2.942092   -1.142197   -0.357357
     20          1           0       -3.083899   -1.575431    0.633912
     21          1           0       -3.908332   -0.823491   -0.757714
     22          1           0       -2.512928   -1.913185   -1.009980
 ---------------------------------------------------------------------
 Rotational constants (GHZ):      1.9854733      0.9557943      0.7979590

 **********************************************************************

            Population analysis using the SCF density.

 **********************************************************************

 Orbital symmetries:
       Occupied  (A) (A) (A) (A) (A) (A) (A) (A) (A) (A) (A) (A)
                 (A) (A) (A) (A) (A) (A) (A) (A) (A) (A) (A) (A)
                 (A) (A) (A) (A) (A) (A) (A) (A) (A) (A) (A) (A)
                 (A) (A) (A)
       Virtual   (A) (A) (A) (A) (A) (A) (A) (A) (A) (A) (A) (A)
                 (A) (A) (A) (A) (A) (A) (A) (A) (A) (A) (A) (A)
                 (A) (A) (A) (A) (A) (A) (A) (A) (A) (A) (A) (A)
                 (A) (A) (A) (A) (A) (A) (A) (A) (A) (A) (A) (A)
                 (A) (A) (A) (A) (A) (A) (A) (A) (A) (A) (A) (A)
                 (A) (A) (A) (A) (A) (A) (A) (A) (A) (A) (A) (A)
                 (A) (A) (A) (A) (A) (A) (A) (A) (A) (A) (A) (A)
                 (A) (A) (A) (A) (A) (A) (A) (A) (A) (A) (A) (A)
                 (A) (A) (A) (A) (A) (A) (A) (A) (A) (A) (A) (A)
                 (A) (A) (A) (A) (A) (A) (A) (A) (A) (A) (A) (A)
                 (A) (A) (A) (A) (A) (A) (A) (A) (A) (A) (A) (A)
                 (A) (A) (A)
 The electronic state is 1-A.
 Alpha  occ. eigenvalues --  -19.10960 -19.09986 -14.35700 -14.35304 -10.28459
 Alpha  occ. eigenvalues --  -10.27741 -10.23832 -10.20923 -10.18880 -10.18815
 Alpha  occ. eigenvalues --   -1.03318  -1.01723  -0.91840  -0.91136  -0.77841
 Alpha  occ. eigenvalues --   -0.72752  -0.69656  -0.64638  -0.58628  -0.56567
 Alpha  occ. eigenvalues --   -0.52214  -0.50021  -0.45927  -0.45417  -0.43961
 Alpha  occ. eigenvalues --   -0.43400  -0.42175  -0.41363  -0.39801  -0.39329
 Alpha  occ. eigenvalues --   -0.38528  -0.38127  -0.37300  -0.35773  -0.33690
 Alpha  occ. eigenvalues --   -0.26137  -0.24911  -0.24628  -0.23540
 Alpha virt. eigenvalues --    0.01852   0.03740   0.07458   0.08946   0.11808
 Alpha virt. eigenvalues --    0.13071   0.14709   0.15082   0.15496   0.16065
 Alpha virt. eigenvalues --    0.16999   0.17513   0.18690   0.18992   0.19711
 Alpha virt. eigenvalues --    0.20973   0.22330   0.25798   0.27424   0.33035
 Alpha virt. eigenvalues --    0.34752   0.39736   0.41118   0.50502   0.52477
 Alpha virt. eigenvalues --    0.53384   0.54127   0.55741   0.55939   0.58524
 Alpha virt. eigenvalues --    0.58927   0.60614   0.61732   0.64882   0.66332
 Alpha virt. eigenvalues --    0.67778   0.69119   0.71063   0.71736   0.72778
 Alpha virt. eigenvalues --    0.75042   0.78358   0.80443   0.81455   0.84799
 Alpha virt. eigenvalues --    0.85043   0.85925   0.86205   0.88400   0.88458
 Alpha virt. eigenvalues --    0.89127   0.90204   0.91605   0.92721   0.93401
 Alpha virt. eigenvalues --    0.94482   0.95249   0.95737   0.97740   1.00654
 Alpha virt. eigenvalues --    1.03717   1.08232   1.10785   1.11711   1.15278
 Alpha virt. eigenvalues --    1.17292   1.22779   1.28165   1.30298   1.34343
 Alpha virt. eigenvalues --    1.36917   1.37922   1.44713   1.46236   1.49564
 Alpha virt. eigenvalues --    1.53161   1.56974   1.62161   1.64683   1.70693
 Alpha virt. eigenvalues --    1.71757   1.77088   1.79682   1.81192   1.82431
 Alpha virt. eigenvalues --    1.84275   1.86697   1.88634   1.90037   1.93052
 Alpha virt. eigenvalues --    1.94706   1.99341   2.00648   2.01922   2.04548
 Alpha virt. eigenvalues --    2.06048   2.07830   2.09911   2.12025   2.15418
 Alpha virt. eigenvalues --    2.19106   2.20539   2.23154   2.27542   2.29790
 Alpha virt. eigenvalues --    2.33638   2.36022   2.36746   2.39616   2.42510
 Alpha virt. eigenvalues --    2.48060   2.49097   2.52124   2.56862   2.62398
 Alpha virt. eigenvalues --    2.64973   2.68365   2.69854   2.75445   2.85893
 Alpha virt. eigenvalues --    2.94300   2.98942   3.00060   3.13018   3.14492
 Alpha virt. eigenvalues --    3.93774   3.97546   4.06450   4.14758   4.20222
 Alpha virt. eigenvalues --    4.24837   4.32274   4.38095   4.49435   4.67332
          Condensed to atoms (all electrons):
              1          2          3          4          5          6
     1  H    0.514598   0.355789  -0.024681  -0.020703  -0.018576   0.003802
     2  C    0.355789   5.346527   0.341993   0.358546   0.340629  -0.078696
     3  H   -0.024681   0.341993   0.571491  -0.026456  -0.023135   0.002537
     4  H   -0.020703   0.358546  -0.026456   0.516634  -0.019783  -0.000385
     5  C   -0.018576   0.340629  -0.023135  -0.019783   4.296786   0.579743
     6  O    0.003802  -0.078696   0.002537  -0.000385   0.579743   8.076343
     7  N    0.004209  -0.124544   0.005767   0.000082   0.265948  -0.095553
     8  H   -0.000019   0.003103   0.000530   0.000024  -0.019282   0.003772
     9  C   -0.000155   0.008367  -0.000069  -0.000303  -0.030914   0.007032
    10  H    0.000001  -0.000223  -0.000022   0.000017   0.005136   0.000507
    11  C    0.000011  -0.000203  -0.000015  -0.000002  -0.003347  -0.002076
    12  H   -0.000001   0.000063  -0.000010   0.000001   0.002839   0.004107
    13  H    0.000000   0.000005   0.000000   0.000000   0.000127   0.000042
    14  H    0.000000   0.000004   0.000001   0.000000   0.000223  -0.000013
    15  C    0.000000  -0.000690   0.000054   0.000058   0.006860   0.015407
    16  O    0.000005  -0.000821  -0.000003   0.000497   0.009151  -0.005932
    17  N    0.000001  -0.000062   0.000000   0.000002  -0.001047  -0.003535
    18  H    0.000000   0.000004   0.000000   0.000000  -0.000116   0.000439
    19  C    0.000000   0.000000   0.000000   0.000000  -0.000014  -0.000268
    20  H    0.000000   0.000000   0.000000   0.000000  -0.000012   0.000008
    21  H    0.000000   0.000000   0.000000   0.000000  -0.000001  -0.000003
    22  H    0.000000   0.000002   0.000000   0.000000   0.000054   0.000532
              7          8          9         10         11         12
     1  H    0.004209  -0.000019  -0.000155   0.000001   0.000011  -0.000001
     2  C   -0.124544   0.003103   0.008367  -0.000223  -0.000203   0.000063
     3  H    0.005767   0.000530  -0.000069  -0.000022  -0.000015  -0.000010
     4  H    0.000082   0.000024  -0.000303   0.000017  -0.000002   0.000001
     5  C    0.265948  -0.019282  -0.030914   0.005136  -0.003347   0.002839
     6  O   -0.095553   0.003772   0.007032   0.000507  -0.002076   0.004107
     7  N    7.124777   0.294493   0.244146  -0.037173  -0.061514  -0.005537
     8  H    0.294493   0.422727  -0.028709  -0.006520   0.004347   0.000015
     9  C    0.244146  -0.028709   5.075229   0.369885   0.306406  -0.030322
    10  H   -0.037173  -0.006520   0.369885   0.577425  -0.045386   0.004953
    11  C   -0.061514   0.004347   0.306406  -0.045386   5.208707   0.371578
    12  H   -0.005537   0.000015  -0.030322   0.004953   0.371578   0.537626
    13  H    0.004741  -0.000172  -0.026650  -0.002023   0.352352  -0.030409
    14  H    0.000017   0.000297  -0.019059  -0.003506   0.361784  -0.026480
    15  C   -0.043969   0.001427   0.347567  -0.029572  -0.039561  -0.003568
    16  O   -0.000785   0.000274  -0.075175   0.000139   0.003735  -0.000013
    17  N    0.002398  -0.000102  -0.108362   0.001319   0.003698  -0.000803
    18  H    0.000026  -0.000008  -0.004590   0.000349   0.006998   0.003922
    19  C   -0.000086   0.000003   0.007125  -0.000171  -0.000329  -0.000095
    20  H   -0.000007   0.000000   0.000307   0.000013  -0.000020  -0.000001
    21  H    0.000000   0.000000  -0.000080   0.000008  -0.000018   0.000008
    22  H    0.000007   0.000000  -0.000117  -0.000011   0.000000  -0.000009
             13         14         15         16         17         18
     1  H    0.000000   0.000000   0.000000   0.000005   0.000001   0.000000
     2  C    0.000005   0.000004  -0.000690  -0.000821  -0.000062   0.000004
     3  H    0.000000   0.000001   0.000054  -0.000003   0.000000   0.000000
     4  H    0.000000   0.000000   0.000058   0.000497   0.000002   0.000000
     5  C    0.000127   0.000223   0.006860   0.009151  -0.001047  -0.000116
     6  O    0.000042  -0.000013   0.015407  -0.005932  -0.003535   0.000439
     7  N    0.004741   0.000017  -0.043969  -0.000785   0.002398   0.000026
     8  H   -0.000172   0.000297   0.001427   0.000274  -0.000102  -0.000008
     9  C   -0.026650  -0.019059   0.347567  -0.075175  -0.108362  -0.004590
    10  H   -0.002023  -0.003506  -0.029572   0.000139   0.001319   0.000349
    11  C    0.352352   0.361784  -0.039561   0.003735   0.003698   0.006998
    12  H   -0.030409  -0.026480  -0.003568  -0.000013  -0.000803   0.003922
    13  H    0.577544  -0.025728  -0.001773  -0.000062   0.002815   0.000064
    14  H   -0.025728   0.553202   0.002676  -0.000065   0.000202  -0.000116
    15  C   -0.001773   0.002676   4.333551   0.542531   0.281873  -0.014731
    16  O   -0.000062  -0.000065   0.542531   8.134196  -0.094209   0.003436
    17  N    0.002815   0.000202   0.281873  -0.094209   7.061890   0.293711
    18  H    0.000064  -0.000116  -0.014731   0.003436   0.293711   0.409172
    19  C    0.000066   0.000001  -0.027223   0.002882   0.274566  -0.033314
    20  H   -0.000020   0.000001  -0.003582   0.011290  -0.038544   0.004340
    21  H   -0.000020   0.000000   0.004652   0.000611  -0.036138  -0.002038
    22  H    0.000020   0.000000  -0.001327   0.001346  -0.044681  -0.000417
             19         20         21         22
     1  H    0.000000   0.000000   0.000000   0.000000
     2  C    0.000000   0.000000   0.000000   0.000002
     3  H    0.000000   0.000000   0.000000   0.000000
     4  H    0.000000   0.000000   0.000000   0.000000
     5  C   -0.000014  -0.000012  -0.000001   0.000054
     6  O   -0.000268   0.000008  -0.000003   0.000532
     7  N   -0.000086  -0.000007   0.000000   0.000007
     8  H    0.000003   0.000000   0.000000   0.000000
     9  C    0.007125   0.000307  -0.000080  -0.000117
    10  H   -0.000171   0.000013   0.000008  -0.000011
    11  C   -0.000329  -0.000020  -0.000018   0.000000
    12  H   -0.000095  -0.000001   0.000008  -0.000009
    13  H    0.000066  -0.000020  -0.000020   0.000020
    14  H    0.000001   0.000001   0.000000   0.000000
    15  C   -0.027223  -0.003582   0.004652  -0.001327
    16  O    0.002882   0.011290   0.000611   0.001346
    17  N    0.274566  -0.038544  -0.036138  -0.044681
    18  H   -0.033314   0.004340  -0.002038  -0.000417
    19  C    4.941670   0.381982   0.371483   0.385352
    20  H    0.381982   0.512369  -0.024268  -0.033245
    21  H    0.371483  -0.024268   0.576234  -0.036736
    22  H    0.385352  -0.033245  -0.036736   0.556424
 Mulliken atomic charges:
              1
     1  H    0.185723
     2  C   -0.549792
     3  H    0.152020
     4  H    0.191772
     5  C    0.608734
     6  O   -0.507810
     7  N   -0.577443
     8  H    0.323803
     9  C   -0.041559
    10  H    0.164855
    11  C   -0.467144
    12  H    0.172136
    13  H    0.149082
    14  H    0.156559
    15  C    0.629341
    16  O   -0.533027
    17  N   -0.594993
    18  H    0.332871
    19  C   -0.303630
    20  H    0.189389
    21  H    0.146305
    22  H    0.172807
 Sum of Mulliken atomic charges =   0.00000
 Mulliken charges with hydrogens summed into heavy atoms:
              1
     2  C   -0.020277
     5  C    0.608734
     6  O   -0.507810
     7  N   -0.253640
     9  C    0.123296
    11  C    0.010633
    15  C    0.629341
    16  O   -0.533027
    17  N   -0.262122
    19  C    0.204872
 Sum of Mulliken charges with hydrogens summed into heavy atoms =   0.00000
 Electronic spatial extent (au):  <R**2>=           1610.7686
 Charge=              0.0000 electrons
 Dipole moment (field-independent basis, Debye):
    X=              0.3195    Y=              3.0188    Z=              0.2510  Tot=              3.0460
 Quadrupole moment (field-independent basis, Debye-Ang):
   XX=            -48.3181   YY=            -59.7567   ZZ=            -62.2427
   XY=             -0.1629   XZ=              7.1716   YZ=              1.9547
 Traceless Quadrupole moment (field-independent basis, Debye-Ang):
   XX=              8.4545   YY=             -2.9842   ZZ=             -5.4702
   XY=             -0.1629   XZ=              7.1716   YZ=              1.9547
 Octapole moment (field-independent basis, Debye-Ang**2):
  XXX=              3.3170  YYY=             -2.2462  ZZZ=              1.3095  XYY=             -0.4535
  XXY=            -10.0212  XXZ=             -1.7058  XZZ=              0.2445  YZZ=              7.6480
  YYZ=              0.9814  XYZ=              0.6323
 Hexadecapole moment (field-independent basis, Debye-Ang**3):
 XXXX=          -1205.6202 YYYY=           -559.4805 ZZZZ=           -240.4117 XXXY=             10.8702
 XXXZ=             19.7556 YYYX=              2.3342 YYYZ=              5.7383 ZZZX=              8.8812
 ZZZY=              5.2245 XXYY=           -295.4054 XXZZ=           -242.0414 YYZZ=           -133.9342
 XXYZ=              3.7001 YYXZ=              6.6982 ZZXY=              1.2375
 N-N= 5.694208285760D+02 E-N=-2.295293181210D+03  KE= 4.912410762008D+02
 1\1\GINC-NODE006\FOpt\RB3LYP\6-31G(d)\C6H12N2O2\STEBOSS\10-Feb-2017\0\
 \# b3lyp/6-31G* Opt=(ModRedundant, maxcycles=1000, calcfc) geom=nocrow
 d\\Phi Psi fixed scan\\0,1\H,0.47927532,4.0811467145,-1.2866097894\C,1
 .1727671634,3.9220383884,-0.4588904001\H,1.1994951262,2.857550466,-0.2
 024644178\H,0.8016067521,4.4774889704,0.4109193922\C,2.5361592622,4.46
 87355705,-0.844012025\O,2.6825178871,5.3780828623,-1.6492551647\N,3.61
 26340667,3.845574766,-0.2480526562\H,3.3806154573,3.2460535601,0.53349
 30689\C,4.9072853005,4.5324695308,-0.1312506235\H,5.3244246693,4.24382
 42399,0.8399170888\C,5.8620412293,4.0649020824,-1.2390325762\H,5.46098
 41866,4.3219410853,-2.2256167933\H,6.8582199526,4.5063491476,-1.123131
 4402\H,5.9694032653,2.976567995,-1.2011404649\C,4.6972737382,6.0674807
 088,-0.0167305146\O,3.9463960088,6.5113370914,0.8418856512\N,5.5056501
 445,6.8602191899,-0.7784705547\H,5.8812176371,6.4573215633,-1.62478868
 67\C,5.3115762239,8.3033982314,-0.7695083098\H,5.1849252409,8.63106121
 22,0.2634547333\H,6.1925506352,8.7870580651,-1.2001311564\H,4.41908073
 26,8.6003985587,-1.3349843608\\Version=EM64L-G09RevA.02\State=1-A\HF=-
 495.8404927\RMSD=5.440e-09\RMSF=2.327e-03\Dipole=0.7459938,-0.9373585,
 -0.0318066\Quadrupole=1.7945059,2.5894543,-4.3839602,4.1242188,-2.9171
 465,-4.5772587\PG=C01 [X(C6H12N2O2)]\\@


 CONFIDENCE IS WHAT YOU FEEL BEFORE YOU FULLY
 COMPREHEND THE SITUATION.
 Job cpu time:  0 days  1 hours 21 minutes 38.4 seconds.
 File lengths (MBytes):  RWF=    186 Int=      0 D2E=      0 Chk=      4 Scr=      2
 Normal termination of Gaussian 09 at Fri Feb 10 23:56:08 2017.
