 Entering Gaussian System, Link 0=g09
 Initial command:
 /home/steboss/Software/g09/l1.exe /home/steboss/projects/phi_psi_scan/alanine/30/4498/Gau-25865.inp -scrdir=/home/steboss/projects/phi_psi_scan/alanine/30/4498/
 Entering Link 1 = /home/steboss/Software/g09/l1.exe PID=     25867.
  
 Copyright (c) 1988,1990,1992,1993,1995,1998,2003,2009, Gaussian, Inc.
                  All Rights Reserved.
  
 This is part of the Gaussian(R) 09 program.  It is based on
 the Gaussian(R) 03 system (copyright 2003, Gaussian, Inc.),
 the Gaussian(R) 98 system (copyright 1998, Gaussian, Inc.),
 the Gaussian(R) 94 system (copyright 1995, Gaussian, Inc.),
 the Gaussian 92(TM) system (copyright 1992, Gaussian, Inc.),
 the Gaussian 90(TM) system (copyright 1990, Gaussian, Inc.),
 the Gaussian 88(TM) system (copyright 1988, Gaussian, Inc.),
 the Gaussian 86(TM) system (copyright 1986, Carnegie Mellon
 University), and the Gaussian 82(TM) system (copyright 1983,
 Carnegie Mellon University). Gaussian is a federally registered
 trademark of Gaussian, Inc.
  
 This software contains proprietary and confidential information,
 including trade secrets, belonging to Gaussian, Inc.
  
 This software is provided under written license and may be
 used, copied, transmitted, or stored only in accord with that
 written license.
  
 The following legend is applicable only to US Government
 contracts under FAR:
  
                    RESTRICTED RIGHTS LEGEND
  
 Use, reproduction and disclosure by the US Government is
 subject to restrictions as set forth in subparagraphs (a)
 and (c) of the Commercial Computer Software - Restricted
 Rights clause in FAR 52.227-19.
  
 Gaussian, Inc.
 340 Quinnipiac St., Bldg. 40, Wallingford CT 06492
  
  
 ---------------------------------------------------------------
 Warning -- This program may not be used in any manner that
 competes with the business of Gaussian, Inc. or will provide
 assistance to any competitor of Gaussian, Inc.  The licensee
 of this program is prohibited from giving any competitor of
 Gaussian, Inc. access to this program.  By using this program,
 the user acknowledges that Gaussian, Inc. is engaged in the
 business of creating and licensing software in the field of
 computational chemistry and represents and warrants to the
 licensee that it is not a competitor of Gaussian, Inc. and that
 it will not use this program in any manner prohibited above.
 ---------------------------------------------------------------
  

 Cite this work as:
 Gaussian 09, Revision A.02,
 M. J. Frisch, G. W. Trucks, H. B. Schlegel, G. E. Scuseria, 
 M. A. Robb, J. R. Cheeseman, G. Scalmani, V. Barone, B. Mennucci, 
 G. A. Petersson, H. Nakatsuji, M. Caricato, X. Li, H. P. Hratchian, 
 A. F. Izmaylov, J. Bloino, G. Zheng, J. L. Sonnenberg, M. Hada, 
 M. Ehara, K. Toyota, R. Fukuda, J. Hasegawa, M. Ishida, T. Nakajima, 
 Y. Honda, O. Kitao, H. Nakai, T. Vreven, J. A. Montgomery, Jr., 
 J. E. Peralta, F. Ogliaro, M. Bearpark, J. J. Heyd, E. Brothers, 
 K. N. Kudin, V. N. Staroverov, R. Kobayashi, J. Normand, 
 K. Raghavachari, A. Rendell, J. C. Burant, S. S. Iyengar, J. Tomasi, 
 M. Cossi, N. Rega, J. M. Millam, M. Klene, J. E. Knox, J. B. Cross, 
 V. Bakken, C. Adamo, J. Jaramillo, R. Gomperts, R. E. Stratmann, 
 O. Yazyev, A. J. Austin, R. Cammi, C. Pomelli, J. W. Ochterski, 
 R. L. Martin, K. Morokuma, V. G. Zakrzewski, G. A. Voth, 
 P. Salvador, J. J. Dannenberg, S. Dapprich, A. D. Daniels, 
 O. Farkas, J. B. Foresman, J. V. Ortiz, J. Cioslowski, 
 and D. J. Fox, Gaussian, Inc., Wallingford CT, 2009.
 
 ******************************************
 Gaussian 09:  EM64L-G09RevA.02 11-Jun-2009
                10-Feb-2017 
 ******************************************
 %chk=structure_240.chk
 %NProcShared=8
 Will use up to    8 processors via shared memory.
 ----------------------------------------------------------------------
 # b3lyp/6-31G* Opt=(ModRedundant, maxcycles=1000, calcfc) geom=nocrowd
 ----------------------------------------------------------------------
 1/6=1000,10=4,14=-1,18=120,19=15,26=3,38=1/1,3;
 2/9=110,12=1,17=6,18=5,40=1/2;
 3/5=1,6=6,7=1,11=2,16=1,25=1,30=1,71=2,74=-5/1,2,3;
 4//1;
 5/5=2,38=5/2;
 8/6=4,10=90,11=11/1;
 11/6=1,8=1,9=11,15=111,16=1/1,2,10;
 10/6=1,7=6,13=1/2;
 6/7=2,8=2,9=2,10=2,28=1/1;
 7/10=1,18=20,25=1/1,2,3,16;
 1/6=1000,10=4,14=-1,18=20,19=15/3(2);
 2/9=110,12=1/2;
 99//99;
 2/9=110,12=1/2;
 3/5=1,6=6,7=1,11=2,16=1,25=1,30=1,71=1,74=-5/1,2,3;
 4/5=5,16=3/1;
 5/5=2,38=5/2;
 7//1,2,3,16;
 1/6=1000,14=-1,18=20,19=15/3(-5);
 2/9=110,12=1/2;
 6/7=2,8=2,9=2,10=2,19=2,28=1/1;
 99/9=1/99;
 ------------------
 Phi Psi fixed scan
 ------------------
 Symbolic Z-matrix:
 Charge =  0 Multiplicity = 1
 H                     0.3668    4.29     -0.9842 
 C                     1.1769    3.7481   -0.496 
 H                     1.3209    2.787    -0.9895 
 H                     0.9253    3.584     0.5517 
 C                     2.4871    4.5351   -0.5667 
 O                     2.5276    5.6304   -1.1227 
 N                     3.5554    3.9697    0. 
 H                     3.4723    3.067     0.4455 
 C                     4.8533    4.6139    0. 
 H                     5.4076    4.3155    0.8898 
 C                     5.6613    4.2208   -1.2322 
 H                     5.1233    4.5214   -2.1312 
 H                     6.6305    4.7189   -1.2058 
 H                     5.8085    3.1409   -1.2414 
 C                     4.7127    6.1294    0. 
 O                     4.1278    6.7016    0.9171 
 N                     5.2518    6.7798   -1.0338 
 H                     5.7229    6.2651   -1.764 
 C                     5.1851    8.2226   -1.1497 
 H                     4.6503    8.6321   -0.2928 
 H                     6.1948    8.6324   -1.1769 
 H                     4.6601    8.4901   -2.0667 
 
 The following ModRedundant input section has been read:
 D    5    7    9   15 F                                                       
 D    7    9   15   17 F                                                       

 GradGradGradGradGradGradGradGradGradGradGradGradGradGradGradGradGradGrad
 Berny optimization.
 Initialization pass.
                           ----------------------------
                           !    Initial Parameters    !
                           ! (Angstroms and Degrees)  !
 --------------------------                            --------------------------
 ! Name  Definition              Value          Derivative Info.                !
 --------------------------------------------------------------------------------
 ! R1    R(1,2)                  1.0901         calculate D2E/DX2 analytically  !
 ! R2    R(2,3)                  1.09           calculate D2E/DX2 analytically  !
 ! R3    R(2,4)                  1.0899         calculate D2E/DX2 analytically  !
 ! R4    R(2,5)                  1.53           calculate D2E/DX2 analytically  !
 ! R5    R(5,6)                  1.229          calculate D2E/DX2 analytically  !
 ! R6    R(5,7)                  1.3349         calculate D2E/DX2 analytically  !
 ! R7    R(7,8)                  1.0101         calculate D2E/DX2 analytically  !
 ! R8    R(7,9)                  1.449          calculate D2E/DX2 analytically  !
 ! R9    R(9,10)                 1.09           calculate D2E/DX2 analytically  !
 ! R10   R(9,11)                 1.525          calculate D2E/DX2 analytically  !
 ! R11   R(9,15)                 1.522          calculate D2E/DX2 analytically  !
 ! R12   R(11,12)                1.09           calculate D2E/DX2 analytically  !
 ! R13   R(11,13)                1.09           calculate D2E/DX2 analytically  !
 ! R14   R(11,14)                1.0899         calculate D2E/DX2 analytically  !
 ! R15   R(15,16)                1.2291         calculate D2E/DX2 analytically  !
 ! R16   R(15,17)                1.3351         calculate D2E/DX2 analytically  !
 ! R17   R(17,18)                1.01           calculate D2E/DX2 analytically  !
 ! R18   R(17,19)                1.449          calculate D2E/DX2 analytically  !
 ! R19   R(19,20)                1.0899         calculate D2E/DX2 analytically  !
 ! R20   R(19,21)                1.09           calculate D2E/DX2 analytically  !
 ! R21   R(19,22)                1.09           calculate D2E/DX2 analytically  !
 ! A1    A(1,2,3)              109.4971         calculate D2E/DX2 analytically  !
 ! A2    A(1,2,4)              109.5001         calculate D2E/DX2 analytically  !
 ! A3    A(1,2,5)              111.0994         calculate D2E/DX2 analytically  !
 ! A4    A(3,2,4)              109.4493         calculate D2E/DX2 analytically  !
 ! A5    A(3,2,5)              108.6331         calculate D2E/DX2 analytically  !
 ! A6    A(4,2,5)              108.6352         calculate D2E/DX2 analytically  !
 ! A7    A(2,5,6)              120.4996         calculate D2E/DX2 analytically  !
 ! A8    A(2,5,7)              116.6031         calculate D2E/DX2 analytically  !
 ! A9    A(6,5,7)              122.8973         calculate D2E/DX2 analytically  !
 ! A10   A(5,7,8)              119.9941         calculate D2E/DX2 analytically  !
 ! A11   A(5,7,9)              121.9053         calculate D2E/DX2 analytically  !
 ! A12   A(8,7,9)              118.1007         calculate D2E/DX2 analytically  !
 ! A13   A(7,9,10)             109.5            calculate D2E/DX2 analytically  !
 ! A14   A(7,9,11)             111.0992         calculate D2E/DX2 analytically  !
 ! A15   A(7,9,15)             111.0966         calculate D2E/DX2 analytically  !
 ! A16   A(10,9,11)            108.6382         calculate D2E/DX2 analytically  !
 ! A17   A(10,9,15)            108.6373         calculate D2E/DX2 analytically  !
 ! A18   A(11,9,15)            107.7947         calculate D2E/DX2 analytically  !
 ! A19   A(9,11,12)            109.5007         calculate D2E/DX2 analytically  !
 ! A20   A(9,11,13)            109.4959         calculate D2E/DX2 analytically  !
 ! A21   A(9,11,14)            109.4978         calculate D2E/DX2 analytically  !
 ! A22   A(12,11,13)           109.441          calculate D2E/DX2 analytically  !
 ! A23   A(12,11,14)           109.4482         calculate D2E/DX2 analytically  !
 ! A24   A(13,11,14)           109.4436         calculate D2E/DX2 analytically  !
 ! A25   A(9,15,16)            120.4994         calculate D2E/DX2 analytically  !
 ! A26   A(9,15,17)            116.6015         calculate D2E/DX2 analytically  !
 ! A27   A(16,15,17)           122.8991         calculate D2E/DX2 analytically  !
 ! A28   A(15,17,18)           119.9952         calculate D2E/DX2 analytically  !
 ! A29   A(15,17,19)           121.9            calculate D2E/DX2 analytically  !
 ! A30   A(18,17,19)           118.1048         calculate D2E/DX2 analytically  !
 ! A31   A(17,19,20)           109.4999         calculate D2E/DX2 analytically  !
 ! A32   A(17,19,21)           109.4937         calculate D2E/DX2 analytically  !
 ! A33   A(17,19,22)           109.5016         calculate D2E/DX2 analytically  !
 ! A34   A(20,19,21)           109.4435         calculate D2E/DX2 analytically  !
 ! A35   A(20,19,22)           109.4435         calculate D2E/DX2 analytically  !
 ! A36   A(21,19,22)           109.4451         calculate D2E/DX2 analytically  !
 ! D1    D(1,2,5,6)              0.003          calculate D2E/DX2 analytically  !
 ! D2    D(1,2,5,7)            179.9971         calculate D2E/DX2 analytically  !
 ! D3    D(3,2,5,6)            120.5094         calculate D2E/DX2 analytically  !
 ! D4    D(3,2,5,7)            -59.4964         calculate D2E/DX2 analytically  !
 ! D5    D(4,2,5,6)           -120.5085         calculate D2E/DX2 analytically  !
 ! D6    D(4,2,5,7)             59.4856         calculate D2E/DX2 analytically  !
 ! D7    D(2,5,7,8)              0.0039         calculate D2E/DX2 analytically  !
 ! D8    D(2,5,7,9)            179.9999         calculate D2E/DX2 analytically  !
 ! D9    D(6,5,7,8)            179.998          calculate D2E/DX2 analytically  !
 ! D10   D(6,5,7,9)             -0.0061         calculate D2E/DX2 analytically  !
 ! D11   D(5,7,9,10)           150.0036         calculate D2E/DX2 analytically  !
 ! D12   D(5,7,9,11)           -89.9938         calculate D2E/DX2 analytically  !
 ! D13   D(5,7,9,15)            30.0038         frozen, calculate D2E/DX2 analyt!
 ! D14   D(8,7,9,10)           -30.0003         calculate D2E/DX2 analytically  !
 ! D15   D(8,7,9,11)            90.0022         calculate D2E/DX2 analytically  !
 ! D16   D(8,7,9,15)          -150.0002         calculate D2E/DX2 analytically  !
 ! D17   D(7,9,11,12)           60.0024         calculate D2E/DX2 analytically  !
 ! D18   D(7,9,11,13)          179.9986         calculate D2E/DX2 analytically  !
 ! D19   D(7,9,11,14)          -60.0038         calculate D2E/DX2 analytically  !
 ! D20   D(10,9,11,12)        -179.4843         calculate D2E/DX2 analytically  !
 ! D21   D(10,9,11,13)         -59.4881         calculate D2E/DX2 analytically  !
 ! D22   D(10,9,11,14)          60.5095         calculate D2E/DX2 analytically  !
 ! D23   D(15,9,11,12)         -61.938          calculate D2E/DX2 analytically  !
 ! D24   D(15,9,11,13)          58.0582         calculate D2E/DX2 analytically  !
 ! D25   D(15,9,11,14)         178.0558         calculate D2E/DX2 analytically  !
 ! D26   D(7,9,15,16)           59.9975         calculate D2E/DX2 analytically  !
 ! D27   D(7,9,15,17)         -120.0005         frozen, calculate D2E/DX2 analyt!
 ! D28   D(10,9,15,16)         -60.5135         calculate D2E/DX2 analytically  !
 ! D29   D(10,9,15,17)         119.4884         calculate D2E/DX2 analytically  !
 ! D30   D(11,9,15,16)        -178.0604         calculate D2E/DX2 analytically  !
 ! D31   D(11,9,15,17)           1.9415         calculate D2E/DX2 analytically  !
 ! D32   D(9,15,17,18)           0.0029         calculate D2E/DX2 analytically  !
 ! D33   D(9,15,17,19)         179.9981         calculate D2E/DX2 analytically  !
 ! D34   D(16,15,17,18)       -179.9951         calculate D2E/DX2 analytically  !
 ! D35   D(16,15,17,19)          0.0            calculate D2E/DX2 analytically  !
 ! D36   D(15,17,19,20)          0.0044         calculate D2E/DX2 analytically  !
 ! D37   D(15,17,19,21)        120.0018         calculate D2E/DX2 analytically  !
 ! D38   D(15,17,19,22)       -119.9978         calculate D2E/DX2 analytically  !
 ! D39   D(18,17,19,20)        179.9996         calculate D2E/DX2 analytically  !
 ! D40   D(18,17,19,21)        -60.003          calculate D2E/DX2 analytically  !
 ! D41   D(18,17,19,22)         59.9974         calculate D2E/DX2 analytically  !
 --------------------------------------------------------------------------------
 Trust Radius=3.00D-01 FncErr=1.00D-07 GrdErr=1.00D-06
 Number of steps in this run= 132 maximum allowed number of steps= 132.
 GradGradGradGradGradGradGradGradGradGradGradGradGradGradGradGradGradGrad

                          Input orientation:                          
 ---------------------------------------------------------------------
 Center     Atomic      Atomic             Coordinates (Angstroms)
 Number     Number       Type             X           Y           Z
 ---------------------------------------------------------------------
      1          1           0        0.366800    4.290000   -0.984200
      2          6           0        1.176900    3.748100   -0.496000
      3          1           0        1.320900    2.787000   -0.989500
      4          1           0        0.925300    3.584000    0.551700
      5          6           0        2.487100    4.535100   -0.566700
      6          8           0        2.527600    5.630400   -1.122700
      7          7           0        3.555400    3.969700    0.000000
      8          1           0        3.472300    3.067000    0.445500
      9          6           0        4.853300    4.613900    0.000000
     10          1           0        5.407600    4.315500    0.889800
     11          6           0        5.661300    4.220800   -1.232200
     12          1           0        5.123300    4.521400   -2.131200
     13          1           0        6.630500    4.718900   -1.205800
     14          1           0        5.808500    3.140900   -1.241400
     15          6           0        4.712700    6.129400    0.000000
     16          8           0        4.127800    6.701600    0.917100
     17          7           0        5.251800    6.779800   -1.033800
     18          1           0        5.722900    6.265100   -1.764000
     19          6           0        5.185100    8.222600   -1.149700
     20          1           0        4.650300    8.632100   -0.292800
     21          1           0        6.194800    8.632400   -1.176900
     22          1           0        4.660100    8.490100   -2.066700
 ---------------------------------------------------------------------
                    Distance matrix (angstroms):
                    1          2          3          4          5
     1  H    0.000000
     2  C    1.090072   0.000000
     3  H    1.780265   1.089950   0.000000
     4  H    1.780266   1.089911   1.779608   0.000000
     5  C    2.174868   1.530030   2.143510   2.143509   0.000000
     6  O    2.546549   2.400041   3.091729   3.091720   1.229007
     7  N    3.352374   2.439751   2.714936   2.714878   1.334950
     8  H    3.630964   2.572777   2.601182   2.601111   2.037274
     9  C    4.604589   3.809402   4.098112   4.098079   2.434391
    10  H    5.377936   4.487896   4.750705   4.554165   3.270923
    11  C    5.300757   4.568947   4.577527   5.100736   3.258408
    12  H    4.898311   4.341192   4.332421   5.069504   3.065518
    13  H    6.282277   5.584624   5.654279   6.076686   4.196426
    14  H    5.567646   4.730331   4.508575   5.220842   3.664794
    15  C    4.820673   4.291677   4.863646   4.596502   2.795753
    16  O    4.855500   4.407701   5.180531   4.484301   3.096334
    17  N    5.483137   5.107372   5.603248   5.607633   3.591716
    18  H    5.761676   5.348760   5.663447   5.963869   3.859641
    19  C    6.221635   6.042693   6.671091   6.523593   4.606164
    20  H    6.138423   5.996604   6.762802   6.330254   4.641106
    21  H    7.270430   7.035576   7.613063   7.499469   5.559429
    22  H    6.102874   6.089856   6.695966   6.698848   4.755413
                    6          7          8          9         10
     6  O    0.000000
     7  N    2.252721   0.000000
     8  H    3.150036   1.010071   0.000000
     9  C    2.775357   1.448978   2.120974   0.000000
    10  H    3.751469   2.083739   2.345536   1.089970   0.000000
    11  C    3.437883   2.452791   2.989591   1.525027   2.139209
    12  H    2.997434   2.702720   3.388283   2.150225   3.041326
    13  H    4.203751   3.386959   3.928077   2.150214   2.459625
    14  H    4.120195   2.702673   2.882520   2.150165   2.466256
    15  C    2.506814   2.450234   3.333970   1.522008   2.136554
    16  O    2.805155   2.938025   3.723225   2.392888   2.707786
    17  N    2.958089   3.441392   4.374909   2.432831   3.130062
    18  H    3.320249   3.616437   4.491652   2.567949   3.308022
    19  C    3.712484   4.697328   5.662028   3.801923   4.412992
    20  H    3.768925   4.798178   5.736123   4.033965   4.539282
    21  H    4.739546   5.485645   6.404519   4.396937   4.850418
    22  H    3.690065   5.091721   6.093606   4.396988   5.169810
                   11         12         13         14         15
    11  C    0.000000
    12  H    1.089957   0.000000
    13  H    1.090023   1.779613   0.000000
    14  H    1.089925   1.779613   1.779617   0.000000
    15  C    2.461892   2.701161   2.668599   3.416575   0.000000
    16  O    3.622911   3.877683   3.834229   4.490263   1.229062
    17  N    2.599141   2.514194   2.485499   3.687086   1.335062
    18  H    2.113236   1.880119   1.877780   3.168764   2.037306
    19  C    4.030878   3.829627   3.790546   5.120616   2.434432
    20  H    4.622138   4.527836   4.479720   5.691621   2.520542
    21  H    4.444085   4.354207   3.937785   5.505448   3.137949
    22  H    4.463823   3.996160   4.341149   5.532981   3.137980
                   16         17         18         19         20
    16  O    0.000000
    17  N    2.252887   0.000000
    18  H    3.150107   1.009972   0.000000
    19  C    2.775425   1.448984   2.120943   0.000000
    20  H    2.337455   2.083722   2.986233   1.089944   0.000000
    21  H    3.519277   2.083711   2.484247   1.090032   1.779638
    22  H    3.519252   2.083775   2.484310   1.089986   1.779601
                   21         22
    21  H    0.000000
    22  H    1.779690   0.000000
 Stoichiometry    C6H12N2O2
 Framework group  C1[X(C6H12N2O2)]
 Deg. of freedom    60
 Full point group                 C1      NOp   1
 Largest Abelian subgroup         C1      NOp   1
 Largest concise Abelian subgroup C1      NOp   1
                         Standard orientation:                         
 ---------------------------------------------------------------------
 Center     Atomic      Atomic             Coordinates (Angstroms)
 Number     Number       Type             X           Y           Z
 ---------------------------------------------------------------------
      1          1           0        3.299648   -1.746805   -0.785775
      2          6           0        3.159778   -0.807568   -0.250492
      3          1           0        3.711233   -0.015023   -0.756221
      4          1           0        3.528309   -0.911970    0.769896
      5          6           0        1.681079   -0.417994   -0.198794
      6          8           0        0.828985   -1.133152   -0.721233
      7          7           0        1.384280    0.719280    0.434144
      8          1           0        2.120170    1.273619    0.848170
      9          6           0        0.021422    1.197142    0.551629
     10          1           0       -0.085596    1.768481    1.473667
     11          6           0       -0.348689    2.095264   -0.624001
     12          1           0       -0.255243    1.534384   -1.553886
     13          1           0       -1.376668    2.439214   -0.509514
     14          1           0        0.320782    2.954958   -0.649902
     15          6           0       -0.964888    0.038314    0.580229
     16          8           0       -0.900889   -0.813632    1.463793
     17          7           0       -1.880073    0.008099   -0.391324
     18          1           0       -1.892501    0.731562   -1.095944
     19          6           0       -2.874182   -1.042806   -0.474397
     20          1           0       -2.733007   -1.743072    0.348814
     21          1           0       -3.871051   -0.606240   -0.412490
     22          1           0       -2.767406   -1.570605   -1.422077
 ---------------------------------------------------------------------
 Rotational constants (GHZ):      2.1209109      0.9742887      0.8321235
 Standard basis: 6-31G(d) (6D, 7F)
 There are   174 symmetry adapted basis functions of A   symmetry.
 Integral buffers will be    131072 words long.
 Raffenetti 2 integral format.
 Two-electron integral symmetry is turned on.
   174 basis functions,   328 primitive gaussians,   174 cartesian basis functions
    39 alpha electrons       39 beta electrons
       nuclear repulsion energy       578.9156449942 Hartrees.
 NAtoms=   22 NActive=   22 NUniq=   22 SFac= 7.50D-01 NAtFMM=   80 NAOKFM=F Big=F
 One-electron integrals computed using PRISM.
 NBasis=   174 RedAO= T  NBF=   174
 NBsUse=   174 1.00D-06 NBFU=   174
 Harris functional with IExCor=  402 diagonalized for initial guess.
 ExpMin= 1.61D-01 ExpMax= 5.48D+03 ExpMxC= 8.25D+02 IAcc=1 IRadAn=         1 AccDes= 0.00D+00
 HarFok:  IExCor=  402 AccDes= 0.00D+00 IRadAn=         1 IDoV= 1
 ScaDFX=  1.000000  1.000000  1.000000  1.000000
 FoFCou: FMM=F IPFlag=           0 FMFlag=      100000 FMFlg1=           0
         NFxFlg=           0 DoJE=T BraDBF=F KetDBF=T FulRan=T
         Omega=  0.000000  0.000000  1.000000  0.000000  0.000000 ICntrl=     500 IOpCl=  0
         NMat0=    1 NMatS0=    1 NMatT0=    0 NMatD0=    1 NMtDS0=    0 NMtDT0=    0
         I1Cent=           4 NGrid=           0.
 Petite list used in FoFCou.
 Initial guess orbital symmetries:
       Occupied  (A) (A) (A) (A) (A) (A) (A) (A) (A) (A) (A) (A)
                 (A) (A) (A) (A) (A) (A) (A) (A) (A) (A) (A) (A)
                 (A) (A) (A) (A) (A) (A) (A) (A) (A) (A) (A) (A)
                 (A) (A) (A)
       Virtual   (A) (A) (A) (A) (A) (A) (A) (A) (A) (A) (A) (A)
                 (A) (A) (A) (A) (A) (A) (A) (A) (A) (A) (A) (A)
                 (A) (A) (A) (A) (A) (A) (A) (A) (A) (A) (A) (A)
                 (A) (A) (A) (A) (A) (A) (A) (A) (A) (A) (A) (A)
                 (A) (A) (A) (A) (A) (A) (A) (A) (A) (A) (A) (A)
                 (A) (A) (A) (A) (A) (A) (A) (A) (A) (A) (A) (A)
                 (A) (A) (A) (A) (A) (A) (A) (A) (A) (A) (A) (A)
                 (A) (A) (A) (A) (A) (A) (A) (A) (A) (A) (A) (A)
                 (A) (A) (A) (A) (A) (A) (A) (A) (A) (A) (A) (A)
                 (A) (A) (A) (A) (A) (A) (A) (A) (A) (A) (A) (A)
                 (A) (A) (A) (A) (A) (A) (A) (A) (A) (A) (A) (A)
                 (A) (A) (A)
 The electronic state of the initial guess is 1-A.
 Requested convergence on RMS density matrix=1.00D-08 within 128 cycles.
 Requested convergence on MAX density matrix=1.00D-06.
 Requested convergence on             energy=1.00D-06.
 No special actions if energy rises.
 Integral accuracy reduced to 1.0D-05 until final iterations.
 Initial convergence to 1.0D-05 achieved.  Increase integral accuracy.
 SCF Done:  E(RB3LYP) =  -495.823868004     A.U. after   14 cycles
             Convg  =    0.9077D-08             -V/T =  2.0086
 Range of M.O.s used for correlation:     1   174
 NBasis=   174 NAE=    39 NBE=    39 NFC=     0 NFV=     0
 NROrb=    174 NOA=    39 NOB=    39 NVA=   135 NVB=   135
 Symmetrizing basis deriv contribution to polar:
 IMax=3 JMax=2 DiffMx= 0.00D+00
 G2DrvN: will do    23 centers at a time, making    1 passes doing MaxLOS=2.
 Calling FoFCou, ICntrl=  3107 FMM=F I1Cent=   0 AccDes= 0.00D+00.
 FoFDir/FoFCou used for L=0 through L=2.
 End of G2Drv Frequency-dependent properties file   721 does not exist.
 End of G2Drv Frequency-dependent properties file   722 does not exist.
          IDoAtm=1111111111111111111111
          Differentiating once with respect to nuclear coordinates.
          There are    69 degrees of freedom in the 1st order CPHF.  IDoFFX=5.
     63 vectors produced by pass  0 Test12= 7.63D-11 1.45D-07 XBig12= 1.65D-01 8.55D-02.
 AX will form    63 AO Fock derivatives at one time.
     63 vectors produced by pass  1 Test12= 7.63D-11 1.45D-07 XBig12= 3.51D-02 5.30D-02.
     63 vectors produced by pass  2 Test12= 7.63D-11 1.45D-07 XBig12= 5.56D-05 1.11D-03.
     63 vectors produced by pass  3 Test12= 7.63D-11 1.45D-07 XBig12= 2.31D-07 7.28D-05.
     29 vectors produced by pass  4 Test12= 7.63D-11 1.45D-07 XBig12= 2.74D-10 1.70D-06.
 Inverted reduced A of dimension   281 with in-core refinement.
 End of Minotr Frequency-dependent properties file   721 does not exist.
 End of Minotr Frequency-dependent properties file   722 does not exist.

 **********************************************************************

            Population analysis using the SCF density.

 **********************************************************************

 Orbital symmetries:
       Occupied  (A) (A) (A) (A) (A) (A) (A) (A) (A) (A) (A) (A)
                 (A) (A) (A) (A) (A) (A) (A) (A) (A) (A) (A) (A)
                 (A) (A) (A) (A) (A) (A) (A) (A) (A) (A) (A) (A)
                 (A) (A) (A)
       Virtual   (A) (A) (A) (A) (A) (A) (A) (A) (A) (A) (A) (A)
                 (A) (A) (A) (A) (A) (A) (A) (A) (A) (A) (A) (A)
                 (A) (A) (A) (A) (A) (A) (A) (A) (A) (A) (A) (A)
                 (A) (A) (A) (A) (A) (A) (A) (A) (A) (A) (A) (A)
                 (A) (A) (A) (A) (A) (A) (A) (A) (A) (A) (A) (A)
                 (A) (A) (A) (A) (A) (A) (A) (A) (A) (A) (A) (A)
                 (A) (A) (A) (A) (A) (A) (A) (A) (A) (A) (A) (A)
                 (A) (A) (A) (A) (A) (A) (A) (A) (A) (A) (A) (A)
                 (A) (A) (A) (A) (A) (A) (A) (A) (A) (A) (A) (A)
                 (A) (A) (A) (A) (A) (A) (A) (A) (A) (A) (A) (A)
                 (A) (A) (A) (A) (A) (A) (A) (A) (A) (A) (A) (A)
                 (A) (A) (A)
 The electronic state is 1-A.
 Alpha  occ. eigenvalues --  -19.09902 -19.08021 -14.36417 -14.34429 -10.27946
 Alpha  occ. eigenvalues --  -10.26531 -10.23601 -10.20195 -10.19043 -10.18637
 Alpha  occ. eigenvalues --   -1.03077  -1.00466  -0.92866  -0.90904  -0.79000
 Alpha  occ. eigenvalues --   -0.72938  -0.69501  -0.65514  -0.60087  -0.57179
 Alpha  occ. eigenvalues --   -0.52990  -0.50481  -0.46146  -0.45035  -0.43957
 Alpha  occ. eigenvalues --   -0.43470  -0.42368  -0.41439  -0.40172  -0.38841
 Alpha  occ. eigenvalues --   -0.38633  -0.37532  -0.36992  -0.35844  -0.33905
 Alpha  occ. eigenvalues --   -0.25523  -0.23469  -0.23053  -0.22441
 Alpha virt. eigenvalues --    0.03588   0.04005   0.07765   0.09474   0.11846
 Alpha virt. eigenvalues --    0.13341   0.14120   0.14490   0.15351   0.16865
 Alpha virt. eigenvalues --    0.17123   0.17745   0.18424   0.18702   0.20199
 Alpha virt. eigenvalues --    0.21468   0.22326   0.26930   0.28262   0.33917
 Alpha virt. eigenvalues --    0.36006   0.41005   0.42284   0.50928   0.51790
 Alpha virt. eigenvalues --    0.52923   0.53999   0.55298   0.55369   0.58001
 Alpha virt. eigenvalues --    0.58561   0.60168   0.62051   0.65133   0.66813
 Alpha virt. eigenvalues --    0.68200   0.70303   0.72480   0.72918   0.74551
 Alpha virt. eigenvalues --    0.75955   0.77399   0.79476   0.81655   0.83678
 Alpha virt. eigenvalues --    0.85715   0.86184   0.87559   0.88177   0.88652
 Alpha virt. eigenvalues --    0.89995   0.90700   0.91472   0.93274   0.95246
 Alpha virt. eigenvalues --    0.95414   0.95982   0.96683   0.99158   1.03058
 Alpha virt. eigenvalues --    1.05751   1.10448   1.12856   1.15275   1.17771
 Alpha virt. eigenvalues --    1.24760   1.30089   1.30924   1.34555   1.37031
 Alpha virt. eigenvalues --    1.38253   1.41338   1.45467   1.46648   1.49954
 Alpha virt. eigenvalues --    1.53310   1.55979   1.62204   1.68464   1.73937
 Alpha virt. eigenvalues --    1.75962   1.76335   1.80227   1.82683   1.84170
 Alpha virt. eigenvalues --    1.86267   1.87567   1.88623   1.91883   1.95016
 Alpha virt. eigenvalues --    1.96861   1.98611   2.00224   2.03828   2.05955
 Alpha virt. eigenvalues --    2.08346   2.09147   2.13004   2.17395   2.18193
 Alpha virt. eigenvalues --    2.21599   2.23092   2.26922   2.27840   2.31201
 Alpha virt. eigenvalues --    2.33123   2.37670   2.38286   2.40391   2.42999
 Alpha virt. eigenvalues --    2.48831   2.50466   2.53116   2.58503   2.66719
 Alpha virt. eigenvalues --    2.69139   2.70060   2.71651   2.81245   2.90278
 Alpha virt. eigenvalues --    2.95666   2.98535   3.03007   3.20166   3.21546
 Alpha virt. eigenvalues --    3.98684   4.00299   4.07989   4.18564   4.23137
 Alpha virt. eigenvalues --    4.28421   4.35273   4.42355   4.51126   4.73171
          Condensed to atoms (all electrons):
              1          2          3          4          5          6
     1  H    0.498470   0.361109  -0.021804  -0.020253  -0.017210   0.004930
     2  C    0.361109   5.342705   0.347355   0.351375   0.347432  -0.077532
     3  H   -0.021804   0.347355   0.562805  -0.027742  -0.024932   0.001446
     4  H   -0.020253   0.351375  -0.027742   0.548001  -0.026818   0.001080
     5  C   -0.017210   0.347432  -0.024932  -0.026818   4.331172   0.588165
     6  O    0.004930  -0.077532   0.001446   0.001080   0.588165   8.082793
     7  N    0.004427  -0.137272   0.004531   0.004954   0.233832  -0.102430
     8  H   -0.000158   0.000921   0.000821   0.000628  -0.017608   0.003832
     9  C   -0.000148   0.006889  -0.000250  -0.000010  -0.028915   0.004141
    10  H    0.000002  -0.000178  -0.000006   0.000000   0.004768   0.000570
    11  C    0.000004  -0.000224   0.000033   0.000001  -0.002643  -0.002539
    12  H    0.000002   0.000022  -0.000033   0.000001   0.004661   0.003786
    13  H    0.000000   0.000007  -0.000001   0.000000   0.000144   0.000041
    14  H    0.000000  -0.000010   0.000002   0.000000  -0.000051  -0.000010
    15  C    0.000004   0.000106   0.000008  -0.000032   0.002372   0.021877
    16  O    0.000005  -0.000222  -0.000001   0.000040   0.004658  -0.011667
    17  N    0.000001  -0.000075   0.000001   0.000001  -0.000338  -0.009082
    18  H    0.000000   0.000000   0.000000   0.000000  -0.000247  -0.000106
    19  C    0.000000   0.000001   0.000000   0.000000  -0.000002   0.000440
    20  H    0.000000   0.000000   0.000000   0.000000  -0.000023  -0.000021
    21  H    0.000000   0.000000   0.000000   0.000000  -0.000002   0.000001
    22  H    0.000000   0.000001   0.000000   0.000000   0.000005   0.000421
              7          8          9         10         11         12
     1  H    0.004427  -0.000158  -0.000148   0.000002   0.000004   0.000002
     2  C   -0.137272   0.000921   0.006889  -0.000178  -0.000224   0.000022
     3  H    0.004531   0.000821  -0.000250  -0.000006   0.000033  -0.000033
     4  H    0.004954   0.000628  -0.000010   0.000000   0.000001   0.000001
     5  C    0.233832  -0.017608  -0.028915   0.004768  -0.002643   0.004661
     6  O   -0.102430   0.003832   0.004141   0.000570  -0.002539   0.003786
     7  N    7.147007   0.302761   0.251240  -0.036189  -0.067991  -0.008780
     8  H    0.302761   0.413995  -0.030376  -0.004110   0.000888  -0.000078
     9  C    0.251240  -0.030376   5.120002   0.368457   0.291967  -0.023166
    10  H   -0.036189  -0.004110   0.368457   0.572190  -0.050982   0.005480
    11  C   -0.067991   0.000888   0.291967  -0.050982   5.280218   0.369016
    12  H   -0.008780  -0.000078  -0.023166   0.005480   0.369016   0.537288
    13  H    0.005983  -0.000117  -0.030997  -0.002434   0.354689  -0.036997
    14  H    0.000204   0.001442  -0.021983  -0.003125   0.355833  -0.024198
    15  C   -0.035490   0.003262   0.323954  -0.022338  -0.052167  -0.009325
    16  O    0.001392  -0.000240  -0.081998  -0.000216   0.004702  -0.000106
    17  N   -0.000034  -0.000170  -0.120409   0.002000  -0.002083  -0.000749
    18  H    0.000503  -0.000004  -0.007225   0.000263   0.009986   0.004066
    19  C   -0.000084   0.000003   0.007841  -0.000139  -0.000327   0.000068
    20  H   -0.000003   0.000001   0.001037  -0.000019  -0.000095  -0.000023
    21  H   -0.000002   0.000000  -0.000163   0.000025   0.000020   0.000036
    22  H    0.000007   0.000000  -0.000201  -0.000004   0.000007  -0.000048
             13         14         15         16         17         18
     1  H    0.000000   0.000000   0.000004   0.000005   0.000001   0.000000
     2  C    0.000007  -0.000010   0.000106  -0.000222  -0.000075   0.000000
     3  H   -0.000001   0.000002   0.000008  -0.000001   0.000001   0.000000
     4  H    0.000000   0.000000  -0.000032   0.000040   0.000001   0.000000
     5  C    0.000144  -0.000051   0.002372   0.004658  -0.000338  -0.000247
     6  O    0.000041  -0.000010   0.021877  -0.011667  -0.009082  -0.000106
     7  N    0.005983   0.000204  -0.035490   0.001392  -0.000034   0.000503
     8  H   -0.000117   0.001442   0.003262  -0.000240  -0.000170  -0.000004
     9  C   -0.030997  -0.021983   0.323954  -0.081998  -0.120409  -0.007225
    10  H   -0.002434  -0.003125  -0.022338  -0.000216   0.002000   0.000263
    11  C    0.354689   0.355833  -0.052167   0.004702  -0.002083   0.009986
    12  H   -0.036997  -0.024198  -0.009325  -0.000106  -0.000749   0.004066
    13  H    0.576899  -0.022326  -0.001003  -0.000160  -0.000980   0.002334
    14  H   -0.022326   0.563848   0.003315  -0.000082   0.000906   0.000038
    15  C   -0.001003   0.003315   4.312509   0.561021   0.283260  -0.014201
    16  O   -0.000160  -0.000082   0.561021   8.141918  -0.092098   0.004038
    17  N   -0.000980   0.000906   0.283260  -0.092098   7.083865   0.290408
    18  H    0.002334   0.000038  -0.014201   0.004038   0.290408   0.414850
    19  C    0.000164  -0.000010  -0.027982  -0.010214   0.274069  -0.031014
    20  H   -0.000022   0.000002  -0.000892   0.023283  -0.036271   0.003764
    21  H   -0.000095   0.000000   0.000827   0.000618  -0.045499  -0.000454
    22  H    0.000043   0.000000   0.002975   0.000563  -0.044601  -0.000850
             19         20         21         22
     1  H    0.000000   0.000000   0.000000   0.000000
     2  C    0.000001   0.000000   0.000000   0.000001
     3  H    0.000000   0.000000   0.000000   0.000000
     4  H    0.000000   0.000000   0.000000   0.000000
     5  C   -0.000002  -0.000023  -0.000002   0.000005
     6  O    0.000440  -0.000021   0.000001   0.000421
     7  N   -0.000084  -0.000003  -0.000002   0.000007
     8  H    0.000003   0.000001   0.000000   0.000000
     9  C    0.007841   0.001037  -0.000163  -0.000201
    10  H   -0.000139  -0.000019   0.000025  -0.000004
    11  C   -0.000327  -0.000095   0.000020   0.000007
    12  H    0.000068  -0.000023   0.000036  -0.000048
    13  H    0.000164  -0.000022  -0.000095   0.000043
    14  H   -0.000010   0.000002   0.000000   0.000000
    15  C   -0.027982  -0.000892   0.000827   0.002975
    16  O   -0.010214   0.023283   0.000618   0.000563
    17  N    0.274069  -0.036271  -0.045499  -0.044601
    18  H   -0.031014   0.003764  -0.000454  -0.000850
    19  C    4.958991   0.374258   0.381073   0.381528
    20  H    0.374258   0.475478  -0.025392  -0.022699
    21  H    0.381073  -0.025392   0.583995  -0.040712
    22  H    0.381528  -0.022699  -0.040712   0.562732
 Mulliken atomic charges:
              1
     1  H    0.190618
     2  C   -0.542410
     3  H    0.157765
     4  H    0.168776
     5  C    0.601581
     6  O   -0.510135
     7  N   -0.568565
     8  H    0.324309
     9  C   -0.029686
    10  H    0.165985
    11  C   -0.488312
    12  H    0.179076
    13  H    0.154829
    14  H    0.146203
    15  C    0.647943
    16  O   -0.545235
    17  N   -0.582119
    18  H    0.323850
    19  C   -0.308665
    20  H    0.207636
    21  H    0.145724
    22  H    0.160832
 Sum of Mulliken atomic charges =   0.00000
 Mulliken charges with hydrogens summed into heavy atoms:
              1
     2  C   -0.025251
     5  C    0.601581
     6  O   -0.510135
     7  N   -0.244256
     9  C    0.136298
    11  C   -0.008203
    15  C    0.647943
    16  O   -0.545235
    17  N   -0.258269
    19  C    0.205527
 Sum of Mulliken charges with hydrogens summed into heavy atoms =   0.00000
 APT atomic charges:
              1
     1  H    0.537597
     2  C   -1.270468
     3  H    0.456540
     4  H    0.435277
     5  C    0.302579
     6  O   -0.504329
     7  N   -0.795113
     8  H    0.739485
     9  C   -0.405665
    10  H    0.505496
    11  C   -1.179253
    12  H    0.266065
    13  H    0.421626
    14  H    0.505225
    15  C   -0.094135
    16  O   -0.193027
    17  N   -0.409647
    18  H    0.523765
    19  C   -1.272945
    20  H    0.398130
    21  H    0.608985
    22  H    0.423813
 Sum of APT charges=   0.00000
 APT Atomic charges with hydrogens summed into heavy atoms:
              1
     1  H    0.000000
     2  C    0.158945
     3  H    0.000000
     4  H    0.000000
     5  C    0.302579
     6  O   -0.504329
     7  N   -0.055628
     8  H    0.000000
     9  C    0.099831
    10  H    0.000000
    11  C    0.013662
    12  H    0.000000
    13  H    0.000000
    14  H    0.000000
    15  C   -0.094135
    16  O   -0.193027
    17  N    0.114118
    18  H    0.000000
    19  C    0.157983
    20  H    0.000000
    21  H    0.000000
    22  H    0.000000
 Sum of APT charges=   0.00000
 Electronic spatial extent (au):  <R**2>=           1558.3581
 Charge=              0.0000 electrons
 Dipole moment (field-independent basis, Debye):
    X=              1.1128    Y=              4.4207    Z=             -1.3180  Tot=              4.7453
 Quadrupole moment (field-independent basis, Debye-Ang):
   XX=            -47.5025   YY=            -59.0517   ZZ=            -62.9810
   XY=              1.2035   XZ=              5.9269   YZ=              2.4848
 Traceless Quadrupole moment (field-independent basis, Debye-Ang):
   XX=              9.0093   YY=             -2.5400   ZZ=             -6.4693
   XY=              1.2035   XZ=              5.9269   YZ=              2.4848
 Octapole moment (field-independent basis, Debye-Ang**2):
  XXX=              5.8500  YYY=              0.3100  ZZZ=             -5.2738  XYY=              1.0391
  XXY=             -2.7309  XXZ=             -2.8549  XZZ=              2.3686  YZZ=              6.2547
  YYZ=              3.4881  XYZ=              0.2006
 Hexadecapole moment (field-independent basis, Debye-Ang**3):
 XXXX=          -1199.0649 YYYY=           -506.1975 ZZZZ=           -250.1058 XXXY=             12.4911
 XXXZ=             13.2512 YYYX=             10.5737 YYYZ=              8.5042 ZZZX=             10.8190
 ZZZY=              9.5840 XXYY=           -274.4666 XXZZ=           -245.0460 YYZZ=           -125.4893
 XXYZ=              5.8933 YYXZ=              5.3983 ZZXY=             -1.3682
 N-N= 5.789156449942D+02 E-N=-2.314685597019D+03  KE= 4.916000898547D+02
  Exact polarizability:   0.000   0.000   0.000   0.000   0.000   0.000
 Approx polarizability: 114.054   5.831 114.895  14.698   3.385 109.193
 Calling FoFJK, ICntrl=    100147 FMM=F ISym2X=0 I1Cent= 0 IOpClX= 0 NMat=1 NMatS=1 NMatT=0.
 ***** Axes restored to original set *****
 -------------------------------------------------------------------
 Center     Atomic                   Forces (Hartrees/Bohr)
 Number     Number              X              Y              Z
 -------------------------------------------------------------------
      1        1           0.003130411    0.002368592   -0.000388295
      2        6           0.010452519   -0.000158124    0.003467518
      3        1          -0.003233034   -0.005845426   -0.000087690
      4        1          -0.004046002   -0.003868270    0.003167344
      5        6          -0.037171226    0.020139606   -0.019178778
      6        8           0.000516624   -0.006471778   -0.004411715
      7        7           0.017366130   -0.012017894    0.016109668
      8        1          -0.000469078    0.000520024    0.000830086
      9        6           0.010744539    0.000278542   -0.019316104
     10        1          -0.002299936    0.001074600    0.005226077
     11        6           0.002121499   -0.017957920    0.002343037
     12        1          -0.001130077   -0.004718749   -0.003488405
     13        1           0.005607405   -0.004774149   -0.000968907
     14        1           0.003038307   -0.003203372   -0.004223703
     15        6          -0.024831839    0.010138053    0.030792990
     16        8           0.006548682   -0.001651201    0.004908276
     17        7           0.016537912    0.015323363   -0.011786310
     18        1          -0.004537212    0.008291721    0.002050422
     19        6           0.000721526   -0.002359182   -0.002012467
     20        1          -0.000379680   -0.003213281    0.000480092
     21        1           0.003275341    0.004657615   -0.000690381
     22        1          -0.001962813    0.003447229   -0.002822756
 -------------------------------------------------------------------
 Cartesian Forces:  Max     0.037171226 RMS     0.010064129

 GradGradGradGradGradGradGradGradGradGradGradGradGradGradGradGradGradGrad
 Berny optimization.
 Internal  Forces:  Max     0.040184505 RMS     0.010659452
 Search for a local minimum.
 Step number   1 out of a maximum of  132
 All quantities printed in internal units (Hartrees-Bohrs-Radians)
 Mixed Optimization -- RFO/linear search
 Second derivative matrix not updated -- analytic derivatives used.
     Eigenvalues ---   -0.00078  -0.00063   0.00111   0.00360   0.00975
     Eigenvalues ---    0.01461   0.01674   0.02735   0.03921   0.04618
     Eigenvalues ---    0.04962   0.05260   0.05527   0.05825   0.05987
     Eigenvalues ---    0.06072   0.06402   0.06585   0.11897   0.12071
     Eigenvalues ---    0.12457   0.12848   0.13251   0.13320   0.13440
     Eigenvalues ---    0.14313   0.15224   0.17731   0.18154   0.18519
     Eigenvalues ---    0.19782   0.21277   0.22262   0.23592   0.24508
     Eigenvalues ---    0.26818   0.28909   0.30714   0.34425   0.34505
     Eigenvalues ---    0.34801   0.34890   0.34981   0.35072   0.35327
     Eigenvalues ---    0.35600   0.35856   0.35892   0.36514   0.39336
     Eigenvalues ---    0.45809   0.46411   0.47715   0.52891   0.61506
     Eigenvalues ---    0.73528   0.82031   0.828181000.000001000.00000
     Eigenvalues --- 1000.000001000.000001000.000001000.000001000.00000
     Eigenvalues --- 1000.000001000.000001000.000001000.000001000.00000
     Eigenvalues --- 1000.000001000.000001000.000001000.000001000.00000
     Eigenvalues --- 1000.000001000.000001000.000001000.000001000.00000
     Eigenvalues --- 1000.000001000.000001000.000001000.000001000.00000
     Eigenvalues --- 1000.000001000.000001000.000001000.000001000.00000
     Eigenvalues --- 1000.000001000.000001000.000001000.000001000.00000
     Eigenvalues --- 1000.000001000.000001000.00000
 RFO step:  Lambda=-2.12137796D-02 EMin=-7.83977613D-04
 Linear search not attempted -- first point.
 Maximum step size (   0.300) exceeded in Quadratic search.
    -- Step size scaled by   0.257
 Iteration  1 RMS(Cart)=  0.05162303 RMS(Int)=  0.00228431
 Iteration  2 RMS(Cart)=  0.00242750 RMS(Int)=  0.00015071
 Iteration  3 RMS(Cart)=  0.00000520 RMS(Int)=  0.00015066
 Iteration  4 RMS(Cart)=  0.00000000 RMS(Int)=  0.00015066
 Iteration  1 RMS(Cart)=  0.00000478 RMS(Int)=  0.00000194
 Iteration  2 RMS(Cart)=  0.00000249 RMS(Int)=  0.00000217
 Iteration  3 RMS(Cart)=  0.00000130 RMS(Int)=  0.00000243
 Iteration  4 RMS(Cart)=  0.00000068 RMS(Int)=  0.00000260
 Variable       Old X    -DE/DX   Delta X   Delta X   Delta X     New X
                                 (Linear)    (Quad)   (Total)
    R1        2.05994  -0.00098   0.00000   0.00001   0.00001   2.05994
    R2        2.05971   0.00477   0.00000   0.00297   0.00297   2.06268
    R3        2.05963   0.00456   0.00000   0.00288   0.00288   2.06252
    R4        2.89134  -0.00125   0.00000  -0.00317  -0.00317   2.88817
    R5        2.32249  -0.00376   0.00000  -0.00213  -0.00213   2.32035
    R6        2.52269   0.03429   0.00000   0.01423   0.01423   2.53692
    R7        1.90876  -0.00006   0.00000   0.00004   0.00004   1.90879
    R8        2.73817   0.01442   0.00000   0.00521   0.00521   2.74338
    R9        2.05975   0.00280   0.00000   0.00215   0.00215   2.06190
   R10        2.88188   0.01815   0.00000   0.00673   0.00673   2.88861
   R11        2.87618   0.03493   0.00000   0.01227   0.01227   2.88845
   R12        2.05972   0.00214   0.00000   0.00317   0.00317   2.06289
   R13        2.05984   0.00278   0.00000   0.00266   0.00266   2.06250
   R14        2.05966   0.00362   0.00000   0.00223   0.00223   2.06189
   R15        2.32259  -0.00022   0.00000  -0.00217  -0.00217   2.32042
   R16        2.52290   0.02966   0.00000   0.01017   0.01017   2.53307
   R17        1.90857  -0.00783   0.00000  -0.00142  -0.00142   1.90715
   R18        2.73818   0.00286   0.00000   0.00049   0.00049   2.73867
   R19        2.05970  -0.00063   0.00000   0.00024   0.00024   2.05994
   R20        2.05986   0.00480   0.00000   0.00212   0.00212   2.06198
   R21        2.05978   0.00416   0.00000   0.00368   0.00368   2.06346
    A1        1.91109  -0.00012   0.00000   0.00009   0.00012   1.91120
    A2        1.91114  -0.00013   0.00000  -0.00222  -0.00222   1.90891
    A3        1.93905  -0.00800   0.00000  -0.01013  -0.01011   1.92894
    A4        1.91025  -0.00502   0.00000  -0.00603  -0.00608   1.90417
    A5        1.89600   0.00677   0.00000   0.01358   0.01357   1.90958
    A6        1.89604   0.00655   0.00000   0.00481   0.00479   1.90083
    A7        2.10312   0.00516   0.00000   0.00992   0.00992   2.11304
    A8        2.03511  -0.01241   0.00000  -0.00792  -0.00792   2.02719
    A9        2.14496   0.00725   0.00000  -0.00200  -0.00200   2.14296
   A10        2.09429  -0.01298   0.00000  -0.00515  -0.00524   2.08905
   A11        2.12765   0.02548   0.00000   0.00984   0.00974   2.13739
   A12        2.06125  -0.01251   0.00000  -0.00469  -0.00479   2.05646
   A13        1.91114   0.00363   0.00000  -0.00483  -0.00489   1.90625
   A14        1.93905  -0.01769   0.00000  -0.00343  -0.00349   1.93556
   A15        1.93900  -0.00497   0.00000  -0.00118  -0.00127   1.93773
   A16        1.89609  -0.00413   0.00000   0.00047   0.00053   1.89663
   A17        1.89608  -0.01678   0.00000  -0.01482  -0.01488   1.88120
   A18        1.88137   0.04018   0.00000   0.02384   0.02385   1.90523
   A19        1.91115   0.00284   0.00000   0.00349   0.00348   1.91462
   A20        1.91106   0.00529   0.00000   0.00696   0.00693   1.91800
   A21        1.91110   0.00435   0.00000   0.00488   0.00487   1.91597
   A22        1.91011  -0.00089   0.00000  -0.00148  -0.00151   1.90860
   A23        1.91023  -0.00533   0.00000  -0.00931  -0.00931   1.90092
   A24        1.91015  -0.00627   0.00000  -0.00455  -0.00457   1.90558
   A25        2.10311  -0.01756   0.00000  -0.00374  -0.00378   2.09933
   A26        2.03508   0.02934   0.00000  -0.00053  -0.00057   2.03451
   A27        2.14499  -0.01178   0.00000   0.00427   0.00423   2.14923
   A28        2.09431   0.00621   0.00000  -0.00317  -0.00400   2.09031
   A29        2.12756  -0.00242   0.00000   0.00099   0.00015   2.12771
   A30        2.06132  -0.00379   0.00000   0.00218   0.00134   2.06265
   A31        1.91113  -0.00650   0.00000  -0.00854  -0.00853   1.90260
   A32        1.91103   0.00518   0.00000   0.00163   0.00161   1.91264
   A33        1.91116   0.00383   0.00000   0.00981   0.00981   1.92097
   A34        1.91015   0.00017   0.00000   0.00298   0.00298   1.91312
   A35        1.91015  -0.00001   0.00000  -0.00478  -0.00476   1.90539
   A36        1.91018  -0.00268   0.00000  -0.00109  -0.00112   1.90906
    D1        0.00005  -0.00120   0.00000   0.04990   0.04992   0.04997
    D2        3.14154   0.00116   0.00000   0.04963   0.04964  -3.09200
    D3        2.10329  -0.00192   0.00000   0.05253   0.05249   2.15578
    D4       -1.03841   0.00045   0.00000   0.05225   0.05222  -0.98619
    D5       -2.10327  -0.00033   0.00000   0.05581   0.05583  -2.04744
    D6        1.03822   0.00204   0.00000   0.05553   0.05555   1.09377
    D7        0.00007   0.00352   0.00000   0.00384   0.00385   0.00391
    D8        3.14159   0.00159   0.00000   0.03033   0.03032  -3.11128
    D9        3.14156   0.00594   0.00000   0.00355   0.00356  -3.13807
   D10       -0.00011   0.00401   0.00000   0.03004   0.03003   0.02993
   D11        2.61806   0.00313   0.00000  -0.02232  -0.02233   2.59573
   D12       -1.57069  -0.01083   0.00000  -0.02704  -0.02700  -1.59769
   D13        0.52367   0.02479   0.00000   0.00000   0.00000   0.52366
   D14       -0.52360   0.00123   0.00000   0.00368   0.00367  -0.51993
   D15        1.57084  -0.01272   0.00000  -0.00103  -0.00100   1.56983
   D16       -2.61800   0.02289   0.00000   0.02601   0.02600  -2.59200
   D17        1.04724   0.00424   0.00000  -0.00717  -0.00716   1.04008
   D18        3.14157   0.00813   0.00000  -0.00259  -0.00256   3.13901
   D19       -1.04726   0.00636   0.00000  -0.00090  -0.00087  -1.04813
   D20       -3.13259  -0.00489   0.00000  -0.01497  -0.01500   3.13559
   D21       -1.03826  -0.00100   0.00000  -0.01038  -0.01040  -1.04867
   D22        1.05609  -0.00277   0.00000  -0.00869  -0.00871   1.04738
   D23       -1.08102  -0.00498   0.00000  -0.01921  -0.01921  -1.10024
   D24        1.01331  -0.00109   0.00000  -0.01462  -0.01462   0.99869
   D25        3.10766  -0.00286   0.00000  -0.01293  -0.01292   3.09474
   D26        1.04715  -0.00001   0.00000   0.01603   0.01601   1.06316
   D27       -2.09440  -0.00524   0.00000   0.00000   0.00000  -2.09440
   D28       -1.05616   0.00943   0.00000   0.03232   0.03223  -1.02393
   D29        2.08547   0.00419   0.00000   0.01629   0.01623   2.10169
   D30       -3.10774   0.00133   0.00000   0.02667   0.02673  -3.08101
   D31        0.03389  -0.00390   0.00000   0.01064   0.01073   0.04461
   D32        0.00005   0.00359   0.00000   0.07028   0.07022   0.07027
   D33        3.14156   0.00210   0.00000  -0.00729  -0.00719   3.13437
   D34       -3.14151  -0.00179   0.00000   0.05382   0.05372  -3.08779
   D35        0.00000  -0.00328   0.00000  -0.02375  -0.02369  -0.02369
   D36        0.00008   0.00048   0.00000   0.12437   0.12440   0.12448
   D37        2.09443  -0.00012   0.00000   0.12378   0.12381   2.21823
   D38       -2.09436   0.00212   0.00000   0.12946   0.12951  -1.96485
   D39        3.14159  -0.00099   0.00000   0.04821   0.04817  -3.09343
   D40       -1.04725  -0.00158   0.00000   0.04762   0.04757  -0.99968
   D41        1.04715   0.00066   0.00000   0.05329   0.05328   1.10043
         Item               Value     Threshold  Converged?
 Maximum Force            0.034928     0.000450     NO 
 RMS     Force            0.010003     0.000300     NO 
 Maximum Displacement     0.192252     0.001800     NO 
 RMS     Displacement     0.051863     0.001200     NO 
 Predicted change in Energy=-5.227413D-03
 GradGradGradGradGradGradGradGradGradGradGradGradGradGradGradGradGradGrad

                          Input orientation:                          
 ---------------------------------------------------------------------
 Center     Atomic      Atomic             Coordinates (Angstroms)
 Number     Number       Type             X           Y           Z
 ---------------------------------------------------------------------
      1          1           0        0.371648    4.261224   -1.029997
      2          6           0        1.170519    3.746455   -0.496068
      3          1           0        1.312082    2.751828   -0.922797
      4          1           0        0.897902    3.648144    0.556192
      5          6           0        2.476709    4.533451   -0.597880
      6          8           0        2.519908    5.618063   -1.171847
      7          7           0        3.553258    3.969447   -0.027622
      8          1           0        3.465287    3.073313    0.430077
      9          6           0        4.853875    4.614151   -0.010880
     10          1           0        5.388051    4.321819    0.894501
     11          6           0        5.684369    4.198114   -1.224870
     12          1           0        5.161697    4.477647   -2.141568
     13          1           0        6.656452    4.693606   -1.197290
     14          1           0        5.832642    3.117151   -1.217842
     15          6           0        4.711440    6.135947    0.001871
     16          8           0        4.132827    6.695949    0.928893
     17          7           0        5.261046    6.798181   -1.025828
     18          1           0        5.683934    6.284144   -1.784419
     19          6           0        5.187086    8.241449   -1.134495
     20          1           0        4.752035    8.644580   -0.219904
     21          1           0        6.189346    8.649586   -1.274198
     22          1           0        4.560185    8.521549   -1.983530
 ---------------------------------------------------------------------
                    Distance matrix (angstroms):
                    1          2          3          4          5
     1  H    0.000000
     2  C    1.090075   0.000000
     3  H    1.781624   1.091522   0.000000
     4  H    1.780114   1.091437   1.778295   0.000000
     5  C    2.166129   1.528352   2.153163   2.146691   0.000000
     6  O    2.544829   2.404255   3.120284   3.081818   1.227879
     7  N    3.348512   2.438567   2.703110   2.737697   1.342480
     8  H    3.621264   2.564532   2.563184   2.633970   2.041074
     9  C    4.610154   3.815156   4.104161   4.111504   2.449898
    10  H    5.373236   4.477980   4.730853   4.552991   3.278399
    11  C    5.316668   4.594560   4.615180   5.136624   3.285521
    12  H    4.922093   4.378563   4.391286   5.113309   3.097619
    13  H    6.301881   5.611084   5.692815   6.109712   4.225541
    14  H    5.582709   4.759450   4.544884   5.270749   3.694934
    15  C    4.838712   4.300667   4.884967   4.586884   2.814554
    16  O    4.889950   4.416480   5.190515   4.460130   3.122525
    17  N    5.508392   5.130895   5.654901   5.609148   3.614508
    18  H    5.734261   5.335788   5.686189   5.944162   3.841756
    19  C    6.248324   6.061796   6.722827   6.507992   4.624213
    20  H    6.249628   6.074138   6.859436   6.357754   4.713953
    21  H    7.291293   7.059376   7.661248   7.507604   5.584231
    22  H    6.050077   6.041845   6.705595   6.603981   4.708059
                    6          7          8          9         10
     6  O    0.000000
     7  N    2.257210   0.000000
     8  H    3.152087   1.010090   0.000000
     9  C    2.793400   1.451734   2.120566   0.000000
    10  H    3.765141   2.083493   2.339119   1.091109   0.000000
    11  C    3.468844   2.455061   2.988034   1.528586   2.143558
    12  H    3.036439   2.704462   3.385752   2.157132   3.048481
    13  H    4.238664   3.394458   3.931565   2.159436   2.474401
    14  H    4.151010   2.708989   2.884774   2.157718   2.472019
    15  C    2.539416   2.456823   3.334064   1.528500   2.132053
    16  O    2.859450   2.946971   3.717246   2.395197   2.685752
    17  N    2.987949   3.451767   4.383954   2.442518   3.136266
    18  H    3.290892   3.603324   4.487296   2.573580   3.333899
    19  C    3.741308   4.705801   5.667636   3.811932   4.418225
    20  H    3.879226   4.830208   5.754756   4.037130   4.509177
    21  H    4.760817   5.514219   6.435826   4.434431   4.906617
    22  H    3.640301   5.055800   6.058677   4.386953   5.158116
                   11         12         13         14         15
    11  C    0.000000
    12  H    1.091632   0.000000
    13  H    1.091430   1.781177   0.000000
    14  H    1.091107   1.776059   1.778847   0.000000
    15  C    2.491320   2.747184   2.702111   3.443533   0.000000
    16  O    3.644881   3.925197   3.859885   4.506177   1.227911
    17  N    2.641812   2.576747   2.530967   3.730090   1.340443
    18  H    2.159772   1.914084   1.954564   3.220709   2.039250
    19  C    4.074802   3.896286   3.840595   5.165473   2.439407
    20  H    4.652984   4.606945   4.493582   5.719795   2.518744
    21  H    4.480294   4.383317   3.984203   5.544208   3.182913
    22  H    4.531163   4.091446   4.434598   5.604725   3.107377
                   16         17         18         19         20
    16  O    0.000000
    17  N    2.259262   0.000000
    18  H    3.152393   1.009222   0.000000
    19  C    2.785247   1.449241   2.121392   0.000000
    20  H    2.345276   2.077930   2.981242   1.090074   0.000000
    21  H    3.591597   2.085935   2.472060   1.091154   1.782532
    22  H    3.463764   2.092461   2.511661   1.091934   1.778291
                   21         22
    21  H    0.000000
    22  H    1.781491   0.000000
 Stoichiometry    C6H12N2O2
 Framework group  C1[X(C6H12N2O2)]
 Deg. of freedom    60
 Full point group                 C1      NOp   1
 Largest Abelian subgroup         C1      NOp   1
 Largest concise Abelian subgroup C1      NOp   1
                         Standard orientation:                         
 ---------------------------------------------------------------------
 Center     Atomic      Atomic             Coordinates (Angstroms)
 Number     Number       Type             X           Y           Z
 ---------------------------------------------------------------------
      1          1           0        3.317850   -1.728574   -0.798639
      2          6           0        3.166791   -0.816568   -0.220979
      3          1           0        3.752950   -0.006560   -0.658845
      4          1           0        3.495718   -0.980314    0.806751
      5          6           0        1.689019   -0.426737   -0.211911
      6          8           0        0.844312   -1.131906   -0.756791
      7          7           0        1.382740    0.717098    0.420612
      8          1           0        2.115886    1.262885    0.850607
      9          6           0        0.018562    1.197982    0.544304
     10          1           0       -0.083579    1.752272    1.478567
     11          6           0       -0.340033    2.125479   -0.616615
     12          1           0       -0.237458    1.588749   -1.561633
     13          1           0       -1.368402    2.474849   -0.508835
     14          1           0        0.331812    2.985184   -0.623398
     15          6           0       -0.971841    0.034342    0.581150
     16          8           0       -0.910193   -0.803108    1.477053
     17          7           0       -1.895536    0.002253   -0.389697
     18          1           0       -1.870877    0.690227   -1.127677
     19          6           0       -2.885224   -1.053319   -0.470830
     20          1           0       -2.811735   -1.678166    0.419353
     21          1           0       -3.882966   -0.615524   -0.529688
     22          1           0       -2.706210   -1.667447   -1.355772
 ---------------------------------------------------------------------
 Rotational constants (GHZ):      2.0926658      0.9661438      0.8243810
 Standard basis: 6-31G(d) (6D, 7F)
 There are   174 symmetry adapted basis functions of A   symmetry.
 Integral buffers will be    131072 words long.
 Raffenetti 2 integral format.
 Two-electron integral symmetry is turned on.
   174 basis functions,   328 primitive gaussians,   174 cartesian basis functions
    39 alpha electrons       39 beta electrons
       nuclear repulsion energy       576.6293701040 Hartrees.
 NAtoms=   22 NActive=   22 NUniq=   22 SFac= 7.50D-01 NAtFMM=   80 NAOKFM=F Big=F
 One-electron integrals computed using PRISM.
 NBasis=   174 RedAO= T  NBF=   174
 NBsUse=   174 1.00D-06 NBFU=   174
 Initial guess read from the read-write file.
 B after Tr=     0.000000    0.000000    0.000000
         Rot=    1.000000    0.000000    0.000000    0.000000 Ang=   0.00 deg.
 Initial guess orbital symmetries:
       Occupied  (A) (A) (A) (A) (A) (A) (A) (A) (A) (A) (A) (A)
                 (A) (A) (A) (A) (A) (A) (A) (A) (A) (A) (A) (A)
                 (A) (A) (A) (A) (A) (A) (A) (A) (A) (A) (A) (A)
                 (A) (A) (A)
       Virtual   (A) (A) (A) (A) (A) (A) (A) (A) (A) (A) (A) (A)
                 (A) (A) (A) (A) (A) (A) (A) (A) (A) (A) (A) (A)
                 (A) (A) (A) (A) (A) (A) (A) (A) (A) (A) (A) (A)
                 (A) (A) (A) (A) (A) (A) (A) (A) (A) (A) (A) (A)
                 (A) (A) (A) (A) (A) (A) (A) (A) (A) (A) (A) (A)
                 (A) (A) (A) (A) (A) (A) (A) (A) (A) (A) (A) (A)
                 (A) (A) (A) (A) (A) (A) (A) (A) (A) (A) (A) (A)
                 (A) (A) (A) (A) (A) (A) (A) (A) (A) (A) (A) (A)
                 (A) (A) (A) (A) (A) (A) (A) (A) (A) (A) (A) (A)
                 (A) (A) (A) (A) (A) (A) (A) (A) (A) (A) (A) (A)
                 (A) (A) (A) (A) (A) (A) (A) (A) (A) (A) (A) (A)
                 (A) (A) (A)
 Harris functional with IExCor=  402 diagonalized for initial guess.
 ExpMin= 1.61D-01 ExpMax= 5.48D+03 ExpMxC= 8.25D+02 IAcc=1 IRadAn=         1 AccDes= 0.00D+00
 HarFok:  IExCor=  402 AccDes= 0.00D+00 IRadAn=         1 IDoV= 1
 ScaDFX=  1.000000  1.000000  1.000000  1.000000
 FoFCou: FMM=F IPFlag=           0 FMFlag=      100000 FMFlg1=           0
         NFxFlg=           0 DoJE=T BraDBF=F KetDBF=T FulRan=T
         Omega=  0.000000  0.000000  1.000000  0.000000  0.000000 ICntrl=     500 IOpCl=  0
         NMat0=    1 NMatS0=    1 NMatT0=    0 NMatD0=    1 NMtDS0=    0 NMtDT0=    0
         I1Cent=           4 NGrid=           0.
 Petite list used in FoFCou.
 Requested convergence on RMS density matrix=1.00D-08 within 128 cycles.
 Requested convergence on MAX density matrix=1.00D-06.
 Requested convergence on             energy=1.00D-06.
 No special actions if energy rises.
 Integral accuracy reduced to 1.0D-05 until final iterations.
 Initial convergence to 1.0D-05 achieved.  Increase integral accuracy.
 SCF Done:  E(RB3LYP) =  -495.829106837     A.U. after   12 cycles
             Convg  =    0.5774D-08             -V/T =  2.0088
 Calling FoFJK, ICntrl=      2127 FMM=F ISym2X=0 I1Cent= 0 IOpClX= 0 NMat=1 NMatS=1 NMatT=0.
 ***** Axes restored to original set *****
 -------------------------------------------------------------------
 Center     Atomic                   Forces (Hartrees/Bohr)
 Number     Number              X              Y              Z
 -------------------------------------------------------------------
      1        1           0.002390380    0.001772172   -0.000412809
      2        6           0.008263149   -0.000100142    0.002718029
      3        1          -0.002555744   -0.004415050    0.000246631
      4        1          -0.003236627   -0.002760696    0.002494907
      5        6          -0.028104923    0.014860265   -0.015580607
      6        8           0.000375174   -0.005102155   -0.003491919
      7        7           0.013245286   -0.008967767    0.013895752
      8        1          -0.000613521    0.000600466    0.000965960
      9        6           0.009334292    0.000585360   -0.018611931
     10        1          -0.002411031    0.000858544    0.004268714
     11        6           0.001631063   -0.013523847    0.002356280
     12        1          -0.000806145   -0.003820716   -0.002589135
     13        1           0.004279344   -0.003739431   -0.000658214
     14        1           0.002396727   -0.002477198   -0.003165789
     15        6          -0.020852457    0.007474443    0.024264941
     16        8           0.005582876   -0.001234550    0.003929489
     17        7           0.014058473    0.011821433   -0.008013735
     18        1          -0.003499007    0.006248266    0.001570896
     19        6           0.000170733   -0.001899064   -0.001939383
     20        1          -0.000207212   -0.002385210    0.000404393
     21        1           0.002380300    0.003543642   -0.000805637
     22        1          -0.001821128    0.002661234   -0.001846831
 -------------------------------------------------------------------
 Cartesian Forces:  Max     0.028104923 RMS     0.008008376

 GradGradGradGradGradGradGradGradGradGradGradGradGradGradGradGradGradGrad
 Berny optimization.
 Using GEDIIS/GDIIS optimizer.
 Internal  Forces:  Max     0.031647930 RMS     0.008254076
 Search for a local minimum.
 Step number   2 out of a maximum of  132
 All quantities printed in internal units (Hartrees-Bohrs-Radians)
 Mixed Optimization -- RFO/linear search
 Update second derivatives using D2CorX and points    1    2
 DE= -5.24D-03 DEPred=-5.23D-03 R= 1.00D+00
 SS=  1.41D+00  RLast= 3.00D-01 DXNew= 5.0454D-01 8.9997D-01
 Trust test= 1.00D+00 RLast= 3.00D-01 DXMaxT set to 5.05D-01
 Use linear search instead of GDIIS.
 Linear search step of   0.594 exceeds DXMaxT=   0.505 but not scaled.
 Quartic linear search produced a step of  2.00000.
 Iteration  1 RMS(Cart)=  0.09555253 RMS(Int)=  0.01146913
 Iteration  2 RMS(Cart)=  0.01680460 RMS(Int)=  0.00095469
 Iteration  3 RMS(Cart)=  0.00035506 RMS(Int)=  0.00090550
 Iteration  4 RMS(Cart)=  0.00000019 RMS(Int)=  0.00090550
 Iteration  1 RMS(Cart)=  0.00003172 RMS(Int)=  0.00001313
 Iteration  2 RMS(Cart)=  0.00001670 RMS(Int)=  0.00001468
 Iteration  3 RMS(Cart)=  0.00000881 RMS(Int)=  0.00001651
 Iteration  4 RMS(Cart)=  0.00000465 RMS(Int)=  0.00001768
 Iteration  5 RMS(Cart)=  0.00000247 RMS(Int)=  0.00001834
 Iteration  6 RMS(Cart)=  0.00000132 RMS(Int)=  0.00001870
 Iteration  7 RMS(Cart)=  0.00000071 RMS(Int)=  0.00001890
 Variable       Old X    -DE/DX   Delta X   Delta X   Delta X     New X
                                 (Linear)    (Quad)   (Total)
    R1        2.05994  -0.00071   0.00001   0.00000   0.00001   2.05995
    R2        2.06268   0.00360   0.00594   0.00000   0.00594   2.06862
    R3        2.06252   0.00346   0.00577   0.00000   0.00577   2.06828
    R4        2.88817  -0.00098  -0.00634   0.00000  -0.00634   2.88183
    R5        2.32035  -0.00286  -0.00426   0.00000  -0.00426   2.31609
    R6        2.53692   0.02608   0.02846   0.00000   0.02846   2.56538
    R7        1.90879  -0.00004   0.00007   0.00000   0.00007   1.90887
    R8        2.74338   0.01099   0.01041   0.00000   0.01041   2.75379
    R9        2.06190   0.00213   0.00430   0.00000   0.00430   2.06620
   R10        2.88861   0.01373   0.01345   0.00000   0.01345   2.90206
   R11        2.88845   0.02667   0.02454   0.00000   0.02454   2.91298
   R12        2.06289   0.00159   0.00633   0.00000   0.00633   2.06922
   R13        2.06250   0.00210   0.00532   0.00000   0.00532   2.06782
   R14        2.06189   0.00276   0.00447   0.00000   0.00447   2.06636
   R15        2.32042  -0.00023  -0.00435   0.00000  -0.00435   2.31607
   R16        2.53307   0.02252   0.02033   0.00000   0.02033   2.55340
   R17        1.90715  -0.00584  -0.00283   0.00000  -0.00283   1.90432
   R18        2.73867   0.00221   0.00097   0.00000   0.00097   2.73964
   R19        2.05994  -0.00045   0.00049   0.00000   0.00049   2.06043
   R20        2.06198   0.00361   0.00424   0.00000   0.00424   2.06622
   R21        2.06346   0.00316   0.00736   0.00000   0.00736   2.07082
    A1        1.91120  -0.00009   0.00023   0.00000   0.00040   1.91160
    A2        1.90891  -0.00013  -0.00445   0.00000  -0.00444   1.90447
    A3        1.92894  -0.00612  -0.02023   0.00000  -0.02013   1.90880
    A4        1.90417  -0.00392  -0.01216   0.00000  -0.01245   1.89171
    A5        1.90958   0.00522   0.02714   0.00000   0.02708   1.93666
    A6        1.90083   0.00506   0.00958   0.00000   0.00943   1.91027
    A7        2.11304   0.00392   0.01984   0.00000   0.01984   2.13288
    A8        2.02719  -0.00946  -0.01584   0.00000  -0.01584   2.01135
    A9        2.14296   0.00554  -0.00401   0.00000  -0.00401   2.13895
   A10        2.08905  -0.00992  -0.01048   0.00000  -0.01105   2.07800
   A11        2.13739   0.01948   0.01949   0.00000   0.01892   2.15631
   A12        2.05646  -0.00952  -0.00958   0.00000  -0.01015   2.04630
   A13        1.90625   0.00234  -0.00977   0.00000  -0.01013   1.89612
   A14        1.93556  -0.01336  -0.00698   0.00000  -0.00736   1.92820
   A15        1.93773  -0.00414  -0.00254   0.00000  -0.00313   1.93460
   A16        1.89663  -0.00303   0.00106   0.00000   0.00143   1.89806
   A17        1.88120  -0.01352  -0.02975   0.00000  -0.03007   1.85113
   A18        1.90523   0.03165   0.04771   0.00000   0.04778   1.95301
   A19        1.91462   0.00221   0.00695   0.00000   0.00688   1.92150
   A20        1.91800   0.00410   0.01387   0.00000   0.01372   1.93172
   A21        1.91597   0.00328   0.00974   0.00000   0.00967   1.92564
   A22        1.90860  -0.00072  -0.00302   0.00000  -0.00317   1.90543
   A23        1.90092  -0.00414  -0.01862   0.00000  -0.01861   1.88231
   A24        1.90558  -0.00486  -0.00914   0.00000  -0.00927   1.89632
   A25        2.09933  -0.01337  -0.00756   0.00000  -0.00779   2.09155
   A26        2.03451   0.02243  -0.00115   0.00000  -0.00138   2.03312
   A27        2.14923  -0.00913   0.00847   0.00000   0.00822   2.15745
   A28        2.09031   0.00471  -0.00800   0.00000  -0.01294   2.07737
   A29        2.12771  -0.00203   0.00030   0.00000  -0.00466   2.12305
   A30        2.06265  -0.00278   0.00267   0.00000  -0.00245   2.06020
   A31        1.90260  -0.00489  -0.01706   0.00000  -0.01700   1.88560
   A32        1.91264   0.00395   0.00322   0.00000   0.00314   1.91578
   A33        1.92097   0.00291   0.01961   0.00000   0.01959   1.94056
   A34        1.91312   0.00009   0.00595   0.00000   0.00595   1.91907
   A35        1.90539  -0.00005  -0.00953   0.00000  -0.00941   1.89598
   A36        1.90906  -0.00204  -0.00224   0.00000  -0.00239   1.90667
    D1        0.04997  -0.00090   0.09983   0.00000   0.09990   0.14987
    D2       -3.09200   0.00098   0.09928   0.00000   0.09934  -2.99266
    D3        2.15578  -0.00152   0.10499   0.00000   0.10481   2.26059
    D4       -0.98619   0.00036   0.10443   0.00000   0.10425  -0.88195
    D5       -2.04744  -0.00018   0.11166   0.00000   0.11178  -1.93566
    D6        1.09377   0.00170   0.11111   0.00000   0.11122   1.20500
    D7        0.00391   0.00297   0.00769   0.00000   0.00775   0.01166
    D8       -3.11128   0.00127   0.06063   0.00000   0.06057  -3.05071
    D9       -3.13807   0.00488   0.00713   0.00000   0.00719  -3.13088
   D10        0.02993   0.00318   0.06007   0.00000   0.06001   0.08994
   D11        2.59573   0.00254  -0.04466   0.00000  -0.04469   2.55103
   D12       -1.59769  -0.00799  -0.05401   0.00000  -0.05376  -1.65145
   D13        0.52366   0.02025   0.00000   0.00000   0.00000   0.52366
   D14       -0.51993   0.00089   0.00734   0.00000   0.00726  -0.51267
   D15        1.56983  -0.00964  -0.00200   0.00000  -0.00180   1.56803
   D16       -2.59200   0.01860   0.05200   0.00000   0.05196  -2.54004
   D17        1.04008   0.00335  -0.01432   0.00000  -0.01421   1.02587
   D18        3.13901   0.00642  -0.00513   0.00000  -0.00498   3.13403
   D19       -1.04813   0.00505  -0.00173   0.00000  -0.00155  -1.04968
   D20        3.13559  -0.00386  -0.03000   0.00000  -0.03020   3.10540
   D21       -1.04867  -0.00079  -0.02081   0.00000  -0.02096  -1.06963
   D22        1.04738  -0.00217  -0.01742   0.00000  -0.01754   1.02984
   D23       -1.10024  -0.00405  -0.03843   0.00000  -0.03846  -1.13869
   D24        0.99869  -0.00098  -0.02924   0.00000  -0.02922   0.96947
   D25        3.09474  -0.00236  -0.02585   0.00000  -0.02580   3.06894
   D26        1.06316  -0.00034   0.03201   0.00000   0.03185   1.09501
   D27       -2.09440  -0.00467   0.00000   0.00000   0.00000  -2.09440
   D28       -1.02393   0.00768   0.06446   0.00000   0.06393  -0.96000
   D29        2.10169   0.00335   0.03245   0.00000   0.03208   2.13377
   D30       -3.08101   0.00159   0.05346   0.00000   0.05381  -3.02720
   D31        0.04461  -0.00274   0.02145   0.00000   0.02196   0.06657
   D32        0.07027   0.00323   0.14045   0.00000   0.14001   0.21028
   D33        3.13437   0.00156  -0.01438   0.00000  -0.01361   3.12076
   D34       -3.08779  -0.00127   0.10744   0.00000   0.10667  -2.98112
   D35       -0.02369  -0.00293  -0.04739   0.00000  -0.04695  -0.07064
   D36        0.12448   0.00052   0.24880   0.00000   0.24883   0.37331
   D37        2.21823   0.00004   0.24761   0.00000   0.24763   2.46586
   D38       -1.96485   0.00184   0.25902   0.00000   0.25921  -1.70564
   D39       -3.09343  -0.00080   0.09634   0.00000   0.09621  -2.99722
   D40       -0.99968  -0.00128   0.09515   0.00000   0.09501  -0.90466
   D41        1.10043   0.00052   0.10656   0.00000   0.10659   1.20702
         Item               Value     Threshold  Converged?
 Maximum Force            0.026666     0.000450     NO 
 RMS     Force            0.007674     0.000300     NO 
 Maximum Displacement     0.409663     0.001800     NO 
 RMS     Displacement     0.104321     0.001200     NO 
 Predicted change in Energy=-7.028989D-03
 GradGradGradGradGradGradGradGradGradGradGradGradGradGradGradGradGradGrad

                          Input orientation:                          
 ---------------------------------------------------------------------
 Center     Atomic      Atomic             Coordinates (Angstroms)
 Number     Number       Type             X           Y           Z
 ---------------------------------------------------------------------
      1          1           0        0.385206    4.196013   -1.117067
      2          6           0        1.160368    3.746485   -0.496322
      3          1           0        1.296712    2.698795   -0.782763
      4          1           0        0.844918    3.779763    0.551194
      5          6           0        2.458028    4.530430   -0.661022
      6          8           0        2.506894    5.591865   -1.271855
      7          7           0        3.550674    3.969403   -0.082846
      8          1           0        3.452012    3.087714    0.400114
      9          6           0        4.856483    4.614403   -0.033862
     10          1           0        5.349281    4.335236    0.901395
     11          6           0        5.729221    4.150611   -1.209282
     12          1           0        5.237783    4.386789   -2.158858
     13          1           0        6.708058    4.638867   -1.180023
     14          1           0        5.877128    3.067951   -1.168639
     15          6           0        4.709500    6.148424    0.002873
     16          8           0        4.143599    6.684296    0.948767
     17          7           0        5.279446    6.832978   -1.013147
     18          1           0        5.602374    6.327413   -1.822854
     19          6           0        5.187557    8.277013   -1.103217
     20          1           0        4.968820    8.664129   -0.107667
     21          1           0        6.135666    8.686156   -1.462675
     22          1           0        4.382573    8.581066   -1.781744
 ---------------------------------------------------------------------
                    Distance matrix (angstroms):
                    1          2          3          4          5
     1  H    0.000000
     2  C    1.090081   0.000000
     3  H    1.784450   1.094665   0.000000
     4  H    1.779801   1.094489   1.775401   0.000000
     5  C    2.148582   1.524998   2.172179   2.152927   0.000000
     6  O    2.544390   2.412470   3.173894   3.060946   1.225623
     7  N    3.337836   2.436025   2.680424   2.785514   1.357539
     8  H    3.596591   2.547393   2.489131   2.701610   2.048278
     9  C    4.619599   3.824711   4.111250   4.139030   2.480517
    10  H    5.360561   4.455024   4.683764   4.551976   3.292202
    11  C    5.345003   4.641772   4.683676   5.205115   3.338495
    12  H    4.966812   4.449643   4.502777   5.197127   3.160883
    13  H    6.338654   5.660446   5.762322   6.173458   4.282974
    14  H    5.606816   4.812509   4.611441   5.365412   3.753233
    15  C    4.875007   4.314492   4.915718   4.565765   2.850927
    16  O    4.958300   4.429298   5.194918   4.413126   3.173596
    17  N    5.560393   5.173041   5.745147   5.606633   3.658705
    18  H    5.679775   5.305874   5.726027   5.895763   3.803408
    19  C    6.302168   6.091983   6.808662   6.466904   4.656474
    20  H    6.480159   6.232061   7.037424   6.426329   4.868033
    21  H    7.304014   7.077272   7.728276   7.491354   5.606936
    22  H    5.970714   5.950470   6.717262   6.403914   4.622504
                    6          7          8          9         10
     6  O    0.000000
     7  N    2.266187   0.000000
     8  H    3.155868   1.010129   0.000000
     9  C    2.829952   1.457244   2.119352   0.000000
    10  H    3.792269   2.082679   2.325344   1.093385   0.000000
    11  C    3.530513   2.459219   2.984222   1.535704   2.152533
    12  H    3.113958   2.707466   3.380076   2.170900   3.062718
    13  H    4.308876   3.408966   3.937606   2.177754   2.504150
    14  H    4.211802   2.721020   2.888350   2.172775   2.483883
    15  C    2.605027   2.469485   3.332720   1.541484   2.122337
    16  O    2.967048   2.964191   3.703338   2.399629   2.640832
    17  N    3.048662   3.471913   4.400435   2.461701   3.147867
[...]
    15  C    4.906797   4.221848   4.790996   4.353326   2.848888
    16  O    5.055925   4.291953   4.903965   4.109750   3.206568
    17  N    5.610015   5.127289   5.789004   5.356721   3.664589
    18  H    5.528066   5.163749   5.783555   5.583700   3.658770
    19  C    6.268621   5.898416   6.714509   5.950280   4.568334
    20  H    6.761988   6.276233   7.065765   6.164091   5.032245
    21  H    7.119284   6.819143   7.622818   6.951982   5.441380
    22  H    5.733611   5.507842   6.435585   5.508805   4.322678
                    6          7          8          9         10
     6  O    0.000000
     7  N    2.275631   0.000000
     8  H    3.138826   1.011269   0.000000
     9  C    2.843261   1.471498   2.112245   0.000000
    10  H    3.805870   2.065436   2.220080   1.094599   0.000000
    11  C    3.525200   2.470291   3.120713   1.535142   2.156043
    12  H    3.109565   2.726192   3.549451   2.180132   3.071580
    13  H    4.318812   3.427019   4.040593   2.185448   2.529634
    14  H    4.195986   2.719395   3.084710   2.168006   2.467916
    15  C    2.693964   2.488570   3.212381   1.553092   2.102189
    16  O    3.186639   2.992511   3.470094   2.400649   2.560705
    17  N    3.082378   3.509828   4.373163   2.493590   3.174839
    18  H    2.985094   3.536866   4.481885   2.617666   3.479423
    19  C    3.772781   4.700055   5.544205   3.843242   4.439093
    20  H    4.408257   5.056101   5.772489   4.143084   4.500484
    21  H    4.567159   5.537253   6.421365   4.580297   5.188376
    22  H    3.372153   4.772813   5.637338   4.232603   4.945202
                   11         12         13         14         15
    11  C    0.000000
    12  H    1.095714   0.000000
    13  H    1.095134   1.785633   0.000000
    14  H    1.094759   1.763141   1.775224   0.000000
    15  C    2.618786   2.954201   2.849395   3.544562   0.000000
    16  O    3.726959   4.132528   3.952901   4.538373   1.224046
    17  N    2.860759   2.884829   2.777421   3.943436   1.364439
    18  H    2.480220   2.188166   2.446208   3.560711   2.024787
    19  C    4.312257   4.232686   4.154346   5.398195   2.432511
    20  H    4.833622   4.964012   4.609628   5.878144   2.630882
    21  H    4.737902   4.566049   4.398213   5.827134   3.321091
    22  H    4.813434   4.569864   4.865615   5.876947   2.845406
                   16         17         18         19         20
    16  O    0.000000
    17  N    2.278637   0.000000
    18  H    3.125279   1.010395   0.000000
    19  C    2.767578   1.456351   2.106829   0.000000
    20  H    2.536904   2.081185   2.962984   1.091022   0.000000
    21  H    3.798352   2.088504   2.390105   1.093338   1.783169
    22  H    3.027292   2.122850   2.587347   1.097549   1.773940
                   21         22
    21  H    0.000000
    22  H    1.789215   0.000000
 Stoichiometry    C6H12N2O2
 Framework group  C1[X(C6H12N2O2)]
 Deg. of freedom    60
 Full point group                 C1      NOp   1
 Largest Abelian subgroup         C1      NOp   1
 Largest concise Abelian subgroup C1      NOp   1
                         Standard orientation:                         
 ---------------------------------------------------------------------
 Center     Atomic      Atomic             Coordinates (Angstroms)
 Number     Number       Type             X           Y           Z
 ---------------------------------------------------------------------
      1          1           0        3.432836   -1.511953   -0.892204
      2          6           0        3.069918   -0.988619   -0.005359
      3          1           0        3.793067   -0.219788    0.286128
      4          1           0        2.992762   -1.717806    0.809930
      5          6           0        1.687606   -0.427856   -0.296390
      6          8           0        0.899369   -0.981332   -1.053002
      7          7           0        1.389246    0.757654    0.330632
      8          1           0        2.031933    1.050491    1.054418
      9          6           0        0.006803    1.237881    0.484057
     10          1           0       -0.048466    1.702339    1.473689
     11          6           0       -0.316257    2.293978   -0.582223
     12          1           0       -0.184990    1.883229   -1.589519
     13          1           0       -1.340898    2.665619   -0.475864
     14          1           0        0.369098    3.142296   -0.486611
     15          6           0       -0.981604    0.043798    0.580550
     16          8           0       -0.921037   -0.703975    1.547741
     17          7           0       -1.955727   -0.040868   -0.371086
     18          1           0       -1.746228    0.385242   -1.262959
     19          6           0       -2.810209   -1.219622   -0.407924
     20          1           0       -3.161126   -1.429531    0.603572
     21          1           0       -3.667614   -1.021290   -1.056699
     22          1           0       -2.269203   -2.101250   -0.774880
 ---------------------------------------------------------------------
 Rotational constants (GHZ):      1.8912979      0.9712347      0.8177572

 **********************************************************************

            Population analysis using the SCF density.

 **********************************************************************

 Orbital symmetries:
       Occupied  (A) (A) (A) (A) (A) (A) (A) (A) (A) (A) (A) (A)
                 (A) (A) (A) (A) (A) (A) (A) (A) (A) (A) (A) (A)
                 (A) (A) (A) (A) (A) (A) (A) (A) (A) (A) (A) (A)
                 (A) (A) (A)
       Virtual   (A) (A) (A) (A) (A) (A) (A) (A) (A) (A) (A) (A)
                 (A) (A) (A) (A) (A) (A) (A) (A) (A) (A) (A) (A)
                 (A) (A) (A) (A) (A) (A) (A) (A) (A) (A) (A) (A)
                 (A) (A) (A) (A) (A) (A) (A) (A) (A) (A) (A) (A)
                 (A) (A) (A) (A) (A) (A) (A) (A) (A) (A) (A) (A)
                 (A) (A) (A) (A) (A) (A) (A) (A) (A) (A) (A) (A)
                 (A) (A) (A) (A) (A) (A) (A) (A) (A) (A) (A) (A)
                 (A) (A) (A) (A) (A) (A) (A) (A) (A) (A) (A) (A)
                 (A) (A) (A) (A) (A) (A) (A) (A) (A) (A) (A) (A)
                 (A) (A) (A) (A) (A) (A) (A) (A) (A) (A) (A) (A)
                 (A) (A) (A) (A) (A) (A) (A) (A) (A) (A) (A) (A)
                 (A) (A) (A)
 The electronic state is 1-A.
 Alpha  occ. eigenvalues --  -19.11171 -19.10066 -14.36149 -14.34946 -10.28812
 Alpha  occ. eigenvalues --  -10.27662 -10.23849 -10.20629 -10.19191 -10.18842
 Alpha  occ. eigenvalues --   -1.03426  -1.01827  -0.92151  -0.90915  -0.77970
 Alpha  occ. eigenvalues --   -0.72941  -0.69465  -0.64734  -0.58916  -0.56385
 Alpha  occ. eigenvalues --   -0.52343  -0.50013  -0.46166  -0.45527  -0.43956
 Alpha  occ. eigenvalues --   -0.43426  -0.42068  -0.41326  -0.39977  -0.39587
 Alpha  occ. eigenvalues --   -0.38590  -0.37920  -0.37138  -0.35855  -0.34137
 Alpha  occ. eigenvalues --   -0.26310  -0.25329  -0.24573  -0.23257
 Alpha virt. eigenvalues --    0.01680   0.03561   0.07206   0.09109   0.11669
 Alpha virt. eigenvalues --    0.13152   0.14440   0.15249   0.15299   0.16205
 Alpha virt. eigenvalues --    0.17090   0.17475   0.18563   0.19064   0.19983
 Alpha virt. eigenvalues --    0.21425   0.21980   0.25689   0.27403   0.33137
 Alpha virt. eigenvalues --    0.34092   0.40056   0.41271   0.50479   0.52050
 Alpha virt. eigenvalues --    0.53199   0.54072   0.55677   0.56047   0.58171
 Alpha virt. eigenvalues --    0.59003   0.59932   0.61146   0.64883   0.65560
 Alpha virt. eigenvalues --    0.67282   0.68811   0.70860   0.71758   0.73191
 Alpha virt. eigenvalues --    0.75698   0.77943   0.79466   0.81455   0.84671
 Alpha virt. eigenvalues --    0.84825   0.86268   0.86473   0.88189   0.88615
 Alpha virt. eigenvalues --    0.89440   0.90810   0.91485   0.92100   0.93725
 Alpha virt. eigenvalues --    0.94834   0.95246   0.95752   0.98326   1.00272
 Alpha virt. eigenvalues --    1.03719   1.08678   1.09982   1.11592   1.12935
 Alpha virt. eigenvalues --    1.20167   1.23190   1.26792   1.32411   1.33813
 Alpha virt. eigenvalues --    1.36071   1.37463   1.44233   1.45946   1.48707
 Alpha virt. eigenvalues --    1.51341   1.58923   1.62105   1.63927   1.70053
 Alpha virt. eigenvalues --    1.72368   1.76496   1.78815   1.81652   1.82116
 Alpha virt. eigenvalues --    1.84961   1.88251   1.89310   1.90705   1.92922
 Alpha virt. eigenvalues --    1.94300   1.96620   1.98712   1.99968   2.04017
 Alpha virt. eigenvalues --    2.05433   2.08026   2.10134   2.12668   2.16001
 Alpha virt. eigenvalues --    2.18923   2.21503   2.22906   2.27245   2.29937
 Alpha virt. eigenvalues --    2.33162   2.35420   2.37208   2.39515   2.41159
 Alpha virt. eigenvalues --    2.46817   2.48491   2.52000   2.56763   2.63377
 Alpha virt. eigenvalues --    2.65381   2.68160   2.69270   2.75785   2.86359
 Alpha virt. eigenvalues --    2.93598   2.98625   3.00139   3.12628   3.14706
 Alpha virt. eigenvalues --    3.94014   3.97420   4.05945   4.13094   4.20076
 Alpha virt. eigenvalues --    4.24815   4.31451   4.37870   4.50390   4.68347
          Condensed to atoms (all electrons):
              1          2          3          4          5          6
     1  H    0.514560   0.357124  -0.025043  -0.021338  -0.018862   0.003301
     2  C    0.357124   5.338998   0.341116   0.360881   0.342119  -0.079798
     3  H   -0.025043   0.341116   0.573440  -0.026156  -0.023299   0.002729
     4  H   -0.021338   0.360881  -0.026156   0.515657  -0.020142  -0.000326
     5  C   -0.018862   0.342119  -0.023299  -0.020142   4.294866   0.580618
     6  O    0.003301  -0.079798   0.002729  -0.000326   0.580618   8.084798
     7  N    0.003887  -0.123233   0.005885   0.000051   0.269699  -0.095008
     8  H   -0.000025   0.002919   0.000989  -0.000048  -0.018174   0.003690
     9  C   -0.000140   0.007689  -0.000023  -0.000238  -0.028759   0.005870
    10  H    0.000001  -0.000215  -0.000025   0.000016   0.004851   0.000462
    11  C    0.000012  -0.000231  -0.000010  -0.000003  -0.003191  -0.001972
    12  H   -0.000001   0.000036  -0.000010   0.000001   0.002920   0.002665
    13  H    0.000000   0.000005   0.000000   0.000000   0.000099   0.000034
    14  H    0.000000   0.000003   0.000001   0.000000   0.000161  -0.000011
    15  C   -0.000004  -0.000327   0.000027   0.000046   0.006766   0.012868
    16  O    0.000001  -0.000279  -0.000002   0.000136   0.004645  -0.003571
    17  N    0.000001  -0.000054   0.000000   0.000001  -0.000931  -0.004747
    18  H    0.000000   0.000018   0.000000  -0.000001  -0.000019   0.002543
    19  C    0.000000  -0.000001   0.000000   0.000000  -0.000013  -0.000608
    20  H    0.000000   0.000000   0.000000   0.000000  -0.000009   0.000007
    21  H    0.000000   0.000000   0.000000   0.000000  -0.000001  -0.000010
    22  H    0.000000   0.000006   0.000000   0.000000   0.000064   0.001534
              7          8          9         10         11         12
     1  H    0.003887  -0.000025  -0.000140   0.000001   0.000012  -0.000001
     2  C   -0.123233   0.002919   0.007689  -0.000215  -0.000231   0.000036
     3  H    0.005885   0.000989  -0.000023  -0.000025  -0.000010  -0.000010
     4  H    0.000051  -0.000048  -0.000238   0.000016  -0.000003   0.000001
     5  C    0.269699  -0.018174  -0.028759   0.004851  -0.003191   0.002920
     6  O   -0.095008   0.003690   0.005870   0.000462  -0.001972   0.002665
     7  N    7.122945   0.296218   0.241011  -0.036035  -0.061332  -0.005491
     8  H    0.296218   0.417918  -0.028502  -0.006570   0.003585   0.000015
     9  C    0.241011  -0.028502   5.072525   0.366981   0.306273  -0.026715
    10  H   -0.036035  -0.006570   0.366981   0.577255  -0.045979   0.004938
    11  C   -0.061332   0.003585   0.306273  -0.045979   5.202551   0.368187
    12  H   -0.005491   0.000015  -0.026715   0.004938   0.368187   0.546865
    13  H    0.004693  -0.000164  -0.028766  -0.001346   0.358309  -0.029264
    14  H    0.000368   0.000448  -0.019797  -0.004634   0.360769  -0.027766
    15  C   -0.042901   0.002090   0.351396  -0.030239  -0.038741  -0.005065
    16  O    0.000766  -0.000037  -0.075892   0.001838   0.003814  -0.000033
    17  N    0.001270  -0.000131  -0.110137   0.003143   0.005154  -0.000799
    18  H   -0.000235  -0.000004  -0.002446   0.000270   0.003892   0.005541
    19  C   -0.000096   0.000004   0.007155  -0.000167  -0.000319  -0.000050
    20  H   -0.000006   0.000000   0.000365   0.000014  -0.000037   0.000000
    21  H    0.000000   0.000000  -0.000073   0.000006  -0.000027   0.000011
    22  H    0.000004   0.000000  -0.000244  -0.000012   0.000022  -0.000009
             13         14         15         16         17         18
     1  H    0.000000   0.000000  -0.000004   0.000001   0.000001   0.000000
     2  C    0.000005   0.000003  -0.000327  -0.000279  -0.000054   0.000018
     3  H    0.000000   0.000001   0.000027  -0.000002   0.000000   0.000000
     4  H    0.000000   0.000000   0.000046   0.000136   0.000001  -0.000001
     5  C    0.000099   0.000161   0.006766   0.004645  -0.000931  -0.000019
     6  O    0.000034  -0.000011   0.012868  -0.003571  -0.004747   0.002543
     7  N    0.004693   0.000368  -0.042901   0.000766   0.001270  -0.000235
     8  H   -0.000164   0.000448   0.002090  -0.000037  -0.000131  -0.000004
     9  C   -0.028766  -0.019797   0.351396  -0.075892  -0.110137  -0.002446
    10  H   -0.001346  -0.004634  -0.030239   0.001838   0.003143   0.000270
    11  C    0.358309   0.360769  -0.038741   0.003814   0.005154   0.003892
    12  H   -0.029264  -0.027766  -0.005065  -0.000033  -0.000799   0.005541
    13  H    0.563383  -0.025530  -0.000910  -0.000063   0.003167  -0.000933
    14  H   -0.025530   0.560517   0.002894  -0.000070   0.000215  -0.000117
    15  C   -0.000910   0.002894   4.335012   0.553834   0.282584  -0.016564
    16  O   -0.000063  -0.000070   0.553834   8.119160  -0.096321   0.003370
    17  N    0.003167   0.000215   0.282584  -0.096321   7.045119   0.294662
    18  H   -0.000933  -0.000117  -0.016564   0.003370   0.294662   0.408885
    19  C    0.000010   0.000002  -0.027466   0.003392   0.277026  -0.033712
    20  H   -0.000019   0.000001  -0.004006   0.010455  -0.037794   0.004370
    21  H   -0.000013   0.000000   0.004742   0.000610  -0.036074  -0.002160
    22  H    0.000014   0.000000  -0.000895   0.001550  -0.045739  -0.000466
             19         20         21         22
     1  H    0.000000   0.000000   0.000000   0.000000
     2  C   -0.000001   0.000000   0.000000   0.000006
     3  H    0.000000   0.000000   0.000000   0.000000
     4  H    0.000000   0.000000   0.000000   0.000000
     5  C   -0.000013  -0.000009  -0.000001   0.000064
     6  O   -0.000608   0.000007  -0.000010   0.001534
     7  N   -0.000096  -0.000006   0.000000   0.000004
     8  H    0.000004   0.000000   0.000000   0.000000
     9  C    0.007155   0.000365  -0.000073  -0.000244
    10  H   -0.000167   0.000014   0.000006  -0.000012
    11  C   -0.000319  -0.000037  -0.000027   0.000022
    12  H   -0.000050   0.000000   0.000011  -0.000009
    13  H    0.000010  -0.000019  -0.000013   0.000014
    14  H    0.000002   0.000001   0.000000   0.000000
    15  C   -0.027466  -0.004006   0.004742  -0.000895
    16  O    0.003392   0.010455   0.000610   0.001550
    17  N    0.277026  -0.037794  -0.036074  -0.045739
    18  H   -0.033712   0.004370  -0.002160  -0.000466
    19  C    4.942618   0.382315   0.371632   0.383389
    20  H    0.382315   0.515280  -0.024877  -0.033153
    21  H    0.371632  -0.024877   0.577028  -0.036431
    22  H    0.383389  -0.033153  -0.036431   0.556542
 Mulliken atomic charges:
              1
     1  H    0.186527
     2  C   -0.546775
     3  H    0.150381
     4  H    0.191462
     5  C    0.606593
     6  O   -0.515066
     7  N   -0.582459
     8  H    0.325781
     9  C   -0.037531
    10  H    0.165448
    11  C   -0.460723
    12  H    0.164024
    13  H    0.157294
    14  H    0.152546
    15  C    0.614861
    16  O   -0.527302
    17  N   -0.579613
    18  H    0.333106
    19  C   -0.305113
    20  H    0.187096
    21  H    0.145637
    22  H    0.173825
 Sum of Mulliken atomic charges =   0.00000
 Mulliken charges with hydrogens summed into heavy atoms:
              1
     2  C   -0.018405
     5  C    0.606593
     6  O   -0.515066
     7  N   -0.256678
     9  C    0.127917
    11  C    0.013141
    15  C    0.614861
    16  O   -0.527302
    17  N   -0.246507
    19  C    0.201446
 Sum of Mulliken charges with hydrogens summed into heavy atoms =   0.00000
 Electronic spatial extent (au):  <R**2>=           1598.3742
 Charge=              0.0000 electrons
 Dipole moment (field-independent basis, Debye):
    X=              1.2062    Y=              2.7973    Z=             -0.5674  Tot=              3.0987
 Quadrupole moment (field-independent basis, Debye-Ang):
   XX=            -49.6347   YY=            -58.8695   ZZ=            -63.0407
   XY=              0.8433   XZ=              7.3973   YZ=              1.9418
 Traceless Quadrupole moment (field-independent basis, Debye-Ang):
   XX=              7.5469   YY=             -1.6879   ZZ=             -5.8590
   XY=              0.8433   XZ=              7.3973   YZ=              1.9418
 Octapole moment (field-independent basis, Debye-Ang**2):
  XXX=              8.8260  YYY=             -1.8670  ZZZ=             -5.2214  XYY=              0.4386
  XXY=            -10.2363  XXZ=             -0.8592  XZZ=              1.5046  YZZ=              7.4199
  YYZ=              4.0193  XYZ=             -0.6226
 Hexadecapole moment (field-independent basis, Debye-Ang**3):
 XXXX=          -1168.8301 YYYY=           -566.5791 ZZZZ=           -268.7375 XXXY=             15.4616
 XXXZ=             14.2020 YYYX=              4.7745 YYYZ=              5.4452 ZZZX=             12.4371
 ZZZY=              7.3949 XXYY=           -287.5346 XXZZ=           -237.5389 YYZZ=           -139.7471
 XXYZ=              8.8487 YYXZ=              6.4090 ZZXY=             -0.5754
 N-N= 5.693354380300D+02 E-N=-2.295071227844D+03  KE= 4.912410172182D+02
 1\1\GINC-NODE002\FOpt\RB3LYP\6-31G(d)\C6H12N2O2\STEBOSS\11-Feb-2017\0\
 \# b3lyp/6-31G* Opt=(ModRedundant, maxcycles=1000, calcfc) geom=nocrow
 d\\Phi Psi fixed scan\\0,1\H,0.5034927839,3.993026777,-1.3412464586\C,
 1.1651938402,3.8844146542,-0.4795978339\H,1.2295074589,2.8277278876,-0
 .1997971495\H,0.7237965202,4.4377537993,0.3578664604\C,2.5153625699,4.
 4957472889,-0.8161337226\O,2.6338180077,5.4544112086,-1.5691601968\N,3
 .5997665774,3.8843086426,-0.2349120625\H,3.3930305387,3.211432696,0.49
 11485006\C,4.9086943612,4.5475254067,-0.1246435049\H,5.3188355266,4.25
 68544218,0.8476946833\C,5.8533124423,4.0587167654,-1.231631828\H,5.428
 5943862,4.2575313937,-2.2219234796\H,6.8345064856,4.539469251,-1.15777
 72989\H,5.9937098135,2.9760004003,-1.1509470073\C,4.7361708727,6.08657
 43041,-0.0077744111\O,4.191739282,6.5520814691,0.9847913826\N,5.313816
 8586,6.8563935273,-0.9749342254\H,5.4423129478,6.4181765058,-1.8762404
 498\C,5.054609292,8.2894206694,-0.989188585\H,5.184310033,8.6788408174
 ,0.021681698\H,5.7667568444,8.7763424852,-1.6608586923\H,4.0309625574,
 8.5130496285,-1.3159158187\\Version=EM64L-G09RevA.02\State=1-A\HF=-495
 .8412078\RMSD=7.826e-09\RMSF=1.850e-03\Dipole=0.4561136,-1.1025007,-0.
 2504617\Quadrupole=1.1981396,3.0325981,-4.2307377,3.2426861,-2.9491261
 ,-5.0261531\PG=C01 [X(C6H12N2O2)]\\@


 WE HAVE LEFT UNDONE THOSE THINGS WHICH WE OUGHT TO HAVE DONE,
 AND WE HAVE DONE THOSE THINGS WHICH WE OUGHT NOT TO HAVE DONE.
                   BOOK OF COMMON PRAYER                      
 Job cpu time:  0 days  2 hours 25 minutes 54.5 seconds.
 File lengths (MBytes):  RWF=    186 Int=      0 D2E=      0 Chk=      4 Scr=      2
 Normal termination of Gaussian 09 at Sat Feb 11 00:05:07 2017.
