 Entering Gaussian System, Link 0=g09
 Initial command:
 /home/steboss/Software/g09/l1.exe /home/steboss/projects/phi_psi_scan/alanine/30/4495/Gau-10853.inp -scrdir=/home/steboss/projects/phi_psi_scan/alanine/30/4495/
 Entering Link 1 = /home/steboss/Software/g09/l1.exe PID=     10855.
  
 Copyright (c) 1988,1990,1992,1993,1995,1998,2003,2009, Gaussian, Inc.
                  All Rights Reserved.
  
 This is part of the Gaussian(R) 09 program.  It is based on
 the Gaussian(R) 03 system (copyright 2003, Gaussian, Inc.),
 the Gaussian(R) 98 system (copyright 1998, Gaussian, Inc.),
 the Gaussian(R) 94 system (copyright 1995, Gaussian, Inc.),
 the Gaussian 92(TM) system (copyright 1992, Gaussian, Inc.),
 the Gaussian 90(TM) system (copyright 1990, Gaussian, Inc.),
 the Gaussian 88(TM) system (copyright 1988, Gaussian, Inc.),
 the Gaussian 86(TM) system (copyright 1986, Carnegie Mellon
 University), and the Gaussian 82(TM) system (copyright 1983,
 Carnegie Mellon University). Gaussian is a federally registered
 trademark of Gaussian, Inc.
  
 This software contains proprietary and confidential information,
 including trade secrets, belonging to Gaussian, Inc.
  
 This software is provided under written license and may be
 used, copied, transmitted, or stored only in accord with that
 written license.
  
 The following legend is applicable only to US Government
 contracts under FAR:
  
                    RESTRICTED RIGHTS LEGEND
  
 Use, reproduction and disclosure by the US Government is
 subject to restrictions as set forth in subparagraphs (a)
 and (c) of the Commercial Computer Software - Restricted
 Rights clause in FAR 52.227-19.
  
 Gaussian, Inc.
 340 Quinnipiac St., Bldg. 40, Wallingford CT 06492
  
  
 ---------------------------------------------------------------
 Warning -- This program may not be used in any manner that
 competes with the business of Gaussian, Inc. or will provide
 assistance to any competitor of Gaussian, Inc.  The licensee
 of this program is prohibited from giving any competitor of
 Gaussian, Inc. access to this program.  By using this program,
 the user acknowledges that Gaussian, Inc. is engaged in the
 business of creating and licensing software in the field of
 computational chemistry and represents and warrants to the
 licensee that it is not a competitor of Gaussian, Inc. and that
 it will not use this program in any manner prohibited above.
 ---------------------------------------------------------------
  

 Cite this work as:
 Gaussian 09, Revision A.02,
 M. J. Frisch, G. W. Trucks, H. B. Schlegel, G. E. Scuseria, 
 M. A. Robb, J. R. Cheeseman, G. Scalmani, V. Barone, B. Mennucci, 
 G. A. Petersson, H. Nakatsuji, M. Caricato, X. Li, H. P. Hratchian, 
 A. F. Izmaylov, J. Bloino, G. Zheng, J. L. Sonnenberg, M. Hada, 
 M. Ehara, K. Toyota, R. Fukuda, J. Hasegawa, M. Ishida, T. Nakajima, 
 Y. Honda, O. Kitao, H. Nakai, T. Vreven, J. A. Montgomery, Jr., 
 J. E. Peralta, F. Ogliaro, M. Bearpark, J. J. Heyd, E. Brothers, 
 K. N. Kudin, V. N. Staroverov, R. Kobayashi, J. Normand, 
 K. Raghavachari, A. Rendell, J. C. Burant, S. S. Iyengar, J. Tomasi, 
 M. Cossi, N. Rega, J. M. Millam, M. Klene, J. E. Knox, J. B. Cross, 
 V. Bakken, C. Adamo, J. Jaramillo, R. Gomperts, R. E. Stratmann, 
 O. Yazyev, A. J. Austin, R. Cammi, C. Pomelli, J. W. Ochterski, 
 R. L. Martin, K. Morokuma, V. G. Zakrzewski, G. A. Voth, 
 P. Salvador, J. J. Dannenberg, S. Dapprich, A. D. Daniels, 
 O. Farkas, J. B. Foresman, J. V. Ortiz, J. Cioslowski, 
 and D. J. Fox, Gaussian, Inc., Wallingford CT, 2009.
 
 ******************************************
 Gaussian 09:  EM64L-G09RevA.02 11-Jun-2009
                10-Feb-2017 
 ******************************************
 %chk=structure_195.chk
 %NProcShared=8
 Will use up to    8 processors via shared memory.
 ----------------------------------------------------------------------
 # b3lyp/6-31G* Opt=(ModRedundant, maxcycles=1000, calcfc) geom=nocrowd
 ----------------------------------------------------------------------
 1/6=1000,10=4,14=-1,18=120,19=15,26=3,38=1/1,3;
 2/9=110,12=1,17=6,18=5,40=1/2;
 3/5=1,6=6,7=1,11=2,16=1,25=1,30=1,71=2,74=-5/1,2,3;
 4//1;
 5/5=2,38=5/2;
 8/6=4,10=90,11=11/1;
 11/6=1,8=1,9=11,15=111,16=1/1,2,10;
 10/6=1,7=6,13=1/2;
 6/7=2,8=2,9=2,10=2,28=1/1;
 7/10=1,18=20,25=1/1,2,3,16;
 1/6=1000,10=4,14=-1,18=20,19=15/3(2);
 2/9=110,12=1/2;
 99//99;
 2/9=110,12=1/2;
 3/5=1,6=6,7=1,11=2,16=1,25=1,30=1,71=1,74=-5/1,2,3;
 4/5=5,16=3/1;
 5/5=2,38=5/2;
 7//1,2,3,16;
 1/6=1000,14=-1,18=20,19=15/3(-5);
 2/9=110,12=1/2;
 6/7=2,8=2,9=2,10=2,19=2,28=1/1;
 99/9=1/99;
 ------------------
 Phi Psi fixed scan
 ------------------
 Symbolic Z-matrix:
 Charge =  0 Multiplicity = 1
 H                     0.3668    4.29     -0.9842 
 C                     1.1769    3.7481   -0.496 
 H                     1.3209    2.787    -0.9895 
 H                     0.9253    3.584     0.5517 
 C                     2.4871    4.5351   -0.5667 
 O                     2.5276    5.6304   -1.1227 
 N                     3.5554    3.9697    0. 
 H                     3.4723    3.067     0.4455 
 C                     4.8533    4.6139    0. 
 H                     5.4076    4.3155    0.8898 
 C                     5.6613    4.2208   -1.2322 
 H                     5.1233    4.5214   -2.1312 
 H                     6.6305    4.7189   -1.2058 
 H                     5.8085    3.1409   -1.2414 
 C                     4.7127    6.1294    0. 
 O                     3.6366    6.656     0.2741 
 N                     5.8056    6.8311   -0.3089 
 H                     6.6679    6.3528   -0.5272 
 C                     5.801     8.2797   -0.3436 
 H                     4.8071    8.6467   -0.0875 
 H                     6.5256    8.6631    0.3748 
 H                     6.0669    8.6206   -1.3442 
 
 The following ModRedundant input section has been read:
 D    5    7    9   15 F                                                       
 D    7    9   15   17 F                                                       

 GradGradGradGradGradGradGradGradGradGradGradGradGradGradGradGradGradGrad
 Berny optimization.
 Initialization pass.
                           ----------------------------
                           !    Initial Parameters    !
                           ! (Angstroms and Degrees)  !
 --------------------------                            --------------------------
 ! Name  Definition              Value          Derivative Info.                !
 --------------------------------------------------------------------------------
 ! R1    R(1,2)                  1.0901         calculate D2E/DX2 analytically  !
 ! R2    R(2,3)                  1.09           calculate D2E/DX2 analytically  !
 ! R3    R(2,4)                  1.0899         calculate D2E/DX2 analytically  !
 ! R4    R(2,5)                  1.53           calculate D2E/DX2 analytically  !
 ! R5    R(5,6)                  1.229          calculate D2E/DX2 analytically  !
 ! R6    R(5,7)                  1.3349         calculate D2E/DX2 analytically  !
 ! R7    R(7,8)                  1.0101         calculate D2E/DX2 analytically  !
 ! R8    R(7,9)                  1.449          calculate D2E/DX2 analytically  !
 ! R9    R(9,10)                 1.09           calculate D2E/DX2 analytically  !
 ! R10   R(9,11)                 1.525          calculate D2E/DX2 analytically  !
 ! R11   R(9,15)                 1.522          calculate D2E/DX2 analytically  !
 ! R12   R(11,12)                1.09           calculate D2E/DX2 analytically  !
 ! R13   R(11,13)                1.09           calculate D2E/DX2 analytically  !
 ! R14   R(11,14)                1.0899         calculate D2E/DX2 analytically  !
 ! R15   R(15,16)                1.229          calculate D2E/DX2 analytically  !
 ! R16   R(15,17)                1.335          calculate D2E/DX2 analytically  !
 ! R17   R(17,18)                1.0099         calculate D2E/DX2 analytically  !
 ! R18   R(17,19)                1.449          calculate D2E/DX2 analytically  !
 ! R19   R(19,20)                1.09           calculate D2E/DX2 analytically  !
 ! R20   R(19,21)                1.09           calculate D2E/DX2 analytically  !
 ! R21   R(19,22)                1.09           calculate D2E/DX2 analytically  !
 ! A1    A(1,2,3)              109.4971         calculate D2E/DX2 analytically  !
 ! A2    A(1,2,4)              109.5001         calculate D2E/DX2 analytically  !
 ! A3    A(1,2,5)              111.0994         calculate D2E/DX2 analytically  !
 ! A4    A(3,2,4)              109.4493         calculate D2E/DX2 analytically  !
 ! A5    A(3,2,5)              108.6331         calculate D2E/DX2 analytically  !
 ! A6    A(4,2,5)              108.6352         calculate D2E/DX2 analytically  !
 ! A7    A(2,5,6)              120.4996         calculate D2E/DX2 analytically  !
 ! A8    A(2,5,7)              116.6031         calculate D2E/DX2 analytically  !
 ! A9    A(6,5,7)              122.8973         calculate D2E/DX2 analytically  !
 ! A10   A(5,7,8)              119.9941         calculate D2E/DX2 analytically  !
 ! A11   A(5,7,9)              121.9053         calculate D2E/DX2 analytically  !
 ! A12   A(8,7,9)              118.1007         calculate D2E/DX2 analytically  !
 ! A13   A(7,9,10)             109.5            calculate D2E/DX2 analytically  !
 ! A14   A(7,9,11)             111.0992         calculate D2E/DX2 analytically  !
 ! A15   A(7,9,15)             111.0966         calculate D2E/DX2 analytically  !
 ! A16   A(10,9,11)            108.6382         calculate D2E/DX2 analytically  !
 ! A17   A(10,9,15)            108.6373         calculate D2E/DX2 analytically  !
 ! A18   A(11,9,15)            107.7947         calculate D2E/DX2 analytically  !
 ! A19   A(9,11,12)            109.5007         calculate D2E/DX2 analytically  !
 ! A20   A(9,11,13)            109.4959         calculate D2E/DX2 analytically  !
 ! A21   A(9,11,14)            109.4978         calculate D2E/DX2 analytically  !
 ! A22   A(12,11,13)           109.441          calculate D2E/DX2 analytically  !
 ! A23   A(12,11,14)           109.4482         calculate D2E/DX2 analytically  !
 ! A24   A(13,11,14)           109.4436         calculate D2E/DX2 analytically  !
 ! A25   A(9,15,16)            120.4997         calculate D2E/DX2 analytically  !
 ! A26   A(9,15,17)            116.599          calculate D2E/DX2 analytically  !
 ! A27   A(16,15,17)           122.9013         calculate D2E/DX2 analytically  !
 ! A28   A(15,17,18)           120.0038         calculate D2E/DX2 analytically  !
 ! A29   A(15,17,19)           121.8978         calculate D2E/DX2 analytically  !
 ! A30   A(18,17,19)           118.0984         calculate D2E/DX2 analytically  !
 ! A31   A(17,19,20)           109.5036         calculate D2E/DX2 analytically  !
 ! A32   A(17,19,21)           109.496          calculate D2E/DX2 analytically  !
 ! A33   A(17,19,22)           109.5037         calculate D2E/DX2 analytically  !
 ! A34   A(20,19,21)           109.443          calculate D2E/DX2 analytically  !
 ! A35   A(20,19,22)           109.4397         calculate D2E/DX2 analytically  !
 ! A36   A(21,19,22)           109.4414         calculate D2E/DX2 analytically  !
 ! D1    D(1,2,5,6)              0.003          calculate D2E/DX2 analytically  !
 ! D2    D(1,2,5,7)            179.9971         calculate D2E/DX2 analytically  !
 ! D3    D(3,2,5,6)            120.5094         calculate D2E/DX2 analytically  !
 ! D4    D(3,2,5,7)            -59.4964         calculate D2E/DX2 analytically  !
 ! D5    D(4,2,5,6)           -120.5085         calculate D2E/DX2 analytically  !
 ! D6    D(4,2,5,7)             59.4856         calculate D2E/DX2 analytically  !
 ! D7    D(2,5,7,8)              0.0039         calculate D2E/DX2 analytically  !
 ! D8    D(2,5,7,9)            179.9999         calculate D2E/DX2 analytically  !
 ! D9    D(6,5,7,8)            179.998          calculate D2E/DX2 analytically  !
 ! D10   D(6,5,7,9)             -0.0061         calculate D2E/DX2 analytically  !
 ! D11   D(5,7,9,10)           150.0036         calculate D2E/DX2 analytically  !
 ! D12   D(5,7,9,11)           -89.9938         calculate D2E/DX2 analytically  !
 ! D13   D(5,7,9,15)            30.0038         frozen, calculate D2E/DX2 analyt!
 ! D14   D(8,7,9,10)           -30.0003         calculate D2E/DX2 analytically  !
 ! D15   D(8,7,9,11)            90.0022         calculate D2E/DX2 analytically  !
 ! D16   D(8,7,9,15)          -150.0002         calculate D2E/DX2 analytically  !
 ! D17   D(7,9,11,12)           60.0024         calculate D2E/DX2 analytically  !
 ! D18   D(7,9,11,13)          179.9986         calculate D2E/DX2 analytically  !
 ! D19   D(7,9,11,14)          -60.0038         calculate D2E/DX2 analytically  !
 ! D20   D(10,9,11,12)        -179.4843         calculate D2E/DX2 analytically  !
 ! D21   D(10,9,11,13)         -59.4881         calculate D2E/DX2 analytically  !
 ! D22   D(10,9,11,14)          60.5095         calculate D2E/DX2 analytically  !
 ! D23   D(15,9,11,12)         -61.938          calculate D2E/DX2 analytically  !
 ! D24   D(15,9,11,13)          58.0582         calculate D2E/DX2 analytically  !
 ! D25   D(15,9,11,14)         178.0558         calculate D2E/DX2 analytically  !
 ! D26   D(7,9,15,16)           15.0014         calculate D2E/DX2 analytically  !
 ! D27   D(7,9,15,17)         -165.0027         frozen, calculate D2E/DX2 analyt!
 ! D28   D(10,9,15,16)        -105.5096         calculate D2E/DX2 analytically  !
 ! D29   D(10,9,15,17)          74.4862         calculate D2E/DX2 analytically  !
 ! D30   D(11,9,15,16)         136.9435         calculate D2E/DX2 analytically  !
 ! D31   D(11,9,15,17)         -43.0607         calculate D2E/DX2 analytically  !
 ! D32   D(9,15,17,18)           0.0073         calculate D2E/DX2 analytically  !
 ! D33   D(9,15,17,19)         179.9965         calculate D2E/DX2 analytically  !
 ! D34   D(16,15,17,18)       -179.9969         calculate D2E/DX2 analytically  !
 ! D35   D(16,15,17,19)         -0.0077         calculate D2E/DX2 analytically  !
 ! D36   D(15,17,19,20)          0.0059         calculate D2E/DX2 analytically  !
 ! D37   D(15,17,19,21)        120.0063         calculate D2E/DX2 analytically  !
 ! D38   D(15,17,19,22)       -119.9951         calculate D2E/DX2 analytically  !
 ! D39   D(18,17,19,20)        179.9953         calculate D2E/DX2 analytically  !
 ! D40   D(18,17,19,21)        -60.0043         calculate D2E/DX2 analytically  !
 ! D41   D(18,17,19,22)         59.9943         calculate D2E/DX2 analytically  !
 --------------------------------------------------------------------------------
 Trust Radius=3.00D-01 FncErr=1.00D-07 GrdErr=1.00D-06
 Number of steps in this run= 132 maximum allowed number of steps= 132.
 GradGradGradGradGradGradGradGradGradGradGradGradGradGradGradGradGradGrad

                          Input orientation:                          
 ---------------------------------------------------------------------
 Center     Atomic      Atomic             Coordinates (Angstroms)
 Number     Number       Type             X           Y           Z
 ---------------------------------------------------------------------
      1          1           0        0.366800    4.290000   -0.984200
      2          6           0        1.176900    3.748100   -0.496000
      3          1           0        1.320900    2.787000   -0.989500
      4          1           0        0.925300    3.584000    0.551700
      5          6           0        2.487100    4.535100   -0.566700
      6          8           0        2.527600    5.630400   -1.122700
      7          7           0        3.555400    3.969700    0.000000
      8          1           0        3.472300    3.067000    0.445500
      9          6           0        4.853300    4.613900    0.000000
     10          1           0        5.407600    4.315500    0.889800
     11          6           0        5.661300    4.220800   -1.232200
     12          1           0        5.123300    4.521400   -2.131200
     13          1           0        6.630500    4.718900   -1.205800
     14          1           0        5.808500    3.140900   -1.241400
     15          6           0        4.712700    6.129400    0.000000
     16          8           0        3.636600    6.656000    0.274100
     17          7           0        5.805600    6.831100   -0.308900
     18          1           0        6.667900    6.352800   -0.527200
     19          6           0        5.801000    8.279700   -0.343600
     20          1           0        4.807100    8.646700   -0.087500
     21          1           0        6.525600    8.663100    0.374800
     22          1           0        6.066900    8.620600   -1.344200
 ---------------------------------------------------------------------
                    Distance matrix (angstroms):
                    1          2          3          4          5
     1  H    0.000000
     2  C    1.090072   0.000000
     3  H    1.780265   1.089950   0.000000
     4  H    1.780266   1.089911   1.779608   0.000000
     5  C    2.174868   1.530030   2.143510   2.143509   0.000000
     6  O    2.546549   2.400041   3.091729   3.091720   1.229007
     7  N    3.352374   2.439751   2.714936   2.714878   1.334950
     8  H    3.630964   2.572777   2.601182   2.601111   2.037274
     9  C    4.604589   3.809402   4.098112   4.098079   2.434391
    10  H    5.377936   4.487896   4.750705   4.554165   3.270923
    11  C    5.300757   4.568947   4.577527   5.100736   3.258408
    12  H    4.898311   4.341192   4.332421   5.069504   3.065518
    13  H    6.282277   5.584624   5.654279   6.076686   4.196426
    14  H    5.567646   4.730331   4.508575   5.220842   3.664794
    15  C    4.820673   4.291677   4.863646   4.596502   2.795753
    16  O    4.227631   3.885751   4.682768   4.106750   2.554704
    17  N    6.041007   5.564599   6.077047   5.924662   4.043578
    18  H    6.645890   6.077542   6.443529   6.465890   4.559022
    19  C    6.771898   6.476181   7.117460   6.828148   5.005371
    20  H    6.284996   6.110770   6.877738   6.411543   4.745238
    21  H    7.674744   7.316017   7.967356   7.562533   5.851178
    22  H    7.167624   6.955056   7.528693   7.442972   5.487329
                    6          7          8          9         10
     6  O    0.000000
     7  N    2.252721   0.000000
     8  H    3.150036   1.010071   0.000000
     9  C    2.775357   1.448978   2.120974   0.000000
    10  H    3.751469   2.083739   2.345536   1.089970   0.000000
    11  C    3.437883   2.452791   2.989591   1.525027   2.139209
    12  H    2.997434   2.702720   3.388283   2.150225   3.041326
    13  H    4.203751   3.386959   3.928077   2.150214   2.459625
    14  H    4.120195   2.702673   2.882520   2.150165   2.466256
    15  C    2.506814   2.450234   3.333970   1.522008   2.136554
    16  O    2.057374   2.701468   3.596845   2.392836   2.998911
    17  N    3.584583   3.653277   4.492422   2.432750   2.814876
    18  H    4.244828   3.955346   4.685561   2.567973   2.783314
    19  C    4.282632   4.872051   5.763485   3.801879   4.170242
    20  H    3.919927   4.842390   5.761843   4.034014   4.480514
    21  H    5.236772   5.566917   6.375263   4.396940   4.518493
    22  H    4.638642   5.453932   6.385722   4.396970   4.894826
                   11         12         13         14         15
    11  C    0.000000
    12  H    1.089957   0.000000
    13  H    1.090023   1.779613   0.000000
    14  H    1.089925   1.779613   1.779617   0.000000
    15  C    2.461892   2.701161   2.668599   3.416575   0.000000
    16  O    3.506929   3.542917   3.860816   4.401116   1.228995
    17  N    2.772539   3.020103   2.438499   3.806198   1.335003
    18  H    2.460832   2.883163   1.769612   3.400728   2.037315
    19  C    4.157378   4.216587   3.756429   5.216643   2.434389
    20  H    4.650654   4.614628   4.472471   5.713853   2.520589
    21  H    4.802447   5.039857   4.250413   5.798364   3.137948
    22  H    4.419875   4.279391   3.944624   5.486752   3.137963
                   16         17         18         19         20
    16  O    0.000000
    17  N    2.252800   0.000000
    18  H    3.150046   1.009944   0.000000
    19  C    2.775353   1.449023   2.120889   0.000000
    20  H    2.337458   2.083848   2.986284   1.090006   0.000000
    21  H    3.519220   2.083763   2.484218   1.090018   1.779672
    22  H    3.519220   2.083851   2.484272   1.090007   1.779627
                   21         22
    21  H    0.000000
    22  H    1.779655   0.000000
 Stoichiometry    C6H12N2O2
 Framework group  C1[X(C6H12N2O2)]
 Deg. of freedom    60
 Full point group                 C1      NOp   1
 Largest Abelian subgroup         C1      NOp   1
 Largest concise Abelian subgroup C1      NOp   1
                         Standard orientation:                         
 ---------------------------------------------------------------------
 Center     Atomic      Atomic             Coordinates (Angstroms)
 Number     Number       Type             X           Y           Z
 ---------------------------------------------------------------------
      1          1           0       -3.554467   -1.506801    0.625389
      2          6           0       -3.289006   -0.621407    0.047580
      3          1           0       -3.834932    0.240470    0.431150
      4          1           0       -3.548474   -0.778832   -0.999225
      5          6           0       -1.789600   -0.331625    0.141387
      6          8           0       -1.054304   -1.058057    0.806289
      7          7           0       -1.343537    0.733500   -0.528409
      8          1           0       -1.987225    1.300687   -1.061521
      9          6           0        0.054684    1.113541   -0.519198
     10          1           0        0.304141    1.605750   -1.459164
     11          6           0        0.355414    2.072423    0.627892
     12          1           0        0.119289    1.590351    1.576500
     13          1           0        1.411756    2.340718    0.610320
     14          1           0       -0.249388    2.972434    0.517752
     15          6           0        0.952387   -0.104489   -0.354753
     16          8           0        0.504928   -1.236548   -0.524021
     17          7           0        2.224089    0.130583   -0.023474
     18          1           0        2.545418    1.079393    0.104952
     19          6           0        3.178111   -0.944111    0.162385
     20          1           0        2.685933   -1.901393   -0.009329
     21          1           0        4.000177   -0.826966   -0.543748
     22          1           0        3.566984   -0.913554    1.180206
 ---------------------------------------------------------------------
 Rotational constants (GHZ):      2.4996009      0.9257560      0.7529307
 Standard basis: 6-31G(d) (6D, 7F)
 There are   174 symmetry adapted basis functions of A   symmetry.
 Integral buffers will be    131072 words long.
 Raffenetti 2 integral format.
 Two-electron integral symmetry is turned on.
   174 basis functions,   328 primitive gaussians,   174 cartesian basis functions
    39 alpha electrons       39 beta electrons
       nuclear repulsion energy       579.6398515639 Hartrees.
 NAtoms=   22 NActive=   22 NUniq=   22 SFac= 7.50D-01 NAtFMM=   80 NAOKFM=F Big=F
 One-electron integrals computed using PRISM.
 NBasis=   174 RedAO= T  NBF=   174
 NBsUse=   174 1.00D-06 NBFU=   174
 Harris functional with IExCor=  402 diagonalized for initial guess.
 ExpMin= 1.61D-01 ExpMax= 5.48D+03 ExpMxC= 8.25D+02 IAcc=1 IRadAn=         1 AccDes= 0.00D+00
 HarFok:  IExCor=  402 AccDes= 0.00D+00 IRadAn=         1 IDoV= 1
 ScaDFX=  1.000000  1.000000  1.000000  1.000000
 FoFCou: FMM=F IPFlag=           0 FMFlag=      100000 FMFlg1=           0
         NFxFlg=           0 DoJE=T BraDBF=F KetDBF=T FulRan=T
         Omega=  0.000000  0.000000  1.000000  0.000000  0.000000 ICntrl=     500 IOpCl=  0
         NMat0=    1 NMatS0=    1 NMatT0=    0 NMatD0=    1 NMtDS0=    0 NMtDT0=    0
         I1Cent=           4 NGrid=           0.
 Petite list used in FoFCou.
 Initial guess orbital symmetries:
       Occupied  (A) (A) (A) (A) (A) (A) (A) (A) (A) (A) (A) (A)
                 (A) (A) (A) (A) (A) (A) (A) (A) (A) (A) (A) (A)
                 (A) (A) (A) (A) (A) (A) (A) (A) (A) (A) (A) (A)
                 (A) (A) (A)
       Virtual   (A) (A) (A) (A) (A) (A) (A) (A) (A) (A) (A) (A)
                 (A) (A) (A) (A) (A) (A) (A) (A) (A) (A) (A) (A)
                 (A) (A) (A) (A) (A) (A) (A) (A) (A) (A) (A) (A)
                 (A) (A) (A) (A) (A) (A) (A) (A) (A) (A) (A) (A)
                 (A) (A) (A) (A) (A) (A) (A) (A) (A) (A) (A) (A)
                 (A) (A) (A) (A) (A) (A) (A) (A) (A) (A) (A) (A)
                 (A) (A) (A) (A) (A) (A) (A) (A) (A) (A) (A) (A)
                 (A) (A) (A) (A) (A) (A) (A) (A) (A) (A) (A) (A)
                 (A) (A) (A) (A) (A) (A) (A) (A) (A) (A) (A) (A)
                 (A) (A) (A) (A) (A) (A) (A) (A) (A) (A) (A) (A)
                 (A) (A) (A) (A) (A) (A) (A) (A) (A) (A) (A) (A)
                 (A) (A) (A)
 The electronic state of the initial guess is 1-A.
 Requested convergence on RMS density matrix=1.00D-08 within 128 cycles.
 Requested convergence on MAX density matrix=1.00D-06.
 Requested convergence on             energy=1.00D-06.
 No special actions if energy rises.
 Integral accuracy reduced to 1.0D-05 until final iterations.
 Initial convergence to 1.0D-05 achieved.  Increase integral accuracy.
 SCF Done:  E(RB3LYP) =  -495.787605393     A.U. after   16 cycles
             Convg  =    0.2575D-08             -V/T =  2.0082
 Range of M.O.s used for correlation:     1   174
 NBasis=   174 NAE=    39 NBE=    39 NFC=     0 NFV=     0
 NROrb=    174 NOA=    39 NOB=    39 NVA=   135 NVB=   135
 Symmetrizing basis deriv contribution to polar:
 IMax=3 JMax=2 DiffMx= 0.00D+00
 G2DrvN: will do    23 centers at a time, making    1 passes doing MaxLOS=2.
 Calling FoFCou, ICntrl=  3107 FMM=F I1Cent=   0 AccDes= 0.00D+00.
 FoFDir/FoFCou used for L=0 through L=2.
 End of G2Drv Frequency-dependent properties file   721 does not exist.
 End of G2Drv Frequency-dependent properties file   722 does not exist.
          IDoAtm=1111111111111111111111
          Differentiating once with respect to nuclear coordinates.
          There are    69 degrees of freedom in the 1st order CPHF.  IDoFFX=5.
     63 vectors produced by pass  0 Test12= 7.63D-11 1.45D-07 XBig12= 1.63D-01 7.45D-02.
 AX will form    63 AO Fock derivatives at one time.
     63 vectors produced by pass  1 Test12= 7.63D-11 1.45D-07 XBig12= 3.73D-02 5.05D-02.
     63 vectors produced by pass  2 Test12= 7.63D-11 1.45D-07 XBig12= 5.49D-05 1.19D-03.
     63 vectors produced by pass  3 Test12= 7.63D-11 1.45D-07 XBig12= 2.23D-07 5.22D-05.
     29 vectors produced by pass  4 Test12= 7.63D-11 1.45D-07 XBig12= 2.66D-10 1.31D-06.
 Inverted reduced A of dimension   281 with in-core refinement.
 End of Minotr Frequency-dependent properties file   721 does not exist.
 End of Minotr Frequency-dependent properties file   722 does not exist.

 **********************************************************************

            Population analysis using the SCF density.

 **********************************************************************

 Orbital symmetries:
       Occupied  (A) (A) (A) (A) (A) (A) (A) (A) (A) (A) (A) (A)
                 (A) (A) (A) (A) (A) (A) (A) (A) (A) (A) (A) (A)
                 (A) (A) (A) (A) (A) (A) (A) (A) (A) (A) (A) (A)
                 (A) (A) (A)
       Virtual   (A) (A) (A) (A) (A) (A) (A) (A) (A) (A) (A) (A)
                 (A) (A) (A) (A) (A) (A) (A) (A) (A) (A) (A) (A)
                 (A) (A) (A) (A) (A) (A) (A) (A) (A) (A) (A) (A)
                 (A) (A) (A) (A) (A) (A) (A) (A) (A) (A) (A) (A)
                 (A) (A) (A) (A) (A) (A) (A) (A) (A) (A) (A) (A)
                 (A) (A) (A) (A) (A) (A) (A) (A) (A) (A) (A) (A)
                 (A) (A) (A) (A) (A) (A) (A) (A) (A) (A) (A) (A)
                 (A) (A) (A) (A) (A) (A) (A) (A) (A) (A) (A) (A)
                 (A) (A) (A) (A) (A) (A) (A) (A) (A) (A) (A) (A)
                 (A) (A) (A) (A) (A) (A) (A) (A) (A) (A) (A) (A)
                 (A) (A) (A) (A) (A) (A) (A) (A) (A) (A) (A) (A)
                 (A) (A) (A)
 The electronic state is 1-A.
 Alpha  occ. eigenvalues --  -19.07876 -19.07528 -14.35349 -14.35083 -10.26192
 Alpha  occ. eigenvalues --  -10.26013 -10.23559 -10.20759 -10.18900 -10.17466
 Alpha  occ. eigenvalues --   -1.02920  -0.99221  -0.92057  -0.91033  -0.78538
 Alpha  occ. eigenvalues --   -0.71947  -0.69944  -0.64802  -0.59502  -0.57646
 Alpha  occ. eigenvalues --   -0.52446  -0.49762  -0.44868  -0.44820  -0.44396
 Alpha  occ. eigenvalues --   -0.43671  -0.42449  -0.41474  -0.39642  -0.38663
 Alpha  occ. eigenvalues --   -0.38028  -0.37585  -0.36506  -0.35133  -0.31905
 Alpha  occ. eigenvalues --   -0.26233  -0.23668  -0.22742  -0.17691
 Alpha virt. eigenvalues --    0.03479   0.06208   0.06524   0.08646   0.12552
 Alpha virt. eigenvalues --    0.13168   0.13801   0.15109   0.16437   0.17197
 Alpha virt. eigenvalues --    0.17431   0.17776   0.18525   0.18671   0.20503
 Alpha virt. eigenvalues --    0.22214   0.24869   0.26752   0.28671   0.34298
 Alpha virt. eigenvalues --    0.38424   0.41941   0.43673   0.51075   0.51854
 Alpha virt. eigenvalues --    0.52947   0.53550   0.55210   0.56123   0.57043
 Alpha virt. eigenvalues --    0.58910   0.60202   0.62350   0.63677   0.67111
 Alpha virt. eigenvalues --    0.68509   0.71600   0.72759   0.73326   0.74316
 Alpha virt. eigenvalues --    0.75163   0.78125   0.80145   0.81943   0.83323
 Alpha virt. eigenvalues --    0.85658   0.87403   0.87938   0.88648   0.89300
 Alpha virt. eigenvalues --    0.90148   0.90730   0.91495   0.92275   0.94919
 Alpha virt. eigenvalues --    0.95483   0.96397   0.97444   0.98913   1.03348
 Alpha virt. eigenvalues --    1.07532   1.08099   1.12477   1.16026   1.24118
 Alpha virt. eigenvalues --    1.26628   1.30167   1.32832   1.33391   1.37073
 Alpha virt. eigenvalues --    1.39445   1.42353   1.43954   1.47900   1.49150
 Alpha virt. eigenvalues --    1.52958   1.55544   1.62341   1.69872   1.72022
 Alpha virt. eigenvalues --    1.73001   1.76077   1.77643   1.82500   1.84354
 Alpha virt. eigenvalues --    1.85736   1.89332   1.90862   1.92079   1.94149
 Alpha virt. eigenvalues --    1.96260   1.98339   2.00780   2.04579   2.05383
 Alpha virt. eigenvalues --    2.11883   2.11939   2.16614   2.18288   2.21614
 Alpha virt. eigenvalues --    2.22182   2.26661   2.27266   2.28815   2.30511
 Alpha virt. eigenvalues --    2.31510   2.35612   2.39582   2.40517   2.45935
 Alpha virt. eigenvalues --    2.49037   2.54432   2.56504   2.62334   2.64323
 Alpha virt. eigenvalues --    2.68404   2.70332   2.73747   2.78301   2.88542
 Alpha virt. eigenvalues --    2.95977   3.00939   3.04722   3.19484   3.24502
 Alpha virt. eigenvalues --    3.95964   4.06811   4.08202   4.18019   4.25356
 Alpha virt. eigenvalues --    4.26631   4.33124   4.47071   4.52146   4.66657
          Condensed to atoms (all electrons):
              1          2          3          4          5          6
     1  H    0.502198   0.359659  -0.022246  -0.020061  -0.015918   0.005391
     2  C    0.359659   5.359219   0.347218   0.341873   0.343094  -0.073942
     3  H   -0.022246   0.347218   0.572075  -0.029813  -0.025648   0.001405
     4  H   -0.020061   0.341873  -0.029813   0.572387  -0.028831   0.000710
     5  C   -0.015918   0.343094  -0.025648  -0.028831   4.368550   0.572027
     6  O    0.005391  -0.073942   0.001405   0.000710   0.572027   8.169371
     7  N    0.004521  -0.144104   0.004916   0.007038   0.217871  -0.108696
     8  H   -0.000193   0.000846   0.001043   0.000366  -0.016181   0.004143
     9  C   -0.000162   0.007416  -0.000223  -0.000099  -0.028260   0.013732
    10  H    0.000002  -0.000216  -0.000008   0.000015   0.003948   0.000321
    11  C    0.000005  -0.000204   0.000041   0.000001  -0.002860  -0.002354
    12  H    0.000001   0.000059  -0.000042   0.000002   0.005033   0.003994
    13  H    0.000000   0.000007   0.000000   0.000000   0.000081   0.000043
    14  H    0.000000   0.000004   0.000003  -0.000002  -0.000019   0.000049
    15  C    0.000010   0.000112  -0.000003  -0.000028  -0.002501   0.015638
    16  O    0.000047  -0.001711  -0.000010   0.000299   0.012432  -0.119500
    17  N    0.000000  -0.000017   0.000000   0.000001   0.000798  -0.002452
    18  H    0.000000   0.000000   0.000000   0.000000  -0.000075   0.000048
    19  C    0.000000   0.000000   0.000000   0.000000  -0.000003  -0.000010
    20  H    0.000000   0.000000   0.000000   0.000000  -0.000014   0.000144
    21  H    0.000000   0.000000   0.000000   0.000000   0.000000   0.000001
    22  H    0.000000   0.000000   0.000000   0.000000   0.000001   0.000010
              7          8          9         10         11         12
     1  H    0.004521  -0.000193  -0.000162   0.000002   0.000005   0.000001
     2  C   -0.144104   0.000846   0.007416  -0.000216  -0.000204   0.000059
     3  H    0.004916   0.001043  -0.000223  -0.000008   0.000041  -0.000042
     4  H    0.007038   0.000366  -0.000099   0.000015   0.000001   0.000002
     5  C    0.217871  -0.016181  -0.028260   0.003948  -0.002860   0.005033
     6  O   -0.108696   0.004143   0.013732   0.000321  -0.002354   0.003994
     7  N    7.178801   0.301156   0.248434  -0.033959  -0.066938  -0.008070
     8  H    0.301156   0.418075  -0.029617  -0.003623   0.001290  -0.000064
     9  C    0.248434  -0.029617   5.132547   0.366830   0.334646  -0.031018
    10  H   -0.033959  -0.003623   0.366830   0.582018  -0.050245   0.005212
    11  C   -0.066938   0.001290   0.334646  -0.050245   5.184816   0.380104
    12  H   -0.008070  -0.000064  -0.031018   0.005212   0.380104   0.514415
    13  H    0.006034  -0.000152  -0.031280  -0.000864   0.346975  -0.027276
    14  H   -0.000726   0.001447  -0.027920  -0.004482   0.358117  -0.027455
    15  C   -0.035157   0.002820   0.322565  -0.025000  -0.053095  -0.002930
    16  O    0.008423  -0.000163  -0.093549   0.000710   0.001404   0.000276
    17  N    0.002886  -0.000108  -0.137457   0.000351   0.010151  -0.000314
    18  H    0.000203   0.000000   0.002662   0.000370  -0.001877  -0.000341
    19  C   -0.000075   0.000002   0.006746  -0.000254   0.000031  -0.000164
    20  H   -0.000007   0.000000   0.001356  -0.000027  -0.000100  -0.000008
    21  H   -0.000001   0.000000  -0.000275   0.000028   0.000024   0.000002
    22  H    0.000003   0.000000   0.000050  -0.000005  -0.000082   0.000013
             13         14         15         16         17         18
     1  H    0.000000   0.000000   0.000010   0.000047   0.000000   0.000000
     2  C    0.000007   0.000004   0.000112  -0.001711  -0.000017   0.000000
     3  H    0.000000   0.000003  -0.000003  -0.000010   0.000000   0.000000
     4  H    0.000000  -0.000002  -0.000028   0.000299   0.000001   0.000000
     5  C    0.000081  -0.000019  -0.002501   0.012432   0.000798  -0.000075
     6  O    0.000043   0.000049   0.015638  -0.119500  -0.002452   0.000048
     7  N    0.006034  -0.000726  -0.035157   0.008423   0.002886   0.000203
     8  H   -0.000152   0.001447   0.002820  -0.000163  -0.000108   0.000000
     9  C   -0.031280  -0.027920   0.322565  -0.093549  -0.137457   0.002662
    10  H   -0.000864  -0.004482  -0.025000   0.000710   0.000351   0.000370
    11  C    0.346975   0.358117  -0.053095   0.001404   0.010151  -0.001877
    12  H   -0.027276  -0.027455  -0.002930   0.000276  -0.000314  -0.000341
    13  H    0.606261  -0.024870  -0.009093  -0.000110  -0.002057   0.011212
    14  H   -0.024870   0.578068   0.003973  -0.000112   0.000439  -0.000244
    15  C   -0.009093   0.003973   4.404650   0.555226   0.232062  -0.020240
    16  O   -0.000110  -0.000112   0.555226   8.194715  -0.090940   0.003750
    17  N   -0.002057   0.000439   0.232062  -0.090940   7.154442   0.292533
    18  H    0.011212  -0.000244  -0.020240   0.003750   0.292533   0.421521
    19  C    0.000386   0.000004  -0.025871  -0.010203   0.271153  -0.030672
    20  H   -0.000002   0.000002   0.001489   0.022696  -0.038321   0.003920
    21  H   -0.000015   0.000001   0.002030   0.000587  -0.045579  -0.001455
    22  H    0.000006  -0.000003   0.001680   0.000651  -0.045505   0.000066
             19         20         21         22
     1  H    0.000000   0.000000   0.000000   0.000000
     2  C    0.000000   0.000000   0.000000   0.000000
     3  H    0.000000   0.000000   0.000000   0.000000
     4  H    0.000000   0.000000   0.000000   0.000000
     5  C   -0.000003  -0.000014   0.000000   0.000001
     6  O   -0.000010   0.000144   0.000001   0.000010
     7  N   -0.000075  -0.000007  -0.000001   0.000003
     8  H    0.000002   0.000000   0.000000   0.000000
     9  C    0.006746   0.001356  -0.000275   0.000050
    10  H   -0.000254  -0.000027   0.000028  -0.000005
    11  C    0.000031  -0.000100   0.000024  -0.000082
    12  H   -0.000164  -0.000008   0.000002   0.000013
    13  H    0.000386  -0.000002  -0.000015   0.000006
    14  H    0.000004   0.000002   0.000001  -0.000003
    15  C   -0.025871   0.001489   0.002030   0.001680
    16  O   -0.010203   0.022696   0.000587   0.000651
    17  N    0.271153  -0.038321  -0.045579  -0.045505
    18  H   -0.030672   0.003920  -0.001455   0.000066
    19  C    4.957706   0.374181   0.380910   0.383514
    20  H    0.374181   0.469587  -0.023556  -0.023943
    21  H    0.380910  -0.023556   0.578287  -0.040567
    22  H    0.383514  -0.023943  -0.040567   0.568755
 Mulliken atomic charges:
              1
     1  H    0.186745
     2  C   -0.539312
     3  H    0.151293
     4  H    0.156144
     5  C    0.596476
     6  O   -0.480074
     7  N   -0.582554
     8  H    0.318914
     9  C   -0.057125
    10  H    0.158878
    11  C   -0.439848
    12  H    0.188569
    13  H    0.124716
    14  H    0.143728
    15  C    0.631664
    16  O   -0.484918
    17  N   -0.602066
    18  H    0.318618
    19  C   -0.307381
    20  H    0.212602
    21  H    0.149577
    22  H    0.155357
 Sum of Mulliken atomic charges =   0.00000
 Mulliken charges with hydrogens summed into heavy atoms:
              1
     2  C   -0.045130
     5  C    0.596476
     6  O   -0.480074
     7  N   -0.263640
     9  C    0.101753
    11  C    0.017164
    15  C    0.631664
    16  O   -0.484918
    17  N   -0.283448
    19  C    0.210155
 Sum of Mulliken charges with hydrogens summed into heavy atoms =   0.00000
 APT atomic charges:
              1
     1  H    0.547614
     2  C   -1.248886
     3  H    0.454204
     4  H    0.393759
     5  C    0.257789
     6  O   -0.459716
     7  N   -0.808339
     8  H    0.727623
     9  C   -0.439013
    10  H    0.475694
    11  C   -1.146905
    12  H    0.288842
    13  H    0.382670
    14  H    0.499060
    15  C    0.083656
    16  O   -0.265792
    17  N   -0.489015
    18  H    0.600739
    19  C   -1.295017
    20  H    0.325300
    21  H    0.614409
    22  H    0.501324
 Sum of APT charges=   0.00000
 APT Atomic charges with hydrogens summed into heavy atoms:
              1
     1  H    0.000000
     2  C    0.146691
     3  H    0.000000
     4  H    0.000000
     5  C    0.257789
     6  O   -0.459716
     7  N   -0.080716
     8  H    0.000000
     9  C    0.036681
    10  H    0.000000
    11  C    0.023668
    12  H    0.000000
    13  H    0.000000
    14  H    0.000000
    15  C    0.083656
    16  O   -0.265792
    17  N    0.111725
    18  H    0.000000
    19  C    0.146015
    20  H    0.000000
    21  H    0.000000
    22  H    0.000000
 Sum of APT charges=   0.00000
 Electronic spatial extent (au):  <R**2>=           1619.2998
 Charge=              0.0000 electrons
 Dipole moment (field-independent basis, Debye):
    X=              0.8423    Y=              4.9027    Z=             -1.2603  Tot=              5.1317
 Quadrupole moment (field-independent basis, Debye-Ang):
   XX=            -46.3248   YY=            -60.2116   ZZ=            -60.5623
   XY=             -1.1754   XZ=              3.5375   YZ=             -1.4642
 Traceless Quadrupole moment (field-independent basis, Debye-Ang):
   XX=              9.3748   YY=             -4.5121   ZZ=             -4.8627
   XY=             -1.1754   XZ=              3.5375   YZ=             -1.4642
 Octapole moment (field-independent basis, Debye-Ang**2):
  XXX=              9.5331  YYY=              1.4457  ZZZ=             -2.5787  XYY=              1.8311
  XXY=              0.2574  XXZ=             -1.6150  XZZ=             -1.2031  YZZ=              2.6788
  YYZ=             -3.4836  XYZ=              0.2591
 Hexadecapole moment (field-independent basis, Debye-Ang**3):
 XXXX=          -1356.8779 YYYY=           -501.2273 ZZZZ=           -158.2925 XXXY=             -2.6188
 XXXZ=              5.3703 YYYX=             -6.2416 YYYZ=            -10.6145 ZZZX=              4.7262
 ZZZY=             -5.3829 XXYY=           -299.4691 XXZZ=           -263.6847 YYZZ=           -111.0828
 XXYZ=             -6.5119 YYXZ=              5.2812 ZZXY=             -4.9184
 N-N= 5.796398515639D+02 E-N=-2.316617305429D+03  KE= 4.917562581823D+02
  Exact polarizability:   0.000   0.000   0.000   0.000   0.000   0.000
 Approx polarizability: 126.823   5.157 123.734  10.276 -10.247  91.917
 Calling FoFJK, ICntrl=    100147 FMM=F ISym2X=0 I1Cent= 0 IOpClX= 0 NMat=1 NMatS=1 NMatT=0.
 ***** Axes restored to original set *****
 -------------------------------------------------------------------
 Center     Atomic                   Forces (Hartrees/Bohr)
 Number     Number              X              Y              Z
 -------------------------------------------------------------------
      1        1           0.003375062    0.002496865   -0.000365240
      2        6           0.010230980    0.000022125    0.006729228
      3        1          -0.003081888   -0.005969819   -0.000216684
      4        1          -0.005175704   -0.004756421    0.003786635
      5        6          -0.044976102    0.029185003   -0.033437523
      6        8          -0.028138767   -0.043967983   -0.041455266
      7        7           0.024140353   -0.012504853    0.018536536
      8        1           0.000101356    0.000790324    0.000214559
      9        6           0.006329230    0.000599378   -0.011564552
     10        1          -0.000787035   -0.001720982    0.005851848
     11        6           0.000622802   -0.009521106   -0.000108157
     12        1           0.000391914    0.000422300   -0.002634225
     13        1           0.004605144   -0.006569088   -0.005447579
     14        1           0.003254608   -0.003222043   -0.003246541
     15        6          -0.044653565    0.007576622    0.028599902
     16        8           0.045008825    0.025319989    0.042511905
     17        7           0.024007280    0.012851444   -0.007119790
     18        1          -0.001486425    0.004592611    0.000638582
     19        6           0.003268460   -0.000968365   -0.000427735
     20        1          -0.000512183   -0.003675839    0.000129646
     21        1           0.002611797    0.004650894    0.002019900
     22        1           0.000863859    0.004368945   -0.002995450
 -------------------------------------------------------------------
 Cartesian Forces:  Max     0.045008825 RMS     0.016732482

 GradGradGradGradGradGradGradGradGradGradGradGradGradGradGradGradGradGrad
 Berny optimization.
 Internal  Forces:  Max     0.140687952 RMS     0.030838752
 Search for a local minimum.
 Step number   1 out of a maximum of  132
 All quantities printed in internal units (Hartrees-Bohrs-Radians)
 Mixed Optimization -- RFO/linear search
 Second derivative matrix not updated -- analytic derivatives used.
     Eigenvalues ---   -0.04925  -0.00152  -0.00034  -0.00008   0.00263
     Eigenvalues ---    0.00596   0.00993   0.01607   0.03800   0.04193
     Eigenvalues ---    0.04571   0.04992   0.05236   0.05841   0.06009
     Eigenvalues ---    0.06394   0.06603   0.06832   0.11400   0.12349
     Eigenvalues ---    0.12897   0.13198   0.13285   0.13392   0.13932
     Eigenvalues ---    0.14188   0.15479   0.16567   0.17772   0.18583
     Eigenvalues ---    0.20670   0.21268   0.22564   0.23316   0.23515
     Eigenvalues ---    0.25559   0.29436   0.30675   0.34350   0.34493
     Eigenvalues ---    0.34572   0.34802   0.34978   0.35097   0.35355
     Eigenvalues ---    0.35722   0.35868   0.35890   0.37245   0.39404
     Eigenvalues ---    0.45098   0.46642   0.50874   0.51925   0.55284
     Eigenvalues ---    0.79131   0.80978   1.929141000.000001000.00000
     Eigenvalues --- 1000.000001000.000001000.000001000.000001000.00000
     Eigenvalues --- 1000.000001000.000001000.000001000.000001000.00000
     Eigenvalues --- 1000.000001000.000001000.000001000.000001000.00000
     Eigenvalues --- 1000.000001000.000001000.000001000.000001000.00000
     Eigenvalues --- 1000.000001000.000001000.000001000.000001000.00000
     Eigenvalues --- 1000.000001000.000001000.000001000.000001000.00000
     Eigenvalues --- 1000.000001000.000001000.000001000.000001000.00000
     Eigenvalues --- 1000.000001000.000001000.00000
 RFO step:  Lambda=-5.23971629D-02 EMin=-4.92542338D-02
 Linear search not attempted -- first point.
 Maximum step size (   0.300) exceeded in Quadratic search.
    -- Step size scaled by   0.310
 Iteration  1 RMS(Cart)=  0.07692796 RMS(Int)=  0.00289802
 Iteration  2 RMS(Cart)=  0.00372416 RMS(Int)=  0.00021018
 Iteration  3 RMS(Cart)=  0.00000791 RMS(Int)=  0.00021012
 Iteration  4 RMS(Cart)=  0.00000000 RMS(Int)=  0.00021012
 Iteration  1 RMS(Cart)=  0.00003560 RMS(Int)=  0.00001743
 Iteration  2 RMS(Cart)=  0.00002394 RMS(Int)=  0.00001925
 Iteration  3 RMS(Cart)=  0.00001616 RMS(Int)=  0.00002214
 Iteration  4 RMS(Cart)=  0.00001093 RMS(Int)=  0.00002457
 Iteration  5 RMS(Cart)=  0.00000740 RMS(Int)=  0.00002637
 Iteration  6 RMS(Cart)=  0.00000501 RMS(Int)=  0.00002765
 Iteration  7 RMS(Cart)=  0.00000339 RMS(Int)=  0.00002853
 Iteration  8 RMS(Cart)=  0.00000230 RMS(Int)=  0.00002913
 Iteration  9 RMS(Cart)=  0.00000155 RMS(Int)=  0.00002955
 Iteration 10 RMS(Cart)=  0.00000105 RMS(Int)=  0.00002983
 Iteration 11 RMS(Cart)=  0.00000071 RMS(Int)=  0.00003002
 Variable       Old X    -DE/DX   Delta X   Delta X   Delta X     New X
                                 (Linear)    (Quad)   (Total)
    R1        2.05994  -0.00111   0.00000  -0.00004  -0.00004   2.05989
    R2        2.05971   0.00496   0.00000   0.00353   0.00353   2.06324
    R3        2.05963   0.00556   0.00000   0.00302   0.00302   2.06265
    R4        2.89134   0.00010   0.00000  -0.00950  -0.00950   2.88184
    R5        2.32249  -0.02136   0.00000  -0.00018  -0.00018   2.32230
    R6        2.52269   0.07205   0.00000   0.01682   0.01682   2.53951
    R7        1.90876  -0.00062   0.00000  -0.00026  -0.00026   1.90849
    R8        2.73817   0.05441   0.00000   0.00116   0.00116   2.73933
    R9        2.05975   0.00485   0.00000   0.00284   0.00284   2.06258
   R10        2.88188   0.01881   0.00000   0.00861   0.00861   2.89049
   R11        2.87618   0.05181   0.00000   0.01999   0.01999   2.89617
   R12        2.05972   0.00210   0.00000   0.00124   0.00124   2.06096
   R13        2.05984   0.00096   0.00000   0.00475   0.00475   2.06460
   R14        2.05966   0.00366   0.00000   0.00233   0.00233   2.06199
   R15        2.32246  -0.01908   0.00000   0.00150   0.00150   2.32397
   R16        2.52279   0.03680   0.00000   0.01188   0.01188   2.53467
   R17        1.90852  -0.00358   0.00000  -0.00155  -0.00155   1.90697
   R18        2.73826   0.00439   0.00000   0.00215   0.00215   2.74041
   R19        2.05981  -0.00074   0.00000   0.00002   0.00002   2.05983
   R20        2.05984   0.00470   0.00000   0.00279   0.00279   2.06263
   R21        2.05982   0.00433   0.00000   0.00370   0.00370   2.06351
    A1        1.91109   0.00003   0.00000  -0.00035  -0.00032   1.91076
    A2        1.91114  -0.00057   0.00000  -0.00069  -0.00067   1.91046
    A3        1.93905  -0.00864   0.00000  -0.01095  -0.01093   1.92812
    A4        1.91025  -0.00558   0.00000  -0.00619  -0.00624   1.90401
    A5        1.89600   0.00631   0.00000   0.01015   0.01014   1.90614
    A6        1.89604   0.00851   0.00000   0.00812   0.00810   1.90415
    A7        2.10312  -0.02327   0.00000   0.02223   0.02204   2.12516
    A8        2.03511  -0.04500   0.00000   0.00963   0.00945   2.04456
    A9        2.14496   0.06827   0.00000  -0.03185  -0.03201   2.11295
   A10        2.09429  -0.07018   0.00000   0.01928   0.01888   2.11317
   A11        2.12765   0.14069   0.00000  -0.01525  -0.01563   2.11202
   A12        2.06125  -0.07051   0.00000  -0.00402  -0.00439   2.05685
   A13        1.91114  -0.00375   0.00000   0.00488   0.00474   1.91587
   A14        1.93905  -0.06330   0.00000  -0.00975  -0.00961   1.92944
   A15        1.93900   0.07786   0.00000  -0.01104  -0.01102   1.92799
   A16        1.89609   0.01831   0.00000   0.00354   0.00361   1.89970
   A17        1.89608  -0.05106   0.00000  -0.01547  -0.01552   1.88056
   A18        1.88137   0.02113   0.00000   0.02812   0.02804   1.90941
   A19        1.91115  -0.00012   0.00000  -0.00092  -0.00093   1.91021
   A20        1.91106   0.01175   0.00000   0.01262   0.01260   1.92367
   A21        1.91110   0.00333   0.00000   0.00372   0.00371   1.91481
   A22        1.91011  -0.00433   0.00000  -0.00117  -0.00119   1.90891
   A23        1.91023  -0.00257   0.00000  -0.00186  -0.00186   1.90838
   A24        1.91015  -0.00806   0.00000  -0.01240  -0.01242   1.89774
   A25        2.10312   0.05187   0.00000  -0.00005  -0.00075   2.10237
   A26        2.03504  -0.02089   0.00000  -0.00190  -0.00260   2.03243
   A27        2.14503  -0.03098   0.00000   0.00194   0.00123   2.14627
   A28        2.09446   0.00300   0.00000  -0.00055  -0.00116   2.09330
   A29        2.12752   0.00026   0.00000   0.00022  -0.00039   2.12713
   A30        2.06121  -0.00326   0.00000   0.00032  -0.00029   2.06092
   A31        1.91120  -0.00731   0.00000  -0.00983  -0.00982   1.90138
   A32        1.91107   0.00514   0.00000   0.00255   0.00254   1.91361
   A33        1.91120   0.00500   0.00000   0.00993   0.00992   1.92112
   A34        1.91014   0.00025   0.00000   0.00203   0.00203   1.91217
   A35        1.91008   0.00011   0.00000  -0.00197  -0.00195   1.90814
   A36        1.91011  -0.00319   0.00000  -0.00272  -0.00274   1.90737
    D1        0.00005  -0.00869   0.00000   0.00861   0.00839   0.00844
    D2        3.14154   0.00907   0.00000   0.04239   0.04262  -3.09902
    D3        2.10329  -0.00991   0.00000   0.00796   0.00771   2.11099
    D4       -1.03841   0.00784   0.00000   0.04175   0.04194  -0.99647
    D5       -2.10327  -0.00813   0.00000   0.01099   0.01080  -2.09247
    D6        1.03822   0.00962   0.00000   0.04478   0.04503   1.08325
    D7        0.00007   0.02768   0.00000   0.03843   0.03852   0.03859
    D8        3.14159   0.00604   0.00000   0.09062   0.09122  -3.05038
    D9        3.14156   0.04590   0.00000   0.07310   0.07250  -3.06912
   D10       -0.00011   0.02426   0.00000   0.12529   0.12520   0.12510
   D11        2.61806   0.04748   0.00000  -0.02305  -0.02305   2.59500
   D12       -1.57069   0.02784   0.00000  -0.02163  -0.02159  -1.59228
   D13        0.52367   0.06426   0.00000   0.00000   0.00000   0.52367
   D14       -0.52360   0.02622   0.00000   0.02819   0.02799  -0.49561
   D15        1.57084   0.00659   0.00000   0.02961   0.02946   1.60029
   D16       -2.61800   0.04301   0.00000   0.05124   0.05105  -2.56695
   D17        1.04724   0.03418   0.00000   0.00440   0.00440   1.05164
   D18        3.14157   0.03600   0.00000   0.01014   0.01015  -3.13147
   D19       -1.04726   0.03537   0.00000   0.00496   0.00497  -1.04229
   D20       -3.13259   0.00221   0.00000   0.00670   0.00662  -3.12597
   D21       -1.03826   0.00403   0.00000   0.01244   0.01237  -1.02590
   D22        1.05609   0.00339   0.00000   0.00726   0.00719   1.06328
   D23       -1.08102  -0.03685   0.00000   0.00568   0.00575  -1.07528
   D24        1.01331  -0.03503   0.00000   0.01142   0.01149   1.02480
   D25        3.10766  -0.03566   0.00000   0.00624   0.00632   3.11398
   D26        0.26182   0.03712   0.00000   0.06779   0.06781   0.32963
   D27       -2.87984   0.01589   0.00000   0.00000   0.00000  -2.87984
   D28       -1.84149   0.02659   0.00000   0.07858   0.07840  -1.76309
   D29        1.30003   0.00537   0.00000   0.01080   0.01060   1.31063
   D30        2.39011   0.02079   0.00000   0.06730   0.06730   2.45742
   D31       -0.75155  -0.00043   0.00000  -0.00048  -0.00050  -0.75205
   D32        0.00013   0.01088   0.00000   0.08963   0.08967   0.08980
   D33        3.14153   0.01115   0.00000   0.02336   0.02344  -3.11822
   D34       -3.14154  -0.01090   0.00000   0.02007   0.02000  -3.12154
   D35       -0.00013  -0.01063   0.00000  -0.04620  -0.04624  -0.04637
   D36        0.00010  -0.00017   0.00000   0.07156   0.07155   0.07165
   D37        2.09451  -0.00119   0.00000   0.06959   0.06957   2.16408
   D38       -2.09431   0.00112   0.00000   0.07391   0.07393  -2.02038
   D39        3.14151   0.00010   0.00000   0.00650   0.00649  -3.13518
   D40       -1.04727  -0.00093   0.00000   0.00453   0.00452  -1.04275
   D41        1.04710   0.00139   0.00000   0.00886   0.00888   1.05597
         Item               Value     Threshold  Converged?
 Maximum Force            0.140689     0.000450     NO 
 RMS     Force            0.029017     0.000300     NO 
 Maximum Displacement     0.322180     0.001800     NO 
 RMS     Displacement     0.077696     0.001200     NO 
 Predicted change in Energy=-1.536866D-02
 GradGradGradGradGradGradGradGradGradGradGradGradGradGradGradGradGradGrad

                          Input orientation:                          
 ---------------------------------------------------------------------
 Center     Atomic      Atomic             Coordinates (Angstroms)
 Number     Number       Type             X           Y           Z
 ---------------------------------------------------------------------
      1          1           0        0.395414    4.342016   -1.022143
      2          6           0        1.170574    3.804682   -0.475694
      3          1           0        1.257871    2.790507   -0.870536
      4          1           0        0.902177    3.754490    0.581111
      5          6           0        2.512518    4.515309   -0.616510
      6          8           0        2.630156    5.553064   -1.264157
      7          7           0        3.576637    3.936971   -0.034184
      8          1           0        3.491681    3.052239    0.445394
      9          6           0        4.868546    4.594272   -0.018753
     10          1           0        5.412970    4.317230    0.885770
     11          6           0        5.694900    4.182750   -1.238350
     12          1           0        5.166742    4.469610   -2.148401
     13          1           0        6.670984    4.673054   -1.215973
     14          1           0        5.845415    3.102037   -1.233259
     15          6           0        4.694992    6.116982   -0.011649
     16          8           0        3.624768    6.620841    0.324705
     17          7           0        5.782624    6.843636   -0.308450
     18          1           0        6.633024    6.382828   -0.596218
     19          6           0        5.758377    8.293595   -0.308130
     20          1           0        4.779057    8.631007    0.031309
     21          1           0        6.529202    8.673279    0.364947
     22          1           0        5.941572    8.671701   -1.316028
 ---------------------------------------------------------------------
                    Distance matrix (angstroms):
                    1          2          3          4          5
     1  H    0.000000
     2  C    1.090049   0.000000
     3  H    1.781572   1.091821   0.000000
     4  H    1.781129   1.091510   1.778500   0.000000
     5  C    2.162567   1.525003   2.147932   2.146239   0.000000
     6  O    2.553288   2.410165   3.109635   3.102547   1.228910
     7  N    3.355638   2.449810   2.718555   2.750387   1.343849
     8  H    3.661155   2.608085   2.605778   2.686467   2.055961
     9  C    4.591224   3.808838   4.125055   4.098433   2.431958
    10  H    5.368111   4.484887   4.762388   4.555958   3.272416
    11  C    5.306285   4.603706   4.664853   5.144321   3.259576
    12  H    4.904111   4.382857   4.442026   5.113526   3.064911
    13  H    6.287283   5.617525   5.741524   6.111662   4.204412
    14  H    5.593266   4.787667   4.612394   5.305963   3.672318
    15  C    4.760039   4.240706   4.859725   4.507569   2.773879
    16  O    4.175616   3.820270   4.658569   3.961593   2.560518
    17  N    5.982432   5.525778   6.100589   5.844049   4.026115
    18  H    6.576785   6.041500   6.470880   6.413803   4.524003
    19  C    6.699713   6.420775   7.131258   6.706482   4.990605
    20  H    6.222662   6.047447   6.879209   6.254031   4.742978
    21  H    7.635916   7.288676   7.995021   7.476939   5.863934
    22  H    7.042188   6.867056   7.531532   7.292024   5.433538
                    6          7          8          9         10
     6  O    0.000000
     7  N    2.240629   0.000000
     8  H    3.149431   1.009932   0.000000
     9  C    2.735087   1.449590   2.118739   0.000000
    10  H    3.727402   2.088787   2.342112   1.091472   0.000000
    11  C    3.357243   2.448971   2.994532   1.529584   2.146964
    12  H    2.896554   2.698528   3.397431   2.154034   3.047957
    13  H    4.135822   3.393144   3.936388   2.165254   2.475184
    14  H    4.043065   2.698564   2.891439   2.157791   2.480723
    15  C    2.479985   2.450240   3.324078   1.532586   2.135407
    16  O    2.157286   2.708188   3.573122   2.402484   2.969694
    17  N    3.537938   3.659277   4.493484   2.445221   2.818782
    18  H    4.142173   3.954693   4.695297   2.577941   2.819843
    19  C    4.267348   4.880083   5.759993   3.815826   4.166075
    20  H    3.971113   4.846038   5.740336   4.038038   4.443042
    21  H    5.252835   5.595495   6.389765   4.420781   4.526852
    22  H    4.549073   5.445523   6.378317   4.411320   4.908030
                   11         12         13         14         15
    11  C    0.000000
    12  H    1.090611   0.000000
    13  H    1.092537   1.781447   0.000000
    14  H    1.091157   1.779983   1.774812   0.000000
    15  C    2.499173   2.738994   2.727613   3.450464   0.000000
    16  O    3.559898   3.622393   3.930267   4.443029   1.229791
    17  N    2.820057   3.066060   2.514798   3.854709   1.341291
    18  H    2.476439   2.866994   1.819028   3.433619   2.041657
    19  C    4.215256   4.284797   3.842570   5.274061   2.440560
    20  H    4.715696   4.713667   4.560756   5.771115   2.515797
    21  H    4.840606   5.083704   4.303627   5.836143   3.168723
    22  H    4.496394   4.353249   4.065862   5.571109   3.127612
                   16         17         18         19         20
    16  O    0.000000
    17  N    2.259837   0.000000
    18  H    3.155051   1.009125   0.000000
    19  C    2.784039   1.450162   2.121092   0.000000
    20  H    2.336499   2.077807   2.980821   1.090016   0.000000
    21  H    3.556663   2.087686   2.486118   1.091496   1.782165
    22  H    3.502230   2.093395   2.497033   1.091963   1.780005
                   21         22
    21  H    0.000000
    22  H    1.780727   0.000000
 Stoichiometry    C6H12N2O2
 Framework group  C1[X(C6H12N2O2)]
 Deg. of freedom    60
 Full point group                 C1      NOp   1
 Largest Abelian subgroup         C1      NOp   1
 Largest concise Abelian subgroup C1      NOp   1
                         Standard orientation:                         
 ---------------------------------------------------------------------
 Center     Atomic      Atomic             Coordinates (Angstroms)
 Number     Number       Type             X           Y           Z
 ---------------------------------------------------------------------
      1          1           0       -3.487399   -1.561841    0.655237
      2          6           0       -3.246455   -0.716680    0.010368
      3          1           0       -3.876395    0.134765    0.275490
      4          1           0       -3.432934   -0.988445   -1.030191
      5          6           0       -1.781051   -0.325456    0.169005
      6          8           0       -1.028925   -0.929712    0.930189
      7          7           0       -1.351256    0.738328   -0.530689
      8          1           0       -1.984273    1.272610   -1.108439
      9          6           0        0.048224    1.116174   -0.530909
     10          1           0        0.307359    1.572283   -1.488053
     11          6           0        0.333635    2.119438    0.587853
     12          1           0        0.092899    1.667654    1.550853
     13          1           0        1.387248    2.408237    0.576301
     14          1           0       -0.276213    3.012964    0.445304
     15          6           0        0.936734   -0.118825   -0.346124
     16          8           0        0.493023   -1.244516   -0.565959
     17          7           0        2.217065    0.109963   -0.018300
     18          1           0        2.528364    1.051336    0.169434
     19          6           0        3.167600   -0.971102    0.157059
     20          1           0        2.680373   -1.914248   -0.090367
     21          1           0        4.023430   -0.817797   -0.502801
     22          1           0        3.511970   -1.003026    1.192807
 ---------------------------------------------------------------------
 Rotational constants (GHZ):      2.4286955      0.9323046      0.7590567
 Standard basis: 6-31G(d) (6D, 7F)
 There are   174 symmetry adapted basis functions of A   symmetry.
 Integral buffers will be    131072 words long.
 Raffenetti 2 integral format.
 Two-electron integral symmetry is turned on.
   174 basis functions,   328 primitive gaussians,   174 cartesian basis functions
    39 alpha electrons       39 beta electrons
       nuclear repulsion energy       578.5001150733 Hartrees.
 NAtoms=   22 NActive=   22 NUniq=   22 SFac= 7.50D-01 NAtFMM=   80 NAOKFM=F Big=F
 One-electron integrals computed using PRISM.
 NBasis=   174 RedAO= T  NBF=   174
 NBsUse=   174 1.00D-06 NBFU=   174
 Initial guess read from the read-write file.
 B after Tr=     0.000000    0.000000    0.000000
         Rot=    1.000000    0.000000    0.000000    0.000000 Ang=   0.00 deg.
 Initial guess orbital symmetries:
       Occupied  (A) (A) (A) (A) (A) (A) (A) (A) (A) (A) (A) (A)
                 (A) (A) (A) (A) (A) (A) (A) (A) (A) (A) (A) (A)
                 (A) (A) (A) (A) (A) (A) (A) (A) (A) (A) (A) (A)
                 (A) (A) (A)
       Virtual   (A) (A) (A) (A) (A) (A) (A) (A) (A) (A) (A) (A)
                 (A) (A) (A) (A) (A) (A) (A) (A) (A) (A) (A) (A)
                 (A) (A) (A) (A) (A) (A) (A) (A) (A) (A) (A) (A)
                 (A) (A) (A) (A) (A) (A) (A) (A) (A) (A) (A) (A)
                 (A) (A) (A) (A) (A) (A) (A) (A) (A) (A) (A) (A)
                 (A) (A) (A) (A) (A) (A) (A) (A) (A) (A) (A) (A)
                 (A) (A) (A) (A) (A) (A) (A) (A) (A) (A) (A) (A)
                 (A) (A) (A) (A) (A) (A) (A) (A) (A) (A) (A) (A)
                 (A) (A) (A) (A) (A) (A) (A) (A) (A) (A) (A) (A)
                 (A) (A) (A) (A) (A) (A) (A) (A) (A) (A) (A) (A)
                 (A) (A) (A) (A) (A) (A) (A) (A) (A) (A) (A) (A)
                 (A) (A) (A)
 Harris functional with IExCor=  402 diagonalized for initial guess.
 ExpMin= 1.61D-01 ExpMax= 5.48D+03 ExpMxC= 8.25D+02 IAcc=1 IRadAn=         1 AccDes= 0.00D+00
 HarFok:  IExCor=  402 AccDes= 0.00D+00 IRadAn=         1 IDoV= 1
 ScaDFX=  1.000000  1.000000  1.000000  1.000000
 FoFCou: FMM=F IPFlag=           0 FMFlag=      100000 FMFlg1=           0
         NFxFlg=           0 DoJE=T BraDBF=F KetDBF=T FulRan=T
         Omega=  0.000000  0.000000  1.000000  0.000000  0.000000 ICntrl=     500 IOpCl=  0
         NMat0=    1 NMatS0=    1 NMatT0=    0 NMatD0=    1 NMtDS0=    0 NMtDT0=    0
         I1Cent=           4 NGrid=           0.
 Petite list used in FoFCou.
 Requested convergence on RMS density matrix=1.00D-08 within 128 cycles.
 Requested convergence on MAX density matrix=1.00D-06.
 Requested convergence on             energy=1.00D-06.
 No special actions if energy rises.
 Integral accuracy reduced to 1.0D-05 until final iterations.
 Initial convergence to 1.0D-05 achieved.  Increase integral accuracy.
 SCF Done:  E(RB3LYP) =  -495.802635638     A.U. after   13 cycles
             Convg  =    0.5596D-08             -V/T =  2.0085
 Calling FoFJK, ICntrl=      2127 FMM=F ISym2X=0 I1Cent= 0 IOpClX= 0 NMat=1 NMatS=1 NMatT=0.
 ***** Axes restored to original set *****
 -------------------------------------------------------------------
 Center     Atomic                   Forces (Hartrees/Bohr)
 Number     Number              X              Y              Z
 -------------------------------------------------------------------
      1        1           0.002595193    0.001655466   -0.000552056
      2        6           0.008123046    0.000424958    0.005723433
      3        1          -0.002606029   -0.004223753    0.000338313
      4        1          -0.004044065   -0.002978823    0.002946608
      5        6          -0.026720468    0.020852332   -0.033871733
      6        8          -0.022417328   -0.033202704   -0.029518259
      7        7           0.017262657   -0.010462790    0.018602869
      8        1          -0.001751064    0.001434092    0.001451787
      9        6           0.005399977    0.002254945   -0.015602545
     10        1          -0.001780572   -0.001862764    0.004850909
     11        6           0.001652415   -0.005831187    0.000920785
     12        1           0.000305957    0.000259516   -0.001903630
     13        1           0.003537378   -0.005177704   -0.003975921
     14        1           0.002372136   -0.002389440   -0.002369231
     15        6          -0.036930280    0.005212975    0.029527466
     16        8           0.034640504    0.018146355    0.030962840
     17        7           0.017008008    0.009506702   -0.006321037
     18        1          -0.001155312    0.003102136    0.000215961
     19        6           0.002643913   -0.000822482   -0.000836600
     20        1          -0.000331341   -0.002751238    0.000096477
     21        1           0.001897202    0.003495284    0.001430728
     22        1           0.000298073    0.003358124   -0.002117164
 -------------------------------------------------------------------
 Cartesian Forces:  Max     0.036930280 RMS     0.013115471

 GradGradGradGradGradGradGradGradGradGradGradGradGradGradGradGradGradGrad
 Berny optimization.
 Using GEDIIS/GDIIS optimizer.
 Internal  Forces:  Max     0.099659662 RMS     0.022490747
 Search for a local minimum.
 Step number   2 out of a maximum of  132
 All quantities printed in internal units (Hartrees-Bohrs-Radians)
 Mixed Optimization -- RFO/linear search
 Update second derivatives using D2CorX and points    1    2
 DE= -1.50D-02 DEPred=-1.54D-02 R= 9.78D-01
 SS=  1.41D+00  RLast= 3.00D-01 DXNew= 5.0454D-01 8.9993D-01
 Trust test= 9.78D-01 RLast= 3.00D-01 DXMaxT set to 5.05D-01
 Use linear search instead of GDIIS.
 Linear search step of   0.594 exceeds DXMaxT=   0.505 but not scaled.
 Quartic linear search produced a step of  2.00000.
 Iteration  1 RMS(Cart)=  0.14856437 RMS(Int)=  0.01184161
 Iteration  2 RMS(Cart)=  0.01877940 RMS(Int)=  0.00127670
 Iteration  3 RMS(Cart)=  0.00028355 RMS(Int)=  0.00126550
 Iteration  4 RMS(Cart)=  0.00000024 RMS(Int)=  0.00126550
 Iteration  1 RMS(Cart)=  0.00024681 RMS(Int)=  0.00011603
 Iteration  2 RMS(Cart)=  0.00016561 RMS(Int)=  0.00012819
 Iteration  3 RMS(Cart)=  0.00011140 RMS(Int)=  0.00014743
 Iteration  4 RMS(Cart)=  0.00007504 RMS(Int)=  0.00016366
 Iteration  5 RMS(Cart)=  0.00005059 RMS(Int)=  0.00017564
 Iteration  6 RMS(Cart)=  0.00003411 RMS(Int)=  0.00018408
 Iteration  7 RMS(Cart)=  0.00002301 RMS(Int)=  0.00018991
 Iteration  8 RMS(Cart)=  0.00001552 RMS(Int)=  0.00019389
 Iteration  9 RMS(Cart)=  0.00001047 RMS(Int)=  0.00019660
 Iteration 10 RMS(Cart)=  0.00000706 RMS(Int)=  0.00019844
 Iteration 11 RMS(Cart)=  0.00000476 RMS(Int)=  0.00019968
 Iteration 12 RMS(Cart)=  0.00000321 RMS(Int)=  0.00020052
 Iteration 13 RMS(Cart)=  0.00000216 RMS(Int)=  0.00020109
 Iteration 14 RMS(Cart)=  0.00000146 RMS(Int)=  0.00020147
 Iteration 15 RMS(Cart)=  0.00000098 RMS(Int)=  0.00020173
 Variable       Old X    -DE/DX   Delta X   Delta X   Delta X     New X
                                 (Linear)    (Quad)   (Total)
    R1        2.05989  -0.00076  -0.00009   0.00000  -0.00009   2.05981
    R2        2.06324   0.00359   0.00707   0.00000   0.00707   2.07031
    R3        2.06265   0.00399   0.00604   0.00000   0.00604   2.06869
    R4        2.88184  -0.00041  -0.01900   0.00000  -0.01900   2.86284
    R5        2.32230  -0.01463  -0.00037   0.00000  -0.00037   2.32194
    R6        2.53951   0.05196   0.03363   0.00000   0.03363   2.57314
    R7        1.90849  -0.00042  -0.00053   0.00000  -0.00053   1.90797
    R8        2.73933   0.03873   0.00231   0.00000   0.00231   2.74164
    R9        2.06258   0.00361   0.00568   0.00000   0.00568   2.06826
   R10        2.89049   0.01363   0.01722   0.00000   0.01722   2.90772
   R11        2.89617   0.03720   0.03998   0.00000   0.03998   2.93615
   R12        2.06096   0.00151   0.00247   0.00000   0.00247   2.06343
   R13        2.06460   0.00076   0.00950   0.00000   0.00950   2.07410
   R14        2.06199   0.00268   0.00465   0.00000   0.00465   2.06664
   R15        2.32397  -0.01424   0.00301   0.00000   0.00301   2.32698
   R16        2.53467   0.02679   0.02376   0.00000   0.02377   2.55844
   R17        1.90697  -0.00245  -0.00310   0.00000  -0.00309   1.90388
   R18        2.74041   0.00321   0.00430   0.00000   0.00430   2.74471
   R19        2.05983  -0.00052   0.00004   0.00000   0.00004   2.05987
   R20        2.06263   0.00344   0.00559   0.00000   0.00559   2.06821
   R21        2.06351   0.00317   0.00739   0.00000   0.00739   2.07091
    A1        1.91076   0.00000  -0.00064   0.00000  -0.00049   1.91027
    A2        1.91046  -0.00037  -0.00135   0.00000  -0.00124   1.90923
    A3        1.92812  -0.00643  -0.02186   0.00000  -0.02173   1.90639
    A4        1.90401  -0.00421  -0.01247   0.00000  -0.01278   1.89124
    A5        1.90614   0.00475   0.02027   0.00000   0.02020   1.92634
    A6        1.90415   0.00630   0.01621   0.00000   0.01611   1.92025
    A7        2.12516  -0.01671   0.04408   0.00000   0.04284   2.16800
    A8        2.04456  -0.03235   0.01891   0.00000   0.01793   2.06249
    A9        2.11295   0.04864  -0.06402   0.00000  -0.06479   2.04816
   A10        2.11317  -0.04889   0.03775   0.00000   0.03501   2.14818
   A11        2.11202   0.09966  -0.03127   0.00000  -0.03365   2.07837
   A12        2.05685  -0.04998  -0.00879   0.00000  -0.01091   2.04594
   A13        1.91587  -0.00195   0.00947   0.00000   0.00858   1.92445
   A14        1.92944  -0.04623  -0.01922   0.00000  -0.01836   1.91108
   A15        1.92799   0.05443  -0.02203   0.00000  -0.02188   1.90611
   A16        1.89970   0.01332   0.00721   0.00000   0.00755   1.90725
   A17        1.88056  -0.03856  -0.03104   0.00000  -0.03127   1.84929
   A18        1.90941   0.01890   0.05608   0.00000   0.05551   1.96493
   A19        1.91021  -0.00018  -0.00187   0.00000  -0.00194   1.90828
   A20        1.92367   0.00896   0.02521   0.00000   0.02510   1.94877
   A21        1.91481   0.00232   0.00743   0.00000   0.00739   1.92220
   A22        1.90891  -0.00324  -0.00239   0.00000  -0.00253   1.90638
   A23        1.90838  -0.00188  -0.00371   0.00000  -0.00370   1.90467
   A24        1.89774  -0.00610  -0.02483   0.00000  -0.02490   1.87283
   A25        2.10237   0.03688  -0.00150   0.00000  -0.00569   2.09668
   A26        2.03243  -0.01560  -0.00521   0.00000  -0.00947   2.02297
   A27        2.14627  -0.02220   0.00247   0.00000  -0.00195   2.14431
   A28        2.09330   0.00195  -0.00232   0.00000  -0.00599   2.08731
   A29        2.12713   0.00032  -0.00078   0.00000  -0.00442   2.12270
   A30        2.06092  -0.00227  -0.00058   0.00000  -0.00427   2.05665
   A31        1.90138  -0.00551  -0.01963   0.00000  -0.01956   1.88182
   A32        1.91361   0.00390   0.00508   0.00000   0.00500   1.91860
   A33        1.92112   0.00379   0.01985   0.00000   0.01983   1.94096
   A34        1.91217   0.00014   0.00406   0.00000   0.00406   1.91623
   A35        1.90814   0.00006  -0.00389   0.00000  -0.00375   1.90438
   A36        1.90737  -0.00240  -0.00549   0.00000  -0.00565   1.90172
    D1        0.00844  -0.00632   0.01677   0.00000   0.01556   0.02400
    D2       -3.09902   0.00676   0.08524   0.00000   0.08649  -3.01253
    D3        2.11099  -0.00730   0.01541   0.00000   0.01400   2.12499
    D4       -0.99647   0.00578   0.08388   0.00000   0.08493  -0.91154
    D5       -2.09247  -0.00587   0.02159   0.00000   0.02053  -2.07195
    D6        1.08325   0.00721   0.09006   0.00000   0.09146   1.17471
    D7        0.03859   0.02232   0.07704   0.00000   0.07751   0.11610
    D8       -3.05038   0.00570   0.18244   0.00000   0.18602  -2.86435
    D9       -3.06912   0.03664   0.14501   0.00000   0.14142  -2.92770
   D10        0.12510   0.02003   0.25040   0.00000   0.24993   0.37503
   D11        2.59500   0.03635  -0.04611   0.00000  -0.04609   2.54891
   D12       -1.59228   0.02238  -0.04318   0.00000  -0.04293  -1.63521
   D13        0.52367   0.05163   0.00000   0.00000   0.00000   0.52367
   D14       -0.49561   0.02041   0.05598   0.00000   0.05470  -0.44092
   D15        1.60029   0.00645   0.05891   0.00000   0.05786   1.65815
   D16       -2.56695   0.03570   0.10210   0.00000   0.10079  -2.46616
   D17        1.05164   0.02420   0.00880   0.00000   0.00881   1.06044
   D18       -3.13147   0.02568   0.02029   0.00000   0.02036  -3.11112
   D19       -1.04229   0.02519   0.00994   0.00000   0.01001  -1.03228
   D20       -3.12597   0.00168   0.01324   0.00000   0.01276  -3.11321
   D21       -1.02590   0.00316   0.02473   0.00000   0.02431  -1.00158
   D22        1.06328   0.00267   0.01438   0.00000   0.01397   1.07725
   D23       -1.07528  -0.02631   0.01149   0.00000   0.01184  -1.06343
   D24        1.02480  -0.02483   0.02298   0.00000   0.02339   1.04819
   D25        3.11398  -0.02532   0.01263   0.00000   0.01305   3.12703
   D26        0.32963   0.02751   0.13561   0.00000   0.13559   0.46522
   D27       -2.87984   0.01184   0.00000   0.00000   0.00000  -2.87984
   D28       -1.76309   0.02181   0.15681   0.00000   0.15562  -1.60747
   D29        1.31063   0.00614   0.02120   0.00000   0.02003   1.33066
   D30        2.45742   0.01748   0.13461   0.00000   0.13450   2.59192
   D31       -0.75205   0.00181  -0.00100   0.00000  -0.00109  -0.75314
   D32        0.08980   0.00706   0.17934   0.00000   0.17941   0.26921
   D33       -3.11822   0.00688   0.04687   0.00000   0.04730  -3.07092
   D34       -3.12154  -0.00652   0.04000   0.00000   0.03957  -3.08197
   D35       -0.04637  -0.00670  -0.09247   0.00000  -0.09254  -0.13891
   D36        0.07165   0.00001   0.14310   0.00000   0.14296   0.21461
   D37        2.16408  -0.00082   0.13915   0.00000   0.13900   2.30308
   D38       -2.02038   0.00105   0.14786   0.00000   0.14790  -1.87248
   D39       -3.13518  -0.00001   0.01299   0.00000   0.01301  -3.12217
   D40       -1.04275  -0.00084   0.00904   0.00000   0.00906  -1.03369
   D41        1.05597   0.00103   0.01775   0.00000   0.01795   1.07393
         Item               Value     Threshold  Converged?
 Maximum Force            0.099288     0.000450     NO 
 RMS     Force            0.020841     0.000300     NO 
 Maximum Displacement     0.690831     0.001800     NO 
 RMS     Displacement     0.158569     0.001200     NO 
 Predicted change in Energy=-2.103260D-02
 GradGradGradGradGradGradGradGradGradGradGradGradGradGradGradGradGradGrad

                          Input orientation:                          
 ---------------------------------------------------------------------
 Center     Atomic      Atomic             Coordinates (Angstroms)
 Number     Number       Type             X           Y           Z
 ---------------------------------------------------------------------
      1          1           0        0.461725    4.435787   -1.095940
      2          6           0        1.174769    3.936471   -0.439922
      3          1           0        1.142267    2.856387   -0.620524
      4          1           0        0.898994    4.120062    0.603450
      5          6           0        2.564473    4.474982   -0.711581
      6          8           0        2.816154    5.356597   -1.529599
      7          7           0        3.619595    3.868893   -0.100468
      8          1           0        3.529813    3.023226    0.443760
      9          6           0        4.897557    4.554237   -0.055999
     10          1           0        5.421251    4.319646    0.875981
     11          6           0        5.760702    4.109307   -1.249568
     12          1           0        5.252153    4.369083   -2.180260
     13          1           0        6.749971    4.584428   -1.233437
     14          1           0        5.918742    3.027647   -1.217363
     15          6           0        4.654356    6.088680   -0.034702
     16          8           0        3.605788    6.542009    0.424974
     17          7           0        5.731152    6.862122   -0.309019
     18          1           0        6.546228    6.448121   -0.732440
     19          6           0        5.665731    8.311356   -0.238155
     20          1           0        4.735248    8.579195    0.262485
     21          1           0        6.517240    8.695777    0.331914
     22          1           0        5.676292    8.758087   -1.238787
 ---------------------------------------------------------------------
                    Distance matrix (angstroms):
                    1          2          3          4          5
     1  H    0.000000
     2  C    1.090004   0.000000
     3  H    1.784282   1.095562   0.000000
     4  H    1.782922   1.094706   1.775998   0.000000
     5  C    2.137947   1.514948   2.156574   2.151533   0.000000
     6  O    2.565013   2.428641   3.143146   3.123206   1.228716
     7  N    3.359237   2.469204   2.726313   2.821393   1.361648
     8  H    3.712031   2.676031   2.619335   2.854779   2.091481
     9  C    4.557644   3.793175   4.159758   4.075768   2.424737
    10  H    5.338433   4.462178   4.763440   4.534856   3.271951
    11  C    5.311248   4.660062   4.826536   5.202883   3.261752
    12  H    4.912067   4.454322   4.648891   5.173108   3.064614
    13  H    6.291506   5.668544   5.899842   6.150099   4.219326
    14  H    5.637077   4.892407   4.816665   5.450376   3.688050
    15  C    4.629950   4.111414   4.808916   4.287824   2.725765
    16  O    4.078540   3.666977   4.554757   3.636539   2.578506
    17  N    5.854333   5.416382   6.099248   5.630386   3.986020
    18  H    6.418941   5.936878   6.489674   6.252656   4.443882
    19  C    6.545037   6.272883   7.096804   6.402892   4.955774
    20  H    6.105420   5.892815   6.814672   5.892111   4.744010
[...]
    13  H    6.469273   5.771277   6.031455   6.144142   4.349893
    14  H    5.629373   4.942322   4.950174   5.538691   3.682801
    15  C    4.774238   4.059562   4.687619   4.007639   2.838280
    16  O    4.263017   3.590955   4.356315   3.261879   2.726596
    17  N    6.051678   5.400160   6.038805   5.345371   4.111044
    18  H    6.537671   5.904372   6.465509   6.004034   4.497936
    19  C    6.766913   6.224533   6.999305   6.004214   5.069363
    20  H    6.633965   6.057839   6.843867   5.651482   5.111636
    21  H    7.824721   7.248221   7.973714   7.035113   6.052404
    22  H    6.664992   6.289498   7.165496   6.131950   5.132017
                    6          7          8          9         10
     6  O    0.000000
     7  N    2.284300   0.000000
     8  H    3.119092   1.013836   0.000000
     9  C    2.875160   1.469277   2.072848   0.000000
    10  H    3.880615   2.067927   2.167952   1.096626   0.000000
    11  C    3.403572   2.463716   3.202795   1.539415   2.157266
    12  H    2.920073   2.780264   3.703645   2.172882   3.065697
    13  H    4.322955   3.426500   4.066585   2.205903   2.488537
    14  H    3.921636   2.634008   3.194613   2.163760   2.516364
    15  C    2.859460   2.503678   3.086830   1.555070   2.126362
    16  O    2.834861   2.811696   3.204757   2.428579   2.880294
    17  N    3.899382   3.722747   4.330331   2.472357   2.844598
    18  H    4.220679   3.972527   4.655511   2.611626   2.999375
    19  C    4.702345   4.943807   5.517554   3.841434   4.177236
    20  H    4.899063   5.048191   5.469102   4.101158   4.307734
    21  H    5.699431   5.785390   6.332066   4.539666   4.729514
    22  H    4.524210   5.263876   5.954440   4.323660   4.874589
                   11         12         13         14         15
    11  C    0.000000
    12  H    1.093925   0.000000
    13  H    1.096892   1.788943   0.000000
    14  H    1.093682   1.770766   1.763370   0.000000
    15  C    2.599322   2.840890   2.918912   3.529024   0.000000
    16  O    3.694306   3.839344   4.127072   4.529052   1.223319
    17  N    2.917756   3.120839   2.737128   3.967932   1.367758
    18  H    2.490418   2.679922   2.026986   3.532264   2.048963
    19  C    4.334194   4.376474   4.098445   5.403534   2.450484
    20  H    4.918789   5.056715   4.799704   5.939920   2.615942
    21  H    4.836998   4.953781   4.360109   5.880306   3.322359
    22  H    4.685109   4.465331   4.559027   5.776302   2.917771
                   16         17         18         19         20
    16  O    0.000000
    17  N    2.267574   0.000000
    18  H    3.144136   1.009110   0.000000
    19  C    2.769284   1.456106   2.116670   0.000000
    20  H    2.488464   2.078087   2.960662   1.090967   0.000000
    21  H    3.777439   2.088101   2.385484   1.093489   1.784207
    22  H    3.106845   2.130143   2.629429   1.097668   1.772408
                   21         22
    21  H    0.000000
    22  H    1.786002   0.000000
 Stoichiometry    C6H12N2O2
 Framework group  C1[X(C6H12N2O2)]
 Deg. of freedom    60
 Full point group                 C1      NOp   1
 Largest Abelian subgroup         C1      NOp   1
 Largest concise Abelian subgroup C1      NOp   1
                         Standard orientation:                         
 ---------------------------------------------------------------------
 Center     Atomic      Atomic             Coordinates (Angstroms)
 Number     Number       Type             X           Y           Z
 ---------------------------------------------------------------------
      1          1           0       -3.593346   -1.421433    0.603209
      2          6           0       -3.055243   -0.968144   -0.230798
      3          1           0       -3.732213   -0.314929   -0.793020
      4          1           0       -2.710033   -1.765423   -0.899951
      5          6           0       -1.842100   -0.228602    0.303122
      6          8           0       -1.350834   -0.455881    1.395765
      7          7           0       -1.363370    0.792122   -0.517441
      8          1           0       -1.778066    0.765647   -1.442206
      9          6           0        0.076272    1.080783   -0.571105
     10          1           0        0.297417    1.370420   -1.605413
     11          6           0        0.408602    2.265189    0.354388
     12          1           0        0.265298    1.976182    1.399669
     13          1           0        1.432084    2.633792    0.213719
     14          1           0       -0.267721    3.096529    0.136211
     15          6           0        0.928890   -0.193277   -0.310228
     16          8           0        0.503141   -1.309986   -0.571395
     17          7           0        2.247526    0.031897   -0.025171
     18          1           0        2.505615    0.921939    0.374226
     19          6           0        3.153222   -1.085720    0.200426
     20          1           0        2.928306   -1.866003   -0.528121
     21          1           0        4.183508   -0.745279    0.065042
     22          1           0        3.043764   -1.514014    1.205143
 ---------------------------------------------------------------------
 Rotational constants (GHZ):      2.1386655      0.9094474      0.7501932

 **********************************************************************

            Population analysis using the SCF density.

 **********************************************************************

 Orbital symmetries:
       Occupied  (A) (A) (A) (A) (A) (A) (A) (A) (A) (A) (A) (A)
                 (A) (A) (A) (A) (A) (A) (A) (A) (A) (A) (A) (A)
                 (A) (A) (A) (A) (A) (A) (A) (A) (A) (A) (A) (A)
                 (A) (A) (A)
       Virtual   (A) (A) (A) (A) (A) (A) (A) (A) (A) (A) (A) (A)
                 (A) (A) (A) (A) (A) (A) (A) (A) (A) (A) (A) (A)
                 (A) (A) (A) (A) (A) (A) (A) (A) (A) (A) (A) (A)
                 (A) (A) (A) (A) (A) (A) (A) (A) (A) (A) (A) (A)
                 (A) (A) (A) (A) (A) (A) (A) (A) (A) (A) (A) (A)
                 (A) (A) (A) (A) (A) (A) (A) (A) (A) (A) (A) (A)
                 (A) (A) (A) (A) (A) (A) (A) (A) (A) (A) (A) (A)
                 (A) (A) (A) (A) (A) (A) (A) (A) (A) (A) (A) (A)
                 (A) (A) (A) (A) (A) (A) (A) (A) (A) (A) (A) (A)
                 (A) (A) (A) (A) (A) (A) (A) (A) (A) (A) (A) (A)
                 (A) (A) (A) (A) (A) (A) (A) (A) (A) (A) (A) (A)
                 (A) (A) (A)
 The electronic state is 1-A.
 Alpha  occ. eigenvalues --  -19.10793 -19.10283 -14.36008 -14.34924 -10.28270
 Alpha  occ. eigenvalues --  -10.27846 -10.24083 -10.21578 -10.18774 -10.18240
 Alpha  occ. eigenvalues --   -1.03396  -1.01677  -0.91740  -0.91333  -0.77655
 Alpha  occ. eigenvalues --   -0.72334  -0.70135  -0.64482  -0.58539  -0.56543
 Alpha  occ. eigenvalues --   -0.52002  -0.49732  -0.45751  -0.45415  -0.44049
 Alpha  occ. eigenvalues --   -0.43566  -0.42502  -0.41349  -0.39814  -0.39038
 Alpha  occ. eigenvalues --   -0.38770  -0.37966  -0.37481  -0.35612  -0.33258
 Alpha  occ. eigenvalues --   -0.26416  -0.24907  -0.24508  -0.23577
 Alpha virt. eigenvalues --    0.02159   0.03283   0.06711   0.08402   0.11872
 Alpha virt. eigenvalues --    0.13031   0.14395   0.15351   0.16130   0.16296
 Alpha virt. eigenvalues --    0.16988   0.17488   0.18311   0.19382   0.19576
 Alpha virt. eigenvalues --    0.20844   0.23385   0.26271   0.27646   0.32754
 Alpha virt. eigenvalues --    0.35129   0.39467   0.40655   0.50462   0.52404
 Alpha virt. eigenvalues --    0.52969   0.53696   0.55049   0.55826   0.57265
 Alpha virt. eigenvalues --    0.59410   0.60170   0.62231   0.64823   0.65840
 Alpha virt. eigenvalues --    0.68225   0.69273   0.70952   0.72035   0.72763
 Alpha virt. eigenvalues --    0.75415   0.78419   0.79917   0.82062   0.84306
 Alpha virt. eigenvalues --    0.84683   0.86096   0.86557   0.87549   0.88032
 Alpha virt. eigenvalues --    0.89243   0.91289   0.91588   0.92597   0.93153
 Alpha virt. eigenvalues --    0.93563   0.95649   0.95998   0.97513   1.02050
 Alpha virt. eigenvalues --    1.03370   1.05240   1.09266   1.13370   1.15493
 Alpha virt. eigenvalues --    1.18202   1.21498   1.27028   1.30330   1.33066
 Alpha virt. eigenvalues --    1.39100   1.40294   1.42743   1.46219   1.50575
 Alpha virt. eigenvalues --    1.53892   1.55210   1.61088   1.65402   1.67553
 Alpha virt. eigenvalues --    1.73334   1.76536   1.79901   1.80750   1.82195
 Alpha virt. eigenvalues --    1.83089   1.83318   1.87674   1.88627   1.92091
 Alpha virt. eigenvalues --    1.93072   1.99385   2.00501   2.02998   2.04923
 Alpha virt. eigenvalues --    2.05647   2.07731   2.10136   2.14008   2.15990
 Alpha virt. eigenvalues --    2.19751   2.19905   2.23462   2.26749   2.30109
 Alpha virt. eigenvalues --    2.32703   2.33483   2.36182   2.39074   2.45809
 Alpha virt. eigenvalues --    2.48480   2.48984   2.53148   2.56184   2.59710
 Alpha virt. eigenvalues --    2.62800   2.66833   2.72665   2.73945   2.84673
 Alpha virt. eigenvalues --    2.94700   2.99281   3.00673   3.12183   3.13673
 Alpha virt. eigenvalues --    3.91646   4.00801   4.04010   4.17579   4.20256
 Alpha virt. eigenvalues --    4.24131   4.29390   4.40395   4.47120   4.61784
          Condensed to atoms (all electrons):
              1          2          3          4          5          6
     1  H    0.516775   0.353442  -0.024438  -0.019789  -0.018553   0.004561
     2  C    0.353442   5.365773   0.341665   0.354201   0.337632  -0.079640
     3  H   -0.024438   0.341665   0.573196  -0.026900  -0.022807   0.002258
     4  H   -0.019789   0.354201  -0.026900   0.518085  -0.018989  -0.000402
     5  C   -0.018553   0.337632  -0.022807  -0.018989   4.300016   0.584645
     6  O    0.004561  -0.079640   0.002258  -0.000402   0.584645   8.064522
     7  N    0.004587  -0.127753   0.005359   0.000249   0.252127  -0.094020
     8  H   -0.000001   0.003311   0.000258   0.000106  -0.021220   0.004157
     9  C   -0.000178   0.008465   0.000007  -0.000477  -0.030215   0.008795
    10  H    0.000001  -0.000228  -0.000015   0.000012   0.005189   0.000303
    11  C    0.000009  -0.000194  -0.000018   0.000002  -0.003896  -0.002479
    12  H   -0.000001   0.000098  -0.000007   0.000000   0.002754   0.006318
    13  H    0.000000   0.000006   0.000000   0.000000   0.000152   0.000073
    14  H    0.000000   0.000004   0.000001   0.000000   0.000231  -0.000023
    15  C    0.000009  -0.000688   0.000061   0.000049   0.005936   0.006748
    16  O    0.000033  -0.002884   0.000025   0.002367   0.017480  -0.009477
    17  N    0.000000  -0.000039   0.000000   0.000006  -0.000059  -0.000897
    18  H    0.000000   0.000000   0.000000   0.000000  -0.000052   0.000012
    19  C    0.000000   0.000000   0.000000   0.000000  -0.000018   0.000006
    20  H    0.000000   0.000000   0.000000   0.000000  -0.000007   0.000006
    21  H    0.000000   0.000000   0.000000   0.000000   0.000000   0.000000
    22  H    0.000000   0.000000   0.000000   0.000000   0.000008   0.000007
              7          8          9         10         11         12
     1  H    0.004587  -0.000001  -0.000178   0.000001   0.000009  -0.000001
     2  C   -0.127753   0.003311   0.008465  -0.000228  -0.000194   0.000098
     3  H    0.005359   0.000258   0.000007  -0.000015  -0.000018  -0.000007
     4  H    0.000249   0.000106  -0.000477   0.000012   0.000002   0.000000
     5  C    0.252127  -0.021220  -0.030215   0.005189  -0.003896   0.002754
     6  O   -0.094020   0.004157   0.008795   0.000303  -0.002479   0.006318
     7  N    7.133072   0.289215   0.255146  -0.037529  -0.061429  -0.004826
     8  H    0.289215   0.439109  -0.031692  -0.007379   0.005512   0.000007
     9  C    0.255146  -0.031692   5.091179   0.375101   0.314711  -0.033423
    10  H   -0.037529  -0.007379   0.375101   0.577723  -0.044368   0.004732
    11  C   -0.061429   0.005512   0.314711  -0.044368   5.191947   0.376069
    12  H   -0.004826   0.000007  -0.033423   0.004732   0.376069   0.516440
    13  H    0.004621  -0.000194  -0.025802  -0.002349   0.342899  -0.028682
    14  H   -0.000530   0.000136  -0.022044  -0.002621   0.364623  -0.024861
    15  C   -0.044030   0.000692   0.335137  -0.031480  -0.040917  -0.001813
    16  O   -0.003298   0.000737  -0.074306  -0.000730   0.002496   0.000086
    17  N    0.003576  -0.000077  -0.111668  -0.000631   0.005883  -0.000170
    18  H    0.000101  -0.000010  -0.003519   0.000203   0.006788   0.000212
    19  C   -0.000086   0.000002   0.006428  -0.000179  -0.000244  -0.000111
    20  H   -0.000008   0.000000   0.000280  -0.000010  -0.000002  -0.000001
    21  H    0.000001   0.000000  -0.000119   0.000010   0.000004   0.000002
    22  H    0.000007   0.000000   0.000145  -0.000008  -0.000057  -0.000002
             13         14         15         16         17         18
     1  H    0.000000   0.000000   0.000009   0.000033   0.000000   0.000000
     2  C    0.000006   0.000004  -0.000688  -0.002884  -0.000039   0.000000
     3  H    0.000000   0.000001   0.000061   0.000025   0.000000   0.000000
     4  H    0.000000   0.000000   0.000049   0.002367   0.000006   0.000000
     5  C    0.000152   0.000231   0.005936   0.017480  -0.000059  -0.000052
     6  O    0.000073  -0.000023   0.006748  -0.009477  -0.000897   0.000012
     7  N    0.004621  -0.000530  -0.044030  -0.003298   0.003576   0.000101
     8  H   -0.000194   0.000136   0.000692   0.000737  -0.000077  -0.000010
     9  C   -0.025802  -0.022044   0.335137  -0.074306  -0.111668  -0.003519
    10  H   -0.002349  -0.002621  -0.031480  -0.000730  -0.000631   0.000203
    11  C    0.342899   0.364623  -0.040917   0.002496   0.005883   0.006788
    12  H   -0.028682  -0.024861  -0.001813   0.000086  -0.000170   0.000212
    13  H    0.604330  -0.027319  -0.003336  -0.000043  -0.000765   0.006191
    14  H   -0.027319   0.547363   0.003030  -0.000063   0.000036  -0.000170
    15  C   -0.003336   0.003030   4.369179   0.556440   0.257402  -0.017970
    16  O   -0.000043  -0.000063   0.556440   8.109872  -0.095314   0.003566
    17  N   -0.000765   0.000036   0.257402  -0.095314   7.096439   0.295294
    18  H    0.006191  -0.000170  -0.017970   0.003566   0.295294   0.409834
    19  C    0.000154   0.000003  -0.023560   0.001169   0.271105  -0.032245
    20  H   -0.000010   0.000001  -0.002934   0.012826  -0.039797   0.004211
    21  H   -0.000025   0.000000   0.004705   0.000620  -0.036089  -0.002224
    22  H    0.000025  -0.000001  -0.002831   0.001023  -0.043653   0.000006
             19         20         21         22
     1  H    0.000000   0.000000   0.000000   0.000000
     2  C    0.000000   0.000000   0.000000   0.000000
     3  H    0.000000   0.000000   0.000000   0.000000
     4  H    0.000000   0.000000   0.000000   0.000000
     5  C   -0.000018  -0.000007   0.000000   0.000008
     6  O    0.000006   0.000006   0.000000   0.000007
     7  N   -0.000086  -0.000008   0.000001   0.000007
     8  H    0.000002   0.000000   0.000000   0.000000
     9  C    0.006428   0.000280  -0.000119   0.000145
    10  H   -0.000179  -0.000010   0.000010  -0.000008
    11  C   -0.000244  -0.000002   0.000004  -0.000057
    12  H   -0.000111  -0.000001   0.000002  -0.000002
    13  H    0.000154  -0.000010  -0.000025   0.000025
    14  H    0.000003   0.000001   0.000000  -0.000001
    15  C   -0.023560  -0.002934   0.004705  -0.002831
    16  O    0.001169   0.012826   0.000620   0.001023
    17  N    0.271105  -0.039797  -0.036089  -0.043653
    18  H   -0.032245   0.004211  -0.002224   0.000006
    19  C    4.938834   0.381660   0.371700   0.387379
    20  H    0.381660   0.507527  -0.023140  -0.033698
    21  H    0.371700  -0.023140   0.573024  -0.037421
    22  H    0.387379  -0.033698  -0.037421   0.560441
 Mulliken atomic charges:
              1
     1  H    0.183542
     2  C   -0.553175
     3  H    0.151355
     4  H    0.191482
     5  C    0.609647
     6  O   -0.495472
     7  N   -0.574552
     8  H    0.317331
     9  C   -0.061952
    10  H    0.164252
    11  C   -0.457340
    12  H    0.187181
    13  H    0.130077
    14  H    0.162206
    15  C    0.630175
    16  O   -0.522625
    17  N   -0.600583
    18  H    0.329772
    19  C   -0.301998
    20  H    0.193096
    21  H    0.148953
    22  H    0.168629
 Sum of Mulliken atomic charges =   0.00000
 Mulliken charges with hydrogens summed into heavy atoms:
              1
     2  C   -0.026796
     5  C    0.609647
     6  O   -0.495472
     7  N   -0.257221
     9  C    0.102299
    11  C    0.022124
    15  C    0.630175
    16  O   -0.522625
    17  N   -0.270810
    19  C    0.208680
 Sum of Mulliken charges with hydrogens summed into heavy atoms =   0.00000
 Electronic spatial extent (au):  <R**2>=           1659.8719
 Charge=              0.0000 electrons
 Dipole moment (field-independent basis, Debye):
    X=              1.5321    Y=              2.7675    Z=             -2.2578  Tot=              3.8864
 Quadrupole moment (field-independent basis, Debye-Ang):
   XX=            -47.8486   YY=            -60.5928   ZZ=            -61.4304
   XY=              1.7169   XZ=              6.8082   YZ=             -0.7517
 Traceless Quadrupole moment (field-independent basis, Debye-Ang):
   XX=              8.7753   YY=             -3.9689   ZZ=             -4.8064
   XY=              1.7169   XZ=              6.8082   YZ=             -0.7517
 Octapole moment (field-independent basis, Debye-Ang**2):
  XXX=             10.6295  YYY=             -1.1136  ZZZ=             -8.4068  XYY=              3.4999
  XXY=             -8.2207  XXZ=             -1.0081  XZZ=              0.5095  YZZ=              3.2252
  YYZ=              0.8081  XYZ=              0.3617
 Hexadecapole moment (field-independent basis, Debye-Ang**3):
 XXXX=          -1281.0758 YYYY=           -553.2731 ZZZZ=           -201.6488 XXXY=              2.0664
 XXXZ=             15.5953 YYYX=              1.8134 YYYZ=             -2.8459 ZZZX=             11.4143
 ZZZY=             -2.6907 XXYY=           -309.7830 XXZZ=           -267.6431 YYZZ=           -123.9378
 XXYZ=             -0.8777 YYXZ=              1.5491 ZZXY=             -6.7868
 N-N= 5.669331915331D+02 E-N=-2.290313277610D+03  KE= 4.912309667945D+02
 1\1\GINC-NODE005\FOpt\RB3LYP\6-31G(d)\C6H12N2O2\MANAGER\11-Feb-2017\0\
 \# b3lyp/6-31G* Opt=(ModRedundant, maxcycles=1000, calcfc) geom=nocrow
 d\\Phi Psi fixed scan\\0,1\H,0.4230568968,4.121335689,-1.1505696306\C,
 1.1817380428,3.968907284,-0.3813095824\H,1.1605293171,2.9256795903,-0.
 0462008518\H,0.9461700347,4.6115291013,0.4755056388\C,2.5364350225,4.3
 766867384,-0.9310556328\O,2.6706659976,5.1152402236,-1.8919862181\N,3.
 6319096674,3.7855935132,-0.3026226457\H,3.3719862353,3.3163128005,0.55
 76560526\C,4.8908116739,4.5299057093,-0.1614133292\H,5.319607877,4.236
 0977709,0.8041946866\C,5.868436614,4.1238283909,-1.2790665933\H,5.4966
 851445,4.47166294,-2.2473046062\H,6.8803117566,4.5137907317,-1.1141140
 487\H,5.9438150144,3.0333778764,-1.316163024\C,4.6448085795,6.06152513
 42,-0.0524699344\O,3.5981876336,6.5089736426,0.3957304578\N,5.74856148
 65,6.8473932794,-0.239295004\H,6.5097171089,6.4802020842,-0.7907612143
 \C,5.6492813848,8.2955316978,-0.1240358418\H,5.0089844847,8.5319255957
 ,0.7270494876\H,6.6468757691,8.7111992338,0.0425292949\H,5.2116242583,
 8.7554009727,-1.0194974609\\Version=EM64L-G09RevA.02\State=1-A\HF=-495
 .8354267\RMSD=8.738e-09\RMSF=3.954e-03\Dipole=1.23734,-0.5719758,0.692
 6091\Quadrupole=2.9980773,1.7563495,-4.7544268,5.085341,-2.7241093,-2.
 9939354\PG=C01 [X(C6H12N2O2)]\\@


 SCIENCE IS LONG AND LIFE IS SHORT.

                     DON MOSER IN THE FEBRUARY 1979 SMITHSONIAN
 Job cpu time:  0 days  2 hours  9 minutes 40.4 seconds.
 File lengths (MBytes):  RWF=    186 Int=      0 D2E=      0 Chk=      4 Scr=      2
 Normal termination of Gaussian 09 at Sat Feb 11 00:01:05 2017.
