 Entering Gaussian System, Link 0=g09
 Initial command:
 /home/steboss/Software/g09/l1.exe /home/steboss/projects/phi_psi_scan/alanine/MP2/120/5226/Gau-24655.inp -scrdir=/home/steboss/projects/phi_psi_scan/alanine/MP2/120/5226/
 Entering Link 1 = /home/steboss/Software/g09/l1.exe PID=     24657.
  
 Copyright (c) 1988,1990,1992,1993,1995,1998,2003,2009, Gaussian, Inc.
                  All Rights Reserved.
  
 This is part of the Gaussian(R) 09 program.  It is based on
 the Gaussian(R) 03 system (copyright 2003, Gaussian, Inc.),
 the Gaussian(R) 98 system (copyright 1998, Gaussian, Inc.),
 the Gaussian(R) 94 system (copyright 1995, Gaussian, Inc.),
 the Gaussian 92(TM) system (copyright 1992, Gaussian, Inc.),
 the Gaussian 90(TM) system (copyright 1990, Gaussian, Inc.),
 the Gaussian 88(TM) system (copyright 1988, Gaussian, Inc.),
 the Gaussian 86(TM) system (copyright 1986, Carnegie Mellon
 University), and the Gaussian 82(TM) system (copyright 1983,
 Carnegie Mellon University). Gaussian is a federally registered
 trademark of Gaussian, Inc.
  
 This software contains proprietary and confidential information,
 including trade secrets, belonging to Gaussian, Inc.
  
 This software is provided under written license and may be
 used, copied, transmitted, or stored only in accord with that
 written license.
  
 The following legend is applicable only to US Government
 contracts under FAR:
  
                    RESTRICTED RIGHTS LEGEND
  
 Use, reproduction and disclosure by the US Government is
 subject to restrictions as set forth in subparagraphs (a)
 and (c) of the Commercial Computer Software - Restricted
 Rights clause in FAR 52.227-19.
  
 Gaussian, Inc.
 340 Quinnipiac St., Bldg. 40, Wallingford CT 06492
  
  
 ---------------------------------------------------------------
 Warning -- This program may not be used in any manner that
 competes with the business of Gaussian, Inc. or will provide
 assistance to any competitor of Gaussian, Inc.  The licensee
 of this program is prohibited from giving any competitor of
 Gaussian, Inc. access to this program.  By using this program,
 the user acknowledges that Gaussian, Inc. is engaged in the
 business of creating and licensing software in the field of
 computational chemistry and represents and warrants to the
 licensee that it is not a competitor of Gaussian, Inc. and that
 it will not use this program in any manner prohibited above.
 ---------------------------------------------------------------
  

 Cite this work as:
 Gaussian 09, Revision A.02,
 M. J. Frisch, G. W. Trucks, H. B. Schlegel, G. E. Scuseria, 
 M. A. Robb, J. R. Cheeseman, G. Scalmani, V. Barone, B. Mennucci, 
 G. A. Petersson, H. Nakatsuji, M. Caricato, X. Li, H. P. Hratchian, 
 A. F. Izmaylov, J. Bloino, G. Zheng, J. L. Sonnenberg, M. Hada, 
 M. Ehara, K. Toyota, R. Fukuda, J. Hasegawa, M. Ishida, T. Nakajima, 
 Y. Honda, O. Kitao, H. Nakai, T. Vreven, J. A. Montgomery, Jr., 
 J. E. Peralta, F. Ogliaro, M. Bearpark, J. J. Heyd, E. Brothers, 
 K. N. Kudin, V. N. Staroverov, R. Kobayashi, J. Normand, 
 K. Raghavachari, A. Rendell, J. C. Burant, S. S. Iyengar, J. Tomasi, 
 M. Cossi, N. Rega, J. M. Millam, M. Klene, J. E. Knox, J. B. Cross, 
 V. Bakken, C. Adamo, J. Jaramillo, R. Gomperts, R. E. Stratmann, 
 O. Yazyev, A. J. Austin, R. Cammi, C. Pomelli, J. W. Ochterski, 
 R. L. Martin, K. Morokuma, V. G. Zakrzewski, G. A. Voth, 
 P. Salvador, J. J. Dannenberg, S. Dapprich, A. D. Daniels, 
 O. Farkas, J. B. Foresman, J. V. Ortiz, J. Cioslowski, 
 and D. J. Fox, Gaussian, Inc., Wallingford CT, 2009.
 
 ******************************************
 Gaussian 09:  EM64L-G09RevA.02 11-Jun-2009
                12-Feb-2017 
 ******************************************
 %chk=structure_60.chk
 %NProcShared=8
 Will use up to    8 processors via shared memory.
 -------------------
 #SP MP2/aug-cc-pVDZ
 -------------------
 1/38=1/1;
 2/12=2,17=6,18=5,40=1/2;
 3/5=16,7=10,11=9,16=1,25=1,30=1/1,2,3;
 4//1;
 5/5=2,38=5/2;
 8/10=1/1;
 9/16=-3/6;
 6/7=2,8=2,9=2,10=2/1;
 99/5=1,9=1/99;
 -------------------------------
 Single Point calculation at MP2
 -------------------------------
 Symbolic Z-matrix:
 Charge =  0 Multiplicity = 1
 H                    -3.7274   -1.7894    0.0993 
 C                    -2.6529   -1.7928    0.2944 
 H                    -2.1774   -2.5667   -0.3175 
 H                    -2.5067   -2.0477    1.3505 
 C                    -2.1128   -0.3858    0.0429 
 O                    -2.766     0.6042    0.3334 
 N                    -0.8629   -0.3709   -0.5352 
 H                    -0.4194   -1.2766   -0.608 
 C                     0.0774    0.7587   -0.6822 
 H                     0.3199    0.8339   -1.7557 
 C                    -0.4344    2.1186   -0.2158 
 H                    -0.6397    2.12      0.8544 
 H                     0.3476    2.8581   -0.4146 
 H                    -1.3446    2.3975   -0.7458 
 C                     1.3886    0.3895    0.0593 
 O                     1.799     0.995     1.0358 
 N                     2.0072   -0.7437   -0.4228 
 H                     1.8151   -1.003    -1.3824 
 C                     3.2777   -1.189     0.1353 
 H                     3.2488   -1.0368    1.2149 
 H                     3.4167   -2.2521   -0.0794 
 H                     4.1302   -0.6257   -0.2667 
 
                          Input orientation:                          
 ---------------------------------------------------------------------
 Center     Atomic      Atomic             Coordinates (Angstroms)
 Number     Number       Type             X           Y           Z
 ---------------------------------------------------------------------
      1          1           0       -3.727400   -1.789400    0.099300
      2          6           0       -2.652900   -1.792800    0.294400
      3          1           0       -2.177400   -2.566700   -0.317500
      4          1           0       -2.506700   -2.047700    1.350500
      5          6           0       -2.112800   -0.385800    0.042900
      6          8           0       -2.766000    0.604200    0.333400
      7          7           0       -0.862900   -0.370900   -0.535200
      8          1           0       -0.419400   -1.276600   -0.608000
      9          6           0        0.077400    0.758700   -0.682200
     10          1           0        0.319900    0.833900   -1.755700
     11          6           0       -0.434400    2.118600   -0.215800
     12          1           0       -0.639700    2.120000    0.854400
     13          1           0        0.347600    2.858100   -0.414600
     14          1           0       -1.344600    2.397500   -0.745800
     15          6           0        1.388600    0.389500    0.059300
     16          8           0        1.799000    0.995000    1.035800
     17          7           0        2.007200   -0.743700   -0.422800
     18          1           0        1.815100   -1.003000   -1.382400
     19          6           0        3.277700   -1.189000    0.135300
     20          1           0        3.248800   -1.036800    1.214900
     21          1           0        3.416700   -2.252100   -0.079400
     22          1           0        4.130200   -0.625700   -0.266700
 ---------------------------------------------------------------------
                    Distance matrix (angstroms):
                    1          2          3          4          5
     1  H    0.000000
     2  C    1.092074   0.000000
     3  H    1.783373   1.095191   0.000000
     4  H    1.767011   1.096219   1.777645   0.000000
     5  C    2.140142   1.527943   2.211422   2.151020   0.000000
     6  O    2.590061   2.399984   3.290095   2.852070   1.221131
     7  N    3.258848   2.431900   2.568432   3.011578   1.377197
     8  H    3.421418   2.463597   2.199844   2.964311   2.021089
     9  C    4.645434   3.862439   4.034280   4.322652   2.575389
    10  H    5.167530   4.465423   4.457466   5.093306   3.262002
    11  C    5.120117   4.525605   5.000043   4.909764   3.025884
    12  H    5.038599   4.435829   5.069815   4.593640   3.017878
    13  H    6.202336   5.580014   5.984439   5.943861   4.097043
    14  H    4.891018   4.511350   5.051760   5.050223   2.993148
    15  C    5.560815   4.599068   4.647306   4.772893   3.586246
    16  O    6.258675   5.304801   5.507167   5.281677   4.265517
    17  N    5.852496   4.830271   4.565665   5.021982   4.161655
    18  H    5.790783   4.837196   4.418057   5.219013   4.223839
    19  C    7.030875   5.963380   5.644573   5.972718   5.450794
    20  H    7.104811   6.020708   5.842302   5.845176   5.526675
    21  H    7.161298   6.098420   5.607996   6.096971   5.837243
    22  H    7.951731   6.905607   6.599688   6.977525   6.255274
                    6          7          8          9         10
     6  O    0.000000
     7  N    2.308046   0.000000
     8  H    3.151218   1.011081   0.000000
     9  C    3.023283   1.477081   2.096369   0.000000
    10  H    3.733615   2.083310   2.513561   1.103115   0.000000
    11  C    2.833970   2.546221   3.417811   1.526039   2.142595
    12  H    2.662751   2.861012   3.704597   2.174514   3.063904
    13  H    3.915875   3.450550   4.209684   2.133565   2.428313
    14  H    2.530015   2.817876   3.791305   2.170667   2.497059
    15  C    4.169164   2.449672   2.547556   1.550928   2.152635
    16  O    4.635225   3.379266   3.575408   2.443618   3.163252
    17  N    5.017182   2.896392   2.491319   2.459395   2.666913
    18  H    5.149130   2.879059   2.380660   2.571666   2.397744
    19  C    6.307228   4.273573   3.772097   3.834548   4.051739
    20  H    6.296645   4.518003   4.103189   4.108599   4.571918
    21  H    6.823096   4.696982   3.993330   4.536431   4.682259
    22  H    7.030672   5.006802   4.608581   4.302835   4.343494
                   11         12         13         14         15
    11  C    0.000000
    12  H    1.089715   0.000000
    13  H    1.094489   1.769156   0.000000
    14  H    1.089564   1.770460   1.784765   0.000000
    15  C    2.527607   2.782232   2.720707   3.485776   0.000000
    16  O    2.795900   2.691800   2.771527   3.875994   1.220086
    17  N    3.767893   4.103425   3.965766   4.605001   1.378125
    18  H    4.020646   4.558777   4.242439   4.685335   2.049258
    19  C    4.984293   5.178089   5.026619   5.916500   2.462953
    20  H    5.056621   5.021532   5.122741   6.061195   2.613444
    21  H    5.826886   6.036690   5.970417   6.688262   3.333238
    22  H    5.326288   5.616732   5.144589   6.272377   2.941645
                   16         17         18         19         20
    16  O    0.000000
    17  N    2.279021   0.000000
    18  H    3.136870   1.012409   0.000000
    19  C    2.786989   1.457374   2.115941   0.000000
    20  H    2.502440   2.075943   2.966919   1.090659   0.000000
    21  H    3.795297   2.092817   2.413127   1.093434   1.783356
    22  H    3.123727   2.131999   2.597466   1.098029   1.772289
                   21         22
    21  H    0.000000
    22  H    1.785872   0.000000
 Stoichiometry    C6H12N2O2
 Framework group  C1[X(C6H12N2O2)]
 Deg. of freedom    60
 Full point group                 C1      NOp   1
 Largest Abelian subgroup         C1      NOp   1
 Largest concise Abelian subgroup C1      NOp   1
                         Standard orientation:                         
 ---------------------------------------------------------------------
 Center     Atomic      Atomic             Coordinates (Angstroms)
 Number     Number       Type             X           Y           Z
 ---------------------------------------------------------------------
      1          1           0       -3.727390   -1.789364    0.099300
      2          6           0       -2.652890   -1.792768    0.294400
      3          1           0       -2.177392   -2.566669   -0.317500
      4          1           0       -2.506691   -2.047668    1.350500
      5          6           0       -2.112786   -0.385769    0.042900
      6          8           0       -2.765983    0.604233    0.333400
      7          7           0       -0.862886   -0.370873   -0.535200
      8          1           0       -0.419388   -1.276574   -0.608000
      9          6           0        0.077418    0.758724   -0.682200
     10          1           0        0.319918    0.833923   -1.755700
     11          6           0       -0.434378    2.118626   -0.215800
     12          1           0       -0.639678    2.120026    0.854400
     13          1           0        0.347624    2.858123   -0.414600
     14          1           0       -1.344577    2.397528   -0.745800
     15          6           0        1.388617    0.389520    0.059300
     16          8           0        1.799018    0.995019    1.035800
     17          7           0        2.007213   -0.743682   -0.422800
     18          1           0        1.815112   -1.002981   -1.382400
     19          6           0        3.277712   -1.188985    0.135300
     20          1           0        3.248812   -1.036785    1.214900
     21          1           0        3.416709   -2.252086   -0.079400
     22          1           0        4.130214   -0.625688   -0.266700
 ---------------------------------------------------------------------
 Rotational constants (GHZ):      2.1325534      0.7808353      0.6334385
 Standard basis: Aug-CC-pVDZ (5D, 7F)
 There are   338 symmetry adapted basis functions of A   symmetry.
 Integral buffers will be    131072 words long.
 Raffenetti 1 integral format.
 Two-electron integral symmetry is turned on.
   338 basis functions,   562 primitive gaussians,   358 cartesian basis functions
    39 alpha electrons       39 beta electrons
       nuclear repulsion energy       551.9315515566 Hartrees.
 NAtoms=   22 NActive=   22 NUniq=   22 SFac= 7.50D-01 NAtFMM=   80 NAOKFM=F Big=F
 One-electron integrals computed using PRISM.
 NBasis=   338 RedAO= T  NBF=   338
 NBsUse=   338 1.00D-06 NBFU=   338
 Harris functional with IExCor=  205 diagonalized for initial guess.
 ExpMin= 2.97D-02 ExpMax= 1.17D+04 ExpMxC= 4.01D+02 IAcc=3 IRadAn=         0 AccDes= 0.00D+00
 HarFok:  IExCor=  205 AccDes= 0.00D+00 IRadAn=         0 IDoV= 1
 ScaDFX=  1.000000  1.000000  1.000000  1.000000
 FoFCou: FMM=F IPFlag=           0 FMFlag=      100000 FMFlg1=           0
         NFxFlg=           0 DoJE=T BraDBF=F KetDBF=T FulRan=T
         Omega=  0.000000  0.000000  1.000000  0.000000  0.000000 ICntrl=     500 IOpCl=  0
         NMat0=    1 NMatS0=    1 NMatT0=    0 NMatD0=    1 NMtDS0=    0 NMtDT0=    0
         I1Cent=           4 NGrid=           0.
 Petite list used in FoFCou.
 Initial guess orbital symmetries:
       Occupied  (A) (A) (A) (A) (A) (A) (A) (A) (A) (A) (A) (A)
                 (A) (A) (A) (A) (A) (A) (A) (A) (A) (A) (A) (A)
                 (A) (A) (A) (A) (A) (A) (A) (A) (A) (A) (A) (A)
                 (A) (A) (A)
       Virtual   (A) (A) (A) (A) (A) (A) (A) (A) (A) (A) (A) (A)
                 (A) (A) (A) (A) (A) (A) (A) (A) (A) (A) (A) (A)
                 (A) (A) (A) (A) (A) (A) (A) (A) (A) (A) (A) (A)
                 (A) (A) (A) (A) (A) (A) (A) (A) (A) (A) (A) (A)
                 (A) (A) (A) (A) (A) (A) (A) (A) (A) (A) (A) (A)
                 (A) (A) (A) (A) (A) (A) (A) (A) (A) (A) (A) (A)
                 (A) (A) (A) (A) (A) (A) (A) (A) (A) (A) (A) (A)
                 (A) (A) (A) (A) (A) (A) (A) (A) (A) (A) (A) (A)
                 (A) (A) (A) (A) (A) (A) (A) (A) (A) (A) (A) (A)
                 (A) (A) (A) (A) (A) (A) (A) (A) (A) (A) (A) (A)
                 (A) (A) (A) (A) (A) (A) (A) (A) (A) (A) (A) (A)
                 (A) (A) (A) (A) (A) (A) (A) (A) (A) (A) (A) (A)
                 (A) (A) (A) (A) (A) (A) (A) (A) (A) (A) (A) (A)
                 (A) (A) (A) (A) (A) (A) (A) (A) (A) (A) (A) (A)
                 (A) (A) (A) (A) (A) (A) (A) (A) (A) (A) (A) (A)
                 (A) (A) (A) (A) (A) (A) (A) (A) (A) (A) (A) (A)
                 (A) (A) (A) (A) (A) (A) (A) (A) (A) (A) (A) (A)
                 (A) (A) (A) (A) (A) (A) (A) (A) (A) (A) (A) (A)
                 (A) (A) (A) (A) (A) (A) (A) (A) (A) (A) (A) (A)
                 (A) (A) (A) (A) (A) (A) (A) (A) (A) (A) (A) (A)
                 (A) (A) (A) (A) (A) (A) (A) (A) (A) (A) (A) (A)
                 (A) (A) (A) (A) (A) (A) (A) (A) (A) (A) (A) (A)
                 (A) (A) (A) (A) (A) (A) (A) (A) (A) (A) (A) (A)
                 (A) (A) (A) (A) (A) (A) (A) (A) (A) (A) (A) (A)
                 (A) (A) (A) (A) (A) (A) (A) (A) (A) (A) (A)
 The electronic state of the initial guess is 1-A.
 Requested convergence on RMS density matrix=1.00D-08 within 128 cycles.
 Requested convergence on MAX density matrix=1.00D-06.
 Requested convergence on             energy=1.00D-06.
 No special actions if energy rises.
 Initial convergence to 1.0D-05 achieved.  Increase integral accuracy.
 SCF Done:  E(RHF) =  -492.909718642     A.U. after   14 cycles
             Convg  =    0.9798D-08             -V/T =  2.0017
 ExpMin= 2.97D-02 ExpMax= 1.17D+04 ExpMxC= 4.01D+02 IAcc=3 IRadAn=         5 AccDes= 0.00D+00
 HarFok:  IExCor=  205 AccDes= 0.00D+00 IRadAn=         5 IDoV=-2
 ScaDFX=  1.000000  1.000000  1.000000  1.000000
 Range of M.O.s used for correlation:    11   338
 NBasis=   338 NAE=    39 NBE=    39 NFC=    10 NFV=     0
 NROrb=    328 NOA=    29 NOB=    29 NVA=   299 NVB=   299

 **** Warning!!: The largest alpha MO coefficient is  0.63893595D+02

 Disk-based method using OVN memory for 29 occupieds at a time.
 Estimated scratch disk usage=  1377258380 words.
 Actual    scratch disk usage=  1364237244 words.
 JobTyp=1 Pass  1:  I=   1 to  29 NPSUse=  8 ParTrn=T ParDer=T DoDerP=F.
 Spin components of T(2) and E(2):
     alpha-alpha T2 =       0.6789382817D-01 E2=     -0.2055055738D+00
     alpha-beta  T2 =       0.3773078470D+00 E2=     -0.1190650237D+01
     beta-beta   T2 =       0.6789382817D-01 E2=     -0.2055055738D+00
 ANorm=    0.1230079470D+01
 E2 =    -0.1601661385D+01 EUMP2 =    -0.49451138002644D+03

 **********************************************************************

            Population analysis using the SCF density.

 **********************************************************************

 Orbital symmetries:
       Occupied  (A) (A) (A) (A) (A) (A) (A) (A) (A) (A) (A) (A)
                 (A) (A) (A) (A) (A) (A) (A) (A) (A) (A) (A) (A)
                 (A) (A) (A) (A) (A) (A) (A) (A) (A) (A) (A) (A)
                 (A) (A) (A)
       Virtual   (A) (A) (A) (A) (A) (A) (A) (A) (A) (A) (A) (A)
                 (A) (A) (A) (A) (A) (A) (A) (A) (A) (A) (A) (A)
                 (A) (A) (A) (A) (A) (A) (A) (A) (A) (A) (A) (A)
                 (A) (A) (A) (A) (A) (A) (A) (A) (A) (A) (A) (A)
                 (A) (A) (A) (A) (A) (A) (A) (A) (A) (A) (A) (A)
                 (A) (A) (A) (A) (A) (A) (A) (A) (A) (A) (A) (A)
                 (A) (A) (A) (A) (A) (A) (A) (A) (A) (A) (A) (A)
                 (A) (A) (A) (A) (A) (A) (A) (A) (A) (A) (A) (A)
                 (A) (A) (A) (A) (A) (A) (A) (A) (A) (A) (A) (A)
                 (A) (A) (A) (A) (A) (A) (A) (A) (A) (A) (A) (A)
                 (A) (A) (A) (A) (A) (A) (A) (A) (A) (A) (A) (A)
                 (A) (A) (A) (A) (A) (A) (A) (A) (A) (A) (A) (A)
                 (A) (A) (A) (A) (A) (A) (A) (A) (A) (A) (A) (A)
                 (A) (A) (A) (A) (A) (A) (A) (A) (A) (A) (A) (A)
                 (A) (A) (A) (A) (A) (A) (A) (A) (A) (A) (A) (A)
                 (A) (A) (A) (A) (A) (A) (A) (A) (A) (A) (A) (A)
                 (A) (A) (A) (A) (A) (A) (A) (A) (A) (A) (A) (A)
                 (A) (A) (A) (A) (A) (A) (A) (A) (A) (A) (A) (A)
                 (A) (A) (A) (A) (A) (A) (A) (A) (A) (A) (A) (A)
                 (A) (A) (A) (A) (A) (A) (A) (A) (A) (A) (A) (A)
                 (A) (A) (A) (A) (A) (A) (A) (A) (A) (A) (A) (A)
                 (A) (A) (A) (A) (A) (A) (A) (A) (A) (A) (A) (A)
                 (A) (A) (A) (A) (A) (A) (A) (A) (A) (A) (A) (A)
                 (A) (A) (A) (A) (A) (A) (A) (A) (A) (A) (A) (A)
                 (A) (A) (A) (A) (A) (A) (A) (A) (A) (A) (A)
 The electronic state is 1-A.
 Alpha  occ. eigenvalues --  -20.54560 -20.52883 -15.60669 -15.60268 -11.36784
 Alpha  occ. eigenvalues --  -11.36640 -11.30167 -11.27751 -11.24822 -11.21834
 Alpha  occ. eigenvalues --   -1.39832  -1.38307  -1.25159  -1.23057  -1.05537
 Alpha  occ. eigenvalues --   -0.98857  -0.96591  -0.87863  -0.80127  -0.77110
 Alpha  occ. eigenvalues --   -0.73017  -0.68974  -0.66448  -0.65238  -0.63112
 Alpha  occ. eigenvalues --   -0.61730  -0.60110  -0.59037  -0.56541  -0.55859
 Alpha  occ. eigenvalues --   -0.53468  -0.53038  -0.52751  -0.51709  -0.50764
 Alpha  occ. eigenvalues --   -0.45161  -0.41969  -0.40608  -0.38929
 Alpha virt. eigenvalues --    0.02007   0.03648   0.03924   0.04620   0.05540
 Alpha virt. eigenvalues --    0.05981   0.06433   0.06726   0.07376   0.07922
 Alpha virt. eigenvalues --    0.09044   0.09341   0.10458   0.12106   0.12598
 Alpha virt. eigenvalues --    0.13164   0.13360   0.14200   0.14601   0.15012
 Alpha virt. eigenvalues --    0.15699   0.15795   0.16133   0.16512   0.16879
 Alpha virt. eigenvalues --    0.17083   0.18085   0.18406   0.19260   0.19450
 Alpha virt. eigenvalues --    0.20231   0.20312   0.20578   0.20815   0.22077
 Alpha virt. eigenvalues --    0.23200   0.23714   0.24673   0.25583   0.26745
 Alpha virt. eigenvalues --    0.27571   0.28441   0.29309   0.29474   0.30652
 Alpha virt. eigenvalues --    0.30917   0.31316   0.31463   0.32752   0.33177
 Alpha virt. eigenvalues --    0.33462   0.34756   0.35848   0.36062   0.36433
 Alpha virt. eigenvalues --    0.37160   0.37232   0.38065   0.38330   0.39001
 Alpha virt. eigenvalues --    0.40381   0.41129   0.41653   0.42166   0.42749
 Alpha virt. eigenvalues --    0.43009   0.43446   0.44254   0.44712   0.44915
 Alpha virt. eigenvalues --    0.45389   0.47030   0.47716   0.48552   0.48999
 Alpha virt. eigenvalues --    0.49358   0.50078   0.50477   0.52445   0.52922
 Alpha virt. eigenvalues --    0.53524   0.53862   0.54555   0.55084   0.55868
 Alpha virt. eigenvalues --    0.56338   0.56838   0.57684   0.57957   0.59258
 Alpha virt. eigenvalues --    0.59400   0.60063   0.60196   0.61126   0.61891
 Alpha virt. eigenvalues --    0.62215   0.63166   0.64410   0.64894   0.65151
 Alpha virt. eigenvalues --    0.65496   0.66588   0.66666   0.67292   0.67839
 Alpha virt. eigenvalues --    0.68511   0.69375   0.70136   0.70578   0.70778
 Alpha virt. eigenvalues --    0.71377   0.72476   0.73114   0.74178   0.74997
 Alpha virt. eigenvalues --    0.76058   0.76624   0.78113   0.78598   0.79415
 Alpha virt. eigenvalues --    0.79819   0.80381   0.80846   0.81850   0.82634
 Alpha virt. eigenvalues --    0.83941   0.84510   0.87065   0.88366   0.88788
 Alpha virt. eigenvalues --    0.89007   0.90428   0.91152   0.91764   0.92722
 Alpha virt. eigenvalues --    0.94437   0.95713   0.96557   0.97191   0.97642
 Alpha virt. eigenvalues --    0.99667   1.01401   1.02028   1.02224   1.03627
 Alpha virt. eigenvalues --    1.04658   1.06828   1.07058   1.08779   1.10934
 Alpha virt. eigenvalues --    1.11778   1.12956   1.14058   1.14654   1.16091
 Alpha virt. eigenvalues --    1.17097   1.18333   1.19373   1.21766   1.22820
 Alpha virt. eigenvalues --    1.23589   1.25342   1.26046   1.27816   1.29065
 Alpha virt. eigenvalues --    1.31693   1.33758   1.34083   1.35608   1.37640
 Alpha virt. eigenvalues --    1.40155   1.42276   1.43337   1.44996   1.47774
 Alpha virt. eigenvalues --    1.48784   1.50615   1.52558   1.53401   1.54601
 Alpha virt. eigenvalues --    1.55237   1.56012   1.57542   1.61268   1.63703
 Alpha virt. eigenvalues --    1.64901   1.66965   1.69684   1.70562   1.71771
 Alpha virt. eigenvalues --    1.73484   1.74545   1.75617   1.77318   1.79559
 Alpha virt. eigenvalues --    1.82414   1.84483   1.85461   1.86072   1.88233
 Alpha virt. eigenvalues --    1.88678   1.89783   1.91558   1.91809   1.92944
 Alpha virt. eigenvalues --    1.94292   1.96252   1.98062   1.99171   2.02168
 Alpha virt. eigenvalues --    2.02736   2.03891   2.04534   2.07131   2.08246
 Alpha virt. eigenvalues --    2.09950   2.10931   2.14237   2.15045   2.16675
 Alpha virt. eigenvalues --    2.18010   2.18200   2.19630   2.21573   2.22141
 Alpha virt. eigenvalues --    2.23089   2.24976   2.26946   2.28604   2.29226
 Alpha virt. eigenvalues --    2.31730   2.32945   2.34778   2.36816   2.37570
 Alpha virt. eigenvalues --    2.39399   2.39514   2.41210   2.42535   2.45274
 Alpha virt. eigenvalues --    2.45927   2.46446   2.47835   2.48756   2.50792
 Alpha virt. eigenvalues --    2.52108   2.53901   2.56610   2.59140   2.59663
 Alpha virt. eigenvalues --    2.63487   2.64723   2.66002   2.66604   2.68000
 Alpha virt. eigenvalues --    2.70864   2.74564   2.76399   2.77641   2.79267
 Alpha virt. eigenvalues --    2.81208   2.83640   2.84454   2.86282   2.88774
 Alpha virt. eigenvalues --    2.90840   2.92044   2.92901   2.93515   2.96202
 Alpha virt. eigenvalues --    3.00877   3.02170   3.04506   3.06343   3.07957
 Alpha virt. eigenvalues --    3.11445   3.13560   3.16908   3.21111   3.24961
 Alpha virt. eigenvalues --    3.27567   3.30919   3.38323   3.48221   3.52060
 Alpha virt. eigenvalues --    3.60499   3.65013   3.79288   3.82031   3.83441
 Alpha virt. eigenvalues --    3.84547   3.86742   3.88141   3.98556   4.02638
 Alpha virt. eigenvalues --    4.08754   4.14502   4.20303   4.24711
          Condensed to atoms (all electrons):
              1          2          3          4          5          6
     1  H    0.794728   0.422054  -0.119013  -0.062305  -0.102999   0.033369
     2  C    0.422054   4.477260   0.294130   0.332812   0.200012  -0.012242
     3  H   -0.119013   0.294130   1.071414  -0.053984   0.166655  -0.010602
     4  H   -0.062305   0.332812  -0.053984   0.740585  -0.059343   0.011678
     5  C   -0.102999   0.200012   0.166655  -0.059343   5.525971   0.173541
     6  O    0.033369  -0.012242  -0.010602   0.011678   0.173541   8.663667
     7  N    0.047814  -0.028671  -0.162496   0.031714   0.097781  -0.102715
     8  H   -0.003358  -0.043851   0.001464  -0.011449  -0.231803   0.004848
     9  C    0.003842   0.014465  -0.041933   0.012359  -0.221730   0.044112
    10  H   -0.002648   0.003751   0.001369   0.001269  -0.020979   0.011868
    11  C    0.000627   0.002734  -0.000505  -0.000479  -0.047643  -0.004625
    12  H   -0.001466   0.005220   0.001703   0.000242   0.007063  -0.002097
    13  H   -0.000154  -0.005716  -0.001025   0.000315  -0.050200   0.006298
    14  H    0.001234   0.007529   0.000329  -0.000605   0.072522  -0.042356
    15  C   -0.001914  -0.016280  -0.012650   0.001709  -0.095133   0.028107
    16  O   -0.000053   0.000262   0.000135   0.000070   0.013689  -0.002318
    17  N   -0.000974   0.005173   0.005501   0.001764  -0.016032   0.001174
    18  H    0.000269  -0.000252   0.000559  -0.000323  -0.000378  -0.000565
    19  C   -0.000540  -0.003345  -0.001505   0.000286  -0.016681   0.000754
    20  H   -0.000145  -0.000507   0.000124   0.000122  -0.000608  -0.000057
    21  H    0.000011  -0.000090  -0.000790   0.000012  -0.000695   0.000046
    22  H    0.000006   0.000265   0.000217   0.000015  -0.001192   0.000081
              7          8          9         10         11         12
     1  H    0.047814  -0.003358   0.003842  -0.002648   0.000627  -0.001466
     2  C   -0.028671  -0.043851   0.014465   0.003751   0.002734   0.005220
     3  H   -0.162496   0.001464  -0.041933   0.001369  -0.000505   0.001703
     4  H    0.031714  -0.011449   0.012359   0.001269  -0.000479   0.000242
     5  C    0.097781  -0.231803  -0.221730  -0.020979  -0.047643   0.007063
     6  O   -0.102715   0.004848   0.044112   0.011868  -0.004625  -0.002097
     7  N    7.439318   0.321812  -0.269319  -0.106162   0.000673  -0.005975
     8  H    0.321812   1.067988  -0.070672   0.022954  -0.013510  -0.006089
     9  C   -0.269319  -0.070672   7.662694  -0.128995  -0.085319  -0.093809
    10  H   -0.106162   0.022954  -0.128995   1.360831   0.009068   0.071556
    11  C    0.000673  -0.013510  -0.085319   0.009068   4.479201   0.320092
    12  H   -0.005975  -0.006089  -0.093809   0.071556   0.320092   0.979067
    13  H    0.072831  -0.000692  -0.126855  -0.064769   0.280933  -0.155915
    14  H   -0.038375   0.000442   0.174424  -0.052418   0.203460  -0.184789
    15  C    0.153610  -0.029434  -0.759447   0.063069   0.147427   0.010971
    16  O   -0.001956   0.004019  -0.062922  -0.007785  -0.024767   0.014418
    17  N   -0.045916  -0.000118   0.133238  -0.009396  -0.037590   0.002971
    18  H    0.015873   0.006568  -0.083415   0.004239   0.019330  -0.002182
    19  C    0.008280   0.012049  -0.048109   0.019242   0.009822   0.003670
    20  H    0.002615   0.002810   0.020317   0.005296  -0.005278   0.001420
    21  H   -0.001029   0.002894  -0.025835  -0.003093   0.004761  -0.000047
    22  H   -0.004478  -0.006231   0.022067   0.001583   0.001538   0.000255
             13         14         15         16         17         18
     1  H   -0.000154   0.001234  -0.001914  -0.000053  -0.000974   0.000269
     2  C   -0.005716   0.007529  -0.016280   0.000262   0.005173  -0.000252
     3  H   -0.001025   0.000329  -0.012650   0.000135   0.005501   0.000559
     4  H    0.000315  -0.000605   0.001709   0.000070   0.001764  -0.000323
     5  C   -0.050200   0.072522  -0.095133   0.013689  -0.016032  -0.000378
     6  O    0.006298  -0.042356   0.028107  -0.002318   0.001174  -0.000565
     7  N    0.072831  -0.038375   0.153610  -0.001956  -0.045916   0.015873
     8  H   -0.000692   0.000442  -0.029434   0.004019  -0.000118   0.006568
     9  C   -0.126855   0.174424  -0.759447  -0.062922   0.133238  -0.083415
    10  H   -0.064769  -0.052418   0.063069  -0.007785  -0.009396   0.004239
    11  C    0.280933   0.203460   0.147427  -0.024767  -0.037590   0.019330
    12  H   -0.155915  -0.184789   0.010971   0.014418   0.002971  -0.002182
    13  H    1.283059  -0.218543   0.083958  -0.000881  -0.000878   0.003329
    14  H   -0.218543   1.095416  -0.088809   0.010874   0.002394   0.000662
    15  C    0.083958  -0.088809   5.280430   0.354312   0.097013  -0.002249
    16  O   -0.000881   0.010874   0.354312   8.667364  -0.197622   0.007156
    17  N   -0.000878   0.002394   0.097013  -0.197622   7.213873   0.257802
    18  H    0.003329   0.000662  -0.002249   0.007156   0.257802   0.977452
    19  C    0.002702  -0.001722  -0.097657  -0.003964   0.227707  -0.114387
    20  H   -0.000730  -0.000658   0.006167  -0.008301  -0.020412   0.006419
    21  H    0.000745   0.000217   0.012727   0.011171  -0.172726   0.017267
    22  H   -0.000879   0.000033  -0.044868   0.001177   0.063149  -0.011621
             19         20         21         22
     1  H   -0.000540  -0.000145   0.000011   0.000006
     2  C   -0.003345  -0.000507  -0.000090   0.000265
     3  H   -0.001505   0.000124  -0.000790   0.000217
     4  H    0.000286   0.000122   0.000012   0.000015
     5  C   -0.016681  -0.000608  -0.000695  -0.001192
     6  O    0.000754  -0.000057   0.000046   0.000081
     7  N    0.008280   0.002615  -0.001029  -0.004478
     8  H    0.012049   0.002810   0.002894  -0.006231
     9  C   -0.048109   0.020317  -0.025835   0.022067
    10  H    0.019242   0.005296  -0.003093   0.001583
    11  C    0.009822  -0.005278   0.004761   0.001538
    12  H    0.003670   0.001420  -0.000047   0.000255
    13  H    0.002702  -0.000730   0.000745  -0.000879
    14  H   -0.001722  -0.000658   0.000217   0.000033
    15  C   -0.097657   0.006167   0.012727  -0.044868
    16  O   -0.003964  -0.008301   0.011171   0.001177
    17  N    0.227707  -0.020412  -0.172726   0.063149
    18  H   -0.114387   0.006419   0.017267  -0.011621
    19  C    4.097195   0.408091   0.433795   0.315744
    20  H    0.408091   0.942480  -0.164485  -0.084456
    21  H    0.433795  -0.164485   1.229188  -0.170301
    22  H    0.315744  -0.084456  -0.170301   0.983983
 Mulliken atomic charges:
              1
     1  H   -0.008387
     2  C    0.345288
     3  H   -0.139096
     4  H    0.053536
     5  C    0.608181
     6  O   -0.801965
     7  N   -0.425227
     8  H   -0.030638
     9  C   -0.069158
    10  H   -0.179850
    11  C    0.740048
    12  H    0.033723
    13  H   -0.106933
    14  H    0.058742
    15  C    0.908940
    16  O   -0.774075
    17  N   -0.510095
    18  H   -0.101552
    19  C    0.748573
    20  H   -0.110224
    21  H   -0.173743
    22  H   -0.066086
 Sum of Mulliken atomic charges =   0.00000
 Mulliken charges with hydrogens summed into heavy atoms:
              1
     2  C    0.251341
     5  C    0.608181
     6  O   -0.801965
     7  N   -0.455866
     9  C   -0.249008
    11  C    0.725580
    15  C    0.908940
    16  O   -0.774075
    17  N   -0.611647
    19  C    0.398520
 Sum of Mulliken charges with hydrogens summed into heavy atoms =   0.00000
 Electronic spatial extent (au):  <R**2>=           1858.4934
 Charge=              0.0000 electrons
 Dipole moment (field-independent basis, Debye):
    X=              2.4356    Y=             -4.6819    Z=             -3.5918  Tot=              6.3838
 Quadrupole moment (field-independent basis, Debye-Ang):
   XX=            -67.1731   YY=            -58.4909   ZZ=            -61.3248
   XY=              1.2781   XZ=             -4.1024   YZ=             -2.7900
 Traceless Quadrupole moment (field-independent basis, Debye-Ang):
   XX=             -4.8435   YY=              3.8387   ZZ=              1.0048
   XY=              1.2781   XZ=             -4.1024   YZ=             -2.7900
 Octapole moment (field-independent basis, Debye-Ang**2):
  XXX=             40.1952  YYY=             -5.0997  ZZZ=             -2.2343  XYY=             -2.6799
  XXY=            -35.7059  XXZ=            -12.8524  XZZ=              0.2956  YZZ=             -5.2445
  YYZ=             -4.8493  XYZ=             -0.5867
 Hexadecapole moment (field-independent basis, Debye-Ang**3):
 XXXX=          -1653.5466 YYYY=           -611.6563 ZZZZ=           -172.0368 XXXY=             23.8184
 XXXZ=              8.2947 YYYX=             -7.9349 YYYZ=              6.3162 ZZZX=            -11.7179
 ZZZY=              1.4688 XXYY=           -365.5669 XXZZ=           -306.3071 YYZZ=           -131.5613
 XXYZ=            -16.1053 YYXZ=             -8.9364 ZZXY=             -9.1009
 N-N= 5.519315515566D+02 E-N=-2.258986665907D+03  KE= 4.920497090296D+02
 1\1\GINC-NODE007\SP\RMP2-FC\Aug-CC-pVDZ\C6H12N2O2\MANAGER\12-Feb-2017\
 0\\#SP MP2/aug-cc-pVDZ\\Single Point calculation at MP2\\0,1\H,0,-3.72
 74,-1.7894,0.0993\C,0,-2.6529,-1.7928,0.2944\H,0,-2.1774,-2.5667,-0.31
 75\H,0,-2.5067,-2.0477,1.3505\C,0,-2.1128,-0.3858,0.0429\O,0,-2.766,0.
 6042,0.3334\N,0,-0.8629,-0.3709,-0.5352\H,0,-0.4194,-1.2766,-0.608\C,0
 ,0.0774,0.7587,-0.6822\H,0,0.3199,0.8339,-1.7557\C,0,-0.4344,2.1186,-0
 .2158\H,0,-0.6397,2.12,0.8544\H,0,0.3476,2.8581,-0.4146\H,0,-1.3446,2.
 3975,-0.7458\C,0,1.3886,0.3895,0.0593\O,0,1.799,0.995,1.0358\N,0,2.007
 2,-0.7437,-0.4228\H,0,1.8151,-1.003,-1.3824\C,0,3.2777,-1.189,0.1353\H
 ,0,3.2488,-1.0368,1.2149\H,0,3.4167,-2.2521,-0.0794\H,0,4.1302,-0.6257
 ,-0.2667\\Version=EM64L-G09RevA.02\State=1-A\HF=-492.9097186\MP2=-494.
 51138\RMSD=9.798e-09\PG=C01 [X(C6H12N2O2)]\\@


 IT CANNOT BE MY BEAUTY, FOR I HAVE NONE; AND IT CANNOT BE MY WIT,
 FOR HE HAS NOT ENOUGH TO KNOW THAT I HAVE ANY.
 -- CATHARINE SEDLEY, PUZZLED ABOUT WHY SHE WAS MISTRESS TO JAMES II
 Job cpu time:  0 days 14 hours 52 minutes 34.1 seconds.
 File lengths (MBytes):  RWF=  10525 Int=      0 D2E=      0 Chk=      7 Scr=      2
 Normal termination of Gaussian 09 at Sun Feb 12 18:03:43 2017.
