 Entering Gaussian System, Link 0=g09
 Initial command:
 /home/steboss/Software/g09/l1.exe /home/steboss/projects/phi_psi_scan/alanine/MP2/120/5215/Gau-19842.inp -scrdir=/home/steboss/projects/phi_psi_scan/alanine/MP2/120/5215/
 Entering Link 1 = /home/steboss/Software/g09/l1.exe PID=     19844.
  
 Copyright (c) 1988,1990,1992,1993,1995,1998,2003,2009, Gaussian, Inc.
                  All Rights Reserved.
  
 This is part of the Gaussian(R) 09 program.  It is based on
 the Gaussian(R) 03 system (copyright 2003, Gaussian, Inc.),
 the Gaussian(R) 98 system (copyright 1998, Gaussian, Inc.),
 the Gaussian(R) 94 system (copyright 1995, Gaussian, Inc.),
 the Gaussian 92(TM) system (copyright 1992, Gaussian, Inc.),
 the Gaussian 90(TM) system (copyright 1990, Gaussian, Inc.),
 the Gaussian 88(TM) system (copyright 1988, Gaussian, Inc.),
 the Gaussian 86(TM) system (copyright 1986, Carnegie Mellon
 University), and the Gaussian 82(TM) system (copyright 1983,
 Carnegie Mellon University). Gaussian is a federally registered
 trademark of Gaussian, Inc.
  
 This software contains proprietary and confidential information,
 including trade secrets, belonging to Gaussian, Inc.
  
 This software is provided under written license and may be
 used, copied, transmitted, or stored only in accord with that
 written license.
  
 The following legend is applicable only to US Government
 contracts under FAR:
  
                    RESTRICTED RIGHTS LEGEND
  
 Use, reproduction and disclosure by the US Government is
 subject to restrictions as set forth in subparagraphs (a)
 and (c) of the Commercial Computer Software - Restricted
 Rights clause in FAR 52.227-19.
  
 Gaussian, Inc.
 340 Quinnipiac St., Bldg. 40, Wallingford CT 06492
  
  
 ---------------------------------------------------------------
 Warning -- This program may not be used in any manner that
 competes with the business of Gaussian, Inc. or will provide
 assistance to any competitor of Gaussian, Inc.  The licensee
 of this program is prohibited from giving any competitor of
 Gaussian, Inc. access to this program.  By using this program,
 the user acknowledges that Gaussian, Inc. is engaged in the
 business of creating and licensing software in the field of
 computational chemistry and represents and warrants to the
 licensee that it is not a competitor of Gaussian, Inc. and that
 it will not use this program in any manner prohibited above.
 ---------------------------------------------------------------
  

 Cite this work as:
 Gaussian 09, Revision A.02,
 M. J. Frisch, G. W. Trucks, H. B. Schlegel, G. E. Scuseria, 
 M. A. Robb, J. R. Cheeseman, G. Scalmani, V. Barone, B. Mennucci, 
 G. A. Petersson, H. Nakatsuji, M. Caricato, X. Li, H. P. Hratchian, 
 A. F. Izmaylov, J. Bloino, G. Zheng, J. L. Sonnenberg, M. Hada, 
 M. Ehara, K. Toyota, R. Fukuda, J. Hasegawa, M. Ishida, T. Nakajima, 
 Y. Honda, O. Kitao, H. Nakai, T. Vreven, J. A. Montgomery, Jr., 
 J. E. Peralta, F. Ogliaro, M. Bearpark, J. J. Heyd, E. Brothers, 
 K. N. Kudin, V. N. Staroverov, R. Kobayashi, J. Normand, 
 K. Raghavachari, A. Rendell, J. C. Burant, S. S. Iyengar, J. Tomasi, 
 M. Cossi, N. Rega, J. M. Millam, M. Klene, J. E. Knox, J. B. Cross, 
 V. Bakken, C. Adamo, J. Jaramillo, R. Gomperts, R. E. Stratmann, 
 O. Yazyev, A. J. Austin, R. Cammi, C. Pomelli, J. W. Ochterski, 
 R. L. Martin, K. Morokuma, V. G. Zakrzewski, G. A. Voth, 
 P. Salvador, J. J. Dannenberg, S. Dapprich, A. D. Daniels, 
 O. Farkas, J. B. Foresman, J. V. Ortiz, J. Cioslowski, 
 and D. J. Fox, Gaussian, Inc., Wallingford CT, 2009.
 
 ******************************************
 Gaussian 09:  EM64L-G09RevA.02 11-Jun-2009
                12-Feb-2017 
 ******************************************
 %chk=structure_225.chk
 %NProcShared=8
 Will use up to    8 processors via shared memory.
 -------------------
 #SP MP2/aug-cc-pVDZ
 -------------------
 1/38=1/1;
 2/12=2,17=6,18=5,40=1/2;
 3/5=16,7=10,11=9,16=1,25=1,30=1/1,2,3;
 4//1;
 5/5=2,38=5/2;
 8/10=1/1;
 9/16=-3/6;
 6/7=2,8=2,9=2,10=2/1;
 99/5=1,9=1/99;
 -------------------------------
 Single Point calculation at MP2
 -------------------------------
 Symbolic Z-matrix:
 Charge =  0 Multiplicity = 1
 H                    -4.1141   -0.9562    0.1643 
 C                    -3.0961   -1.2627    0.4211 
 H                    -2.828    -2.1446   -0.1684 
 H                    -3.0949   -1.5325    1.4824 
 C                    -2.1668   -0.0683    0.2205 
 O                    -2.4183    1.0176    0.7295 
 N                    -1.0841   -0.3345   -0.5738 
 H                    -0.9118   -1.3034   -0.8136 
 C                     0.0904    0.4981   -0.8554 
 H                     0.2057    0.5212   -1.9497 
 C                     0.0029    1.9482   -0.3743 
 H                    -0.0534    2.0289    0.7133 
 H                     0.8791    2.4956   -0.7438 
 H                    -0.8898    2.4315   -0.7719 
 C                     1.3122   -0.3226   -0.3673 
 O                     1.379    -1.5158   -0.6563 
 N                     2.2593    0.3278    0.3555 
 H                     2.1055    1.2949    0.5976 
 C                     3.4482   -0.3357    0.8656 
 H                     3.4299   -1.3642    0.5037 
 H                     4.3572    0.1597    0.5061 
 H                     3.4571   -0.341     1.9618 
 
                          Input orientation:                          
 ---------------------------------------------------------------------
 Center     Atomic      Atomic             Coordinates (Angstroms)
 Number     Number       Type             X           Y           Z
 ---------------------------------------------------------------------
      1          1           0       -4.114100   -0.956200    0.164300
      2          6           0       -3.096100   -1.262700    0.421100
      3          1           0       -2.828000   -2.144600   -0.168400
      4          1           0       -3.094900   -1.532500    1.482400
      5          6           0       -2.166800   -0.068300    0.220500
      6          8           0       -2.418300    1.017600    0.729500
      7          7           0       -1.084100   -0.334500   -0.573800
      8          1           0       -0.911800   -1.303400   -0.813600
      9          6           0        0.090400    0.498100   -0.855400
     10          1           0        0.205700    0.521200   -1.949700
     11          6           0        0.002900    1.948200   -0.374300
     12          1           0       -0.053400    2.028900    0.713300
     13          1           0        0.879100    2.495600   -0.743800
     14          1           0       -0.889800    2.431500   -0.771900
     15          6           0        1.312200   -0.322600   -0.367300
     16          8           0        1.379000   -1.515800   -0.656300
     17          7           0        2.259300    0.327800    0.355500
     18          1           0        2.105500    1.294900    0.597600
     19          6           0        3.448200   -0.335700    0.865600
     20          1           0        3.429900   -1.364200    0.503700
     21          1           0        4.357200    0.159700    0.506100
     22          1           0        3.457100   -0.341000    1.961800
 ---------------------------------------------------------------------
                    Distance matrix (angstroms):
                    1          2          3          4          5
     1  H    0.000000
     2  C    1.093715   0.000000
     3  H    1.782424   1.094137   0.000000
     4  H    1.763031   1.095058   1.780742   0.000000
     5  C    2.140912   1.526575   2.213470   2.144211   0.000000
     6  O    2.662907   2.398810   3.312641   2.743657   1.225362
     7  N    3.179969   2.428894   2.545977   3.115522   1.368946
     8  H    3.366238   2.509444   2.189914   3.176481   2.042023
     9  C    4.564274   3.857934   3.996610   4.442385   2.563849
    10  H    5.031141   4.439017   4.413939   5.185649   3.268950
    11  C    5.067082   4.532807   4.980703   5.015872   3.021201
    12  H    5.069665   4.491997   5.088605   4.746136   3.017873
    13  H    6.137721   5.593212   5.967004   6.080644   4.096458
    14  H    4.769601   4.465212   5.006148   5.065336   2.977346
    15  C    5.488969   4.575857   4.527748   4.930292   3.537459
    16  O    5.582176   4.609921   4.281622   4.958840   3.928961
    17  N    6.504263   5.586976   5.680480   5.779107   4.445839
    18  H    6.628622   5.799061   6.062701   5.985083   4.500341
    19  C    7.620054   6.624558   6.613015   6.680189   5.658258
    20  H    7.562645   6.527312   6.342086   6.599939   5.751748
    21  H    8.551315   7.588289   7.575741   7.703927   6.534227
    22  H    7.805930   6.794683   6.877006   6.676691   5.893619
                    6          7          8          9         10
     6  O    0.000000
     7  N    2.303661   0.000000
     8  H    3.168239   1.012896   0.000000
     9  C    3.012534   1.466960   2.061930   0.000000
    10  H    3.782843   2.070968   2.422539   1.100600   0.000000
    11  C    2.818971   2.536156   3.406254   1.530328   2.135262
    12  H    2.572109   2.881775   3.764638   2.196553   3.071134
    13  H    3.902300   3.448553   4.200547   2.150467   2.409547
    14  H    2.567027   2.779883   3.735198   2.169286   2.497314
    15  C    4.112874   2.405211   2.471301   1.550673   2.107209
    16  O    4.770539   2.732972   2.305997   2.399151   2.683074
    17  N    4.742957   3.532784   3.752797   2.489861   3.093319
    18  H    4.534210   3.768378   4.224541   2.608971   3.270564
    19  C    6.022106   4.755378   4.771347   3.864180   4.378812
    20  H    6.318655   4.753681   4.537547   4.058026   4.468710
    21  H    6.833250   5.569395   5.625356   4.491523   4.837002
    22  H    6.155053   5.201135   5.264632   4.469382   5.158956
                   11         12         13         14         15
    11  C    0.000000
    12  H    1.092042   0.000000
    13  H    1.097225   1.791788   0.000000
    14  H    1.090219   1.751420   1.770284   0.000000
    15  C    2.621230   2.926109   2.876035   3.549306   0.000000
    16  O    3.737977   4.061092   4.043376   4.554338   1.229516
    17  N    2.872220   2.893155   2.795133   3.951381   1.357372
    18  H    2.406723   2.283198   2.178323   3.484137   2.043689
    19  C    4.315512   4.227970   4.148096   5.399726   2.466315
    20  H    4.846360   4.867282   4.791753   5.890187   2.515596
    21  H    4.788921   4.794813   4.372169   5.858786   3.204289
    22  H    4.757026   4.415743   4.691765   5.835701   3.166329
                   16         17         18         19         20
    16  O    0.000000
    17  N    2.279809   0.000000
    18  H    3.162294   1.008736   0.000000
    19  C    2.826730   1.453932   2.129207   0.000000
    20  H    2.361096   2.062797   2.972148   1.090467   0.000000
    21  H    3.609453   2.110005   2.523332   1.095875   1.783862
    22  H    3.543036   2.112396   2.522704   1.096249   1.781498
                   21         22
    21  H    0.000000
    22  H    1.783239   0.000000
 Stoichiometry    C6H12N2O2
 Framework group  C1[X(C6H12N2O2)]
 Deg. of freedom    60
 Full point group                 C1      NOp   1
 Largest Abelian subgroup         C1      NOp   1
 Largest concise Abelian subgroup C1      NOp   1
                         Standard orientation:                         
 ---------------------------------------------------------------------
 Center     Atomic      Atomic             Coordinates (Angstroms)
 Number     Number       Type             X           Y           Z
 ---------------------------------------------------------------------
      1          1           0       -4.114093   -0.956183    0.164294
      2          6           0       -3.096094   -1.262686    0.421094
      3          1           0       -2.827996   -2.144586   -0.168406
      4          1           0       -3.094894   -1.532486    1.482394
      5          6           0       -2.166791   -0.068288    0.220494
      6          8           0       -2.418289    1.017613    0.729494
      7          7           0       -1.084092   -0.334490   -0.573806
      8          1           0       -0.911794   -1.303390   -0.813606
      9          6           0        0.090410    0.498107   -0.855406
     10          1           0        0.205710    0.521207   -1.949706
     11          6           0        0.002913    1.948208   -0.374306
     12          1           0       -0.053387    2.028908    0.713294
     13          1           0        0.879114    2.495606   -0.743806
     14          1           0       -0.889786    2.431510   -0.771906
     15          6           0        1.312208   -0.322595   -0.367306
     16          8           0        1.379006   -1.515795   -0.656306
     17          7           0        2.259310    0.327803    0.355494
     18          1           0        2.105512    1.294903    0.597594
     19          6           0        3.448208   -0.335700    0.865594
     20          1           0        3.429906   -1.364200    0.503694
     21          1           0        4.357209    0.159698    0.506094
     22          1           0        3.457108   -0.341000    1.961794
 ---------------------------------------------------------------------
 Rotational constants (GHZ):      2.3511336      0.7321090      0.6410219
 Standard basis: Aug-CC-pVDZ (5D, 7F)
 There are   338 symmetry adapted basis functions of A   symmetry.
 Integral buffers will be    131072 words long.
 Raffenetti 1 integral format.
 Two-electron integral symmetry is turned on.
   338 basis functions,   562 primitive gaussians,   358 cartesian basis functions
    39 alpha electrons       39 beta electrons
       nuclear repulsion energy       552.4801972273 Hartrees.
 NAtoms=   22 NActive=   22 NUniq=   22 SFac= 7.50D-01 NAtFMM=   80 NAOKFM=F Big=F
 One-electron integrals computed using PRISM.
 NBasis=   338 RedAO= T  NBF=   338
 NBsUse=   338 1.00D-06 NBFU=   338
 Harris functional with IExCor=  205 diagonalized for initial guess.
 ExpMin= 2.97D-02 ExpMax= 1.17D+04 ExpMxC= 4.01D+02 IAcc=3 IRadAn=         0 AccDes= 0.00D+00
 HarFok:  IExCor=  205 AccDes= 0.00D+00 IRadAn=         0 IDoV= 1
 ScaDFX=  1.000000  1.000000  1.000000  1.000000
 FoFCou: FMM=F IPFlag=           0 FMFlag=      100000 FMFlg1=           0
         NFxFlg=           0 DoJE=T BraDBF=F KetDBF=T FulRan=T
         Omega=  0.000000  0.000000  1.000000  0.000000  0.000000 ICntrl=     500 IOpCl=  0
         NMat0=    1 NMatS0=    1 NMatT0=    0 NMatD0=    1 NMtDS0=    0 NMtDT0=    0
         I1Cent=           4 NGrid=           0.
 Petite list used in FoFCou.
 Initial guess orbital symmetries:
       Occupied  (A) (A) (A) (A) (A) (A) (A) (A) (A) (A) (A) (A)
                 (A) (A) (A) (A) (A) (A) (A) (A) (A) (A) (A) (A)
                 (A) (A) (A) (A) (A) (A) (A) (A) (A) (A) (A) (A)
                 (A) (A) (A)
       Virtual   (A) (A) (A) (A) (A) (A) (A) (A) (A) (A) (A) (A)
                 (A) (A) (A) (A) (A) (A) (A) (A) (A) (A) (A) (A)
                 (A) (A) (A) (A) (A) (A) (A) (A) (A) (A) (A) (A)
                 (A) (A) (A) (A) (A) (A) (A) (A) (A) (A) (A) (A)
                 (A) (A) (A) (A) (A) (A) (A) (A) (A) (A) (A) (A)
                 (A) (A) (A) (A) (A) (A) (A) (A) (A) (A) (A) (A)
                 (A) (A) (A) (A) (A) (A) (A) (A) (A) (A) (A) (A)
                 (A) (A) (A) (A) (A) (A) (A) (A) (A) (A) (A) (A)
                 (A) (A) (A) (A) (A) (A) (A) (A) (A) (A) (A) (A)
                 (A) (A) (A) (A) (A) (A) (A) (A) (A) (A) (A) (A)
                 (A) (A) (A) (A) (A) (A) (A) (A) (A) (A) (A) (A)
                 (A) (A) (A) (A) (A) (A) (A) (A) (A) (A) (A) (A)
                 (A) (A) (A) (A) (A) (A) (A) (A) (A) (A) (A) (A)
                 (A) (A) (A) (A) (A) (A) (A) (A) (A) (A) (A) (A)
                 (A) (A) (A) (A) (A) (A) (A) (A) (A) (A) (A) (A)
                 (A) (A) (A) (A) (A) (A) (A) (A) (A) (A) (A) (A)
                 (A) (A) (A) (A) (A) (A) (A) (A) (A) (A) (A) (A)
                 (A) (A) (A) (A) (A) (A) (A) (A) (A) (A) (A) (A)
                 (A) (A) (A) (A) (A) (A) (A) (A) (A) (A) (A) (A)
                 (A) (A) (A) (A) (A) (A) (A) (A) (A) (A) (A) (A)
                 (A) (A) (A) (A) (A) (A) (A) (A) (A) (A) (A) (A)
                 (A) (A) (A) (A) (A) (A) (A) (A) (A) (A) (A) (A)
                 (A) (A) (A) (A) (A) (A) (A) (A) (A) (A) (A) (A)
                 (A) (A) (A) (A) (A) (A) (A) (A) (A) (A) (A) (A)
                 (A) (A) (A) (A) (A) (A) (A) (A) (A) (A) (A)
 The electronic state of the initial guess is 1-A.
 Requested convergence on RMS density matrix=1.00D-08 within 128 cycles.
 Requested convergence on MAX density matrix=1.00D-06.
 Requested convergence on             energy=1.00D-06.
 No special actions if energy rises.
 Initial convergence to 1.0D-05 achieved.  Increase integral accuracy.
 SCF Done:  E(RHF) =  -492.916434283     A.U. after   14 cycles
             Convg  =    0.4803D-08             -V/T =  2.0017
 ExpMin= 2.97D-02 ExpMax= 1.17D+04 ExpMxC= 4.01D+02 IAcc=3 IRadAn=         5 AccDes= 0.00D+00
 HarFok:  IExCor=  205 AccDes= 0.00D+00 IRadAn=         5 IDoV=-2
 ScaDFX=  1.000000  1.000000  1.000000  1.000000
 Range of M.O.s used for correlation:    11   338
 NBasis=   338 NAE=    39 NBE=    39 NFC=    10 NFV=     0
 NROrb=    328 NOA=    29 NOB=    29 NVA=   299 NVB=   299

 **** Warning!!: The largest alpha MO coefficient is  0.77874679D+02

 Disk-based method using OVN memory for 29 occupieds at a time.
 Estimated scratch disk usage=  1378356099 words.
 Actual    scratch disk usage=  1365317483 words.
 JobTyp=1 Pass  1:  I=   1 to  29 NPSUse=  8 ParTrn=T ParDer=T DoDerP=F.
 Spin components of T(2) and E(2):
     alpha-alpha T2 =       0.6787216492D-01 E2=     -0.2057823472D+00
     alpha-beta  T2 =       0.3762048984D+00 E2=     -0.1189862536D+01
     beta-beta   T2 =       0.6787216492D-01 E2=     -0.2057823472D+00
 ANorm=    0.1229613447D+01
 E2 =    -0.1601427230D+01 EUMP2 =    -0.49451786151321D+03

 **********************************************************************

            Population analysis using the SCF density.

 **********************************************************************

 Orbital symmetries:
       Occupied  (A) (A) (A) (A) (A) (A) (A) (A) (A) (A) (A) (A)
                 (A) (A) (A) (A) (A) (A) (A) (A) (A) (A) (A) (A)
                 (A) (A) (A) (A) (A) (A) (A) (A) (A) (A) (A) (A)
                 (A) (A) (A)
       Virtual   (A) (A) (A) (A) (A) (A) (A) (A) (A) (A) (A) (A)
                 (A) (A) (A) (A) (A) (A) (A) (A) (A) (A) (A) (A)
                 (A) (A) (A) (A) (A) (A) (A) (A) (A) (A) (A) (A)
                 (A) (A) (A) (A) (A) (A) (A) (A) (A) (A) (A) (A)
                 (A) (A) (A) (A) (A) (A) (A) (A) (A) (A) (A) (A)
                 (A) (A) (A) (A) (A) (A) (A) (A) (A) (A) (A) (A)
                 (A) (A) (A) (A) (A) (A) (A) (A) (A) (A) (A) (A)
                 (A) (A) (A) (A) (A) (A) (A) (A) (A) (A) (A) (A)
                 (A) (A) (A) (A) (A) (A) (A) (A) (A) (A) (A) (A)
                 (A) (A) (A) (A) (A) (A) (A) (A) (A) (A) (A) (A)
                 (A) (A) (A) (A) (A) (A) (A) (A) (A) (A) (A) (A)
                 (A) (A) (A) (A) (A) (A) (A) (A) (A) (A) (A) (A)
                 (A) (A) (A) (A) (A) (A) (A) (A) (A) (A) (A) (A)
                 (A) (A) (A) (A) (A) (A) (A) (A) (A) (A) (A) (A)
                 (A) (A) (A) (A) (A) (A) (A) (A) (A) (A) (A) (A)
                 (A) (A) (A) (A) (A) (A) (A) (A) (A) (A) (A) (A)
                 (A) (A) (A) (A) (A) (A) (A) (A) (A) (A) (A) (A)
                 (A) (A) (A) (A) (A) (A) (A) (A) (A) (A) (A) (A)
                 (A) (A) (A) (A) (A) (A) (A) (A) (A) (A) (A) (A)
                 (A) (A) (A) (A) (A) (A) (A) (A) (A) (A) (A) (A)
                 (A) (A) (A) (A) (A) (A) (A) (A) (A) (A) (A) (A)
                 (A) (A) (A) (A) (A) (A) (A) (A) (A) (A) (A) (A)
                 (A) (A) (A) (A) (A) (A) (A) (A) (A) (A) (A) (A)
                 (A) (A) (A) (A) (A) (A) (A) (A) (A) (A) (A) (A)
                 (A) (A) (A) (A) (A) (A) (A) (A) (A) (A) (A)
 The electronic state is 1-A.
 Alpha  occ. eigenvalues --  -20.53668 -20.52310 -15.60678 -15.59382 -11.36787
 Alpha  occ. eigenvalues --  -11.36187 -11.30146 -11.27510 -11.24181 -11.23877
 Alpha  occ. eigenvalues --   -1.39342  -1.37689  -1.24352  -1.23509  -1.05852
 Alpha  occ. eigenvalues --   -0.98869  -0.95986  -0.89698  -0.80585  -0.76395
 Alpha  occ. eigenvalues --   -0.72815  -0.69140  -0.65928  -0.65236  -0.62384
 Alpha  occ. eigenvalues --   -0.61719  -0.59313  -0.58772  -0.56495  -0.55870
 Alpha  occ. eigenvalues --   -0.55614  -0.54526  -0.53008  -0.51867  -0.50516
 Alpha  occ. eigenvalues --   -0.43909  -0.41584  -0.40169  -0.38645
 Alpha virt. eigenvalues --    0.02904   0.04017   0.04104   0.04819   0.05536
 Alpha virt. eigenvalues --    0.06123   0.06459   0.06715   0.07404   0.07804
 Alpha virt. eigenvalues --    0.09397   0.09931   0.10696   0.11340   0.13174
 Alpha virt. eigenvalues --    0.13451   0.14154   0.14301   0.15080   0.15277
 Alpha virt. eigenvalues --    0.15501   0.16048   0.16314   0.16632   0.17257
 Alpha virt. eigenvalues --    0.17459   0.17969   0.18357   0.19028   0.19069
 Alpha virt. eigenvalues --    0.19610   0.20104   0.20430   0.21877   0.22695
 Alpha virt. eigenvalues --    0.23094   0.23550   0.24928   0.25535   0.26595
 Alpha virt. eigenvalues --    0.27270   0.27820   0.28147   0.29927   0.30334
 Alpha virt. eigenvalues --    0.31300   0.31835   0.32653   0.33064   0.33597
 Alpha virt. eigenvalues --    0.34624   0.34785   0.35366   0.36227   0.36295
 Alpha virt. eigenvalues --    0.36957   0.37236   0.38465   0.38762   0.39951
 Alpha virt. eigenvalues --    0.41069   0.41448   0.42096   0.42437   0.42628
 Alpha virt. eigenvalues --    0.43189   0.43606   0.44194   0.44566   0.45194
 Alpha virt. eigenvalues --    0.46321   0.47074   0.47802   0.48303   0.49143
 Alpha virt. eigenvalues --    0.49450   0.49956   0.50823   0.51440   0.51889
 Alpha virt. eigenvalues --    0.53554   0.54238   0.54428   0.55400   0.55946
 Alpha virt. eigenvalues --    0.56664   0.57081   0.57720   0.58583   0.58881
 Alpha virt. eigenvalues --    0.59687   0.60752   0.60847   0.62046   0.62400
 Alpha virt. eigenvalues --    0.62941   0.63279   0.63313   0.64473   0.64917
 Alpha virt. eigenvalues --    0.66262   0.66834   0.67124   0.68238   0.68648
 Alpha virt. eigenvalues --    0.70154   0.70422   0.70925   0.71193   0.71948
 Alpha virt. eigenvalues --    0.72713   0.73432   0.74042   0.74681   0.75687
 Alpha virt. eigenvalues --    0.76611   0.76970   0.77715   0.79531   0.79984
 Alpha virt. eigenvalues --    0.80190   0.81171   0.81973   0.82459   0.83457
 Alpha virt. eigenvalues --    0.84248   0.84501   0.86191   0.87249   0.88054
 Alpha virt. eigenvalues --    0.88739   0.88837   0.90076   0.91000   0.93173
 Alpha virt. eigenvalues --    0.94914   0.95300   0.95714   0.97565   0.99612
 Alpha virt. eigenvalues --    1.00321   1.00607   1.01500   1.03598   1.04961
 Alpha virt. eigenvalues --    1.05730   1.06594   1.08309   1.09299   1.10595
 Alpha virt. eigenvalues --    1.11962   1.12652   1.14333   1.15904   1.16116
 Alpha virt. eigenvalues --    1.16362   1.17950   1.19491   1.20583   1.21577
 Alpha virt. eigenvalues --    1.22998   1.23957   1.24268   1.28876   1.29771
 Alpha virt. eigenvalues --    1.32312   1.33752   1.35655   1.38209   1.39215
 Alpha virt. eigenvalues --    1.39588   1.42370   1.44354   1.46099   1.48355
 Alpha virt. eigenvalues --    1.49649   1.51925   1.52519   1.53657   1.54527
 Alpha virt. eigenvalues --    1.54736   1.57294   1.57419   1.60730   1.65137
 Alpha virt. eigenvalues --    1.66504   1.69645   1.70874   1.71231   1.73455
 Alpha virt. eigenvalues --    1.74398   1.74459   1.76925   1.77311   1.78236
 Alpha virt. eigenvalues --    1.80260   1.84936   1.85551   1.87372   1.88329
 Alpha virt. eigenvalues --    1.89064   1.89711   1.89778   1.92088   1.92114
 Alpha virt. eigenvalues --    1.95412   1.96744   1.97684   1.99263   2.00404
 Alpha virt. eigenvalues --    2.02191   2.03291   2.04741   2.06165   2.08753
 Alpha virt. eigenvalues --    2.11577   2.12518   2.14243   2.15767   2.16581
 Alpha virt. eigenvalues --    2.17202   2.18952   2.20487   2.21502   2.22686
 Alpha virt. eigenvalues --    2.22997   2.25956   2.28155   2.28979   2.29295
 Alpha virt. eigenvalues --    2.30845   2.32631   2.33428   2.35386   2.36273
 Alpha virt. eigenvalues --    2.37459   2.38789   2.39763   2.41876   2.43880
 Alpha virt. eigenvalues --    2.45812   2.46233   2.48815   2.49906   2.51674
 Alpha virt. eigenvalues --    2.53366   2.54599   2.56757   2.60679   2.61697
 Alpha virt. eigenvalues --    2.62559   2.63845   2.65560   2.67053   2.68938
 Alpha virt. eigenvalues --    2.71095   2.73717   2.75482   2.77067   2.78553
 Alpha virt. eigenvalues --    2.82620   2.84934   2.86893   2.87281   2.89830
 Alpha virt. eigenvalues --    2.90458   2.92826   2.93856   2.96536   2.99575
 Alpha virt. eigenvalues --    3.00060   3.03121   3.05483   3.05860   3.07161
 Alpha virt. eigenvalues --    3.09625   3.12196   3.17833   3.20168   3.24441
 Alpha virt. eigenvalues --    3.29219   3.31366   3.41322   3.46622   3.52514
 Alpha virt. eigenvalues --    3.62666   3.71447   3.73949   3.83528   3.83788
 Alpha virt. eigenvalues --    3.85500   3.87207   3.89922   3.98195   4.03536
 Alpha virt. eigenvalues --    4.09713   4.17861   4.21068   4.26564
          Condensed to atoms (all electrons):
              1          2          3          4          5          6
     1  H    0.746969   0.418723  -0.092405  -0.058791  -0.094034   0.020869
     2  C    0.418723   4.471256   0.264826   0.329435   0.163357  -0.016835
     3  H   -0.092405   0.264826   1.107029  -0.057662   0.188503  -0.013734
     4  H   -0.058791   0.329435  -0.057662   0.750682  -0.082233   0.020734
     5  C   -0.094034   0.163357   0.188503  -0.082233   5.629124   0.146879
     6  O    0.020869  -0.016835  -0.013734   0.020734   0.146879   8.708255
     7  N    0.044613   0.007450  -0.196771   0.039494  -0.022522  -0.091297
     8  H   -0.002464  -0.032537   0.003820  -0.005902  -0.159106   0.002996
     9  C   -0.007506  -0.012143  -0.041374   0.017727  -0.337018   0.066805
    10  H   -0.003287   0.005234   0.001764   0.001731  -0.007554   0.007104
    11  C    0.002390   0.002632  -0.002032  -0.001169  -0.048772  -0.000284
    12  H   -0.001413   0.003114   0.001228   0.000765   0.028226  -0.023274
    13  H    0.000053  -0.007849  -0.001880   0.000406  -0.053978   0.006255
    14  H    0.001123   0.013119   0.001368  -0.001113   0.060344  -0.015847
    15  C   -0.005589  -0.000128   0.002747   0.003539  -0.010761   0.020444
    16  O    0.000197   0.004856  -0.000529   0.000004  -0.011179   0.000148
    17  N    0.000116   0.001475   0.000277   0.000402   0.021874  -0.005293
    18  H    0.000130  -0.000988  -0.000205  -0.000364  -0.003203   0.002001
    19  C   -0.000214  -0.001554   0.000143   0.000256   0.002878  -0.001311
    20  H   -0.000064   0.000132  -0.000069   0.000087  -0.003616   0.000039
    21  H    0.000006  -0.000007  -0.000073   0.000025   0.002134  -0.000074
    22  H   -0.000028  -0.000144   0.000205  -0.000007   0.000071  -0.000045
              7          8          9         10         11         12
     1  H    0.044613  -0.002464  -0.007506  -0.003287   0.002390  -0.001413
     2  C    0.007450  -0.032537  -0.012143   0.005234   0.002632   0.003114
     3  H   -0.196771   0.003820  -0.041374   0.001764  -0.002032   0.001228
     4  H    0.039494  -0.005902   0.017727   0.001731  -0.001169   0.000765
     5  C   -0.022522  -0.159106  -0.337018  -0.007554  -0.048772   0.028226
     6  O   -0.091297   0.002996   0.066805   0.007104  -0.000284  -0.023274
     7  N    7.561073   0.368569  -0.277435  -0.094054   0.029230  -0.040807
     8  H    0.368569   0.936067  -0.099627   0.029846  -0.005588  -0.001292
     9  C   -0.277435  -0.099627   7.122883   0.119467   0.022072  -0.047669
    10  H   -0.094054   0.029846   0.119467   1.121685  -0.029977   0.071833
    11  C    0.029230  -0.005588   0.022072  -0.029977   4.430778   0.328180
    12  H   -0.040807  -0.001292  -0.047669   0.071833   0.328180   1.120275
    13  H    0.097244   0.006125  -0.168361  -0.100032   0.346274  -0.244953
    14  H   -0.036919  -0.005187   0.085995  -0.030201   0.165162  -0.230665
    15  C    0.031318  -0.019723  -0.258891  -0.116023  -0.102820  -0.078961
    16  O   -0.035311   0.019921   0.036940   0.021346   0.016657   0.003176
    17  N    0.059539   0.003609  -0.170978   0.054529   0.049579   0.031277
    18  H   -0.013260   0.001397   0.071440  -0.010117  -0.024514   0.003954
    19  C    0.015048  -0.000632  -0.058904   0.003700  -0.013263   0.003559
    20  H    0.000490   0.000094  -0.023785   0.003014  -0.003172   0.001893
    21  H    0.005308   0.001727  -0.031336  -0.005010   0.003639  -0.002000
    22  H   -0.005104  -0.002433   0.030677   0.001486   0.002454  -0.000933
             13         14         15         16         17         18
     1  H    0.000053   0.001123  -0.005589   0.000197   0.000116   0.000130
     2  C   -0.007849   0.013119  -0.000128   0.004856   0.001475  -0.000988
     3  H   -0.001880   0.001368   0.002747  -0.000529   0.000277  -0.000205
     4  H    0.000406  -0.001113   0.003539   0.000004   0.000402  -0.000364
     5  C   -0.053978   0.060344  -0.010761  -0.011179   0.021874  -0.003203
     6  O    0.006255  -0.015847   0.020444   0.000148  -0.005293   0.002001
     7  N    0.097244  -0.036919   0.031318  -0.035311   0.059539  -0.013260
     8  H    0.006125  -0.005187  -0.019723   0.019921   0.003609   0.001397
     9  C   -0.168361   0.085995  -0.258891   0.036940  -0.170978   0.071440
    10  H   -0.100032  -0.030201  -0.116023   0.021346   0.054529  -0.010117
    11  C    0.346274   0.165162  -0.102820   0.016657   0.049579  -0.024514
    12  H   -0.244953  -0.230665  -0.078961   0.003176   0.031277   0.003954
    13  H    1.446299  -0.303475   0.035348   0.004086   0.003162   0.007580
    14  H   -0.303475   1.356246   0.065494  -0.003469  -0.019704   0.005076
    15  C    0.035348   0.065494   5.259557   0.179100   0.152186  -0.076157
    16  O    0.004086  -0.003469   0.179100   8.810401  -0.167971   0.017389
    17  N    0.003162  -0.019704   0.152186  -0.167971   7.142716   0.259148
    18  H    0.007580   0.005076  -0.076157   0.017389   0.259148   1.001353
    19  C    0.002561   0.000887  -0.074372  -0.002159   0.263378  -0.124794
    20  H    0.000570  -0.000165   0.020002  -0.005274  -0.054868  -0.003080
    21  H    0.001239   0.000718   0.026864   0.008135  -0.073655   0.003430
    22  H   -0.002475   0.001245  -0.054391   0.008416   0.008514   0.003514
             19         20         21         22
     1  H   -0.000214  -0.000064   0.000006  -0.000028
     2  C   -0.001554   0.000132  -0.000007  -0.000144
     3  H    0.000143  -0.000069  -0.000073   0.000205
     4  H    0.000256   0.000087   0.000025  -0.000007
     5  C    0.002878  -0.003616   0.002134   0.000071
     6  O   -0.001311   0.000039  -0.000074  -0.000045
     7  N    0.015048   0.000490   0.005308  -0.005104
     8  H   -0.000632   0.000094   0.001727  -0.002433
     9  C   -0.058904  -0.023785  -0.031336   0.030677
    10  H    0.003700   0.003014  -0.005010   0.001486
    11  C   -0.013263  -0.003172   0.003639   0.002454
    12  H    0.003559   0.001893  -0.002000  -0.000933
    13  H    0.002561   0.000570   0.001239  -0.002475
    14  H    0.000887  -0.000165   0.000718   0.001245
    15  C   -0.074372   0.020002   0.026864  -0.054391
    16  O   -0.002159  -0.005274   0.008135   0.008416
    17  N    0.263378  -0.054868  -0.073655   0.008514
    18  H   -0.124794  -0.003080   0.003430   0.003514
    19  C    4.104108   0.492364   0.336738   0.323240
    20  H    0.492364   0.965222  -0.123998  -0.118523
    21  H    0.336738  -0.123998   1.109787  -0.151816
    22  H    0.323240  -0.118523  -0.151816   1.044408
 Mulliken atomic charges:
              1
     1  H    0.030605
     2  C    0.386577
     3  H   -0.165175
     4  H    0.041954
     5  C    0.590586
     6  O   -0.834533
     7  N   -0.445898
     8  H   -0.039680
     9  C   -0.038979
    10  H   -0.046486
    11  C    0.832542
    12  H    0.074487
    13  H   -0.074201
    14  H   -0.110034
    15  C    1.001214
    16  O   -0.904878
    17  N   -0.559310
    18  H   -0.119729
    19  C    0.728343
    20  H   -0.147292
    21  H   -0.111781
    22  H   -0.088332
 Sum of Mulliken atomic charges =   0.00000
 Mulliken charges with hydrogens summed into heavy atoms:
              1
     2  C    0.293960
     5  C    0.590586
     6  O   -0.834533
     7  N   -0.485578
     9  C   -0.085464
    11  C    0.722794
    15  C    1.001214
    16  O   -0.904878
    17  N   -0.679039
    19  C    0.380937
 Sum of Mulliken charges with hydrogens summed into heavy atoms =   0.00000
 Electronic spatial extent (au):  <R**2>=           1873.7511
 Charge=              0.0000 electrons
 Dipole moment (field-independent basis, Debye):
    X=              2.2369    Y=              0.5519    Z=             -0.1290  Tot=              2.3076
 Quadrupole moment (field-independent basis, Debye-Ang):
   XX=            -58.3877   YY=            -64.1605   ZZ=            -61.2432
   XY=             13.5170   XZ=              6.9727   YZ=             -4.2037
 Traceless Quadrupole moment (field-independent basis, Debye-Ang):
   XX=              2.8761   YY=             -2.8967   ZZ=              0.0206
   XY=             13.5170   XZ=              6.9727   YZ=             -4.2037
 Octapole moment (field-independent basis, Debye-Ang**2):
  XXX=             28.5345  YYY=              5.8531  ZZZ=              0.6703  XYY=             -1.0197
  XXY=            -16.9477  XXZ=              3.0400  XZZ=              4.3780  YZZ=             -0.4435
  YYZ=              1.2857  XYZ=              3.7459
 Hexadecapole moment (field-independent basis, Debye-Ang**3):
 XXXX=          -1639.6442 YYYY=           -498.7265 ZZZZ=           -217.3501 XXXY=             53.9341
 XXXZ=             45.3285 YYYX=             18.6242 YYYZ=              0.7447 ZZZX=              0.4231
 ZZZY=             -1.0021 XXYY=           -382.8912 XXZZ=           -333.3324 YYZZ=           -121.0523
 XXYZ=            -20.9653 YYXZ=             15.1122 ZZXY=              7.6776
 N-N= 5.524801972273D+02 E-N=-2.260173047723D+03  KE= 4.920700819581D+02
 1\1\GINC-NODE003\SP\RMP2-FC\Aug-CC-pVDZ\C6H12N2O2\STEBOSS\12-Feb-2017\
 0\\#SP MP2/aug-cc-pVDZ\\Single Point calculation at MP2\\0,1\H,0,-4.11
 41,-0.9562,0.1643\C,0,-3.0961,-1.2627,0.4211\H,0,-2.828,-2.1446,-0.168
 4\H,0,-3.0949,-1.5325,1.4824\C,0,-2.1668,-0.0683,0.2205\O,0,-2.4183,1.
 0176,0.7295\N,0,-1.0841,-0.3345,-0.5738\H,0,-0.9118,-1.3034,-0.8136\C,
 0,0.0904,0.4981,-0.8554\H,0,0.2057,0.5212,-1.9497\C,0,0.0029,1.9482,-0
 .3743\H,0,-0.0534,2.0289,0.7133\H,0,0.8791,2.4956,-0.7438\H,0,-0.8898,
 2.4315,-0.7719\C,0,1.3122,-0.3226,-0.3673\O,0,1.379,-1.5158,-0.6563\N,
 0,2.2593,0.3278,0.3555\H,0,2.1055,1.2949,0.5976\C,0,3.4482,-0.3357,0.8
 656\H,0,3.4299,-1.3642,0.5037\H,0,4.3572,0.1597,0.5061\H,0,3.4571,-0.3
 41,1.9618\\Version=EM64L-G09RevA.02\State=1-A\HF=-492.9164343\MP2=-494
 .5178615\RMSD=4.803e-09\PG=C01 [X(C6H12N2O2)]\\@


 SUCCESS-- IF YOU HAVE TRIED TO DO SOMETHING AND FAILED
           YOU ARE BETTER OFF THAN IF YOU HAD TRIED TO DO
           NOTHING AND SUCCEEDED.

                   -- FROM THE BACK OF A SUGAR PACKET
 Job cpu time:  0 days  9 hours  9 minutes  7.7 seconds.
 File lengths (MBytes):  RWF=  10533 Int=      0 D2E=      0 Chk=      7 Scr=      2
 Normal termination of Gaussian 09 at Sun Feb 12 16:27:11 2017.
