 Entering Gaussian System, Link 0=g09
 Initial command:
 /home/steboss/Software/g09/l1.exe /home/steboss/projects/phi_psi_scan/alanine/MP2/120/5216/Gau-5813.inp -scrdir=/home/steboss/projects/phi_psi_scan/alanine/MP2/120/5216/
 Entering Link 1 = /home/steboss/Software/g09/l1.exe PID=      5815.
  
 Copyright (c) 1988,1990,1992,1993,1995,1998,2003,2009, Gaussian, Inc.
                  All Rights Reserved.
  
 This is part of the Gaussian(R) 09 program.  It is based on
 the Gaussian(R) 03 system (copyright 2003, Gaussian, Inc.),
 the Gaussian(R) 98 system (copyright 1998, Gaussian, Inc.),
 the Gaussian(R) 94 system (copyright 1995, Gaussian, Inc.),
 the Gaussian 92(TM) system (copyright 1992, Gaussian, Inc.),
 the Gaussian 90(TM) system (copyright 1990, Gaussian, Inc.),
 the Gaussian 88(TM) system (copyright 1988, Gaussian, Inc.),
 the Gaussian 86(TM) system (copyright 1986, Carnegie Mellon
 University), and the Gaussian 82(TM) system (copyright 1983,
 Carnegie Mellon University). Gaussian is a federally registered
 trademark of Gaussian, Inc.
  
 This software contains proprietary and confidential information,
 including trade secrets, belonging to Gaussian, Inc.
  
 This software is provided under written license and may be
 used, copied, transmitted, or stored only in accord with that
 written license.
  
 The following legend is applicable only to US Government
 contracts under FAR:
  
                    RESTRICTED RIGHTS LEGEND
  
 Use, reproduction and disclosure by the US Government is
 subject to restrictions as set forth in subparagraphs (a)
 and (c) of the Commercial Computer Software - Restricted
 Rights clause in FAR 52.227-19.
  
 Gaussian, Inc.
 340 Quinnipiac St., Bldg. 40, Wallingford CT 06492
  
  
 ---------------------------------------------------------------
 Warning -- This program may not be used in any manner that
 competes with the business of Gaussian, Inc. or will provide
 assistance to any competitor of Gaussian, Inc.  The licensee
 of this program is prohibited from giving any competitor of
 Gaussian, Inc. access to this program.  By using this program,
 the user acknowledges that Gaussian, Inc. is engaged in the
 business of creating and licensing software in the field of
 computational chemistry and represents and warrants to the
 licensee that it is not a competitor of Gaussian, Inc. and that
 it will not use this program in any manner prohibited above.
 ---------------------------------------------------------------
  

 Cite this work as:
 Gaussian 09, Revision A.02,
 M. J. Frisch, G. W. Trucks, H. B. Schlegel, G. E. Scuseria, 
 M. A. Robb, J. R. Cheeseman, G. Scalmani, V. Barone, B. Mennucci, 
 G. A. Petersson, H. Nakatsuji, M. Caricato, X. Li, H. P. Hratchian, 
 A. F. Izmaylov, J. Bloino, G. Zheng, J. L. Sonnenberg, M. Hada, 
 M. Ehara, K. Toyota, R. Fukuda, J. Hasegawa, M. Ishida, T. Nakajima, 
 Y. Honda, O. Kitao, H. Nakai, T. Vreven, J. A. Montgomery, Jr., 
 J. E. Peralta, F. Ogliaro, M. Bearpark, J. J. Heyd, E. Brothers, 
 K. N. Kudin, V. N. Staroverov, R. Kobayashi, J. Normand, 
 K. Raghavachari, A. Rendell, J. C. Burant, S. S. Iyengar, J. Tomasi, 
 M. Cossi, N. Rega, J. M. Millam, M. Klene, J. E. Knox, J. B. Cross, 
 V. Bakken, C. Adamo, J. Jaramillo, R. Gomperts, R. E. Stratmann, 
 O. Yazyev, A. J. Austin, R. Cammi, C. Pomelli, J. W. Ochterski, 
 R. L. Martin, K. Morokuma, V. G. Zakrzewski, G. A. Voth, 
 P. Salvador, J. J. Dannenberg, S. Dapprich, A. D. Daniels, 
 O. Farkas, J. B. Foresman, J. V. Ortiz, J. Cioslowski, 
 and D. J. Fox, Gaussian, Inc., Wallingford CT, 2009.
 
 ******************************************
 Gaussian 09:  EM64L-G09RevA.02 11-Jun-2009
                12-Feb-2017 
 ******************************************
 %chk=structure_240.chk
 %NProcShared=8
 Will use up to    8 processors via shared memory.
 -------------------
 #SP MP2/aug-cc-pVDZ
 -------------------
 1/38=1/1;
 2/12=2,17=6,18=5,40=1/2;
 3/5=16,7=10,11=9,16=1,25=1,30=1/1,2,3;
 4//1;
 5/5=2,38=5/2;
 8/10=1/1;
 9/16=-3/6;
 6/7=2,8=2,9=2,10=2/1;
 99/5=1,9=1/99;
 -------------------------------
 Single Point calculation at MP2
 -------------------------------
 Symbolic Z-matrix:
 Charge =  0 Multiplicity = 1
 H                    -4.0683   -0.9796    0.1204 
 C                    -3.0667   -1.2801    0.4426 
 H                    -2.7731   -2.1814   -0.104 
 H                    -3.1252   -1.5142    1.5102 
 C                    -2.1227   -0.095     0.2562 
 O                    -2.3456    0.9793    0.8017 
 N                    -1.0599   -0.3533   -0.5661 
 H                    -0.9271   -1.3088   -0.8718 
 C                     0.0864    0.4978   -0.9126 
 H                     0.1646    0.4863   -2.0086 
 C                    -0.0199    1.9581   -0.4703 
 H                    -0.099     2.0697    0.6129 
 H                     0.8596    2.4996   -0.839 
 H                    -0.9111    2.4234   -0.8944 
 C                     1.3377   -0.2848   -0.4436 
 O                     1.5332   -1.4109   -0.8955 
 N                     2.1374    0.305     0.4816 
 H                     1.8801    1.2148    0.8341 
 C                     3.3084   -0.3517    1.0382 
 H                     3.4451   -1.2897    0.499 
 H                     4.2006    0.2722    0.9149 
 H                     3.1721   -0.5685    2.1045 
 
                          Input orientation:                          
 ---------------------------------------------------------------------
 Center     Atomic      Atomic             Coordinates (Angstroms)
 Number     Number       Type             X           Y           Z
 ---------------------------------------------------------------------
      1          1           0       -4.068300   -0.979600    0.120400
      2          6           0       -3.066700   -1.280100    0.442600
      3          1           0       -2.773100   -2.181400   -0.104000
      4          1           0       -3.125200   -1.514200    1.510200
      5          6           0       -2.122700   -0.095000    0.256200
      6          8           0       -2.345600    0.979300    0.801700
      7          7           0       -1.059900   -0.353300   -0.566100
      8          1           0       -0.927100   -1.308800   -0.871800
      9          6           0        0.086400    0.497800   -0.912600
     10          1           0        0.164600    0.486300   -2.008600
     11          6           0       -0.019900    1.958100   -0.470300
     12          1           0       -0.099000    2.069700    0.612900
     13          1           0        0.859600    2.499600   -0.839000
     14          1           0       -0.911100    2.423400   -0.894400
     15          6           0        1.337700   -0.284800   -0.443600
     16          8           0        1.533200   -1.410900   -0.895500
     17          7           0        2.137400    0.305000    0.481600
     18          1           0        1.880100    1.214800    0.834100
     19          6           0        3.308400   -0.351700    1.038200
     20          1           0        3.445100   -1.289700    0.499000
     21          1           0        4.200600    0.272200    0.914900
     22          1           0        3.172100   -0.568500    2.104500
 ---------------------------------------------------------------------
                    Distance matrix (angstroms):
                    1          2          3          4          5
     1  H    0.000000
     2  C    1.094219   0.000000
     3  H    1.781073   1.094219   0.000000
     4  H    1.762606   1.094529   1.781789   0.000000
     5  C    2.141569   1.526546   2.214911   2.142814   0.000000
     6  O    2.696137   2.398713   3.315580   2.706897   1.225306
     7  N    3.148651   2.429749   2.547654   3.150266   1.368371
     8  H    3.310585   2.511247   2.181436   3.247731   2.043319
     9  C    4.528944   3.865169   4.001086   4.498053   2.568585
    10  H    4.959732   4.423782   4.401614   5.216008   3.270928
    11  C    5.036720   4.538977   4.984952   5.061831   3.027340
    12  H    5.029526   4.478549   5.073126   4.775707   2.984715
    13  H    6.108149   5.598613   5.970636   6.124374   4.101893
    14  H    4.751646   4.488885   5.029509   5.117522   3.022283
    15  C    5.479569   4.601599   4.539945   5.024563   3.535550
    16  O    5.709192   4.792359   4.445713   5.243925   4.052605
    17  N    6.347549   5.440287   5.535171   5.662373   4.284770
    18  H    6.380299   5.554154   5.836649   5.740869   4.251112
    19  C    7.460048   6.469820   6.452679   6.554800   5.493111
    20  H    7.529321   6.512051   6.310685   6.651449   5.699707
    21  H    8.400770   7.446231   7.462627   7.563924   6.368112
    22  H    7.518580   6.495453   6.544029   6.395587   5.628083
                    6          7          8          9         10
     6  O    0.000000
     7  N    2.302113   0.000000
     8  H    3.169881   1.011963   0.000000
     9  C    3.014182   1.469162   2.071871   0.000000
    10  H    3.800255   2.070057   2.388830   1.098846   0.000000
    11  C    2.825759   2.536404   3.414213   1.529511   2.136961
    12  H    2.504362   2.860821   3.782109   2.198270   3.073907
    13  H    3.908518   3.449347   4.206814   2.147198   2.429890
    14  H    2.649523   2.799997   3.732303   2.168703   2.480107
    15  C    4.088450   2.401704   2.522152   1.548604   2.102376
    16  O    4.861958   2.819785   2.462532   2.395132   2.590642
    17  N    4.544715   3.428376   3.718495   2.487482   3.182123
    18  H    4.232381   3.614291   4.142345   2.604306   3.399205
    19  C    5.813365   4.653582   4.743796   3.861160   4.457433
    20  H    6.226732   4.722955   4.582095   4.058157   4.494876
    21  H    6.585252   5.500679   5.655543   4.507471   4.988185
    22  H    5.876903   5.008816   5.119555   4.445383   5.203388
                   11         12         13         14         15
    11  C    0.000000
    12  H    1.091803   0.000000
    13  H    1.096669   1.792133   0.000000
    14  H    1.091147   1.748303   1.773204   0.000000
    15  C    2.621906   2.953637   2.852684   3.548897   0.000000
    16  O    3.734043   4.129640   3.968493   4.547138   1.229038
    17  N    2.879722   2.851822   2.862346   3.959084   1.357711
    18  H    2.421560   2.167169   2.343373   3.498460   2.043408
    19  C    4.323000   4.201718   4.201239   5.407430   2.466549
    20  H    4.847058   4.884587   4.778478   5.891108   2.517827
    21  H    4.751174   4.669986   4.381753   5.833584   3.217447
    22  H    4.816863   4.459267   4.839947   5.883654   3.152511
                   16         17         18         19         20
    16  O    0.000000
    17  N    2.281617   0.000000
    18  H    3.163251   1.009057   0.000000
    19  C    2.830625   1.453375   2.129699   0.000000
    20  H    2.369532   2.062389   2.972211   1.090535   0.000000
    21  H    3.636674   2.108464   2.505942   1.095662   1.784176
    22  H    3.520743   2.113625   2.542310   1.096620   1.781092
                   21         22
    21  H    0.000000
    22  H    1.783182   0.000000
 Stoichiometry    C6H12N2O2
 Framework group  C1[X(C6H12N2O2)]
 Deg. of freedom    60
 Full point group                 C1      NOp   1
 Largest Abelian subgroup         C1      NOp   1
 Largest concise Abelian subgroup C1      NOp   1
                         Standard orientation:                         
 ---------------------------------------------------------------------
 Center     Atomic      Atomic             Coordinates (Angstroms)
 Number     Number       Type             X           Y           Z
 ---------------------------------------------------------------------
      1          1           0       -4.068312   -0.979574    0.120409
      2          6           0       -3.066713   -1.280077    0.442609
      3          1           0       -2.773115   -2.181377   -0.103991
      4          1           0       -3.125214   -1.514176    1.510209
      5          6           0       -2.122710   -0.094979    0.256209
      6          8           0       -2.345608    0.979322    0.801709
      7          7           0       -1.059911   -0.353281   -0.566091
      8          1           0       -0.927113   -1.308781   -0.871791
      9          6           0        0.086391    0.497816   -0.912591
     10          1           0        0.164591    0.486316   -2.008591
     11          6           0       -0.019906    1.958117   -0.470291
     12          1           0       -0.099006    2.069717    0.612909
     13          1           0        0.859595    2.499615   -0.838991
     14          1           0       -0.911105    2.423419   -0.894391
     15          6           0        1.337689   -0.284786   -0.443591
     16          8           0        1.533187   -1.410887   -0.895491
     17          7           0        2.137390    0.305012    0.481609
     18          1           0        1.880092    1.214813    0.834109
     19          6           0        3.308389   -0.351691    1.038209
     20          1           0        3.445087   -1.289691    0.499009
     21          1           0        4.200590    0.272207    0.914909
     22          1           0        3.172088   -0.568490    2.104509
 ---------------------------------------------------------------------
 Rotational constants (GHZ):      2.2141861      0.7404462      0.6672207
 Standard basis: Aug-CC-pVDZ (5D, 7F)
 There are   338 symmetry adapted basis functions of A   symmetry.
 Integral buffers will be    131072 words long.
 Raffenetti 1 integral format.
 Two-electron integral symmetry is turned on.
   338 basis functions,   562 primitive gaussians,   358 cartesian basis functions
    39 alpha electrons       39 beta electrons
       nuclear repulsion energy       552.9334465029 Hartrees.
 NAtoms=   22 NActive=   22 NUniq=   22 SFac= 7.50D-01 NAtFMM=   80 NAOKFM=F Big=F
 One-electron integrals computed using PRISM.
 NBasis=   338 RedAO= T  NBF=   338
 NBsUse=   338 1.00D-06 NBFU=   338
 Harris functional with IExCor=  205 diagonalized for initial guess.
 ExpMin= 2.97D-02 ExpMax= 1.17D+04 ExpMxC= 4.01D+02 IAcc=3 IRadAn=         0 AccDes= 0.00D+00
 HarFok:  IExCor=  205 AccDes= 0.00D+00 IRadAn=         0 IDoV= 1
 ScaDFX=  1.000000  1.000000  1.000000  1.000000
 FoFCou: FMM=F IPFlag=           0 FMFlag=      100000 FMFlg1=           0
         NFxFlg=           0 DoJE=T BraDBF=F KetDBF=T FulRan=T
         Omega=  0.000000  0.000000  1.000000  0.000000  0.000000 ICntrl=     500 IOpCl=  0
         NMat0=    1 NMatS0=    1 NMatT0=    0 NMatD0=    1 NMtDS0=    0 NMtDT0=    0
         I1Cent=           4 NGrid=           0.
 Petite list used in FoFCou.
 Initial guess orbital symmetries:
       Occupied  (A) (A) (A) (A) (A) (A) (A) (A) (A) (A) (A) (A)
                 (A) (A) (A) (A) (A) (A) (A) (A) (A) (A) (A) (A)
                 (A) (A) (A) (A) (A) (A) (A) (A) (A) (A) (A) (A)
                 (A) (A) (A)
       Virtual   (A) (A) (A) (A) (A) (A) (A) (A) (A) (A) (A) (A)
                 (A) (A) (A) (A) (A) (A) (A) (A) (A) (A) (A) (A)
                 (A) (A) (A) (A) (A) (A) (A) (A) (A) (A) (A) (A)
                 (A) (A) (A) (A) (A) (A) (A) (A) (A) (A) (A) (A)
                 (A) (A) (A) (A) (A) (A) (A) (A) (A) (A) (A) (A)
                 (A) (A) (A) (A) (A) (A) (A) (A) (A) (A) (A) (A)
                 (A) (A) (A) (A) (A) (A) (A) (A) (A) (A) (A) (A)
                 (A) (A) (A) (A) (A) (A) (A) (A) (A) (A) (A) (A)
                 (A) (A) (A) (A) (A) (A) (A) (A) (A) (A) (A) (A)
                 (A) (A) (A) (A) (A) (A) (A) (A) (A) (A) (A) (A)
                 (A) (A) (A) (A) (A) (A) (A) (A) (A) (A) (A) (A)
                 (A) (A) (A) (A) (A) (A) (A) (A) (A) (A) (A) (A)
                 (A) (A) (A) (A) (A) (A) (A) (A) (A) (A) (A) (A)
                 (A) (A) (A) (A) (A) (A) (A) (A) (A) (A) (A) (A)
                 (A) (A) (A) (A) (A) (A) (A) (A) (A) (A) (A) (A)
                 (A) (A) (A) (A) (A) (A) (A) (A) (A) (A) (A) (A)
                 (A) (A) (A) (A) (A) (A) (A) (A) (A) (A) (A) (A)
                 (A) (A) (A) (A) (A) (A) (A) (A) (A) (A) (A) (A)
                 (A) (A) (A) (A) (A) (A) (A) (A) (A) (A) (A) (A)
                 (A) (A) (A) (A) (A) (A) (A) (A) (A) (A) (A) (A)
                 (A) (A) (A) (A) (A) (A) (A) (A) (A) (A) (A) (A)
                 (A) (A) (A) (A) (A) (A) (A) (A) (A) (A) (A) (A)
                 (A) (A) (A) (A) (A) (A) (A) (A) (A) (A) (A) (A)
                 (A) (A) (A) (A) (A) (A) (A) (A) (A) (A) (A) (A)
                 (A) (A) (A) (A) (A) (A) (A) (A) (A) (A) (A)
 The electronic state of the initial guess is 1-A.
 Requested convergence on RMS density matrix=1.00D-08 within 128 cycles.
 Requested convergence on MAX density matrix=1.00D-06.
 Requested convergence on             energy=1.00D-06.
 No special actions if energy rises.
 Initial convergence to 1.0D-05 achieved.  Increase integral accuracy.
 SCF Done:  E(RHF) =  -492.916215588     A.U. after   14 cycles
             Convg  =    0.7164D-08             -V/T =  2.0017
 ExpMin= 2.97D-02 ExpMax= 1.17D+04 ExpMxC= 4.01D+02 IAcc=3 IRadAn=         5 AccDes= 0.00D+00
 HarFok:  IExCor=  205 AccDes= 0.00D+00 IRadAn=         5 IDoV=-2
 ScaDFX=  1.000000  1.000000  1.000000  1.000000
 Range of M.O.s used for correlation:    11   338
 NBasis=   338 NAE=    39 NBE=    39 NFC=    10 NFV=     0
 NROrb=    328 NOA=    29 NOB=    29 NVA=   299 NVB=   299

 **** Warning!!: The largest alpha MO coefficient is  0.71727307D+02

 Disk-based method using OVN memory for 29 occupieds at a time.
 Estimated scratch disk usage=  1379491668 words.
 Actual    scratch disk usage=  1366449748 words.
 JobTyp=1 Pass  1:  I=   1 to  29 NPSUse=  8 ParTrn=T ParDer=T DoDerP=F.
 Spin components of T(2) and E(2):
     alpha-alpha T2 =       0.6786472580D-01 E2=     -0.2057279180D+00
     alpha-beta  T2 =       0.3762912363D+00 E2=     -0.1189932562D+01
     beta-beta   T2 =       0.6786472580D-01 E2=     -0.2057279180D+00
 ANorm=    0.1229642504D+01
 E2 =    -0.1601388398D+01 EUMP2 =    -0.49451760398594D+03

 **********************************************************************

            Population analysis using the SCF density.

 **********************************************************************

 Orbital symmetries:
       Occupied  (A) (A) (A) (A) (A) (A) (A) (A) (A) (A) (A) (A)
                 (A) (A) (A) (A) (A) (A) (A) (A) (A) (A) (A) (A)
                 (A) (A) (A) (A) (A) (A) (A) (A) (A) (A) (A) (A)
                 (A) (A) (A)
       Virtual   (A) (A) (A) (A) (A) (A) (A) (A) (A) (A) (A) (A)
                 (A) (A) (A) (A) (A) (A) (A) (A) (A) (A) (A) (A)
                 (A) (A) (A) (A) (A) (A) (A) (A) (A) (A) (A) (A)
                 (A) (A) (A) (A) (A) (A) (A) (A) (A) (A) (A) (A)
                 (A) (A) (A) (A) (A) (A) (A) (A) (A) (A) (A) (A)
                 (A) (A) (A) (A) (A) (A) (A) (A) (A) (A) (A) (A)
                 (A) (A) (A) (A) (A) (A) (A) (A) (A) (A) (A) (A)
                 (A) (A) (A) (A) (A) (A) (A) (A) (A) (A) (A) (A)
                 (A) (A) (A) (A) (A) (A) (A) (A) (A) (A) (A) (A)
                 (A) (A) (A) (A) (A) (A) (A) (A) (A) (A) (A) (A)
                 (A) (A) (A) (A) (A) (A) (A) (A) (A) (A) (A) (A)
                 (A) (A) (A) (A) (A) (A) (A) (A) (A) (A) (A) (A)
                 (A) (A) (A) (A) (A) (A) (A) (A) (A) (A) (A) (A)
                 (A) (A) (A) (A) (A) (A) (A) (A) (A) (A) (A) (A)
                 (A) (A) (A) (A) (A) (A) (A) (A) (A) (A) (A) (A)
                 (A) (A) (A) (A) (A) (A) (A) (A) (A) (A) (A) (A)
                 (A) (A) (A) (A) (A) (A) (A) (A) (A) (A) (A) (A)
                 (A) (A) (A) (A) (A) (A) (A) (A) (A) (A) (A) (A)
                 (A) (A) (A) (A) (A) (A) (A) (A) (A) (A) (A) (A)
                 (A) (A) (A) (A) (A) (A) (A) (A) (A) (A) (A) (A)
                 (A) (A) (A) (A) (A) (A) (A) (A) (A) (A) (A) (A)
                 (A) (A) (A) (A) (A) (A) (A) (A) (A) (A) (A) (A)
                 (A) (A) (A) (A) (A) (A) (A) (A) (A) (A) (A) (A)
                 (A) (A) (A) (A) (A) (A) (A) (A) (A) (A) (A) (A)
                 (A) (A) (A) (A) (A) (A) (A) (A) (A) (A) (A)
 The electronic state is 1-A.
 Alpha  occ. eigenvalues --  -20.53507 -20.52497 -15.60515 -15.59795 -11.36586
 Alpha  occ. eigenvalues --  -11.36432 -11.30074 -11.27393 -11.24425 -11.23849
 Alpha  occ. eigenvalues --   -1.39155  -1.37885  -1.24287  -1.23643  -1.05916
 Alpha  occ. eigenvalues --   -0.99016  -0.95937  -0.89742  -0.80414  -0.76785
 Alpha  occ. eigenvalues --   -0.72658  -0.69403  -0.65930  -0.65180  -0.62299
 Alpha  occ. eigenvalues --   -0.61715  -0.59315  -0.58876  -0.56532  -0.55820
 Alpha  occ. eigenvalues --   -0.55648  -0.54487  -0.53090  -0.51883  -0.50762
 Alpha  occ. eigenvalues --   -0.43932  -0.41739  -0.39955  -0.38715
 Alpha virt. eigenvalues --    0.03008   0.03892   0.04101   0.04962   0.05503
 Alpha virt. eigenvalues --    0.06041   0.06502   0.06749   0.07446   0.07731
 Alpha virt. eigenvalues --    0.09265   0.09919   0.10748   0.11517   0.13057
 Alpha virt. eigenvalues --    0.13232   0.14288   0.14341   0.15026   0.15303
 Alpha virt. eigenvalues --    0.15448   0.15746   0.16450   0.16785   0.17194
 Alpha virt. eigenvalues --    0.17520   0.17757   0.18325   0.18766   0.19248
 Alpha virt. eigenvalues --    0.19296   0.20228   0.20727   0.21136   0.22690
 Alpha virt. eigenvalues --    0.23083   0.23426   0.25127   0.25793   0.26501
 Alpha virt. eigenvalues --    0.27637   0.28199   0.28284   0.29506   0.30378
 Alpha virt. eigenvalues --    0.31188   0.32019   0.32516   0.33128   0.33573
 Alpha virt. eigenvalues --    0.33898   0.34993   0.35215   0.35802   0.36551
 Alpha virt. eigenvalues --    0.37145   0.37717   0.38006   0.39364   0.39898
 Alpha virt. eigenvalues --    0.40279   0.41163   0.41802   0.42349   0.42870
 Alpha virt. eigenvalues --    0.43016   0.43436   0.44104   0.44493   0.45125
 Alpha virt. eigenvalues --    0.46708   0.47259   0.47486   0.48357   0.48503
 Alpha virt. eigenvalues --    0.49314   0.50531   0.50790   0.51613   0.52338
 Alpha virt. eigenvalues --    0.52978   0.53745   0.54118   0.55621   0.56005
 Alpha virt. eigenvalues --    0.56263   0.57090   0.58115   0.58348   0.59003
 Alpha virt. eigenvalues --    0.59939   0.60455   0.60836   0.61919   0.62270
 Alpha virt. eigenvalues --    0.62719   0.63176   0.63413   0.64902   0.65036
 Alpha virt. eigenvalues --    0.66109   0.66200   0.66980   0.67374   0.68714
 Alpha virt. eigenvalues --    0.69883   0.70261   0.71173   0.71383   0.71881
 Alpha virt. eigenvalues --    0.72761   0.73342   0.73930   0.74256   0.75450
 Alpha virt. eigenvalues --    0.76467   0.77313   0.78041   0.78617   0.79616
 Alpha virt. eigenvalues --    0.80310   0.81166   0.82396   0.83125   0.83816
 Alpha virt. eigenvalues --    0.84363   0.84703   0.86375   0.87375   0.88409
 Alpha virt. eigenvalues --    0.89036   0.89672   0.90200   0.91059   0.93237
 Alpha virt. eigenvalues --    0.94380   0.95101   0.95175   0.97987   0.99058
 Alpha virt. eigenvalues --    0.99845   1.00845   1.01402   1.02121   1.05067
 Alpha virt. eigenvalues --    1.05807   1.07197   1.07793   1.09140   1.11183
 Alpha virt. eigenvalues --    1.11902   1.12055   1.14468   1.14965   1.15815
 Alpha virt. eigenvalues --    1.16775   1.17401   1.19000   1.20582   1.21685
 Alpha virt. eigenvalues --    1.22201   1.24068   1.24552   1.28678   1.30763
 Alpha virt. eigenvalues --    1.31665   1.34092   1.35948   1.37270   1.39441
 Alpha virt. eigenvalues --    1.40075   1.41626   1.43393   1.46965   1.48665
 Alpha virt. eigenvalues --    1.48887   1.51181   1.52824   1.53085   1.54938
 Alpha virt. eigenvalues --    1.55386   1.56786   1.57911   1.59468   1.64390
 Alpha virt. eigenvalues --    1.66961   1.69588   1.70028   1.71494   1.73207
 Alpha virt. eigenvalues --    1.73831   1.75298   1.76935   1.78371   1.78763
 Alpha virt. eigenvalues --    1.80385   1.83988   1.85416   1.86657   1.87961
 Alpha virt. eigenvalues --    1.89221   1.89437   1.90429   1.91704   1.92790
 Alpha virt. eigenvalues --    1.94490   1.97238   1.98702   1.99750   2.01379
 Alpha virt. eigenvalues --    2.03024   2.03603   2.04649   2.05252   2.09346
 Alpha virt. eigenvalues --    2.11792   2.12941   2.13956   2.16012   2.16910
 Alpha virt. eigenvalues --    2.18420   2.19240   2.20486   2.21672   2.22055
 Alpha virt. eigenvalues --    2.24372   2.26628   2.27763   2.29058   2.29728
 Alpha virt. eigenvalues --    2.29943   2.32545   2.33421   2.35361   2.35990
 Alpha virt. eigenvalues --    2.37784   2.38059   2.41165   2.41421   2.45056
 Alpha virt. eigenvalues --    2.46578   2.46626   2.48426   2.51177   2.51788
 Alpha virt. eigenvalues --    2.53072   2.55344   2.56846   2.59040   2.61874
 Alpha virt. eigenvalues --    2.63230   2.63961   2.66024   2.66946   2.67456
 Alpha virt. eigenvalues --    2.71643   2.73156   2.76092   2.77194   2.79739
 Alpha virt. eigenvalues --    2.82494   2.83392   2.86029   2.86572   2.89228
 Alpha virt. eigenvalues --    2.89996   2.92720   2.93973   2.96207   2.99010
 Alpha virt. eigenvalues --    2.99654   3.03267   3.04519   3.06587   3.08457
 Alpha virt. eigenvalues --    3.09548   3.11814   3.19153   3.19454   3.23694
 Alpha virt. eigenvalues --    3.28304   3.34987   3.41701   3.48129   3.54141
 Alpha virt. eigenvalues --    3.61877   3.70347   3.73805   3.83295   3.84776
 Alpha virt. eigenvalues --    3.85718   3.87556   3.88008   3.97689   4.02749
 Alpha virt. eigenvalues --    4.09415   4.17925   4.21130   4.26057
          Condensed to atoms (all electrons):
              1          2          3          4          5          6
     1  H    0.738292   0.402919  -0.084972  -0.054763  -0.095075   0.018333
     2  C    0.402919   4.481680   0.268485   0.341260   0.140000  -0.017625
     3  H   -0.084972   0.268485   1.128598  -0.067020   0.199869  -0.014742
     4  H   -0.054763   0.341260  -0.067020   0.745031  -0.088389   0.021961
     5  C   -0.095075   0.140000   0.199869  -0.088389   5.714724   0.138712
     6  O    0.018333  -0.017625  -0.014742   0.021961   0.138712   8.712721
     7  N    0.046762  -0.004093  -0.217980   0.049421  -0.039412  -0.088194
     8  H   -0.000796  -0.043511  -0.000314  -0.005531  -0.151371   0.000082
     9  C   -0.003697   0.014115  -0.036215   0.011389  -0.396432   0.071819
    10  H   -0.002867   0.007828   0.001242   0.001470  -0.012131   0.008011
    11  C    0.000609   0.002594  -0.001669   0.000473  -0.022519  -0.009160
    12  H   -0.002024   0.002256   0.001504   0.001387   0.039936  -0.028826
    13  H    0.000088  -0.005976  -0.001468   0.000262  -0.048757   0.006820
    14  H    0.001307   0.008833   0.000756  -0.001078   0.042767  -0.005569
    15  C   -0.003589  -0.008713  -0.000528   0.001500  -0.020457   0.020725
    16  O    0.000488   0.007790   0.001020  -0.000130  -0.010143   0.000399
    17  N   -0.000078  -0.000447  -0.000385   0.000859   0.021216  -0.001194
    18  H    0.000121  -0.001270  -0.000456  -0.000343  -0.003806   0.001390
    19  C   -0.000277  -0.003406  -0.000022   0.000303   0.002784  -0.000967
    20  H   -0.000063  -0.000010  -0.000088   0.000061  -0.004163   0.000048
    21  H    0.000006  -0.000103  -0.000097   0.000010   0.001792  -0.000133
    22  H   -0.000044  -0.000163   0.000359   0.000025   0.001220   0.000007
              7          8          9         10         11         12
     1  H    0.046762  -0.000796  -0.003697  -0.002867   0.000609  -0.002024
     2  C   -0.004093  -0.043511   0.014115   0.007828   0.002594   0.002256
     3  H   -0.217980  -0.000314  -0.036215   0.001242  -0.001669   0.001504
     4  H    0.049421  -0.005531   0.011389   0.001470   0.000473   0.001387
     5  C   -0.039412  -0.151371  -0.396432  -0.012131  -0.022519   0.039936
     6  O   -0.088194   0.000082   0.071819   0.008011  -0.009160  -0.028826
     7  N    7.611133   0.362775  -0.374394  -0.066539   0.020778  -0.016442
     8  H    0.362775   0.955919  -0.098062   0.025682  -0.017891  -0.003208
     9  C   -0.374394  -0.098062   7.609345  -0.021599  -0.025925  -0.106575
    10  H   -0.066539   0.025682  -0.021599   1.198246  -0.021178   0.065343
    11  C    0.020778  -0.017891  -0.025925  -0.021178   4.417586   0.340415
    12  H   -0.016442  -0.003208  -0.106575   0.065343   0.340415   1.070641
    13  H    0.101905   0.000511  -0.235205  -0.088942   0.359042  -0.229589
    14  H   -0.048874   0.000783   0.130862  -0.028079   0.177575  -0.231977
    15  C    0.070111   0.011703  -0.367864  -0.091765  -0.064060  -0.076349
    16  O   -0.032523   0.020051   0.044820   0.032699   0.021411   0.005059
    17  N    0.060616   0.001644  -0.188655   0.074767   0.039171   0.037282
    18  H   -0.005495   0.001121   0.045621  -0.009867  -0.004737   0.016446
    19  C    0.028734   0.001566  -0.122193   0.006952  -0.002267   0.007565
    20  H   -0.000564   0.000026  -0.027675   0.003631  -0.004449   0.002618
    21  H    0.005680   0.001807  -0.049498  -0.005215   0.010979  -0.001816
    22  H   -0.006854  -0.002795   0.056680   0.002106  -0.002723  -0.002167
             13         14         15         16         17         18
     1  H    0.000088   0.001307  -0.003589   0.000488  -0.000078   0.000121
     2  C   -0.005976   0.008833  -0.008713   0.007790  -0.000447  -0.001270
     3  H   -0.001468   0.000756  -0.000528   0.001020  -0.000385  -0.000456
     4  H    0.000262  -0.001078   0.001500  -0.000130   0.000859  -0.000343
     5  C   -0.048757   0.042767  -0.020457  -0.010143   0.021216  -0.003806
     6  O    0.006820  -0.005569   0.020725   0.000399  -0.001194   0.001390
     7  N    0.101905  -0.048874   0.070111  -0.032523   0.060616  -0.005495
     8  H    0.000511   0.000783   0.011703   0.020051   0.001644   0.001121
     9  C   -0.235205   0.130862  -0.367864   0.044820  -0.188655   0.045621
    10  H   -0.088942  -0.028079  -0.091765   0.032699   0.074767  -0.009867
    11  C    0.359042   0.177575  -0.064060   0.021411   0.039171  -0.004737
    12  H   -0.229589  -0.231977  -0.076349   0.005059   0.037282   0.016446
    13  H    1.445975  -0.284863   0.054009  -0.000297   0.019503  -0.008187
    14  H   -0.284863   1.319058   0.055804  -0.003223  -0.031871   0.006009
    15  C    0.054009   0.055804   5.328246   0.129811   0.146941  -0.096226
    16  O   -0.000297  -0.003223   0.129811   8.832207  -0.152000   0.019871
    17  N    0.019503  -0.031871   0.146941  -0.152000   7.151762   0.275570
    18  H   -0.008187   0.006009  -0.096226   0.019871   0.275570   0.995363
    19  C    0.012599  -0.002247  -0.054443  -0.007698   0.232026  -0.122265
    20  H    0.000595  -0.000353   0.030670  -0.011268  -0.064639  -0.002254
    21  H    0.001779   0.000939   0.029191   0.007125  -0.080592   0.002789
    22  H   -0.001883   0.001026  -0.073130   0.011329   0.029882   0.003172
             19         20         21         22
     1  H   -0.000277  -0.000063   0.000006  -0.000044
     2  C   -0.003406  -0.000010  -0.000103  -0.000163
     3  H   -0.000022  -0.000088  -0.000097   0.000359
     4  H    0.000303   0.000061   0.000010   0.000025
     5  C    0.002784  -0.004163   0.001792   0.001220
     6  O   -0.000967   0.000048  -0.000133   0.000007
     7  N    0.028734  -0.000564   0.005680  -0.006854
     8  H    0.001566   0.000026   0.001807  -0.002795
     9  C   -0.122193  -0.027675  -0.049498   0.056680
    10  H    0.006952   0.003631  -0.005215   0.002106
    11  C   -0.002267  -0.004449   0.010979  -0.002723
    12  H    0.007565   0.002618  -0.001816  -0.002167
    13  H    0.012599   0.000595   0.001779  -0.001883
    14  H   -0.002247  -0.000353   0.000939   0.001026
    15  C   -0.054443   0.030670   0.029191  -0.073130
    16  O   -0.007698  -0.011268   0.007125   0.011329
    17  N    0.232026  -0.064639  -0.080592   0.029882
    18  H   -0.122265  -0.002254   0.002789   0.003172
    19  C    4.136182   0.496829   0.358249   0.299187
    20  H    0.496829   0.971728  -0.138794  -0.108245
    21  H    0.358249  -0.138794   1.121361  -0.153024
    22  H    0.299187  -0.108245  -0.153024   1.030066
 Mulliken atomic charges:
              1
     1  H    0.039320
     2  C    0.407558
     3  H   -0.175875
     4  H    0.041840
     5  C    0.589634
     6  O   -0.834618
     7  N   -0.456550
     8  H   -0.060189
     9  C    0.069337
    10  H   -0.079793
    11  C    0.785944
    12  H    0.108522
    13  H   -0.097921
    14  H   -0.107582
    15  C    0.978413
    16  O   -0.916798
    17  N   -0.571377
    18  H   -0.112566
    19  C    0.732807
    20  H   -0.143641
    21  H   -0.112434
    22  H   -0.084031
 Sum of Mulliken atomic charges =   0.00000
 Mulliken charges with hydrogens summed into heavy atoms:
              1
     2  C    0.312843
     5  C    0.589634
     6  O   -0.834618
     7  N   -0.516739
     9  C   -0.010456
    11  C    0.688964
    15  C    0.978413
    16  O   -0.916798
    17  N   -0.683943
    19  C    0.392701
 Sum of Mulliken charges with hydrogens summed into heavy atoms =   0.00000
 Electronic spatial extent (au):  <R**2>=           1847.6432
 Charge=              0.0000 electrons
 Dipole moment (field-independent basis, Debye):
    X=              1.5186    Y=              0.3853    Z=              0.2335  Tot=              1.5840
 Quadrupole moment (field-independent basis, Debye-Ang):
   XX=            -59.6017   YY=            -63.4258   ZZ=            -61.6040
   XY=             13.2445   XZ=              8.6304   YZ=             -4.8505
 Traceless Quadrupole moment (field-independent basis, Debye-Ang):
   XX=              1.9421   YY=             -1.8820   ZZ=             -0.0602
   XY=             13.2445   XZ=              8.6304   YZ=             -4.8505
 Octapole moment (field-independent basis, Debye-Ang**2):
  XXX=             20.0893  YYY=              3.8871  ZZZ=              1.5186  XYY=             -2.4449
  XXY=            -15.4144  XXZ=              4.9989  XZZ=              3.9051  YZZ=              0.9875
  YYZ=              2.1656  XYZ=              2.4597
 Hexadecapole moment (field-independent basis, Debye-Ang**3):
 XXXX=          -1579.9230 YYYY=           -486.1219 ZZZZ=           -265.3123 XXXY=             50.4438
 XXXZ=             49.2107 YYYX=             15.6128 YYYZ=              1.7570 ZZZX=              3.1874
 ZZZY=             -2.6940 XXYY=           -370.1378 XXZZ=           -330.2064 YYZZ=           -127.5819
 XXYZ=            -23.4274 YYXZ=             16.8828 ZZXY=             11.2533
 N-N= 5.529334465029D+02 E-N=-2.261053366633D+03  KE= 4.920698650070D+02
 1\1\GINC-NODE001\SP\RMP2-FC\Aug-CC-pVDZ\C6H12N2O2\STEBOSS\12-Feb-2017\
 0\\#SP MP2/aug-cc-pVDZ\\Single Point calculation at MP2\\0,1\H,0,-4.06
 83,-0.9796,0.1204\C,0,-3.0667,-1.2801,0.4426\H,0,-2.7731,-2.1814,-0.10
 4\H,0,-3.1252,-1.5142,1.5102\C,0,-2.1227,-0.095,0.2562\O,0,-2.3456,0.9
 793,0.8017\N,0,-1.0599,-0.3533,-0.5661\H,0,-0.9271,-1.3088,-0.8718\C,0
 ,0.0864,0.4978,-0.9126\H,0,0.1646,0.4863,-2.0086\C,0,-0.0199,1.9581,-0
 .4703\H,0,-0.099,2.0697,0.6129\H,0,0.8596,2.4996,-0.839\H,0,-0.9111,2.
 4234,-0.8944\C,0,1.3377,-0.2848,-0.4436\O,0,1.5332,-1.4109,-0.8955\N,0
 ,2.1374,0.305,0.4816\H,0,1.8801,1.2148,0.8341\C,0,3.3084,-0.3517,1.038
 2\H,0,3.4451,-1.2897,0.499\H,0,4.2006,0.2722,0.9149\H,0,3.1721,-0.5685
 ,2.1045\\Version=EM64L-G09RevA.02\State=1-A\HF=-492.9162156\MP2=-494.5
 17604\RMSD=7.164e-09\PG=C01 [X(C6H12N2O2)]\\@


 The juvenile sea squirt wanders through the sea searching
 for a suitable rock or hunk of coral to cling to and make
 its home for life.  For this task it has a rudimentary
 nervous system.  When it finds its spot and takes root, it
 doesn't need its brain any more so it eats it.
 It's rather like getting tenure.

                               -- source unknown
 Job cpu time:  0 days 10 hours 36 minutes  5.4 seconds.
 File lengths (MBytes):  RWF=  10542 Int=      0 D2E=      0 Chk=      7 Scr=      2
 Normal termination of Gaussian 09 at Sun Feb 12 16:52:23 2017.
