 Entering Gaussian System, Link 0=g09
 Initial command:
 /home/steboss/Software/g09/l1.exe /home/steboss/projects/phi_psi_scan/alanine/MP2/90/5713/Gau-15475.inp -scrdir=/home/steboss/projects/phi_psi_scan/alanine/MP2/90/5713/
 Entering Link 1 = /home/steboss/Software/g09/l1.exe PID=     15477.
  
 Copyright (c) 1988,1990,1992,1993,1995,1998,2003,2009, Gaussian, Inc.
                  All Rights Reserved.
  
 This is part of the Gaussian(R) 09 program.  It is based on
 the Gaussian(R) 03 system (copyright 2003, Gaussian, Inc.),
 the Gaussian(R) 98 system (copyright 1998, Gaussian, Inc.),
 the Gaussian(R) 94 system (copyright 1995, Gaussian, Inc.),
 the Gaussian 92(TM) system (copyright 1992, Gaussian, Inc.),
 the Gaussian 90(TM) system (copyright 1990, Gaussian, Inc.),
 the Gaussian 88(TM) system (copyright 1988, Gaussian, Inc.),
 the Gaussian 86(TM) system (copyright 1986, Carnegie Mellon
 University), and the Gaussian 82(TM) system (copyright 1983,
 Carnegie Mellon University). Gaussian is a federally registered
 trademark of Gaussian, Inc.
  
 This software contains proprietary and confidential information,
 including trade secrets, belonging to Gaussian, Inc.
  
 This software is provided under written license and may be
 used, copied, transmitted, or stored only in accord with that
 written license.
  
 The following legend is applicable only to US Government
 contracts under FAR:
  
                    RESTRICTED RIGHTS LEGEND
  
 Use, reproduction and disclosure by the US Government is
 subject to restrictions as set forth in subparagraphs (a)
 and (c) of the Commercial Computer Software - Restricted
 Rights clause in FAR 52.227-19.
  
 Gaussian, Inc.
 340 Quinnipiac St., Bldg. 40, Wallingford CT 06492
  
  
 ---------------------------------------------------------------
 Warning -- This program may not be used in any manner that
 competes with the business of Gaussian, Inc. or will provide
 assistance to any competitor of Gaussian, Inc.  The licensee
 of this program is prohibited from giving any competitor of
 Gaussian, Inc. access to this program.  By using this program,
 the user acknowledges that Gaussian, Inc. is engaged in the
 business of creating and licensing software in the field of
 computational chemistry and represents and warrants to the
 licensee that it is not a competitor of Gaussian, Inc. and that
 it will not use this program in any manner prohibited above.
 ---------------------------------------------------------------
  

 Cite this work as:
 Gaussian 09, Revision A.02,
 M. J. Frisch, G. W. Trucks, H. B. Schlegel, G. E. Scuseria, 
 M. A. Robb, J. R. Cheeseman, G. Scalmani, V. Barone, B. Mennucci, 
 G. A. Petersson, H. Nakatsuji, M. Caricato, X. Li, H. P. Hratchian, 
 A. F. Izmaylov, J. Bloino, G. Zheng, J. L. Sonnenberg, M. Hada, 
 M. Ehara, K. Toyota, R. Fukuda, J. Hasegawa, M. Ishida, T. Nakajima, 
 Y. Honda, O. Kitao, H. Nakai, T. Vreven, J. A. Montgomery, Jr., 
 J. E. Peralta, F. Ogliaro, M. Bearpark, J. J. Heyd, E. Brothers, 
 K. N. Kudin, V. N. Staroverov, R. Kobayashi, J. Normand, 
 K. Raghavachari, A. Rendell, J. C. Burant, S. S. Iyengar, J. Tomasi, 
 M. Cossi, N. Rega, J. M. Millam, M. Klene, J. E. Knox, J. B. Cross, 
 V. Bakken, C. Adamo, J. Jaramillo, R. Gomperts, R. E. Stratmann, 
 O. Yazyev, A. J. Austin, R. Cammi, C. Pomelli, J. W. Ochterski, 
 R. L. Martin, K. Morokuma, V. G. Zakrzewski, G. A. Voth, 
 P. Salvador, J. J. Dannenberg, S. Dapprich, A. D. Daniels, 
 O. Farkas, J. B. Foresman, J. V. Ortiz, J. Cioslowski, 
 and D. J. Fox, Gaussian, Inc., Wallingford CT, 2009.
 
 ******************************************
 Gaussian 09:  EM64L-G09RevA.02 11-Jun-2009
                14-Feb-2017 
 ******************************************
 %chk=structure_165.chk
 %NProcShared=8
 Will use up to    8 processors via shared memory.
 -------------------
 #SP MP2/aug-cc-pVDZ
 -------------------
 1/38=1/1;
 2/12=2,17=6,18=5,40=1/2;
 3/5=16,7=10,11=9,16=1,25=1,30=1/1,2,3;
 4//1;
 5/5=2,38=5/2;
 8/10=1/1;
 9/16=-3/6;
 6/7=2,8=2,9=2,10=2/1;
 99/5=1,9=1/99;
 -------------------------------
 Single Point calculation at MP2
 -------------------------------
 Symbolic Z-matrix:
 Charge =  0 Multiplicity = 1
 H                     4.0934   -0.9266   -0.3368 
 C                     3.1553   -1.1825    0.1583 
 H                     3.3352   -1.3373    1.2277 
 H                     2.7842   -2.1232   -0.2663 
 C                     2.1403   -0.0789   -0.1157 
 O                     2.2362    0.6609   -1.0833 
 N                     1.1419    0.0009    0.8326 
 H                     1.079    -0.8092    1.4359 
 C                    -0.1304    0.6938    0.6777 
 H                    -0.4654    0.934     1.698 
 C                    -0.0539    2.0195   -0.0972 
 H                     0.1535    1.8595   -1.1539 
 H                    -1.0009    2.5613    0.0112 
 H                     0.743     2.6464    0.311 
 C                    -1.1831   -0.2857    0.0918 
 O                    -0.8693   -1.372    -0.3767 
 N                    -2.4762    0.1408    0.2 
 H                    -2.6506    1.0697    0.5563 
 C                    -3.5996   -0.6175   -0.3237 
 H                    -3.2165   -1.5885   -0.6397 
 H                    -4.3644   -0.7639    0.4474 
 H                    -4.0573   -0.1175   -1.1863 
 
                          Input orientation:                          
 ---------------------------------------------------------------------
 Center     Atomic      Atomic             Coordinates (Angstroms)
 Number     Number       Type             X           Y           Z
 ---------------------------------------------------------------------
      1          1           0        4.093400   -0.926600   -0.336800
      2          6           0        3.155300   -1.182500    0.158300
      3          1           0        3.335200   -1.337300    1.227700
      4          1           0        2.784200   -2.123200   -0.266300
      5          6           0        2.140300   -0.078900   -0.115700
      6          8           0        2.236200    0.660900   -1.083300
      7          7           0        1.141900    0.000900    0.832600
      8          1           0        1.079000   -0.809200    1.435900
      9          6           0       -0.130400    0.693800    0.677700
     10          1           0       -0.465400    0.934000    1.698000
     11          6           0       -0.053900    2.019500   -0.097200
     12          1           0        0.153500    1.859500   -1.153900
     13          1           0       -1.000900    2.561300    0.011200
     14          1           0        0.743000    2.646400    0.311000
     15          6           0       -1.183100   -0.285700    0.091800
     16          8           0       -0.869300   -1.372000   -0.376700
     17          7           0       -2.476200    0.140800    0.200000
     18          1           0       -2.650600    1.069700    0.556300
     19          6           0       -3.599600   -0.617500   -0.323700
     20          1           0       -3.216500   -1.588500   -0.639700
     21          1           0       -4.364400   -0.763900    0.447400
     22          1           0       -4.057300   -0.117500   -1.186300
 ---------------------------------------------------------------------
                    Distance matrix (angstroms):
                    1          2          3          4          5
     1  H    0.000000
     2  C    1.091165   0.000000
     3  H    1.786394   1.095419   0.000000
     4  H    1.775057   1.096776   1.775747   0.000000
     5  C    2.140579   1.524216   2.194557   2.148593   0.000000
     6  O    2.554723   2.405086   3.246741   2.952796   1.221782
     7  N    3.307432   2.430822   2.599509   2.901126   1.379291
     8  H    3.498979   2.466300   2.326516   2.744410   2.016720
     9  C    4.636312   3.819176   4.054411   4.161913   2.526386
    10  H    5.327748   4.467630   4.452476   4.874920   3.332439
    11  C    5.092839   4.540600   4.950703   5.024477   3.036139
    12  H    4.894162   4.470619   5.100467   4.854927   2.963550
    13  H    6.183724   5.595684   5.956569   6.028974   4.105350
    14  H    4.940765   4.528022   4.840424   5.220044   3.092213
    15  C    5.332533   4.430619   4.776104   4.386811   3.336287
    16  O    4.982807   4.064424   4.500347   3.731562   3.286019
    17  N    6.677360   5.785037   6.083857   5.745863   4.632495
    18  H    7.089737   6.240135   6.486465   6.356755   4.972282
    19  C    7.699218   6.795603   7.142577   6.559217   5.768865
    20  H    7.346053   6.434398   6.817262   6.036036   5.590060
    21  H    8.495635   7.536889   7.760251   7.311604   6.564863
    22  H    8.234695   7.413756   7.871745   7.188557   6.289509
                    6          7          8          9         10
     6  O    0.000000
     7  N    2.302991   0.000000
     8  H    3.137941   1.012022   0.000000
     9  C    2.950085   1.457001   2.072806   0.000000
    10  H    3.887011   2.050123   2.343633   1.100424   0.000000
    11  C    2.839497   2.523730   3.411070   1.537466   2.137846
    12  H    2.404010   2.894393   3.832176   2.189569   3.061523
    13  H    3.910021   3.438305   4.209041   2.165537   2.404196
    14  H    2.848847   2.725777   3.649585   2.170240   2.513228
    15  C    3.737449   2.456939   2.682863   1.552700   2.140710
    16  O    3.778372   2.718858   2.719951   2.434186   3.128123
    17  N    4.911627   3.675650   3.881932   2.456987   2.629921
    18  H    5.170708   3.949903   4.267772   2.550970   2.469209
    19  C    6.022280   4.919479   5.002223   3.841570   4.039509
    20  H    5.915109   4.867187   4.833916   4.058134   4.404134
    21  H    6.923945   5.572489   5.532611   4.483825   4.432727
    22  H    6.342291   5.578679   5.808266   4.421905   4.725102
                   11         12         13         14         15
    11  C    0.000000
    12  H    1.088683   0.000000
    13  H    1.096406   1.783990   0.000000
    14  H    1.093014   1.764271   1.771527   0.000000
    15  C    2.573861   2.817827   2.853963   3.514985   0.000000
    16  O    3.499324   3.477463   3.954571   4.384060   1.223932
    17  N    3.079834   3.420862   2.840946   4.080882   1.365913
    18  H    2.841132   3.378098   2.289872   3.750023   2.050957
    19  C    4.424597   4.572802   4.119487   5.469375   2.474309
    20  H    4.828458   4.848712   4.749041   5.875019   2.523310
    21  H    5.159875   5.464230   4.749774   6.142824   3.236633
    22  H    4.666918   4.651926   4.236928   5.737938   3.150057
                   16         17         18         19         20
    16  O    0.000000
    17  N    2.281069   0.000000
    18  H    3.163134   1.010060   0.000000
    19  C    2.833129   1.453034   2.126416   0.000000
    20  H    2.371790   2.060005   2.969290   1.090625   0.000000
    21  H    3.642067   2.108314   2.512182   1.095877   1.783094
    22  H    3.520308   2.118590   2.534739   1.097072   1.780325
                   21         22
    21  H    0.000000
    22  H    1.783569   0.000000
 Stoichiometry    C6H12N2O2
 Framework group  C1[X(C6H12N2O2)]
 Deg. of freedom    60
 Full point group                 C1      NOp   1
 Largest Abelian subgroup         C1      NOp   1
 Largest concise Abelian subgroup C1      NOp   1
                         Standard orientation:                         
 ---------------------------------------------------------------------
 Center     Atomic      Atomic             Coordinates (Angstroms)
 Number     Number       Type             X           Y           Z
 ---------------------------------------------------------------------
      1          1           0        4.093400   -0.926607   -0.336799
      2          6           0        3.155299   -1.182505    0.158301
      3          1           0        3.335199   -1.337305    1.227701
      4          1           0        2.784198   -2.123204   -0.266299
      5          6           0        2.140301   -0.078903   -0.115699
      6          8           0        2.236202    0.660896   -1.083299
      7          7           0        1.141901    0.000898    0.832601
      8          1           0        1.079000   -0.809202    1.435901
      9          6           0       -0.130398    0.693800    0.677701
     10          1           0       -0.465397    0.934001    1.698001
     11          6           0       -0.053896    2.019500   -0.097199
     12          1           0        0.153504    1.859500   -1.153899
     13          1           0       -1.000895    2.561302    0.011201
     14          1           0        0.743005    2.646399    0.311001
     15          6           0       -1.183099   -0.285698    0.091801
     16          8           0       -0.869301   -1.371999   -0.376699
     17          7           0       -2.476198    0.140804    0.200001
     18          1           0       -2.650597    1.069704    0.556301
     19          6           0       -3.599600   -0.617494   -0.323699
     20          1           0       -3.216501   -1.588495   -0.639699
     21          1           0       -4.364400   -0.763893    0.447401
     22          1           0       -4.057299   -0.117494   -1.186299
 ---------------------------------------------------------------------
 Rotational constants (GHZ):      2.6100203      0.7381708      0.6479160
 Standard basis: Aug-CC-pVDZ (5D, 7F)
 There are   338 symmetry adapted basis functions of A   symmetry.
 Integral buffers will be    131072 words long.
 Raffenetti 1 integral format.
 Two-electron integral symmetry is turned on.
   338 basis functions,   562 primitive gaussians,   358 cartesian basis functions
    39 alpha electrons       39 beta electrons
       nuclear repulsion energy       555.4861806104 Hartrees.
 NAtoms=   22 NActive=   22 NUniq=   22 SFac= 7.50D-01 NAtFMM=   80 NAOKFM=F Big=F
 One-electron integrals computed using PRISM.
 NBasis=   338 RedAO= T  NBF=   338
 NBsUse=   338 1.00D-06 NBFU=   338
 Harris functional with IExCor=  205 diagonalized for initial guess.
 ExpMin= 2.97D-02 ExpMax= 1.17D+04 ExpMxC= 4.01D+02 IAcc=3 IRadAn=         0 AccDes= 0.00D+00
 HarFok:  IExCor=  205 AccDes= 0.00D+00 IRadAn=         0 IDoV= 1
 ScaDFX=  1.000000  1.000000  1.000000  1.000000
 FoFCou: FMM=F IPFlag=           0 FMFlag=      100000 FMFlg1=           0
         NFxFlg=           0 DoJE=T BraDBF=F KetDBF=T FulRan=T
         Omega=  0.000000  0.000000  1.000000  0.000000  0.000000 ICntrl=     500 IOpCl=  0
         NMat0=    1 NMatS0=    1 NMatT0=    0 NMatD0=    1 NMtDS0=    0 NMtDT0=    0
         I1Cent=           4 NGrid=           0.
 Petite list used in FoFCou.
 Initial guess orbital symmetries:
       Occupied  (A) (A) (A) (A) (A) (A) (A) (A) (A) (A) (A) (A)
                 (A) (A) (A) (A) (A) (A) (A) (A) (A) (A) (A) (A)
                 (A) (A) (A) (A) (A) (A) (A) (A) (A) (A) (A) (A)
                 (A) (A) (A)
       Virtual   (A) (A) (A) (A) (A) (A) (A) (A) (A) (A) (A) (A)
                 (A) (A) (A) (A) (A) (A) (A) (A) (A) (A) (A) (A)
                 (A) (A) (A) (A) (A) (A) (A) (A) (A) (A) (A) (A)
                 (A) (A) (A) (A) (A) (A) (A) (A) (A) (A) (A) (A)
                 (A) (A) (A) (A) (A) (A) (A) (A) (A) (A) (A) (A)
                 (A) (A) (A) (A) (A) (A) (A) (A) (A) (A) (A) (A)
                 (A) (A) (A) (A) (A) (A) (A) (A) (A) (A) (A) (A)
                 (A) (A) (A) (A) (A) (A) (A) (A) (A) (A) (A) (A)
                 (A) (A) (A) (A) (A) (A) (A) (A) (A) (A) (A) (A)
                 (A) (A) (A) (A) (A) (A) (A) (A) (A) (A) (A) (A)
                 (A) (A) (A) (A) (A) (A) (A) (A) (A) (A) (A) (A)
                 (A) (A) (A) (A) (A) (A) (A) (A) (A) (A) (A) (A)
                 (A) (A) (A) (A) (A) (A) (A) (A) (A) (A) (A) (A)
                 (A) (A) (A) (A) (A) (A) (A) (A) (A) (A) (A) (A)
                 (A) (A) (A) (A) (A) (A) (A) (A) (A) (A) (A) (A)
                 (A) (A) (A) (A) (A) (A) (A) (A) (A) (A) (A) (A)
                 (A) (A) (A) (A) (A) (A) (A) (A) (A) (A) (A) (A)
                 (A) (A) (A) (A) (A) (A) (A) (A) (A) (A) (A) (A)
                 (A) (A) (A) (A) (A) (A) (A) (A) (A) (A) (A) (A)
                 (A) (A) (A) (A) (A) (A) (A) (A) (A) (A) (A) (A)
                 (A) (A) (A) (A) (A) (A) (A) (A) (A) (A) (A) (A)
                 (A) (A) (A) (A) (A) (A) (A) (A) (A) (A) (A) (A)
                 (A) (A) (A) (A) (A) (A) (A) (A) (A) (A) (A) (A)
                 (A) (A) (A) (A) (A) (A) (A) (A) (A) (A) (A) (A)
                 (A) (A) (A) (A) (A) (A) (A) (A) (A) (A) (A)
 The electronic state of the initial guess is 1-A.
 Requested convergence on RMS density matrix=1.00D-08 within 128 cycles.
 Requested convergence on MAX density matrix=1.00D-06.
 Requested convergence on             energy=1.00D-06.
 No special actions if energy rises.
 Initial convergence to 1.0D-05 achieved.  Increase integral accuracy.
 SCF Done:  E(RHF) =  -492.916946767     A.U. after   14 cycles
             Convg  =    0.5039D-08             -V/T =  2.0017
 ExpMin= 2.97D-02 ExpMax= 1.17D+04 ExpMxC= 4.01D+02 IAcc=3 IRadAn=         5 AccDes= 0.00D+00
 HarFok:  IExCor=  205 AccDes= 0.00D+00 IRadAn=         5 IDoV=-2
 ScaDFX=  1.000000  1.000000  1.000000  1.000000
 Range of M.O.s used for correlation:    11   338
 NBasis=   338 NAE=    39 NBE=    39 NFC=    10 NFV=     0
 NROrb=    328 NOA=    29 NOB=    29 NVA=   299 NVB=   299

 **** Warning!!: The largest alpha MO coefficient is  0.89039559D+02

 Disk-based method using OVN memory for 29 occupieds at a time.
 Estimated scratch disk usage=  1378938095 words.
 Actual    scratch disk usage=  1366215631 words.
 JobTyp=1 Pass  1:  I=   1 to  29 NPSUse=  8 ParTrn=T ParDer=T DoDerP=F.
 Spin components of T(2) and E(2):
     alpha-alpha T2 =       0.6775929572D-01 E2=     -0.2054353493D+00
     alpha-beta  T2 =       0.3760510367D+00 E2=     -0.1189294002D+01
     beta-beta   T2 =       0.6775929572D-01 E2=     -0.2054353493D+00
 ANorm=    0.1229459080D+01
 E2 =    -0.1600164701D+01 EUMP2 =    -0.49451711146797D+03

 **********************************************************************

            Population analysis using the SCF density.

 **********************************************************************

 Orbital symmetries:
       Occupied  (A) (A) (A) (A) (A) (A) (A) (A) (A) (A) (A) (A)
                 (A) (A) (A) (A) (A) (A) (A) (A) (A) (A) (A) (A)
                 (A) (A) (A) (A) (A) (A) (A) (A) (A) (A) (A) (A)
                 (A) (A) (A)
       Virtual   (A) (A) (A) (A) (A) (A) (A) (A) (A) (A) (A) (A)
                 (A) (A) (A) (A) (A) (A) (A) (A) (A) (A) (A) (A)
                 (A) (A) (A) (A) (A) (A) (A) (A) (A) (A) (A) (A)
                 (A) (A) (A) (A) (A) (A) (A) (A) (A) (A) (A) (A)
                 (A) (A) (A) (A) (A) (A) (A) (A) (A) (A) (A) (A)
                 (A) (A) (A) (A) (A) (A) (A) (A) (A) (A) (A) (A)
                 (A) (A) (A) (A) (A) (A) (A) (A) (A) (A) (A) (A)
                 (A) (A) (A) (A) (A) (A) (A) (A) (A) (A) (A) (A)
                 (A) (A) (A) (A) (A) (A) (A) (A) (A) (A) (A) (A)
                 (A) (A) (A) (A) (A) (A) (A) (A) (A) (A) (A) (A)
                 (A) (A) (A) (A) (A) (A) (A) (A) (A) (A) (A) (A)
                 (A) (A) (A) (A) (A) (A) (A) (A) (A) (A) (A) (A)
                 (A) (A) (A) (A) (A) (A) (A) (A) (A) (A) (A) (A)
                 (A) (A) (A) (A) (A) (A) (A) (A) (A) (A) (A) (A)
                 (A) (A) (A) (A) (A) (A) (A) (A) (A) (A) (A) (A)
                 (A) (A) (A) (A) (A) (A) (A) (A) (A) (A) (A) (A)
                 (A) (A) (A) (A) (A) (A) (A) (A) (A) (A) (A) (A)
                 (A) (A) (A) (A) (A) (A) (A) (A) (A) (A) (A) (A)
                 (A) (A) (A) (A) (A) (A) (A) (A) (A) (A) (A) (A)
                 (A) (A) (A) (A) (A) (A) (A) (A) (A) (A) (A) (A)
                 (A) (A) (A) (A) (A) (A) (A) (A) (A) (A) (A) (A)
                 (A) (A) (A) (A) (A) (A) (A) (A) (A) (A) (A) (A)
                 (A) (A) (A) (A) (A) (A) (A) (A) (A) (A) (A) (A)
                 (A) (A) (A) (A) (A) (A) (A) (A) (A) (A) (A) (A)
                 (A) (A) (A) (A) (A) (A) (A) (A) (A) (A) (A)
 The electronic state is 1-A.
 Alpha  occ. eigenvalues --  -20.53595 -20.52469 -15.60037 -15.58974 -11.36250
 Alpha  occ. eigenvalues --  -11.35725 -11.29907 -11.27222 -11.23791 -11.23525
 Alpha  occ. eigenvalues --   -1.39100  -1.37678  -1.23822  -1.23300  -1.05479
 Alpha  occ. eigenvalues --   -0.98577  -0.95726  -0.88501  -0.80046  -0.76422
 Alpha  occ. eigenvalues --   -0.72106  -0.69563  -0.65811  -0.63203  -0.62440
 Alpha  occ. eigenvalues --   -0.61909  -0.59338  -0.58463  -0.56356  -0.55701
 Alpha  occ. eigenvalues --   -0.55082  -0.53548  -0.53244  -0.51008  -0.50356
 Alpha  occ. eigenvalues --   -0.43434  -0.41489  -0.39718  -0.39043
 Alpha virt. eigenvalues --    0.02513   0.03777   0.04264   0.04573   0.05738
 Alpha virt. eigenvalues --    0.06014   0.06265   0.06956   0.07624   0.08192
 Alpha virt. eigenvalues --    0.08755   0.08902   0.11393   0.11581   0.12984
 Alpha virt. eigenvalues --    0.13495   0.14024   0.14246   0.14696   0.15043
 Alpha virt. eigenvalues --    0.15419   0.16069   0.16260   0.16947   0.17285
 Alpha virt. eigenvalues --    0.17875   0.18209   0.18508   0.19156   0.19379
 Alpha virt. eigenvalues --    0.20344   0.20563   0.21401   0.21948   0.22404
 Alpha virt. eigenvalues --    0.23137   0.23244   0.25061   0.25363   0.26835
 Alpha virt. eigenvalues --    0.26889   0.28749   0.29310   0.29802   0.30592
 Alpha virt. eigenvalues --    0.31161   0.31721   0.31913   0.32598   0.33967
 Alpha virt. eigenvalues --    0.34943   0.35312   0.35544   0.36017   0.36408
 Alpha virt. eigenvalues --    0.37356   0.38159   0.38986   0.39745   0.40166
 Alpha virt. eigenvalues --    0.40757   0.41324   0.42396   0.42826   0.43251
 Alpha virt. eigenvalues --    0.44150   0.44348   0.45201   0.45457   0.45800
 Alpha virt. eigenvalues --    0.46853   0.47282   0.47618   0.48237   0.48767
 Alpha virt. eigenvalues --    0.50095   0.51086   0.51354   0.51547   0.52022
 Alpha virt. eigenvalues --    0.53730   0.53957   0.54759   0.55518   0.56065
 Alpha virt. eigenvalues --    0.56323   0.57076   0.58263   0.58545   0.59257
 Alpha virt. eigenvalues --    0.59479   0.60541   0.60826   0.61424   0.62547
 Alpha virt. eigenvalues --    0.62682   0.63810   0.64341   0.64917   0.65795
 Alpha virt. eigenvalues --    0.66290   0.66684   0.67011   0.67789   0.68378
 Alpha virt. eigenvalues --    0.68781   0.69403   0.69739   0.70746   0.71293
 Alpha virt. eigenvalues --    0.72051   0.72745   0.73243   0.73640   0.74467
 Alpha virt. eigenvalues --    0.75930   0.76689   0.78462   0.78901   0.79405
 Alpha virt. eigenvalues --    0.79944   0.81970   0.82067   0.83315   0.83645
 Alpha virt. eigenvalues --    0.84256   0.85170   0.85966   0.87364   0.88201
 Alpha virt. eigenvalues --    0.88954   0.89341   0.91431   0.91792   0.92944
 Alpha virt. eigenvalues --    0.94288   0.95289   0.97209   0.97879   0.99165
 Alpha virt. eigenvalues --    0.99859   1.01476   1.02107   1.03764   1.04548
 Alpha virt. eigenvalues --    1.07047   1.08136   1.08569   1.10002   1.11073
 Alpha virt. eigenvalues --    1.11798   1.12614   1.14005   1.15198   1.16661
 Alpha virt. eigenvalues --    1.17506   1.17779   1.18794   1.19991   1.20409
 Alpha virt. eigenvalues --    1.24098   1.24999   1.25360   1.26459   1.30729
 Alpha virt. eigenvalues --    1.31738   1.33283   1.34833   1.35010   1.37315
 Alpha virt. eigenvalues --    1.39110   1.42917   1.44582   1.45616   1.47281
 Alpha virt. eigenvalues --    1.48959   1.51156   1.51421   1.54969   1.55640
 Alpha virt. eigenvalues --    1.57637   1.58816   1.60854   1.61957   1.63320
 Alpha virt. eigenvalues --    1.64917   1.66826   1.69640   1.70820   1.73099
 Alpha virt. eigenvalues --    1.74404   1.75971   1.76873   1.78590   1.79681
 Alpha virt. eigenvalues --    1.82217   1.82798   1.85961   1.87594   1.88249
 Alpha virt. eigenvalues --    1.89732   1.90169   1.90988   1.92081   1.93161
 Alpha virt. eigenvalues --    1.95973   1.96926   1.97452   1.99154   2.02516
 Alpha virt. eigenvalues --    2.03667   2.04620   2.05756   2.07498   2.08400
 Alpha virt. eigenvalues --    2.09035   2.10710   2.12529   2.14524   2.15525
 Alpha virt. eigenvalues --    2.18580   2.19592   2.20276   2.21140   2.23083
 Alpha virt. eigenvalues --    2.25134   2.26324   2.28665   2.29671   2.30609
 Alpha virt. eigenvalues --    2.31845   2.33176   2.34107   2.36578   2.37482
 Alpha virt. eigenvalues --    2.38257   2.39280   2.41307   2.43328   2.43680
 Alpha virt. eigenvalues --    2.45718   2.47491   2.47927   2.50091   2.50954
 Alpha virt. eigenvalues --    2.53952   2.55416   2.58184   2.58672   2.60883
 Alpha virt. eigenvalues --    2.61355   2.62761   2.65552   2.67067   2.70886
 Alpha virt. eigenvalues --    2.71524   2.72739   2.76453   2.77272   2.78171
 Alpha virt. eigenvalues --    2.82373   2.83957   2.86011   2.87609   2.87812
 Alpha virt. eigenvalues --    2.90677   2.91905   2.93730   2.96367   2.98548
 Alpha virt. eigenvalues --    3.00276   3.00683   3.04286   3.05643   3.09827
 Alpha virt. eigenvalues --    3.10538   3.14242   3.19061   3.22370   3.24530
 Alpha virt. eigenvalues --    3.26850   3.30819   3.43986   3.45917   3.54385
 Alpha virt. eigenvalues --    3.62010   3.65405   3.73924   3.83069   3.84552
 Alpha virt. eigenvalues --    3.86762   3.88660   3.91165   3.97970   4.05258
 Alpha virt. eigenvalues --    4.07146   4.08140   4.22846   4.23241
          Condensed to atoms (all electrons):
              1          2          3          4          5          6
     1  H    0.833447   0.362061  -0.100311  -0.071092  -0.015193   0.021482
     2  C    0.362061   4.508110   0.348670   0.335843   0.267140  -0.045594
     3  H   -0.100311   0.348670   0.957037  -0.072604   0.040590  -0.005000
     4  H   -0.071092   0.335843  -0.072604   0.735208  -0.043325   0.015209
     5  C   -0.015193   0.267140   0.040590  -0.043325   5.091628   0.203123
     6  O    0.021482  -0.045594  -0.005000   0.015209   0.203123   8.702780
     7  N    0.026633  -0.058079  -0.111613   0.008685   0.283139  -0.140726
     8  H   -0.006046  -0.051143   0.013587  -0.000789  -0.114591   0.003747
     9  C   -0.004055   0.047004  -0.025990   0.007560  -0.485702   0.140636
    10  H   -0.000619   0.004718   0.003186   0.000429   0.017114  -0.000637
    11  C    0.002835   0.009694  -0.001979   0.001846   0.049385  -0.064467
    12  H    0.000720   0.013646   0.001310   0.000849   0.050822  -0.061197
    13  H   -0.000099  -0.003609  -0.000597   0.000333  -0.027315   0.003619
    14  H    0.000002  -0.003467  -0.000626  -0.000469   0.005264   0.018389
    15  C   -0.005658  -0.063730  -0.010367   0.006942  -0.007178   0.018231
    16  O   -0.000794   0.013162   0.000910   0.001940  -0.007451   0.000145
    17  N   -0.000331   0.001729   0.000876  -0.000249   0.002002   0.001690
    18  H    0.000001  -0.000159  -0.000280   0.000069   0.000184   0.000923
    19  C   -0.000154  -0.001547   0.000082  -0.000320  -0.004270   0.002077
    20  H   -0.000027  -0.000552   0.000046  -0.000122  -0.000627  -0.000001
    21  H    0.000016   0.000070   0.000007   0.000013   0.001251  -0.000018
    22  H   -0.000012  -0.000045  -0.000007  -0.000026   0.000048   0.000187
              7          8          9         10         11         12
     1  H    0.026633  -0.006046  -0.004055  -0.000619   0.002835   0.000720
     2  C   -0.058079  -0.051143   0.047004   0.004718   0.009694   0.013646
     3  H   -0.111613   0.013587  -0.025990   0.003186  -0.001979   0.001310
     4  H    0.008685  -0.000789   0.007560   0.000429   0.001846   0.000849
     5  C    0.283139  -0.114591  -0.485702   0.017114   0.049385   0.050822
     6  O   -0.140726   0.003747   0.140636  -0.000637  -0.064467  -0.061197
     7  N    7.658663   0.301788  -0.447989  -0.261249  -0.050100  -0.109991
     8  H    0.301788   0.923935  -0.055810   0.033890  -0.012688  -0.000810
     9  C   -0.447989  -0.055810   7.900526   0.104601   0.255446   0.102069
    10  H   -0.261249   0.033890   0.104601   1.417256   0.009870   0.082624
    11  C   -0.050100  -0.012688   0.255446   0.009870   4.232420   0.402420
    12  H   -0.109991  -0.000810   0.102069   0.082624   0.402420   1.006801
    13  H    0.111552   0.000610  -0.212808  -0.092751   0.271061  -0.220954
    14  H    0.047015  -0.004694  -0.114419  -0.035963   0.285370  -0.169254
    15  C    0.350132   0.000906  -1.213427  -0.135793  -0.084897  -0.194016
    16  O   -0.077593   0.018292   0.074337  -0.008049   0.013212   0.012341
    17  N   -0.050015   0.010895   0.197053  -0.003881  -0.005125   0.020442
    18  H   -0.004472   0.001052  -0.072403   0.027806  -0.018611   0.004469
    19  C   -0.000976   0.000943  -0.031661  -0.001416  -0.014667  -0.007290
    20  H    0.002828   0.000267   0.003352   0.001312  -0.010257  -0.002372
    21  H    0.000592  -0.000683  -0.009332  -0.001656  -0.000543   0.000516
    22  H    0.002736   0.000236  -0.023683  -0.002260   0.012573  -0.000939
             13         14         15         16         17         18
     1  H   -0.000099   0.000002  -0.005658  -0.000794  -0.000331   0.000001
     2  C   -0.003609  -0.003467  -0.063730   0.013162   0.001729  -0.000159
     3  H   -0.000597  -0.000626  -0.010367   0.000910   0.000876  -0.000280
     4  H    0.000333  -0.000469   0.006942   0.001940  -0.000249   0.000069
     5  C   -0.027315   0.005264  -0.007178  -0.007451   0.002002   0.000184
     6  O    0.003619   0.018389   0.018231   0.000145   0.001690   0.000923
     7  N    0.111552   0.047015   0.350132  -0.077593  -0.050015  -0.004472
     8  H    0.000610  -0.004694   0.000906   0.018292   0.010895   0.001052
     9  C   -0.212808  -0.114419  -1.213427   0.074337   0.197053  -0.072403
    10  H   -0.092751  -0.035963  -0.135793  -0.008049  -0.003881   0.027806
    11  C    0.271061   0.285370  -0.084897   0.013212  -0.005125  -0.018611
    12  H   -0.220954  -0.169254  -0.194016   0.012341   0.020442   0.004469
    13  H    1.385884  -0.163956   0.190953  -0.010610  -0.065021  -0.003628
    14  H   -0.163956   1.053704   0.074569  -0.000969   0.022562  -0.003528
    15  C    0.190953   0.074569   5.781856   0.251710  -0.011831   0.028287
    16  O   -0.010610  -0.000969   0.251710   8.697357  -0.184513   0.004785
    17  N   -0.065021   0.022562  -0.011831  -0.184513   7.266874   0.220118
    18  H   -0.003628  -0.003528   0.028287   0.004785   0.220118   1.039452
    19  C   -0.003513   0.007831  -0.095429   0.001846   0.250378  -0.127196
    20  H    0.003313   0.000129  -0.016963   0.002276  -0.037830  -0.001219
    21  H   -0.002649   0.000232   0.019647   0.012870  -0.118260   0.018349
    22  H    0.000575   0.001149  -0.006321   0.006884   0.003291  -0.002278
             19         20         21         22
     1  H   -0.000154  -0.000027   0.000016  -0.000012
     2  C   -0.001547  -0.000552   0.000070  -0.000045
     3  H    0.000082   0.000046   0.000007  -0.000007
     4  H   -0.000320  -0.000122   0.000013  -0.000026
     5  C   -0.004270  -0.000627   0.001251   0.000048
     6  O    0.002077  -0.000001  -0.000018   0.000187
     7  N   -0.000976   0.002828   0.000592   0.002736
     8  H    0.000943   0.000267  -0.000683   0.000236
     9  C   -0.031661   0.003352  -0.009332  -0.023683
    10  H   -0.001416   0.001312  -0.001656  -0.002260
    11  C   -0.014667  -0.010257  -0.000543   0.012573
    12  H   -0.007290  -0.002372   0.000516  -0.000939
    13  H   -0.003513   0.003313  -0.002649   0.000575
    14  H    0.007831   0.000129   0.000232   0.001149
    15  C   -0.095429  -0.016963   0.019647  -0.006321
    16  O    0.001846   0.002276   0.012870   0.006884
    17  N    0.250378  -0.037830  -0.118260   0.003291
    18  H   -0.127196  -0.001219   0.018349  -0.002278
    19  C    4.135373   0.490012   0.358515   0.311735
    20  H    0.490012   0.949258  -0.132333  -0.104202
    21  H    0.358515  -0.132333   1.115136  -0.144889
    22  H    0.311735  -0.104202  -0.144889   1.037309
 Mulliken atomic charges:
              1
     1  H   -0.042806
     2  C    0.316078
     3  H   -0.036927
     4  H    0.074074
     5  C    0.693961
     6  O   -0.814597
     7  N   -0.480959
     8  H   -0.062894
     9  C   -0.135305
    10  H   -0.158532
    11  C    0.717205
    12  H    0.067794
    13  H   -0.160390
    14  H   -0.018872
    15  C    1.122378
    16  O   -0.822086
    17  N   -0.520853
    18  H   -0.111721
    19  C    0.729650
    20  H   -0.146286
    21  H   -0.116851
    22  H   -0.092061
 Sum of Mulliken atomic charges =   0.00000
 Mulliken charges with hydrogens summed into heavy atoms:
              1
     2  C    0.310419
     5  C    0.693961
     6  O   -0.814597
     7  N   -0.543853
     9  C   -0.293837
    11  C    0.605737
    15  C    1.122378
    16  O   -0.822086
    17  N   -0.632574
    19  C    0.374452
 Sum of Mulliken charges with hydrogens summed into heavy atoms =   0.00000
 Electronic spatial extent (au):  <R**2>=           1846.5111
 Charge=              0.0000 electrons
 Dipole moment (field-independent basis, Debye):
    X=             -2.9148    Y=              0.8557    Z=              3.8027  Tot=              4.8671
 Quadrupole moment (field-independent basis, Debye-Ang):
   XX=            -52.8632   YY=            -62.1194   ZZ=            -62.8881
   XY=             -9.2058   XZ=              4.6293   YZ=              0.1960
 Traceless Quadrupole moment (field-independent basis, Debye-Ang):
   XX=              6.4270   YY=             -2.8291   ZZ=             -3.5979
   XY=             -9.2058   XZ=              4.6293   YZ=              0.1960
 Octapole moment (field-independent basis, Debye-Ang**2):
  XXX=            -29.7023  YYY=              4.6383  ZZZ=              4.4180  XYY=              0.1211
  XXY=            -14.1258  XXZ=             10.6301  XZZ=             -7.5077  YZZ=             -4.1617
  YYZ=              3.8809  XYZ=              1.0711
 Hexadecapole moment (field-independent basis, Debye-Ang**3):
 XXXX=          -1627.2523 YYYY=           -472.6110 ZZZZ=           -191.4879 XXXY=            -32.4672
 XXXZ=             22.0622 YYYX=             -6.5233 YYYZ=              1.9051 ZZZX=              7.5089
 ZZZY=             -4.9950 XXYY=           -361.2657 XXZZ=           -342.0760 YYZZ=           -109.1807
 XXYZ=             15.1551 YYXZ=             -1.7290 ZZXY=             -9.6342
 N-N= 5.554861806104D+02 E-N=-2.266437296974D+03  KE= 4.920702417480D+02
 1\1\GINC-NODE004\SP\RMP2-FC\Aug-CC-pVDZ\C6H12N2O2\STEBOSS\14-Feb-2017\
 0\\#SP MP2/aug-cc-pVDZ\\Single Point calculation at MP2\\0,1\H,0,4.093
 4,-0.9266,-0.3368\C,0,3.1553,-1.1825,0.1583\H,0,3.3352,-1.3373,1.2277\
 H,0,2.7842,-2.1232,-0.2663\C,0,2.1403,-0.0789,-0.1157\O,0,2.2362,0.660
 9,-1.0833\N,0,1.1419,0.0009,0.8326\H,0,1.079,-0.8092,1.4359\C,0,-0.130
 4,0.6938,0.6777\H,0,-0.4654,0.934,1.698\C,0,-0.0539,2.0195,-0.0972\H,0
 ,0.1535,1.8595,-1.1539\H,0,-1.0009,2.5613,0.0112\H,0,0.743,2.6464,0.31
 1\C,0,-1.1831,-0.2857,0.0918\O,0,-0.8693,-1.372,-0.3767\N,0,-2.4762,0.
 1408,0.2\H,0,-2.6506,1.0697,0.5563\C,0,-3.5996,-0.6175,-0.3237\H,0,-3.
 2165,-1.5885,-0.6397\H,0,-4.3644,-0.7639,0.4474\H,0,-4.0573,-0.1175,-1
 .1863\\Version=EM64L-G09RevA.02\State=1-A\HF=-492.9169468\MP2=-494.517
 1115\RMSD=5.039e-09\PG=C01 [X(C6H12N2O2)]\\@


 Age does not diminish the extreme disappointment of
 having a scoop of ice cream fall from the cone.
 -- Jim Fiebig
 Job cpu time:  0 days 11 hours 19 minutes  0.6 seconds.
 File lengths (MBytes):  RWF=  10540 Int=      0 D2E=      0 Chk=      7 Scr=      2
 Normal termination of Gaussian 09 at Tue Feb 14 04:54:48 2017.
