 Entering Gaussian System, Link 0=g09
 Initial command:
 /home/steboss/Software/g09/l1.exe /home/steboss/projects/phi_psi_scan/alanine/MP2/90/5710/Gau-13017.inp -scrdir=/home/steboss/projects/phi_psi_scan/alanine/MP2/90/5710/
 Entering Link 1 = /home/steboss/Software/g09/l1.exe PID=     13019.
  
 Copyright (c) 1988,1990,1992,1993,1995,1998,2003,2009, Gaussian, Inc.
                  All Rights Reserved.
  
 This is part of the Gaussian(R) 09 program.  It is based on
 the Gaussian(R) 03 system (copyright 2003, Gaussian, Inc.),
 the Gaussian(R) 98 system (copyright 1998, Gaussian, Inc.),
 the Gaussian(R) 94 system (copyright 1995, Gaussian, Inc.),
 the Gaussian 92(TM) system (copyright 1992, Gaussian, Inc.),
 the Gaussian 90(TM) system (copyright 1990, Gaussian, Inc.),
 the Gaussian 88(TM) system (copyright 1988, Gaussian, Inc.),
 the Gaussian 86(TM) system (copyright 1986, Carnegie Mellon
 University), and the Gaussian 82(TM) system (copyright 1983,
 Carnegie Mellon University). Gaussian is a federally registered
 trademark of Gaussian, Inc.
  
 This software contains proprietary and confidential information,
 including trade secrets, belonging to Gaussian, Inc.
  
 This software is provided under written license and may be
 used, copied, transmitted, or stored only in accord with that
 written license.
  
 The following legend is applicable only to US Government
 contracts under FAR:
  
                    RESTRICTED RIGHTS LEGEND
  
 Use, reproduction and disclosure by the US Government is
 subject to restrictions as set forth in subparagraphs (a)
 and (c) of the Commercial Computer Software - Restricted
 Rights clause in FAR 52.227-19.
  
 Gaussian, Inc.
 340 Quinnipiac St., Bldg. 40, Wallingford CT 06492
  
  
 ---------------------------------------------------------------
 Warning -- This program may not be used in any manner that
 competes with the business of Gaussian, Inc. or will provide
 assistance to any competitor of Gaussian, Inc.  The licensee
 of this program is prohibited from giving any competitor of
 Gaussian, Inc. access to this program.  By using this program,
 the user acknowledges that Gaussian, Inc. is engaged in the
 business of creating and licensing software in the field of
 computational chemistry and represents and warrants to the
 licensee that it is not a competitor of Gaussian, Inc. and that
 it will not use this program in any manner prohibited above.
 ---------------------------------------------------------------
  

 Cite this work as:
 Gaussian 09, Revision A.02,
 M. J. Frisch, G. W. Trucks, H. B. Schlegel, G. E. Scuseria, 
 M. A. Robb, J. R. Cheeseman, G. Scalmani, V. Barone, B. Mennucci, 
 G. A. Petersson, H. Nakatsuji, M. Caricato, X. Li, H. P. Hratchian, 
 A. F. Izmaylov, J. Bloino, G. Zheng, J. L. Sonnenberg, M. Hada, 
 M. Ehara, K. Toyota, R. Fukuda, J. Hasegawa, M. Ishida, T. Nakajima, 
 Y. Honda, O. Kitao, H. Nakai, T. Vreven, J. A. Montgomery, Jr., 
 J. E. Peralta, F. Ogliaro, M. Bearpark, J. J. Heyd, E. Brothers, 
 K. N. Kudin, V. N. Staroverov, R. Kobayashi, J. Normand, 
 K. Raghavachari, A. Rendell, J. C. Burant, S. S. Iyengar, J. Tomasi, 
 M. Cossi, N. Rega, J. M. Millam, M. Klene, J. E. Knox, J. B. Cross, 
 V. Bakken, C. Adamo, J. Jaramillo, R. Gomperts, R. E. Stratmann, 
 O. Yazyev, A. J. Austin, R. Cammi, C. Pomelli, J. W. Ochterski, 
 R. L. Martin, K. Morokuma, V. G. Zakrzewski, G. A. Voth, 
 P. Salvador, J. J. Dannenberg, S. Dapprich, A. D. Daniels, 
 O. Farkas, J. B. Foresman, J. V. Ortiz, J. Cioslowski, 
 and D. J. Fox, Gaussian, Inc., Wallingford CT, 2009.
 
 ******************************************
 Gaussian 09:  EM64L-G09RevA.02 11-Jun-2009
                14-Feb-2017 
 ******************************************
 %chk=structure_135.chk
 %NProcShared=8
 Will use up to    8 processors via shared memory.
 -------------------
 #SP MP2/aug-cc-pVDZ
 -------------------
 1/38=1/1;
 2/12=2,17=6,18=5,40=1/2;
 3/5=16,7=10,11=9,16=1,25=1,30=1/1,2,3;
 4//1;
 5/5=2,38=5/2;
 8/10=1/1;
 9/16=-3/6;
 6/7=2,8=2,9=2,10=2/1;
 99/5=1,9=1/99;
 -------------------------------
 Single Point calculation at MP2
 -------------------------------
 Symbolic Z-matrix:
 Charge =  0 Multiplicity = 1
 H                     4.0594   -1.1239   -0.0826 
 C                     3.0586   -1.3451    0.2919 
 H                     3.1115   -1.5721    1.3624 
 H                     2.6848   -2.2345   -0.2296 
 C                     2.1479   -0.1625   -0.0228 
 O                     2.3834    0.6044   -0.9424 
 N                     1.0747   -0.0497    0.8383 
 H                     0.9466   -0.8388    1.4588 
 C                    -0.1422    0.7291    0.6263 
 H                    -0.5133    0.9789    1.6314 
 C                     0.0567    2.047    -0.1363 
 H                     0.3439    1.8636   -1.1701 
 H                    -0.8825    2.6121   -0.1103 
 H                     0.8391    2.6471    0.3356 
 C                    -1.2064   -0.144    -0.081 
 O                    -0.9269   -0.871    -1.0236 
 N                    -2.4627   -0.0488    0.4522 
 H                    -2.6216    0.6141    1.1978 
 C                    -3.6147   -0.7044   -0.1432 
 H                    -3.2383   -1.4131   -0.8823 
 H                    -4.1886   -1.2442    0.6178 
 H                    -4.2769    0.0127   -0.6446 
 
                          Input orientation:                          
 ---------------------------------------------------------------------
 Center     Atomic      Atomic             Coordinates (Angstroms)
 Number     Number       Type             X           Y           Z
 ---------------------------------------------------------------------
      1          1           0        4.059400   -1.123900   -0.082600
      2          6           0        3.058600   -1.345100    0.291900
      3          1           0        3.111500   -1.572100    1.362400
      4          1           0        2.684800   -2.234500   -0.229600
      5          6           0        2.147900   -0.162500   -0.022800
      6          8           0        2.383400    0.604400   -0.942400
      7          7           0        1.074700   -0.049700    0.838300
      8          1           0        0.946600   -0.838800    1.458800
      9          6           0       -0.142200    0.729100    0.626300
     10          1           0       -0.513300    0.978900    1.631400
     11          6           0        0.056700    2.047000   -0.136300
     12          1           0        0.343900    1.863600   -1.170100
     13          1           0       -0.882500    2.612100   -0.110300
     14          1           0        0.839100    2.647100    0.335600
     15          6           0       -1.206400   -0.144000   -0.081000
     16          8           0       -0.926900   -0.871000   -1.023600
     17          7           0       -2.462700   -0.048800    0.452200
     18          1           0       -2.621600    0.614100    1.197800
     19          6           0       -3.614700   -0.704400   -0.143200
     20          1           0       -3.238300   -1.413100   -0.882300
     21          1           0       -4.188600   -1.244200    0.617800
     22          1           0       -4.276900    0.012700   -0.644600
 ---------------------------------------------------------------------
                    Distance matrix (angstroms):
                    1          2          3          4          5
     1  H    0.000000
     2  C    1.091229   0.000000
     3  H    1.785335   1.095581   0.000000
     4  H    1.773293   1.096686   1.776319   0.000000
     5  C    2.140490   1.525435   2.198699   2.150398   0.000000
     6  O    2.556414   2.404151   3.252597   2.942495   1.220352
     7  N    3.303089   2.431558   2.596331   2.916536   1.380571
     8  H    3.485214   2.465469   2.287753   2.796428   2.023769
     9  C    4.646460   3.828740   4.052645   4.184187   2.541818
    10  H    5.316874   4.466957   4.440623   4.900725   3.334840
    11  C    5.106770   4.549846   4.967473   5.024625   3.044321
    12  H    4.890067   4.450033   5.086964   4.812357   2.945470
    13  H    6.195227   5.599417   5.968954   6.019086   4.109670
    14  H    4.976511   4.567904   4.900997   5.249388   3.120138
    15  C    5.356198   4.446563   4.771492   4.419696   3.354856
    16  O    5.080613   4.223686   4.742701   3.941313   3.310282
    17  N    6.631715   5.673698   5.849839   5.633728   4.636398
    18  H    7.021099   6.076495   6.137996   6.189497   4.984085
    19  C    7.685796   6.718091   6.947050   6.483238   5.789275
    20  H    7.347080   6.405804   6.736759   6.015300   5.595882
    21  H    8.278559   7.255226   7.345298   6.995885   6.460006
    22  H    8.432177   7.518658   7.818446   7.327169   6.457196
                    6          7          8          9         10
     6  O    0.000000
     7  N    2.304655   0.000000
     8  H    3.148489   1.011983   0.000000
     9  C    2.975739   1.460246   2.082511   0.000000
    10  H    3.893015   2.051529   2.337762   1.100155   0.000000
    11  C    2.853844   2.526325   3.415276   1.535572   2.142545
    12  H    2.407694   2.868529   3.818027   2.179550   3.060374
    13  H    3.922927   3.437390   4.209085   2.153210   2.416024
    14  H    2.861952   2.753352   3.663964   2.173978   2.508182
    15  C    3.766799   2.461183   2.736629   1.547611   2.161852
    16  O    3.625119   2.854401   3.110201   2.428630   3.262242
    17  N    5.084906   3.558409   3.641520   2.453601   2.499368
    18  H    5.443397   3.772599   3.861488   2.547010   2.183121
    19  C    6.191032   4.835540   4.836313   3.834750   3.949859
    20  H    5.973059   4.839555   4.829488   4.055950   4.412026
    21  H    7.003051   5.401646   5.219378   4.501926   4.413319
    22  H    6.693160   5.553603   5.695112   4.384536   4.503155
                   11         12         13         14         15
    11  C    0.000000
    12  H    1.088514   0.000000
    13  H    1.096408   1.785353   0.000000
    14  H    1.093142   1.768114   1.778752   0.000000
    15  C    2.529617   2.760440   2.775222   3.485379   0.000000
    16  O    3.204605   3.019012   3.601121   4.164518   1.222761
    17  N    3.329577   3.763793   3.145445   4.264195   1.368084
    18  H    3.317577   3.995296   2.954251   4.105231   2.052519
    19  C    4.587966   4.829044   4.297112   5.594474   2.473424
    20  H    4.835890   4.863306   4.727368   5.881641   2.526126
    21  H    5.424319   5.779149   5.131421   6.363931   3.254578
    22  H    4.814232   5.005374   4.308632   5.837321   3.125727
                   16         17         18         19         20
    16  O    0.000000
    17  N    2.283129   0.000000
    18  H    3.164198   1.010250   0.000000
    19  C    2.833219   1.453071   2.126728   0.000000
    20  H    2.378320   2.060039   2.969289   1.090964   0.000000
    21  H    3.670444   2.105976   2.499033   1.095384   1.783787
    22  H    3.485264   2.120866   2.548752   1.097335   1.779915
                   21         22
    21  H    0.000000
    22  H    1.783605   0.000000
 Stoichiometry    C6H12N2O2
 Framework group  C1[X(C6H12N2O2)]
 Deg. of freedom    60
 Full point group                 C1      NOp   1
 Largest Abelian subgroup         C1      NOp   1
 Largest concise Abelian subgroup C1      NOp   1
                         Standard orientation:                         
 ---------------------------------------------------------------------
 Center     Atomic      Atomic             Coordinates (Angstroms)
 Number     Number       Type             X           Y           Z
 ---------------------------------------------------------------------
      1          1           0        4.059424   -1.123839   -0.082590
      2          6           0        3.058627   -1.345055    0.291910
      3          1           0        3.111531   -1.572054    1.362410
      4          1           0        2.684841   -2.234461   -0.229590
      5          6           0        2.147909   -0.162469   -0.022790
      6          8           0        2.383397    0.604434   -0.942390
      7          7           0        1.074707   -0.049686    0.838310
      8          1           0        0.946619   -0.838788    1.458810
      9          6           0       -0.142205    0.729095    0.626310
     10          1           0       -0.513309    0.978889    1.631410
     11          6           0        0.056675    2.046998   -0.136290
     12          1           0        0.343877    1.863603   -1.170090
     13          1           0       -0.882534    2.612084   -0.110290
     14          1           0        0.839065    2.647110    0.335610
     15          6           0       -1.206391   -0.144021   -0.080990
     16          8           0       -0.926880   -0.871017   -1.023590
     17          7           0       -2.462693   -0.048841    0.452210
     18          1           0       -2.621603    0.614057    1.197810
     19          6           0       -3.614683   -0.704459   -0.143190
     20          1           0       -3.238272   -1.413153   -0.882290
     21          1           0       -4.188574   -1.244268    0.617810
     22          1           0       -4.276894    0.012631   -0.644590
 ---------------------------------------------------------------------
 Rotational constants (GHZ):      2.5808667      0.7229484      0.6540871
 Standard basis: Aug-CC-pVDZ (5D, 7F)
 There are   338 symmetry adapted basis functions of A   symmetry.
 Integral buffers will be    131072 words long.
 Raffenetti 1 integral format.
 Two-electron integral symmetry is turned on.
   338 basis functions,   562 primitive gaussians,   358 cartesian basis functions
    39 alpha electrons       39 beta electrons
       nuclear repulsion energy       554.5224167023 Hartrees.
 NAtoms=   22 NActive=   22 NUniq=   22 SFac= 7.50D-01 NAtFMM=   80 NAOKFM=F Big=F
 One-electron integrals computed using PRISM.
 NBasis=   338 RedAO= T  NBF=   338
 NBsUse=   338 1.00D-06 NBFU=   338
 Harris functional with IExCor=  205 diagonalized for initial guess.
 ExpMin= 2.97D-02 ExpMax= 1.17D+04 ExpMxC= 4.01D+02 IAcc=3 IRadAn=         0 AccDes= 0.00D+00
 HarFok:  IExCor=  205 AccDes= 0.00D+00 IRadAn=         0 IDoV= 1
 ScaDFX=  1.000000  1.000000  1.000000  1.000000
 FoFCou: FMM=F IPFlag=           0 FMFlag=      100000 FMFlg1=           0
         NFxFlg=           0 DoJE=T BraDBF=F KetDBF=T FulRan=T
         Omega=  0.000000  0.000000  1.000000  0.000000  0.000000 ICntrl=     500 IOpCl=  0
         NMat0=    1 NMatS0=    1 NMatT0=    0 NMatD0=    1 NMtDS0=    0 NMtDT0=    0
         I1Cent=           4 NGrid=           0.
 Petite list used in FoFCou.
 Initial guess orbital symmetries:
       Occupied  (A) (A) (A) (A) (A) (A) (A) (A) (A) (A) (A) (A)
                 (A) (A) (A) (A) (A) (A) (A) (A) (A) (A) (A) (A)
                 (A) (A) (A) (A) (A) (A) (A) (A) (A) (A) (A) (A)
                 (A) (A) (A)
       Virtual   (A) (A) (A) (A) (A) (A) (A) (A) (A) (A) (A) (A)
                 (A) (A) (A) (A) (A) (A) (A) (A) (A) (A) (A) (A)
                 (A) (A) (A) (A) (A) (A) (A) (A) (A) (A) (A) (A)
                 (A) (A) (A) (A) (A) (A) (A) (A) (A) (A) (A) (A)
                 (A) (A) (A) (A) (A) (A) (A) (A) (A) (A) (A) (A)
                 (A) (A) (A) (A) (A) (A) (A) (A) (A) (A) (A) (A)
                 (A) (A) (A) (A) (A) (A) (A) (A) (A) (A) (A) (A)
                 (A) (A) (A) (A) (A) (A) (A) (A) (A) (A) (A) (A)
                 (A) (A) (A) (A) (A) (A) (A) (A) (A) (A) (A) (A)
                 (A) (A) (A) (A) (A) (A) (A) (A) (A) (A) (A) (A)
                 (A) (A) (A) (A) (A) (A) (A) (A) (A) (A) (A) (A)
                 (A) (A) (A) (A) (A) (A) (A) (A) (A) (A) (A) (A)
                 (A) (A) (A) (A) (A) (A) (A) (A) (A) (A) (A) (A)
                 (A) (A) (A) (A) (A) (A) (A) (A) (A) (A) (A) (A)
                 (A) (A) (A) (A) (A) (A) (A) (A) (A) (A) (A) (A)
                 (A) (A) (A) (A) (A) (A) (A) (A) (A) (A) (A) (A)
                 (A) (A) (A) (A) (A) (A) (A) (A) (A) (A) (A) (A)
                 (A) (A) (A) (A) (A) (A) (A) (A) (A) (A) (A) (A)
                 (A) (A) (A) (A) (A) (A) (A) (A) (A) (A) (A) (A)
                 (A) (A) (A) (A) (A) (A) (A) (A) (A) (A) (A) (A)
                 (A) (A) (A) (A) (A) (A) (A) (A) (A) (A) (A) (A)
                 (A) (A) (A) (A) (A) (A) (A) (A) (A) (A) (A) (A)
                 (A) (A) (A) (A) (A) (A) (A) (A) (A) (A) (A) (A)
                 (A) (A) (A) (A) (A) (A) (A) (A) (A) (A) (A) (A)
                 (A) (A) (A) (A) (A) (A) (A) (A) (A) (A) (A)
 The electronic state of the initial guess is 1-A.
 Requested convergence on RMS density matrix=1.00D-08 within 128 cycles.
 Requested convergence on MAX density matrix=1.00D-06.
 Requested convergence on             energy=1.00D-06.
 No special actions if energy rises.
 Initial convergence to 1.0D-05 achieved.  Increase integral accuracy.
 SCF Done:  E(RHF) =  -492.914722939     A.U. after   14 cycles
             Convg  =    0.7531D-08             -V/T =  2.0017
 ExpMin= 2.97D-02 ExpMax= 1.17D+04 ExpMxC= 4.01D+02 IAcc=3 IRadAn=         5 AccDes= 0.00D+00
 HarFok:  IExCor=  205 AccDes= 0.00D+00 IRadAn=         5 IDoV=-2
 ScaDFX=  1.000000  1.000000  1.000000  1.000000
 Range of M.O.s used for correlation:    11   338
 NBasis=   338 NAE=    39 NBE=    39 NFC=    10 NFV=     0
 NROrb=    328 NOA=    29 NOB=    29 NVA=   299 NVB=   299

 **** Warning!!: The largest alpha MO coefficient is  0.88330414D+02

 Disk-based method using OVN memory for 29 occupieds at a time.
 Estimated scratch disk usage=  1377716506 words.
 Actual    scratch disk usage=  1364436677 words.
 JobTyp=1 Pass  1:  I=   1 to  29 NPSUse=  8 ParTrn=T ParDer=T DoDerP=F.
 Spin components of T(2) and E(2):
     alpha-alpha T2 =       0.6784098739D-01 E2=     -0.2054903508D+00
     alpha-beta  T2 =       0.3766021802D+00 E2=     -0.1189938891D+01
     beta-beta   T2 =       0.6784098739D-01 E2=     -0.2054903508D+00
 ANorm=    0.1229749631D+01
 E2 =    -0.1600919593D+01 EUMP2 =    -0.49451564253188D+03

 **********************************************************************

            Population analysis using the SCF density.

 **********************************************************************

 Orbital symmetries:
       Occupied  (A) (A) (A) (A) (A) (A) (A) (A) (A) (A) (A) (A)
                 (A) (A) (A) (A) (A) (A) (A) (A) (A) (A) (A) (A)
                 (A) (A) (A) (A) (A) (A) (A) (A) (A) (A) (A) (A)
                 (A) (A) (A)
       Virtual   (A) (A) (A) (A) (A) (A) (A) (A) (A) (A) (A) (A)
                 (A) (A) (A) (A) (A) (A) (A) (A) (A) (A) (A) (A)
                 (A) (A) (A) (A) (A) (A) (A) (A) (A) (A) (A) (A)
                 (A) (A) (A) (A) (A) (A) (A) (A) (A) (A) (A) (A)
                 (A) (A) (A) (A) (A) (A) (A) (A) (A) (A) (A) (A)
                 (A) (A) (A) (A) (A) (A) (A) (A) (A) (A) (A) (A)
                 (A) (A) (A) (A) (A) (A) (A) (A) (A) (A) (A) (A)
                 (A) (A) (A) (A) (A) (A) (A) (A) (A) (A) (A) (A)
                 (A) (A) (A) (A) (A) (A) (A) (A) (A) (A) (A) (A)
                 (A) (A) (A) (A) (A) (A) (A) (A) (A) (A) (A) (A)
                 (A) (A) (A) (A) (A) (A) (A) (A) (A) (A) (A) (A)
                 (A) (A) (A) (A) (A) (A) (A) (A) (A) (A) (A) (A)
                 (A) (A) (A) (A) (A) (A) (A) (A) (A) (A) (A) (A)
                 (A) (A) (A) (A) (A) (A) (A) (A) (A) (A) (A) (A)
                 (A) (A) (A) (A) (A) (A) (A) (A) (A) (A) (A) (A)
                 (A) (A) (A) (A) (A) (A) (A) (A) (A) (A) (A) (A)
                 (A) (A) (A) (A) (A) (A) (A) (A) (A) (A) (A) (A)
                 (A) (A) (A) (A) (A) (A) (A) (A) (A) (A) (A) (A)
                 (A) (A) (A) (A) (A) (A) (A) (A) (A) (A) (A) (A)
                 (A) (A) (A) (A) (A) (A) (A) (A) (A) (A) (A) (A)
                 (A) (A) (A) (A) (A) (A) (A) (A) (A) (A) (A) (A)
                 (A) (A) (A) (A) (A) (A) (A) (A) (A) (A) (A) (A)
                 (A) (A) (A) (A) (A) (A) (A) (A) (A) (A) (A) (A)
                 (A) (A) (A) (A) (A) (A) (A) (A) (A) (A) (A) (A)
                 (A) (A) (A) (A) (A) (A) (A) (A) (A) (A) (A)
 The electronic state is 1-A.
 Alpha  occ. eigenvalues --  -20.53298 -20.52361 -15.60315 -15.59375 -11.36094
 Alpha  occ. eigenvalues --  -11.35814 -11.29912 -11.27299 -11.23987 -11.22963
 Alpha  occ. eigenvalues --   -1.38894  -1.37629  -1.23991  -1.23316  -1.05456
 Alpha  occ. eigenvalues --   -0.98599  -0.95983  -0.88044  -0.80080  -0.76875
 Alpha  occ. eigenvalues --   -0.71916  -0.69624  -0.65792  -0.63194  -0.62514
 Alpha  occ. eigenvalues --   -0.61873  -0.59401  -0.58476  -0.56259  -0.55535
 Alpha  occ. eigenvalues --   -0.55142  -0.53306  -0.52540  -0.50995  -0.50442
 Alpha  occ. eigenvalues --   -0.43937  -0.41247  -0.39757  -0.38645
 Alpha virt. eigenvalues --    0.02264   0.03669   0.04097   0.04544   0.05837
 Alpha virt. eigenvalues --    0.05874   0.06153   0.06748   0.07806   0.08052
 Alpha virt. eigenvalues --    0.08629   0.08932   0.10942   0.11766   0.13130
 Alpha virt. eigenvalues --    0.13668   0.14228   0.14323   0.14458   0.14672
 Alpha virt. eigenvalues --    0.15429   0.15901   0.16033   0.16801   0.16953
 Alpha virt. eigenvalues --    0.17860   0.18444   0.18723   0.18884   0.19644
 Alpha virt. eigenvalues --    0.20240   0.20440   0.21096   0.21310   0.22602
 Alpha virt. eigenvalues --    0.23426   0.24053   0.24603   0.25563   0.26893
 Alpha virt. eigenvalues --    0.27039   0.28126   0.29277   0.29654   0.30835
 Alpha virt. eigenvalues --    0.31097   0.32249   0.32893   0.33185   0.33967
 Alpha virt. eigenvalues --    0.34237   0.34893   0.35669   0.36038   0.36210
 Alpha virt. eigenvalues --    0.37149   0.38532   0.39387   0.39534   0.39958
 Alpha virt. eigenvalues --    0.40658   0.40889   0.41437   0.42572   0.42803
 Alpha virt. eigenvalues --    0.43412   0.44455   0.44920   0.45223   0.45436
 Alpha virt. eigenvalues --    0.45747   0.46860   0.47874   0.48953   0.49368
 Alpha virt. eigenvalues --    0.50214   0.50866   0.51622   0.51930   0.52447
 Alpha virt. eigenvalues --    0.54141   0.54638   0.54947   0.55324   0.55756
 Alpha virt. eigenvalues --    0.56507   0.56894   0.57248   0.58711   0.58919
 Alpha virt. eigenvalues --    0.59500   0.59913   0.60990   0.61836   0.62147
 Alpha virt. eigenvalues --    0.62650   0.63523   0.63803   0.64419   0.65262
 Alpha virt. eigenvalues --    0.65754   0.66533   0.66887   0.67627   0.68536
 Alpha virt. eigenvalues --    0.68768   0.69362   0.69619   0.70648   0.71374
 Alpha virt. eigenvalues --    0.72126   0.72535   0.73734   0.74040   0.74409
 Alpha virt. eigenvalues --    0.74970   0.76182   0.77628   0.77980   0.79164
 Alpha virt. eigenvalues --    0.79731   0.80612   0.81984   0.82356   0.82672
 Alpha virt. eigenvalues --    0.83857   0.84273   0.85980   0.86953   0.87779
 Alpha virt. eigenvalues --    0.88923   0.89395   0.91808   0.92768   0.94005
 Alpha virt. eigenvalues --    0.94375   0.96069   0.97082   0.98046   0.99176
 Alpha virt. eigenvalues --    1.00954   1.01654   1.02783   1.03815   1.04755
 Alpha virt. eigenvalues --    1.05404   1.06253   1.08003   1.08169   1.10625
 Alpha virt. eigenvalues --    1.11081   1.12652   1.12974   1.15073   1.15419
 Alpha virt. eigenvalues --    1.17284   1.17742   1.18417   1.20208   1.21350
 Alpha virt. eigenvalues --    1.22588   1.24261   1.25053   1.25894   1.29317
 Alpha virt. eigenvalues --    1.30933   1.33667   1.34524   1.36405   1.37581
 Alpha virt. eigenvalues --    1.39365   1.41817   1.44668   1.46263   1.48064
 Alpha virt. eigenvalues --    1.49364   1.52263   1.53010   1.54405   1.55315
 Alpha virt. eigenvalues --    1.56707   1.57459   1.60282   1.62769   1.63416
 Alpha virt. eigenvalues --    1.67087   1.68009   1.69934   1.71472   1.72978
 Alpha virt. eigenvalues --    1.74042   1.75700   1.77404   1.77691   1.80092
 Alpha virt. eigenvalues --    1.82480   1.83637   1.85458   1.86407   1.88968
 Alpha virt. eigenvalues --    1.90012   1.90993   1.91215   1.91427   1.92829
 Alpha virt. eigenvalues --    1.95179   1.96090   1.97243   2.00077   2.02937
 Alpha virt. eigenvalues --    2.03414   2.04325   2.06343   2.07186   2.07966
 Alpha virt. eigenvalues --    2.09806   2.12808   2.13204   2.14290   2.17132
 Alpha virt. eigenvalues --    2.18232   2.19134   2.21108   2.22266   2.23059
 Alpha virt. eigenvalues --    2.24460   2.26774   2.27979   2.29141   2.29562
 Alpha virt. eigenvalues --    2.30939   2.33201   2.34049   2.34723   2.37443
 Alpha virt. eigenvalues --    2.39370   2.40682   2.41240   2.41535   2.44095
 Alpha virt. eigenvalues --    2.46137   2.47306   2.50367   2.51472   2.54063
 Alpha virt. eigenvalues --    2.54141   2.55247   2.57875   2.58467   2.62207
 Alpha virt. eigenvalues --    2.63706   2.64196   2.65315   2.67352   2.69452
 Alpha virt. eigenvalues --    2.70172   2.73018   2.75865   2.77467   2.78012
 Alpha virt. eigenvalues --    2.80780   2.82751   2.86618   2.87419   2.88118
 Alpha virt. eigenvalues --    2.91146   2.93086   2.94219   2.96631   2.97649
 Alpha virt. eigenvalues --    3.00328   3.02085   3.04085   3.06104   3.07958
 Alpha virt. eigenvalues --    3.09897   3.12752   3.18635   3.21059   3.27159
 Alpha virt. eigenvalues --    3.27770   3.31612   3.41285   3.44125   3.52162
 Alpha virt. eigenvalues --    3.58813   3.63850   3.74486   3.83128   3.84513
 Alpha virt. eigenvalues --    3.85932   3.87799   3.94825   3.99417   4.05991
 Alpha virt. eigenvalues --    4.07962   4.12178   4.23309   4.26932
          Condensed to atoms (all electrons):
              1          2          3          4          5          6
     1  H    0.814488   0.376080  -0.098677  -0.061535  -0.046070   0.027532
     2  C    0.376080   4.557875   0.335501   0.334129   0.185117  -0.040224
     3  H   -0.098677   0.335501   0.975948  -0.073616   0.063607  -0.007385
     4  H   -0.061535   0.334129  -0.073616   0.731504  -0.044832   0.012830
     5  C   -0.046070   0.185117   0.063607  -0.044832   5.284501   0.191938
     6  O    0.027532  -0.040224  -0.007385   0.012830   0.191938   8.682476
     7  N    0.029569  -0.018761  -0.130644   0.024596   0.257926  -0.118980
     8  H   -0.006639  -0.056516   0.017482  -0.002797  -0.135157   0.001265
     9  C    0.005605   0.029632  -0.014734  -0.008514  -0.523196   0.110151
    10  H   -0.000187   0.005039   0.005034  -0.000176   0.020513   0.002266
    11  C    0.001476   0.014027  -0.005160   0.003018   0.013323  -0.042572
    12  H    0.000136   0.015018   0.001574   0.000853   0.044274  -0.056119
    13  H   -0.000169  -0.001717  -0.000572   0.000209  -0.037380   0.006230
    14  H    0.000340  -0.006900  -0.001394  -0.000329   0.020671   0.012549
    15  C   -0.007491  -0.031017  -0.013601   0.015782   0.014877   0.016056
    16  O   -0.000549   0.006821   0.001358  -0.001001  -0.004700  -0.005106
    17  N   -0.000393  -0.005062  -0.000094   0.000300  -0.000931  -0.000906
    18  H    0.000012   0.000432  -0.000301   0.000106  -0.000129   0.000609
    19  C   -0.000160  -0.002390  -0.000397   0.000283  -0.000228   0.000029
    20  H    0.000021  -0.000425  -0.000014  -0.000005   0.001068  -0.000155
    21  H    0.000007   0.000126  -0.000001   0.000004   0.000251   0.000031
    22  H   -0.000009  -0.000039  -0.000021   0.000011   0.000786   0.000017
              7          8          9         10         11         12
     1  H    0.029569  -0.006639   0.005605  -0.000187   0.001476   0.000136
     2  C   -0.018761  -0.056516   0.029632   0.005039   0.014027   0.015018
     3  H   -0.130644   0.017482  -0.014734   0.005034  -0.005160   0.001574
     4  H    0.024596  -0.002797  -0.008514  -0.000176   0.003018   0.000853
     5  C    0.257926  -0.135157  -0.523196   0.020513   0.013323   0.044274
     6  O   -0.118980   0.001265   0.110151   0.002266  -0.042572  -0.056119
     7  N    7.646711   0.233561  -0.583410  -0.177921  -0.000467  -0.084280
     8  H    0.233561   1.001180   0.048062   0.033840  -0.018548  -0.002328
     9  C   -0.583410   0.048062   9.192921  -0.379705   0.018665   0.033700
    10  H   -0.177921   0.033840  -0.379705   1.692475   0.066048   0.086172
    11  C   -0.000467  -0.018548   0.018665   0.066048   4.342354   0.376388
    12  H   -0.084280  -0.002328   0.033700   0.086172   0.376388   1.000634
    13  H    0.096324  -0.002000  -0.136555  -0.073208   0.272082  -0.198390
    14  H    0.029424   0.000602  -0.043570  -0.048278   0.231140  -0.194646
    15  C    0.253894  -0.049212  -1.547352   0.084342  -0.009192  -0.123080
    16  O   -0.032763   0.012350   0.062265  -0.015326   0.001453   0.026510
    17  N   -0.034412   0.011231   0.184460  -0.024360   0.017959   0.005845
    18  H   -0.007081   0.001887  -0.036389   0.023176  -0.017301   0.000372
    19  C    0.015029  -0.000249  -0.095290   0.003790  -0.008782  -0.006497
    20  H    0.000469   0.000119   0.025505   0.006331  -0.018126  -0.001536
    21  H    0.000606  -0.001680  -0.026340  -0.002875   0.008258   0.000469
    22  H    0.002010   0.000787   0.003893  -0.002992   0.003633  -0.001813
             13         14         15         16         17         18
     1  H   -0.000169   0.000340  -0.007491  -0.000549  -0.000393   0.000012
     2  C   -0.001717  -0.006900  -0.031017   0.006821  -0.005062   0.000432
     3  H   -0.000572  -0.001394  -0.013601   0.001358  -0.000094  -0.000301
     4  H    0.000209  -0.000329   0.015782  -0.001001   0.000300   0.000106
     5  C   -0.037380   0.020671   0.014877  -0.004700  -0.000931  -0.000129
     6  O    0.006230   0.012549   0.016056  -0.005106  -0.000906   0.000609
     7  N    0.096324   0.029424   0.253894  -0.032763  -0.034412  -0.007081
     8  H   -0.002000   0.000602  -0.049212   0.012350   0.011231   0.001887
     9  C   -0.136555  -0.043570  -1.547352   0.062265   0.184460  -0.036389
    10  H   -0.073208  -0.048278   0.084342  -0.015326  -0.024360   0.023176
    11  C    0.272082   0.231140  -0.009192   0.001453   0.017959  -0.017301
    12  H   -0.198390  -0.194646  -0.123080   0.026510   0.005845   0.000372
    13  H    1.297609  -0.162225   0.073553  -0.013946  -0.020142  -0.003291
    14  H   -0.162225   1.089777   0.080627  -0.000879   0.003734  -0.002745
    15  C    0.073553   0.080627   5.819944   0.241579  -0.001445  -0.022523
    16  O   -0.013946  -0.000879   0.241579   8.715911  -0.188548   0.014974
    17  N   -0.020142   0.003734  -0.001445  -0.188548   7.225391   0.251133
    18  H   -0.003291  -0.002745  -0.022523   0.014974   0.251133   1.009099
    19  C    0.002057   0.003639  -0.031209   0.008952   0.204418  -0.110252
    20  H   -0.000353  -0.000049  -0.009339   0.007025  -0.045767   0.001404
    21  H   -0.000202   0.000394  -0.000950   0.014101  -0.130712   0.016356
    22  H    0.001830   0.000694  -0.030677   0.007266   0.028630  -0.005312
             19         20         21         22
     1  H   -0.000160   0.000021   0.000007  -0.000009
     2  C   -0.002390  -0.000425   0.000126  -0.000039
     3  H   -0.000397  -0.000014  -0.000001  -0.000021
     4  H    0.000283  -0.000005   0.000004   0.000011
     5  C   -0.000228   0.001068   0.000251   0.000786
     6  O    0.000029  -0.000155   0.000031   0.000017
     7  N    0.015029   0.000469   0.000606   0.002010
     8  H   -0.000249   0.000119  -0.001680   0.000787
     9  C   -0.095290   0.025505  -0.026340   0.003893
    10  H    0.003790   0.006331  -0.002875  -0.002992
    11  C   -0.008782  -0.018126   0.008258   0.003633
    12  H   -0.006497  -0.001536   0.000469  -0.001813
    13  H    0.002057  -0.000353  -0.000202   0.001830
    14  H    0.003639  -0.000049   0.000394   0.000694
    15  C   -0.031209  -0.009339  -0.000950  -0.030677
    16  O    0.008952   0.007025   0.014101   0.007266
    17  N    0.204418  -0.045767  -0.130712   0.028630
    18  H   -0.110252   0.001404   0.016356  -0.005312
    19  C    4.102039   0.462478   0.400940   0.305609
    20  H    0.462478   0.952375  -0.144078  -0.094649
    21  H    0.400940  -0.144078   1.143667  -0.154512
    22  H    0.305609  -0.094649  -0.154512   1.027715
 Mulliken atomic charges:
              1
     1  H   -0.033388
     2  C    0.303254
     3  H   -0.053895
     4  H    0.069178
     5  C    0.693772
     6  O   -0.792533
     7  N   -0.401400
     8  H   -0.087237
     9  C   -0.319804
    10  H   -0.303999
    11  C    0.750323
    12  H    0.076745
    13  H   -0.099744
    14  H   -0.012575
    15  C    1.276436
    16  O   -0.857745
    17  N   -0.480329
    18  H   -0.114235
    19  C    0.746192
    20  H   -0.142299
    21  H   -0.123860
    22  H   -0.092857
 Sum of Mulliken atomic charges =   0.00000
 Mulliken charges with hydrogens summed into heavy atoms:
              1
     2  C    0.285150
     5  C    0.693772
     6  O   -0.792533
     7  N   -0.488637
     9  C   -0.623803
    11  C    0.714749
    15  C    1.276436
    16  O   -0.857745
    17  N   -0.594564
    19  C    0.387176
 Sum of Mulliken charges with hydrogens summed into heavy atoms =   0.00000
 Electronic spatial extent (au):  <R**2>=           1855.4297
 Charge=              0.0000 electrons
 Dipole moment (field-independent basis, Debye):
    X=             -3.1965    Y=             -0.2266    Z=              5.1699  Tot=              6.0825
 Quadrupole moment (field-independent basis, Debye-Ang):
   XX=            -54.5048   YY=            -59.8392   ZZ=            -63.5452
   XY=             -7.9408   XZ=              2.1679   YZ=             -0.8836
 Traceless Quadrupole moment (field-independent basis, Debye-Ang):
   XX=              4.7916   YY=             -0.5428   ZZ=             -4.2488
   XY=             -7.9408   XZ=              2.1679   YZ=             -0.8836
 Octapole moment (field-independent basis, Debye-Ang**2):
  XXX=            -36.3134  YYY=             -1.2562  ZZZ=              6.9198  XYY=              1.0775
  XXY=            -17.8030  XXZ=             16.4213  XZZ=             -7.1812  YZZ=             -0.4739
  YYZ=              2.9413  XYZ=              0.9314
 Hexadecapole moment (field-independent basis, Debye-Ang**3):
 XXXX=          -1643.5593 YYYY=           -455.2452 ZZZZ=           -217.7982 XXXY=            -28.8654
 XXXZ=             17.1986 YYYX=              1.5253 YYYZ=              1.8001 ZZZX=             -5.0861
 ZZZY=             -4.3809 XXYY=           -360.8476 XXZZ=           -338.8356 YYZZ=           -110.2571
 XXYZ=             14.3360 YYXZ=             -1.7136 ZZXY=            -11.0108
 N-N= 5.545224167023D+02 E-N=-2.264520869517D+03  KE= 4.920641654796D+02
 1\1\GINC-NODE012\SP\RMP2-FC\Aug-CC-pVDZ\C6H12N2O2\MANAGER\14-Feb-2017\
 0\\#SP MP2/aug-cc-pVDZ\\Single Point calculation at MP2\\0,1\H,0,4.059
 4,-1.1239,-0.0826\C,0,3.0586,-1.3451,0.2919\H,0,3.1115,-1.5721,1.3624\
 H,0,2.6848,-2.2345,-0.2296\C,0,2.1479,-0.1625,-0.0228\O,0,2.3834,0.604
 4,-0.9424\N,0,1.0747,-0.0497,0.8383\H,0,0.9466,-0.8388,1.4588\C,0,-0.1
 422,0.7291,0.6263\H,0,-0.5133,0.9789,1.6314\C,0,0.0567,2.047,-0.1363\H
 ,0,0.3439,1.8636,-1.1701\H,0,-0.8825,2.6121,-0.1103\H,0,0.8391,2.6471,
 0.3356\C,0,-1.2064,-0.144,-0.081\O,0,-0.9269,-0.871,-1.0236\N,0,-2.462
 7,-0.0488,0.4522\H,0,-2.6216,0.6141,1.1978\C,0,-3.6147,-0.7044,-0.1432
 \H,0,-3.2383,-1.4131,-0.8823\H,0,-4.1886,-1.2442,0.6178\H,0,-4.2769,0.
 0127,-0.6446\\Version=EM64L-G09RevA.02\State=1-A\HF=-492.9147229\MP2=-
 494.5156425\RMSD=7.531e-09\PG=C01 [X(C6H12N2O2)]\\@


 WE HAVE SEEN THAT MAN ON THE AVERAGE DOES NOT LIVE ABOVE
 TWO-AND-TWENTY YEARS.  DURING THESE TWO AND TWENTY
 YEARS HE IS LIABLE TO TWO AND TWENTY THOUSAND EVILS,
 MANY OF WHICH ARE INCURABLE.  YET EVEN IN THIS DREADFUL STATE
 MEN STILL STRUT AND POSE ON THE STAGE OF LIFE.
 THEY MAKE LOVE AT THE RISK OF DESTRUCTION,
 INTRIGUE, CARRY ON WAR, AND FORM PROJECTS, JUST AS IF THEY
 WERE TO LIVE IN LUXURY AND HAPPINESS FOR A THOUSAND
 AGES.

                                              -- VOLTAIRE
 Job cpu time:  0 days  9 hours 41 minutes 28.0 seconds.
 File lengths (MBytes):  RWF=  10526 Int=      0 D2E=      0 Chk=      7 Scr=      2
 Normal termination of Gaussian 09 at Tue Feb 14 04:28:43 2017.
