 Entering Gaussian System, Link 0=/home/steboss/local/g09/g09
 Initial command:
 /home/steboss/local//g09/l1.exe /tmp/Gau-23634.inp -scrdir=/tmp/
 Entering Link 1 = /home/steboss/local//g09/l1.exe PID=     23636.
  
 Copyright (c) 1988,1990,1992,1993,1995,1998,2003,2009, Gaussian, Inc.
                  All Rights Reserved.
  
 This is part of the Gaussian(R) 09 program.  It is based on
 the Gaussian(R) 03 system (copyright 2003, Gaussian, Inc.),
 the Gaussian(R) 98 system (copyright 1998, Gaussian, Inc.),
 the Gaussian(R) 94 system (copyright 1995, Gaussian, Inc.),
 the Gaussian 92(TM) system (copyright 1992, Gaussian, Inc.),
 the Gaussian 90(TM) system (copyright 1990, Gaussian, Inc.),
 the Gaussian 88(TM) system (copyright 1988, Gaussian, Inc.),
 the Gaussian 86(TM) system (copyright 1986, Carnegie Mellon
 University), and the Gaussian 82(TM) system (copyright 1983,
 Carnegie Mellon University). Gaussian is a federally registered
 trademark of Gaussian, Inc.
  
 This software contains proprietary and confidential information,
 including trade secrets, belonging to Gaussian, Inc.
  
 This software is provided under written license and may be
 used, copied, transmitted, or stored only in accord with that
 written license.
  
 The following legend is applicable only to US Government
 contracts under FAR:
  
                    RESTRICTED RIGHTS LEGEND
  
 Use, reproduction and disclosure by the US Government is
 subject to restrictions as set forth in subparagraphs (a)
 and (c) of the Commercial Computer Software - Restricted
 Rights clause in FAR 52.227-19.
  
 Gaussian, Inc.
 340 Quinnipiac St., Bldg. 40, Wallingford CT 06492
  
  
 ---------------------------------------------------------------
 Warning -- This program may not be used in any manner that
 competes with the business of Gaussian, Inc. or will provide
 assistance to any competitor of Gaussian, Inc.  The licensee
 of this program is prohibited from giving any competitor of
 Gaussian, Inc. access to this program.  By using this program,
 the user acknowledges that Gaussian, Inc. is engaged in the
 business of creating and licensing software in the field of
 computational chemistry and represents and warrants to the
 licensee that it is not a competitor of Gaussian, Inc. and that
 it will not use this program in any manner prohibited above.
 ---------------------------------------------------------------
  

 Cite this work as:
 Gaussian 09, Revision A.02,
 M. J. Frisch, G. W. Trucks, H. B. Schlegel, G. E. Scuseria, 
 M. A. Robb, J. R. Cheeseman, G. Scalmani, V. Barone, B. Mennucci, 
 G. A. Petersson, H. Nakatsuji, M. Caricato, X. Li, H. P. Hratchian, 
 A. F. Izmaylov, J. Bloino, G. Zheng, J. L. Sonnenberg, M. Hada, 
 M. Ehara, K. Toyota, R. Fukuda, J. Hasegawa, M. Ishida, T. Nakajima, 
 Y. Honda, O. Kitao, H. Nakai, T. Vreven, J. A. Montgomery, Jr., 
 J. E. Peralta, F. Ogliaro, M. Bearpark, J. J. Heyd, E. Brothers, 
 K. N. Kudin, V. N. Staroverov, R. Kobayashi, J. Normand, 
 K. Raghavachari, A. Rendell, J. C. Burant, S. S. Iyengar, J. Tomasi, 
 M. Cossi, N. Rega, J. M. Millam, M. Klene, J. E. Knox, J. B. Cross, 
 V. Bakken, C. Adamo, J. Jaramillo, R. Gomperts, R. E. Stratmann, 
 O. Yazyev, A. J. Austin, R. Cammi, C. Pomelli, J. W. Ochterski, 
 R. L. Martin, K. Morokuma, V. G. Zakrzewski, G. A. Voth, 
 P. Salvador, J. J. Dannenberg, S. Dapprich, A. D. Daniels, 
 O. Farkas, J. B. Foresman, J. V. Ortiz, J. Cioslowski, 
 and D. J. Fox, Gaussian, Inc., Wallingford CT, 2009.
 
 ******************************************
 Gaussian 09:  EM64L-G09RevA.02 11-Jun-2009
                19-Mar-2017 
 ******************************************
 %nproc=8
 Will use up to    8 processors via shared memory.
 %mem=4096MB
 %chk=IPolQout.solv.chk
 ----------------------------------------------------------------------
 #MP2/cc-pvTZ density=MP2, charge, maxdisk=16GB, pop=(minimal, MK), 5d,
  punch=mo
 ----------------------------------------------------------------------
 1/18=10,28=-2,30=1,38=1,125=101/1;
 2/12=2,17=6,18=5,40=1/2;
 3/5=16,6=1,8=1,11=9,16=1,25=1,30=1,71=1/1,2,3;
 4//1;
 5/5=2,38=5/2;
 8/6=4,10=1/1;
 9/15=1,16=-3/6;
 10/5=1,13=10/2;
 6/7=2,8=2,9=2,10=2,15=8,20=1,22=2/1,2;
 99/5=1,9=1,10=32/99;
 -----------------
 Generated by mdgx
 -----------------
 Symbolic Z-matrix:
 Charge =  0 Multiplicity = 1
 H                    -3.21707  -1.88054   0.53028 
 C                    -2.95486  -1.17794  -0.26073 
 H                    -3.84716  -0.56218  -0.37359 
 H                    -2.73547  -1.64389  -1.22138 
 C                    -1.79577  -0.38376   0.19668 
 O                    -1.35024  -0.58944   1.35288 
 N                    -1.14118   0.36265  -0.71528 
 H                    -1.66858   0.47847  -1.56882 
 C                     0.10164   1.14694  -0.52874 
 H                     0.38503   1.43096  -1.54221 
 C                    -0.26923   2.46349   0.25921 
 H                    -0.42335   2.2503    1.31699 
 H                     0.57337   3.13097   0.07864 
 H                    -1.16343   2.9117   -0.17393 
 C                     1.38428   0.39053  -0.19049 
 O                     2.3239    0.94009   0.40517 
 N                     1.41526  -0.95576  -0.347 
 H                     0.5386   -1.31153  -0.70055 
 C                     2.48249  -1.93327  -0.01131 
 H                     1.97676  -2.89653   0.0555 
 H                     3.25823  -1.89268  -0.77596 
 H                     2.9239   -1.70448   0.9587 
 
 Background charge distribution read from input stream:
 Point Charges:
 XYZ=   -2.8126    4.9081    0.4862 Q=   -0.0198 A=    0.0000 R=    0.0000 C=    0.0000
 XYZ=   -3.0420    4.1792    1.0626 Q=    0.0099 A=    0.0000 R=    0.0000 C=    0.0000
 XYZ=   -1.8612    4.9824    0.5611 Q=    0.0099 A=    0.0000 R=    0.0000 C=    0.0000
 XYZ=   -4.3433    1.9886   -1.3493 Q=   -0.0198 A=    0.0000 R=    0.0000 C=    0.0000
 XYZ=   -3.6701    2.4655   -1.8346 Q=    0.0099 A=    0.0000 R=    0.0000 C=    0.0000
 XYZ=   -5.7186    1.6718    0.0246 Q=    0.0099 A=    0.0000 R=    0.0000 C=    0.0000
 XYZ=   -2.8582    0.5660    3.2218 Q=   -0.0198 A=    0.0000 R=    0.0000 C=    0.0000
 XYZ=   -2.1883    0.0646    2.7570 Q=    0.0099 A=    0.0000 R=    0.0000 C=    0.0000
 XYZ=   -2.7375    1.4658    2.9184 Q=    0.0099 A=    0.0000 R=    0.0000 C=    0.0000
 XYZ=   -2.7669    3.2703    2.6544 Q=   -0.0198 A=    0.0000 R=    0.0000 C=    0.0000
 XYZ=    4.1043    3.0832    0.2440 Q=    0.0099 A=    0.0000 R=    0.0000 C=    0.0000
 XYZ=    3.0984    3.5442   -0.7888 Q=    0.0099 A=    0.0000 R=    0.0000 C=    0.0000
 XYZ=    4.8441    1.7085    1.1488 Q=   -0.0198 A=    0.0000 R=    0.0000 C=    0.0000
 XYZ=    3.9527    1.3608    1.1209 Q=    0.0099 A=    0.0000 R=    0.0000 C=    0.0000
 XYZ=    1.3335    4.5968    1.8726 Q=    0.0099 A=    0.0000 R=    0.0000 C=    0.0000
 XYZ=    1.4875    4.3062   -2.4544 Q=    0.0099 A=    0.0000 R=    0.0000 C=    0.0000
 XYZ=   -0.4684   -2.6615   -1.5709 Q=   -0.0198 A=    0.0000 R=    0.0000 C=    0.0000
 XYZ=   -0.5974   -3.4501   -1.0440 Q=    0.0099 A=    0.0000 R=    0.0000 C=    0.0000
 XYZ=   -0.8733   -2.8675   -2.4135 Q=    0.0099 A=    0.0000 R=    0.0000 C=    0.0000
 XYZ=    0.2800   -2.1860    3.0815 Q=   -0.0198 A=    0.0000 R=    0.0000 C=    0.0000
 XYZ=   -0.0735   -1.5698    2.4401 Q=    0.0099 A=    0.0000 R=    0.0000 C=    0.0000
 XYZ=   -2.8461    0.3301   -3.7321 Q=   -0.0198 A=    0.0000 R=    0.0000 C=    0.0000
 XYZ=   -2.0416    0.2141   -4.2375 Q=    0.0099 A=    0.0000 R=    0.0000 C=    0.0000
 XYZ=   -2.8342    1.2510   -3.4710 Q=    0.0099 A=    0.0000 R=    0.0000 C=    0.0000
 XYZ=   -5.7538   -0.3207   -2.6644 Q=   -0.0198 A=    0.0000 R=    0.0000 C=    0.0000
 XYZ=   -4.9214    0.1462   -2.5913 Q=    0.0099 A=    0.0000 R=    0.0000 C=    0.0000
 XYZ=   -5.5633   -1.2017   -2.3422 Q=    0.0099 A=    0.0000 R=    0.0000 C=    0.0000
 XYZ=    4.5343   -4.1778   -1.6083 Q=    0.0099 A=    0.0000 R=    0.0000 C=    0.0000
 XYZ=    0.6292   -5.3365    0.8069 Q=    0.0099 A=    0.0000 R=    0.0000 C=    0.0000
 XYZ=    2.7275   -4.9403    1.7042 Q=    0.0099 A=    0.0000 R=    0.0000 C=    0.0000
 XYZ=    3.5776   -4.9544    0.4519 Q=    0.0099 A=    0.0000 R=    0.0000 C=    0.0000
 XYZ=    2.8970    1.9565   -2.7869 Q=    0.0099 A=    0.0000 R=    0.0000 C=    0.0000
 XYZ=   -0.9825    3.6897   -3.0186 Q=    0.0099 A=    0.0000 R=    0.0000 C=    0.0000
 XYZ=   -2.9600    4.6797    0.7715 Q=   -0.0198 A=    0.0000 R=    0.0000 C=    0.0000
 XYZ=   -3.1379    4.1176    1.5256 Q=    0.0099 A=    0.0000 R=    0.0000 C=    0.0000
 XYZ=   -4.2642    2.1599   -1.5462 Q=   -0.0198 A=    0.0000 R=    0.0000 C=    0.0000
 XYZ=   -3.5615    2.6855   -1.1639 Q=    0.0099 A=    0.0000 R=    0.0000 C=    0.0000
 XYZ=   -5.9970    0.8737    1.0458 Q=    0.0099 A=    0.0000 R=    0.0000 C=    0.0000
 XYZ=   -5.5462    1.3426   -0.3209 Q=    0.0099 A=    0.0000 R=    0.0000 C=    0.0000
 XYZ=   -2.8214    0.5395    3.5217 Q=   -0.0198 A=    0.0000 R=    0.0000 C=    0.0000
 XYZ=   -2.4182    0.0279    2.8203 Q=    0.0099 A=    0.0000 R=    0.0000 C=    0.0000
 XYZ=    3.7911    3.0803    0.1728 Q=    0.0099 A=    0.0000 R=    0.0000 C=    0.0000
 XYZ=    2.9791    3.5230   -1.0254 Q=    0.0099 A=    0.0000 R=    0.0000 C=    0.0000
 XYZ=    4.6369    1.3640    1.6620 Q=   -0.0198 A=    0.0000 R=    0.0000 C=    0.0000
 XYZ=    3.7183    1.1796    1.4659 Q=    0.0099 A=    0.0000 R=    0.0000 C=    0.0000
 XYZ=   -0.1998   -2.9179   -2.5345 Q=   -0.0198 A=    0.0000 R=    0.0000 C=    0.0000
 XYZ=   -0.4552   -3.7165   -2.0727 Q=    0.0099 A=    0.0000 R=    0.0000 C=    0.0000
 XYZ=   -5.1953   -2.7810   -2.2928 Q=   -0.0198 A=    0.0000 R=    0.0000 C=    0.0000
 XYZ=   -4.3567   -3.2408   -2.3310 Q=    0.0099 A=    0.0000 R=    0.0000 C=    0.0000
 XYZ=    0.9007   -2.2637    3.0325 Q=   -0.0198 A=    0.0000 R=    0.0000 C=    0.0000
 XYZ=    0.7837   -2.8623    2.2949 Q=    0.0099 A=    0.0000 R=    0.0000 C=    0.0000
 XYZ=    0.0856   -1.7629    3.0662 Q=    0.0099 A=    0.0000 R=    0.0000 C=    0.0000
 XYZ=   -1.5805   -3.2055    2.5031 Q=    0.0099 A=    0.0000 R=    0.0000 C=    0.0000
 XYZ=   -2.7245    0.3985   -3.4149 Q=   -0.0198 A=    0.0000 R=    0.0000 C=    0.0000
 XYZ=   -2.1103    0.3865   -4.1490 Q=    0.0099 A=    0.0000 R=    0.0000 C=    0.0000
 XYZ=   -2.7064    1.3030   -3.1022 Q=    0.0099 A=    0.0000 R=    0.0000 C=    0.0000
 XYZ=   -4.9520    0.1652   -2.7853 Q=    0.0099 A=    0.0000 R=    0.0000 C=    0.0000
 XYZ=    0.9568   -5.0405    1.2892 Q=   -0.0198 A=    0.0000 R=    0.0000 C=    0.0000
 XYZ=    0.6362   -5.3819    0.4545 Q=    0.0099 A=    0.0000 R=    0.0000 C=    0.0000
 XYZ=    0.1903   -4.6317    1.6911 Q=    0.0099 A=    0.0000 R=    0.0000 C=    0.0000
 XYZ=    3.8232   -4.7306    1.0167 Q=   -0.0198 A=    0.0000 R=    0.0000 C=    0.0000
 XYZ=    2.8873   -4.6213    0.8482 Q=    0.0099 A=    0.0000 R=    0.0000 C=    0.0000
 XYZ=    4.2166   -4.8005    0.1468 Q=    0.0099 A=    0.0000 R=    0.0000 C=    0.0000
 XYZ=   -4.2597   -4.4199    1.6409 Q=   -0.0198 A=    0.0000 R=    0.0000 C=    0.0000
 XYZ=    3.6234    0.5538   -2.3700 Q=    0.0099 A=    0.0000 R=    0.0000 C=    0.0000
 XYZ=    5.1554    0.2988   -1.0340 Q=   -0.0198 A=    0.0000 R=    0.0000 C=    0.0000
 XYZ=    4.8646    0.2463   -0.1235 Q=    0.0099 A=    0.0000 R=    0.0000 C=    0.0000
 XYZ=    5.7569   -0.4388   -1.1362 Q=    0.0099 A=    0.0000 R=    0.0000 C=    0.0000
 XYZ=   -1.7839    2.9470   -2.7100 Q=   -0.0198 A=    0.0000 R=    0.0000 C=    0.0000
 XYZ=   -2.4036    3.6603   -2.5568 Q=    0.0099 A=    0.0000 R=    0.0000 C=    0.0000
 XYZ=   -0.9278    3.3745   -2.7341 Q=    0.0099 A=    0.0000 R=    0.0000 C=    0.0000
 XYZ=   -2.8785    3.9699    1.6360 Q=    0.0099 A=    0.0000 R=    0.0000 C=    0.0000
 XYZ=   -3.5075    3.0187   -1.0004 Q=    0.0099 A=    0.0000 R=    0.0000 C=    0.0000
 XYZ=   -3.0653    0.5478    3.4704 Q=   -0.0198 A=    0.0000 R=    0.0000 C=    0.0000
 XYZ=   -2.6071    0.0513    2.7924 Q=    0.0099 A=    0.0000 R=    0.0000 C=    0.0000
 XYZ=   -3.2978    4.9159   -0.4125 Q=    0.0099 A=    0.0000 R=    0.0000 C=    0.0000
 XYZ=   -2.1635    3.0119    3.3431 Q=   -0.0198 A=    0.0000 R=    0.0000 C=    0.0000
 XYZ=   -1.4047    3.5341    3.6033 Q=    0.0099 A=    0.0000 R=    0.0000 C=    0.0000
 XYZ=    3.3133    3.7349    0.0577 Q=   -0.0198 A=    0.0000 R=    0.0000 C=    0.0000
 XYZ=    3.8589    3.3139    0.7221 Q=    0.0099 A=    0.0000 R=    0.0000 C=    0.0000
 XYZ=    2.6478    3.0807   -0.1553 Q=    0.0099 A=    0.0000 R=    0.0000 C=    0.0000
 XYZ=    1.9372    4.5909    2.0922 Q=    0.0099 A=    0.0000 R=    0.0000 C=    0.0000
 XYZ=    2.3146    3.0600   -2.8718 Q=   -0.0198 A=    0.0000 R=    0.0000 C=    0.0000
 XYZ=   -3.7875   -1.0838   -3.8416 Q=    0.0099 A=    0.0000 R=    0.0000 C=    0.0000
 XYZ=   -0.2045   -2.8649   -1.9982 Q=   -0.0198 A=    0.0000 R=    0.0000 C=    0.0000
 XYZ=   -0.1915   -3.7526   -1.6405 Q=    0.0099 A=    0.0000 R=    0.0000 C=    0.0000
 XYZ=    0.3483   -2.9128   -2.7782 Q=    0.0099 A=    0.0000 R=    0.0000 C=    0.0000
 XYZ=   -5.4213   -2.6374   -2.1007 Q=   -0.0198 A=    0.0000 R=    0.0000 C=    0.0000
 XYZ=   -4.6141   -3.1515   -2.1195 Q=    0.0099 A=    0.0000 R=    0.0000 C=    0.0000
 XYZ=    0.8912   -1.8785    2.7503 Q=   -0.0198 A=    0.0000 R=    0.0000 C=    0.0000
 XYZ=    0.2000   -1.5617    2.1689 Q=    0.0099 A=    0.0000 R=    0.0000 C=    0.0000
 XYZ=   -2.9937    0.6690   -3.4996 Q=   -0.0198 A=    0.0000 R=    0.0000 C=    0.0000
 XYZ=   -2.4630    0.1965   -4.1410 Q=    0.0099 A=    0.0000 R=    0.0000 C=    0.0000
 XYZ=   -2.5006    1.4706   -3.3247 Q=    0.0099 A=    0.0000 R=    0.0000 C=    0.0000
 XYZ=   -5.0509    0.4630   -2.5987 Q=    0.0099 A=    0.0000 R=    0.0000 C=    0.0000
 XYZ=   -5.6897   -0.8934   -2.3909 Q=    0.0099 A=    0.0000 R=    0.0000 C=    0.0000
 XYZ=    4.3956   -4.1561   -2.0804 Q=    0.0099 A=    0.0000 R=    0.0000 C=    0.0000
 XYZ=    0.5266   -4.6733    1.3460 Q=   -0.0198 A=    0.0000 R=    0.0000 C=    0.0000
 XYZ=    0.0271   -4.8489    0.5485 Q=    0.0099 A=    0.0000 R=    0.0000 C=    0.0000
 XYZ=    3.1272   -5.2225    0.9211 Q=   -0.0198 A=    0.0000 R=    0.0000 C=    0.0000
 XYZ=    2.2421   -4.9608    1.1750 Q=    0.0099 A=    0.0000 R=    0.0000 C=    0.0000
 XYZ=    3.1773   -5.0222   -0.0135 Q=    0.0099 A=    0.0000 R=    0.0000 C=    0.0000
 XYZ=    3.8630    0.0313   -2.8779 Q=    0.0099 A=    0.0000 R=    0.0000 C=    0.0000
 XYZ=    2.7550    0.9965   -3.2410 Q=    0.0099 A=    0.0000 R=    0.0000 C=    0.0000
 XYZ=    2.6668   -1.2734    3.5601 Q=    0.0099 A=    0.0000 R=    0.0000 C=    0.0000
 XYZ=    5.2746    0.1046   -1.5293 Q=   -0.0198 A=    0.0000 R=    0.0000 C=    0.0000
 XYZ=    4.9858    0.3234   -0.6433 Q=    0.0099 A=    0.0000 R=    0.0000 C=    0.0000
 XYZ=    4.8943    1.0007    1.1943 Q=   -0.0198 A=    0.0000 R=    0.0000 C=    0.0000
 XYZ=    3.9783    0.7588    1.0578 Q=    0.0099 A=    0.0000 R=    0.0000 C=    0.0000
 XYZ=   -3.1145    1.5511   -3.0898 Q=    0.0099 A=    0.0000 R=    0.0000 C=    0.0000
 XYZ=   -4.2708    2.1151   -0.2693 Q=   -0.0198 A=    0.0000 R=    0.0000 C=    0.0000
 XYZ=   -3.5554    2.7229   -0.4562 Q=    0.0099 A=    0.0000 R=    0.0000 C=    0.0000
 XYZ=   -2.7705    0.2616    3.7060 Q=   -0.0198 A=    0.0000 R=    0.0000 C=    0.0000
 XYZ=   -2.2733   -0.0932    2.9689 Q=    0.0099 A=    0.0000 R=    0.0000 C=    0.0000
 XYZ=    3.4080    3.5141    0.8389 Q=   -0.0198 A=    0.0000 R=    0.0000 C=    0.0000
 XYZ=    4.1711    3.1457    0.3937 Q=    0.0099 A=    0.0000 R=    0.0000 C=    0.0000
 XYZ=    2.7242    2.8533    0.7286 Q=    0.0099 A=    0.0000 R=    0.0000 C=    0.0000
 XYZ=    2.5053    2.6831   -2.3768 Q=   -0.0198 A=    0.0000 R=    0.0000 C=    0.0000
 XYZ=    1.6260    3.0611   -2.3907 Q=    0.0099 A=    0.0000 R=    0.0000 C=    0.0000
 XYZ=   -0.8585   -2.7922   -2.6795 Q=   -0.0198 A=    0.0000 R=    0.0000 C=    0.0000
 XYZ=   -0.8447   -3.6629   -2.2821 Q=    0.0099 A=    0.0000 R=    0.0000 C=    0.0000
 XYZ=    3.0066   -1.7804    3.4133 Q=   -0.0198 A=    0.0000 R=    0.0000 C=    0.0000
 XYZ=    2.2341   -2.1680    3.0019 Q=    0.0099 A=    0.0000 R=    0.0000 C=    0.0000
 XYZ=   -5.1520   -2.9686   -1.9920 Q=   -0.0198 A=    0.0000 R=    0.0000 C=    0.0000
 XYZ=    0.3353   -1.8204    3.0388 Q=   -0.0198 A=    0.0000 R=    0.0000 C=    0.0000
 XYZ=    0.1420   -1.0909    2.4501 Q=    0.0099 A=    0.0000 R=    0.0000 C=    0.0000
 XYZ=   -0.5078   -2.2553    3.1662 Q=    0.0099 A=    0.0000 R=    0.0000 C=    0.0000
 XYZ=   -2.8172   -3.3726    2.9228 Q=   -0.0198 A=    0.0000 R=    0.0000 C=    0.0000
 XYZ=   -3.0698   -3.7234    2.0688 Q=    0.0099 A=    0.0000 R=    0.0000 C=    0.0000
 XYZ=   -3.0785    0.6240   -3.3251 Q=   -0.0198 A=    0.0000 R=    0.0000 C=    0.0000
 XYZ=   -2.3321    0.5568   -3.9206 Q=    0.0099 A=    0.0000 R=    0.0000 C=    0.0000
 XYZ=   -5.7600   -0.4270   -2.6483 Q=   -0.0198 A=    0.0000 R=    0.0000 C=    0.0000
 XYZ=   -4.9244   -0.0073   -2.8532 Q=    0.0099 A=    0.0000 R=    0.0000 C=    0.0000
 XYZ=   -5.5240   -1.3191   -2.3941 Q=    0.0099 A=    0.0000 R=    0.0000 C=    0.0000
 XYZ=    3.6613   -4.6288   -1.6258 Q=   -0.0198 A=    0.0000 R=    0.0000 C=    0.0000
 XYZ=    2.6662   -4.9566    0.8943 Q=   -0.0198 A=    0.0000 R=    0.0000 C=    0.0000
 XYZ=    1.8391   -4.6256    0.5443 Q=    0.0099 A=    0.0000 R=    0.0000 C=    0.0000
 XYZ=    3.1120   -5.3363    0.1371 Q=    0.0099 A=    0.0000 R=    0.0000 C=    0.0000
 XYZ=    2.8607   -0.1609   -2.8896 Q=   -0.0198 A=    0.0000 R=    0.0000 C=    0.0000
 XYZ=    3.8138   -0.1232   -2.8097 Q=    0.0099 A=    0.0000 R=    0.0000 C=    0.0000
 XYZ=    2.5599    0.6904   -2.5717 Q=    0.0099 A=    0.0000 R=    0.0000 C=    0.0000
 XYZ=    2.7221   -0.9067    3.6816 Q=    0.0099 A=    0.0000 R=    0.0000 C=    0.0000
 XYZ=    5.6126   -0.7273   -2.0764 Q=    0.0099 A=    0.0000 R=    0.0000 C=    0.0000
 XYZ=    5.0086    0.9325    0.5605 Q=   -0.0198 A=    0.0000 R=    0.0000 C=    0.0000
 XYZ=    4.0607    0.8558    0.4516 Q=    0.0099 A=    0.0000 R=    0.0000 C=    0.0000
 XYZ=   -2.3327    3.1270   -2.8223 Q=   -0.0198 A=    0.0000 R=    0.0000 C=    0.0000
 XYZ=   -2.2190    3.6229   -2.0115 Q=    0.0099 A=    0.0000 R=    0.0000 C=    0.0000
 XYZ=   -2.2273    4.0934    2.7078 Q=    0.0099 A=    0.0000 R=    0.0000 C=    0.0000
 XYZ=   -3.9622    2.9101   -0.9656 Q=    0.0099 A=    0.0000 R=    0.0000 C=    0.0000
 XYZ=   -5.4625    1.4180    0.8950 Q=    0.0099 A=    0.0000 R=    0.0000 C=    0.0000
 XYZ=   -2.4946    0.5942    3.3665 Q=   -0.0198 A=    0.0000 R=    0.0000 C=    0.0000
 XYZ=   -2.0991    0.2061    2.5860 Q=    0.0099 A=    0.0000 R=    0.0000 C=    0.0000
 XYZ=   -1.7906    1.1088    3.7611 Q=    0.0099 A=    0.0000 R=    0.0000 C=    0.0000
 XYZ=   -2.0667    5.1184   -0.6742 Q=   -0.0198 A=    0.0000 R=    0.0000 C=    0.0000
 XYZ=   -2.1738    4.9052    0.2528 Q=    0.0099 A=    0.0000 R=    0.0000 C=    0.0000
 XYZ=    2.9444    3.8254    0.2945 Q=   -0.0198 A=    0.0000 R=    0.0000 C=    0.0000
 XYZ=    2.9158    2.9273    0.6245 Q=    0.0099 A=    0.0000 R=    0.0000 C=    0.0000
 XYZ=    5.0359    1.4043    1.4785 Q=    0.0099 A=    0.0000 R=    0.0000 C=    0.0000
 XYZ=    1.7093    4.9378    1.3904 Q=    0.0099 A=    0.0000 R=    0.0000 C=    0.0000
 XYZ=    2.3848    3.2281   -2.4031 Q=   -0.0198 A=    0.0000 R=    0.0000 C=    0.0000
 XYZ=    2.2804    3.2206   -1.4516 Q=    0.0099 A=    0.0000 R=    0.0000 C=    0.0000
 XYZ=    1.5593    3.5842   -2.7319 Q=    0.0099 A=    0.0000 R=    0.0000 C=    0.0000
 XYZ=   -0.1962   -2.6544   -2.1919 Q=   -0.0198 A=    0.0000 R=    0.0000 C=    0.0000
 XYZ=   -0.6127   -3.4884   -1.9748 Q=    0.0099 A=    0.0000 R=    0.0000 C=    0.0000
 XYZ=    0.0303   -2.7339   -3.1186 Q=    0.0099 A=    0.0000 R=    0.0000 C=    0.0000
 XYZ=    2.4518   -1.2348    3.7454 Q=   -0.0198 A=    0.0000 R=    0.0000 C=    0.0000
 XYZ=    1.5838   -1.6132    3.6049 Q=    0.0099 A=    0.0000 R=    0.0000 C=    0.0000
 XYZ=   -5.0157   -2.7892   -2.2855 Q=   -0.0198 A=    0.0000 R=    0.0000 C=    0.0000
 XYZ=   -5.2450   -2.5682   -1.3828 Q=    0.0099 A=    0.0000 R=    0.0000 C=    0.0000
 XYZ=   -0.0871   -1.9350    3.4109 Q=   -0.0198 A=    0.0000 R=    0.0000 C=    0.0000
 XYZ=   -0.6563   -1.4481    2.8149 Q=    0.0099 A=    0.0000 R=    0.0000 C=    0.0000
 XYZ=   -3.2344   -3.4743    2.6133 Q=   -0.0198 A=    0.0000 R=    0.0000 C=    0.0000
 XYZ=   -4.0148   -3.7670    2.1425 Q=    0.0099 A=    0.0000 R=    0.0000 C=    0.0000
 XYZ=   -3.1424    0.5839   -3.4764 Q=   -0.0198 A=    0.0000 R=    0.0000 C=    0.0000
 XYZ=   -2.3820    0.4886   -4.0499 Q=    0.0099 A=    0.0000 R=    0.0000 C=    0.0000
 XYZ=   -3.1123    1.4963   -3.1884 Q=    0.0099 A=    0.0000 R=    0.0000 C=    0.0000
 XYZ=   -5.3178   -3.9601    0.2719 Q=    0.0099 A=    0.0000 R=    0.0000 C=    0.0000
 XYZ=   -5.4349   -1.0023   -2.5963 Q=    0.0099 A=    0.0000 R=    0.0000 C=    0.0000
 XYZ=    3.7792   -4.5536   -1.3796 Q=   -0.0198 A=    0.0000 R=    0.0000 C=    0.0000
 XYZ=    3.0383   -4.5473   -1.9856 Q=    0.0099 A=    0.0000 R=    0.0000 C=    0.0000
 XYZ=    2.6183   -4.7014    1.4625 Q=   -0.0198 A=    0.0000 R=    0.0000 C=    0.0000
 XYZ=    1.7338   -4.3636    1.3217 Q=    0.0099 A=    0.0000 R=    0.0000 C=    0.0000
 XYZ=    3.0298   -4.6624    0.5992 Q=    0.0099 A=    0.0000 R=    0.0000 C=    0.0000
 XYZ=    2.4356   -0.4110    3.2583 Q=    0.0099 A=    0.0000 R=    0.0000 C=    0.0000
 XYZ=    5.7157   -0.9517   -1.1570 Q=    0.0099 A=    0.0000 R=    0.0000 C=    0.0000
 XYZ=    4.9407    1.1204    0.5693 Q=   -0.0198 A=    0.0000 R=    0.0000 C=    0.0000
 XYZ=    4.0013    0.9715    0.4620 Q=    0.0099 A=    0.0000 R=    0.0000 C=    0.0000
 XYZ=   -2.2912    2.9462   -2.4897 Q=   -0.0198 A=    0.0000 R=    0.0000 C=    0.0000
 XYZ=   -2.4997    3.4943   -1.7331 Q=    0.0099 A=    0.0000 R=    0.0000 C=    0.0000
 XYZ=   -3.1841    1.4953   -2.9958 Q=    0.0099 A=    0.0000 R=    0.0000 C=    0.0000
 XYZ=   -3.7042    3.0190    0.7045 Q=    0.0099 A=    0.0000 R=    0.0000 C=    0.0000
 XYZ=   -5.4448    1.2863    0.7252 Q=    0.0099 A=    0.0000 R=    0.0000 C=    0.0000
 XYZ=   -2.5543    0.6921    3.3064 Q=   -0.0198 A=    0.0000 R=    0.0000 C=    0.0000
 XYZ=   -2.2934    0.2152    2.5186 Q=    0.0099 A=    0.0000 R=    0.0000 C=    0.0000
 XYZ=   -1.9520    1.4350    3.3472 Q=    0.0099 A=    0.0000 R=    0.0000 C=    0.0000
 XYZ=   -2.2175    5.3347   -0.1592 Q=   -0.0198 A=    0.0000 R=    0.0000 C=    0.0000
 XYZ=   -2.3696    4.8603    0.6582 Q=    0.0099 A=    0.0000 R=    0.0000 C=    0.0000
 XYZ=    3.2347    3.7666    1.1270 Q=   -0.0198 A=    0.0000 R=    0.0000 C=    0.0000
 XYZ=    3.4008    3.0983    1.7919 Q=    0.0099 A=    0.0000 R=    0.0000 C=    0.0000
 XYZ=    4.2882    1.3970    0.6076 Q=    0.0099 A=    0.0000 R=    0.0000 C=    0.0000
 XYZ=    1.8660    4.9110    2.0776 Q=    0.0099 A=    0.0000 R=    0.0000 C=    0.0000
 XYZ=    2.6761    3.4271   -1.7968 Q=   -0.0198 A=    0.0000 R=    0.0000 C=    0.0000
 XYZ=    2.5597    3.3570   -0.8493 Q=    0.0099 A=    0.0000 R=    0.0000 C=    0.0000
 XYZ=    1.8167    3.6919   -2.1247 Q=    0.0099 A=    0.0000 R=    0.0000 C=    0.0000
 XYZ=   -0.6362   -2.6140   -2.0207 Q=   -0.0198 A=    0.0000 R=    0.0000 C=    0.0000
 XYZ=   -0.9889   -3.4176   -1.6387 Q=    0.0099 A=    0.0000 R=    0.0000 C=    0.0000
 XYZ=   -0.0707   -2.9150   -2.7320 Q=    0.0099 A=    0.0000 R=    0.0000 C=    0.0000
 XYZ=    1.5732   -1.1991    3.4814 Q=    0.0099 A=    0.0000 R=    0.0000 C=    0.0000
 XYZ=   -5.2255   -2.7686   -2.0602 Q=   -0.0198 A=    0.0000 R=    0.0000 C=    0.0000
 XYZ=   -4.5477   -3.4445   -2.0627 Q=    0.0099 A=    0.0000 R=    0.0000 C=    0.0000
 XYZ=   -0.0812   -1.8631    3.2635 Q=   -0.0198 A=    0.0000 R=    0.0000 C=    0.0000
 XYZ=   -0.4719   -1.3023    2.5935 Q=    0.0099 A=    0.0000 R=    0.0000 C=    0.0000
 XYZ=   -0.3950   -2.7425    3.0526 Q=    0.0099 A=    0.0000 R=    0.0000 C=    0.0000
 XYZ=   -3.0410   -3.8691    2.6298 Q=   -0.0198 A=    0.0000 R=    0.0000 C=    0.0000
 XYZ=   -3.9501   -3.5714    2.5961 Q=    0.0099 A=    0.0000 R=    0.0000 C=    0.0000
 XYZ=   -3.5272    0.7657   -3.5118 Q=   -0.0198 A=    0.0000 R=    0.0000 C=    0.0000
 XYZ=   -2.8561    0.6049   -4.1751 Q=    0.0099 A=    0.0000 R=    0.0000 C=    0.0000
 XYZ=   -5.1413    0.4054   -2.4455 Q=    0.0099 A=    0.0000 R=    0.0000 C=    0.0000
 XYZ=   -5.4850   -1.0687   -2.4434 Q=    0.0099 A=    0.0000 R=    0.0000 C=    0.0000
 XYZ=    2.4908   -4.8851    1.5948 Q=   -0.0198 A=    0.0000 R=    0.0000 C=    0.0000
 XYZ=    1.5454   -4.9049    1.4460 Q=    0.0099 A=    0.0000 R=    0.0000 C=    0.0000
 XYZ=    2.8722   -4.9281    0.7179 Q=    0.0099 A=    0.0000 R=    0.0000 C=    0.0000
 XYZ=    2.9891    1.7842   -2.8060 Q=    0.0099 A=    0.0000 R=    0.0000 C=    0.0000
 XYZ=    2.4164   -0.7755    3.6421 Q=   -0.0198 A=    0.0000 R=    0.0000 C=    0.0000
 XYZ=    5.2160   -0.3702   -1.9025 Q=   -0.0198 A=    0.0000 R=    0.0000 C=    0.0000
 XYZ=    5.1192   -0.0773   -0.9964 Q=    0.0099 A=    0.0000 R=    0.0000 C=    0.0000
 XYZ=    5.5431   -1.2669   -1.8307 Q=    0.0099 A=    0.0000 R=    0.0000 C=    0.0000
 XYZ=    5.2167    1.1813    0.5201 Q=   -0.0198 A=    0.0000 R=    0.0000 C=    0.0000
 XYZ=    0.7067    2.7339    3.6611 Q=    0.0099 A=    0.0000 R=    0.0000 C=    0.0000
 XYZ=   -3.1092    3.8496   -1.4815 Q=    0.0099 A=    0.0000 R=    0.0000 C=    0.0000
 XYZ=   -3.2059    2.0115   -3.0491 Q=    0.0099 A=    0.0000 R=    0.0000 C=    0.0000
 XYZ=   -3.0500    0.2742    3.6674 Q=   -0.0198 A=    0.0000 R=    0.0000 C=    0.0000
 XYZ=   -2.4688    0.1889    2.9116 Q=    0.0099 A=    0.0000 R=    0.0000 C=    0.0000
 XYZ=   -2.4466    5.3275    0.0393 Q=   -0.0198 A=    0.0000 R=    0.0000 C=    0.0000
 XYZ=   -2.5142    5.2262    0.9888 Q=    0.0099 A=    0.0000 R=    0.0000 C=    0.0000
 XYZ=    3.4791    2.9515    0.4393 Q=    0.0099 A=    0.0000 R=    0.0000 C=    0.0000
 XYZ=    2.0047    4.5523    2.0051 Q=    0.0099 A=    0.0000 R=    0.0000 C=    0.0000
 XYZ=    2.3452    3.6983   -1.5249 Q=    0.0099 A=    0.0000 R=    0.0000 C=    0.0000
 XYZ=   -0.1989   -2.7276   -2.4686 Q=   -0.0198 A=    0.0000 R=    0.0000 C=    0.0000
 XYZ=    0.2202   -3.4574   -2.0126 Q=    0.0099 A=    0.0000 R=    0.0000 C=    0.0000
 XYZ=   -4.4921   -3.3258   -2.4760 Q=    0.0099 A=    0.0000 R=    0.0000 C=    0.0000
 XYZ=    0.4043   -2.0321    3.0452 Q=   -0.0198 A=    0.0000 R=    0.0000 C=    0.0000
 XYZ=   -0.3768   -1.6744    2.6231 Q=    0.0099 A=    0.0000 R=    0.0000 C=    0.0000
 XYZ=    0.5390   -2.8795    2.6210 Q=    0.0099 A=    0.0000 R=    0.0000 C=    0.0000
 XYZ=   -2.8213   -3.7958    2.3796 Q=   -0.0198 A=    0.0000 R=    0.0000 C=    0.0000
 XYZ=   -3.6541   -4.2200    2.1731 Q=    0.0099 A=    0.0000 R=    0.0000 C=    0.0000
 XYZ=   -3.1472    1.0795   -3.2593 Q=   -0.0198 A=    0.0000 R=    0.0000 C=    0.0000
 XYZ=   -2.4602    1.0267   -3.9237 Q=    0.0099 A=    0.0000 R=    0.0000 C=    0.0000
 XYZ=   -5.6732    0.5093   -1.7245 Q=    0.0099 A=    0.0000 R=    0.0000 C=    0.0000
 XYZ=   -5.8947   -0.9141   -2.1890 Q=    0.0099 A=    0.0000 R=    0.0000 C=    0.0000
 XYZ=    3.2644   -5.3491   -0.8973 Q=   -0.0198 A=    0.0000 R=    0.0000 C=    0.0000
 XYZ=   -2.3003   -4.4599    0.0310 Q=    0.0099 A=    0.0000 R=    0.0000 C=    0.0000
 XYZ=   -0.2771   -4.5015    0.8475 Q=    0.0099 A=    0.0000 R=    0.0000 C=    0.0000
 XYZ=    3.0750   -4.7564    1.8048 Q=   -0.0198 A=    0.0000 R=    0.0000 C=    0.0000
 XYZ=    2.1226   -4.7709    1.8995 Q=    0.0099 A=    0.0000 R=    0.0000 C=    0.0000
 XYZ=    3.2294   -5.0192    0.8974 Q=    0.0099 A=    0.0000 R=    0.0000 C=    0.0000
 XYZ=    5.1586    0.0153   -1.9675 Q=   -0.0198 A=    0.0000 R=    0.0000 C=    0.0000
 XYZ=    5.2235    0.3342   -1.0673 Q=    0.0099 A=    0.0000 R=    0.0000 C=    0.0000
 XYZ=    5.1227    0.6949    0.7971 Q=   -0.0198 A=    0.0000 R=    0.0000 C=    0.0000
 XYZ=    4.2023    0.6034    0.5506 Q=    0.0099 A=    0.0000 R=    0.0000 C=    0.0000
 XYZ=   -3.3013    3.6733   -1.9364 Q=   -0.0198 A=    0.0000 R=    0.0000 C=    0.0000
 XYZ=   -2.8685    4.2045   -1.2680 Q=    0.0099 A=    0.0000 R=    0.0000 C=    0.0000
 XYZ=   -3.2693    2.0338   -2.4637 Q=    0.0099 A=    0.0000 R=    0.0000 C=    0.0000
 XYZ=   -5.9935    1.0080    0.7846 Q=    0.0099 A=    0.0000 R=    0.0000 C=    0.0000
 XYZ=   -3.2605   -0.1932    3.3836 Q=   -0.0198 A=    0.0000 R=    0.0000 C=    0.0000
 XYZ=   -2.6078   -0.2954    2.6909 Q=    0.0099 A=    0.0000 R=    0.0000 C=    0.0000
 XYZ=   -2.7481    5.3703    0.1601 Q=   -0.0198 A=    0.0000 R=    0.0000 C=    0.0000
 XYZ=    2.9325    2.3643   -2.7370 Q=    0.0099 A=    0.0000 R=    0.0000 C=    0.0000
 XYZ=    2.8768    3.5874    0.8424 Q=   -0.0198 A=    0.0000 R=    0.0000 C=    0.0000
 XYZ=    2.7164    2.6612    0.6613 Q=    0.0099 A=    0.0000 R=    0.0000 C=    0.0000
 XYZ=    0.1618    3.0815    3.4073 Q=   -0.0198 A=    0.0000 R=    0.0000 C=    0.0000
 XYZ=   -0.6814    3.5228    3.3049 Q=    0.0099 A=    0.0000 R=    0.0000 C=    0.0000
 XYZ=    0.7548    3.5606    2.8285 Q=    0.0099 A=    0.0000 R=    0.0000 C=    0.0000
 XYZ=    0.0129   -3.6933   -1.5492 Q=   -0.0198 A=    0.0000 R=    0.0000 C=    0.0000
 XYZ=    0.6917   -4.2200   -1.9711 Q=    0.0099 A=    0.0000 R=    0.0000 C=    0.0000
 XYZ=    1.9934   -0.9612    3.4520 Q=    0.0099 A=    0.0000 R=    0.0000 C=    0.0000
 XYZ=    0.7777   -2.0776    2.6917 Q=   -0.0198 A=    0.0000 R=    0.0000 C=    0.0000
 XYZ=    0.2409   -1.3702    2.3343 Q=    0.0099 A=    0.0000 R=    0.0000 C=    0.0000
 XYZ=    0.3323   -2.8788    2.4163 Q=    0.0099 A=    0.0000 R=    0.0000 C=    0.0000
 XYZ=   -3.0702    1.1480   -2.7671 Q=   -0.0198 A=    0.0000 R=    0.0000 C=    0.0000
 XYZ=   -2.3047    1.2546   -3.3316 Q=    0.0099 A=    0.0000 R=    0.0000 C=    0.0000
 XYZ=   -1.6026   -3.2102   -3.3482 Q=    0.0099 A=    0.0000 R=    0.0000 C=    0.0000
 XYZ=   -5.3779    0.4361   -2.1949 Q=    0.0099 A=    0.0000 R=    0.0000 C=    0.0000
 XYZ=   -5.7858   -0.9709   -2.5757 Q=    0.0099 A=    0.0000 R=    0.0000 C=    0.0000
 XYZ=    3.1929   -5.3489   -1.1112 Q=   -0.0198 A=    0.0000 R=    0.0000 C=    0.0000
 XYZ=   -0.1619   -4.2970    1.4509 Q=   -0.0198 A=    0.0000 R=    0.0000 C=    0.0000
 XYZ=   -0.1334   -4.5737    0.5350 Q=    0.0099 A=    0.0000 R=    0.0000 C=    0.0000
 XYZ=    2.4700   -5.1273    1.9205 Q=   -0.0198 A=    0.0000 R=    0.0000 C=    0.0000
 XYZ=    1.5183   -5.0258    1.9358 Q=    0.0099 A=    0.0000 R=    0.0000 C=    0.0000
 XYZ=    2.6723   -5.3520    1.0124 Q=    0.0099 A=    0.0000 R=    0.0000 C=    0.0000
 XYZ=    2.9147    1.4106   -2.8166 Q=   -0.0198 A=    0.0000 R=    0.0000 C=    0.0000
 XYZ=    5.1265    0.2115   -0.6320 Q=    0.0099 A=    0.0000 R=    0.0000 C=    0.0000
 XYZ=    5.6662   -0.4918   -1.8589 Q=    0.0099 A=    0.0000 R=    0.0000 C=    0.0000
 XYZ=    5.0373    0.4175    1.1200 Q=   -0.0198 A=    0.0000 R=    0.0000 C=    0.0000
 XYZ=    4.1123    0.2959    0.9057 Q=    0.0099 A=    0.0000 R=    0.0000 C=    0.0000
 XYZ=   -3.0286    3.2468   -2.3881 Q=   -0.0198 A=    0.0000 R=    0.0000 C=    0.0000
 XYZ=   -3.0560    4.0219   -1.8272 Q=    0.0099 A=    0.0000 R=    0.0000 C=    0.0000
 XYZ=   -2.2393    3.3619   -2.9173 Q=    0.0099 A=    0.0000 R=    0.0000 C=    0.0000
 XYZ=   -3.1340    1.5472   -2.9509 Q=    0.0099 A=    0.0000 R=    0.0000 C=    0.0000
 XYZ=   -5.3062    2.0408   -0.1128 Q=   -0.0198 A=    0.0000 R=    0.0000 C=    0.0000
 XYZ=   -6.0444    0.7413    0.7874 Q=    0.0099 A=    0.0000 R=    0.0000 C=    0.0000
 XYZ=   -0.5060    2.8150    3.7593 Q=   -0.0198 A=    0.0000 R=    0.0000 C=    0.0000
 XYZ=   -1.4070    3.0595    3.5479 Q=    0.0099 A=    0.0000 R=    0.0000 C=    0.0000
 XYZ=   -3.0503    5.1082    0.4828 Q=    0.0099 A=    0.0000 R=    0.0000 C=    0.0000
 XYZ=    2.6666    2.8577   -2.5365 Q=    0.0099 A=    0.0000 R=    0.0000 C=    0.0000
 XYZ=    3.1243    3.6121    1.4964 Q=   -0.0198 A=    0.0000 R=    0.0000 C=    0.0000
 XYZ=    3.0738    2.8340    0.9413 Q=    0.0099 A=    0.0000 R=    0.0000 C=    0.0000
 XYZ=    1.7908    4.9351    1.7934 Q=    0.0099 A=    0.0000 R=    0.0000 C=    0.0000
 XYZ=    0.0323    3.4001    3.2263 Q=    0.0099 A=    0.0000 R=    0.0000 C=    0.0000
 XYZ=    1.9483    4.3618   -2.1501 Q=   -0.0198 A=    0.0000 R=    0.0000 C=    0.0000
 XYZ=    1.0711    4.2762   -2.5236 Q=    0.0099 A=    0.0000 R=    0.0000 C=    0.0000
 XYZ=   -0.3648   -3.5122   -1.4539 Q=   -0.0198 A=    0.0000 R=    0.0000 C=    0.0000
 XYZ=   -0.2300    2.2636   -4.3197 Q=    0.0099 A=    0.0000 R=    0.0000 C=    0.0000
 XYZ=    0.8173   -1.5762    2.6572 Q=   -0.0198 A=    0.0000 R=    0.0000 C=    0.0000
 XYZ=    0.2116   -1.0747    2.1115 Q=    0.0099 A=    0.0000 R=    0.0000 C=    0.0000
 XYZ=    0.3468   -2.3858    2.8556 Q=    0.0099 A=    0.0000 R=    0.0000 C=    0.0000
 XYZ=   -3.1101   -4.1285    2.1739 Q=   -0.0198 A=    0.0000 R=    0.0000 C=    0.0000
 XYZ=   -3.7761   -3.6578    2.6750 Q=    0.0099 A=    0.0000 R=    0.0000 C=    0.0000
 XYZ=   -2.9791    0.7134   -3.3947 Q=   -0.0198 A=    0.0000 R=    0.0000 C=    0.0000
 XYZ=   -2.1309    0.8247   -3.8242 Q=    0.0099 A=    0.0000 R=    0.0000 C=    0.0000
 XYZ=   -2.8117   -0.9827    3.4562 Q=   -0.0198 A=    0.0000 R=    0.0000 C=    0.0000
 XYZ=   -2.3413   -0.9886    2.6226 Q=    0.0099 A=    0.0000 R=    0.0000 C=    0.0000
 XYZ=   -4.9424   -0.0144   -2.3862 Q=    0.0099 A=    0.0000 R=    0.0000 C=    0.0000
 XYZ=   -5.7705   -1.2717   -2.5425 Q=    0.0099 A=    0.0000 R=    0.0000 C=    0.0000
 XYZ=   -0.2631   -4.1309    1.4565 Q=   -0.0198 A=    0.0000 R=    0.0000 C=    0.0000
 XYZ=   -0.2182   -3.5984    0.6623 Q=    0.0099 A=    0.0000 R=    0.0000 C=    0.0000
 XYZ=    2.6731   -4.9552    1.6468 Q=   -0.0198 A=    0.0000 R=    0.0000 C=    0.0000
 XYZ=    1.8104   -4.5629    1.5131 Q=    0.0099 A=    0.0000 R=    0.0000 C=    0.0000
 XYZ=    2.9735   -5.1793    0.7660 Q=    0.0099 A=    0.0000 R=    0.0000 C=    0.0000
 XYZ=    5.8808   -3.2857   -0.3816 Q=   -0.0198 A=    0.0000 R=    0.0000 C=    0.0000
 XYZ=    6.0741   -2.3951   -0.0891 Q=    0.0099 A=    0.0000 R=    0.0000 C=    0.0000
 XYZ=    2.7019    1.9315   -2.7758 Q=   -0.0198 A=    0.0000 R=    0.0000 C=    0.0000
 XYZ=    2.2501   -0.5074    3.3708 Q=    0.0099 A=    0.0000 R=    0.0000 C=    0.0000
 XYZ=    4.4741    0.8270   -0.6718 Q=    0.0099 A=    0.0000 R=    0.0000 C=    0.0000
 XYZ=    4.8837    0.3340    1.1523 Q=   -0.0198 A=    0.0000 R=    0.0000 C=    0.0000
 XYZ=    3.9562    0.1529    1.0003 Q=    0.0099 A=    0.0000 R=    0.0000 C=    0.0000
 XYZ=   -0.0459    3.2123    3.9275 Q=    0.0099 A=    0.0000 R=    0.0000 C=    0.0000
 XYZ=   -0.3811    2.2335   -3.7318 Q=    0.0099 A=    0.0000 R=    0.0000 C=    0.0000
 XYZ=   -3.0895    3.7269   -1.7597 Q=    0.0099 A=    0.0000 R=    0.0000 C=    0.0000
 XYZ=   -3.0455    4.1670    1.6784 Q=    0.0099 A=    0.0000 R=    0.0000 C=    0.0000
 XYZ=   -5.0445    1.7605    0.0386 Q=   -0.0198 A=    0.0000 R=    0.0000 C=    0.0000
 XYZ=   -4.9106    2.2098   -0.7959 Q=    0.0099 A=    0.0000 R=    0.0000 C=    0.0000
 XYZ=   -5.7507    0.2511    0.6444 Q=    0.0099 A=    0.0000 R=    0.0000 C=    0.0000
 XYZ=   -2.7575    5.0767   -0.6101 Q=   -0.0198 A=    0.0000 R=    0.0000 C=    0.0000
 XYZ=   -2.4537    5.0810    0.2976 Q=    0.0099 A=    0.0000 R=    0.0000 C=    0.0000
 XYZ=    2.6090    2.8978   -2.5871 Q=    0.0099 A=    0.0000 R=    0.0000 C=    0.0000
 XYZ=    2.6007    0.9746    3.0360 Q=    0.0099 A=    0.0000 R=    0.0000 C=    0.0000
 XYZ=    2.9072    3.2473    1.6327 Q=   -0.0198 A=    0.0000 R=    0.0000 C=    0.0000
 XYZ=    2.7037    2.5245    1.0391 Q=    0.0099 A=    0.0000 R=    0.0000 C=    0.0000
 XYZ=    1.3346    4.7076    1.9186 Q=    0.0099 A=    0.0000 R=    0.0000 C=    0.0000
 XYZ=    1.1130    4.5600   -2.2888 Q=    0.0099 A=    0.0000 R=    0.0000 C=    0.0000
 XYZ=   -2.1253   -2.9338   -3.7695 Q=   -0.0198 A=    0.0000 R=    0.0000 C=    0.0000
 XYZ=   -2.8481   -3.4498   -3.4126 Q=    0.0099 A=    0.0000 R=    0.0000 C=    0.0000
 XYZ=   -0.1440   -2.5946   -1.8732 Q=   -0.0198 A=    0.0000 R=    0.0000 C=    0.0000
 XYZ=   -0.4178   -3.3676   -1.3796 Q=    0.0099 A=    0.0000 R=    0.0000 C=    0.0000
 XYZ=    0.6296   -2.8817   -2.3583 Q=    0.0099 A=    0.0000 R=    0.0000 C=    0.0000
 XYZ=    4.8875   -3.6641   -2.1441 Q=    0.0099 A=    0.0000 R=    0.0000 C=    0.0000
 XYZ=   -0.5514    1.3110   -3.9222 Q=   -0.0198 A=    0.0000 R=    0.0000 C=    0.0000
 XYZ=    0.2169    1.0223   -4.4148 Q=    0.0099 A=    0.0000 R=    0.0000 C=    0.0000
 XYZ=    0.6999   -1.5755    3.1209 Q=   -0.0198 A=    0.0000 R=    0.0000 C=    0.0000
 XYZ=    0.1651   -1.0245    2.5494 Q=    0.0099 A=    0.0000 R=    0.0000 C=    0.0000
 XYZ=   -3.1494   -3.9388    2.2788 Q=   -0.0198 A=    0.0000 R=    0.0000 C=    0.0000
 XYZ=   -3.9761   -4.2382    1.9005 Q=    0.0099 A=    0.0000 R=    0.0000 C=    0.0000
 XYZ=   -2.9008    0.3966   -3.2499 Q=   -0.0198 A=    0.0000 R=    0.0000 C=    0.0000
 XYZ=   -2.0558    0.4451   -3.6969 Q=    0.0099 A=    0.0000 R=    0.0000 C=    0.0000
 XYZ=   -2.9782    1.2339   -2.7926 Q=    0.0099 A=    0.0000 R=    0.0000 C=    0.0000
 XYZ=   -6.2069   -0.4339    1.1332 Q=   -0.0198 A=    0.0000 R=    0.0000 C=    0.0000
 XYZ=   -1.4887   -2.8877   -3.0562 Q=    0.0099 A=    0.0000 R=    0.0000 C=    0.0000
 XYZ=   -2.4796   -0.9046    3.1469 Q=    0.0099 A=    0.0000 R=    0.0000 C=    0.0000
 XYZ=   -4.8791   -0.3775   -2.8430 Q=    0.0099 A=    0.0000 R=    0.0000 C=    0.0000
 XYZ=   -5.9882   -0.9529   -1.9887 Q=    0.0099 A=    0.0000 R=    0.0000 C=    0.0000
 XYZ=   -2.2739   -4.4605   -0.0528 Q=    0.0099 A=    0.0000 R=    0.0000 C=    0.0000
 XYZ=   -0.4177   -3.8000    1.5700 Q=   -0.0198 A=    0.0000 R=    0.0000 C=    0.0000
 XYZ=    0.0273   -2.9866    1.8076 Q=    0.0099 A=    0.0000 R=    0.0000 C=    0.0000
 XYZ=   -1.3430   -3.6261    1.7428 Q=    0.0099 A=    0.0000 R=    0.0000 C=    0.0000
 XYZ=    3.4662   -5.0523    0.5947 Q=    0.0099 A=    0.0000 R=    0.0000 C=    0.0000
 XYZ=    5.6362   -3.1269   -0.1743 Q=   -0.0198 A=    0.0000 R=    0.0000 C=    0.0000
 XYZ=    5.7784   -2.5692    0.5905 Q=    0.0099 A=    0.0000 R=    0.0000 C=    0.0000
 XYZ=    2.0460   -0.3878    3.3926 Q=    0.0099 A=    0.0000 R=    0.0000 C=    0.0000
 XYZ=    4.7327    0.5700   -0.6346 Q=    0.0099 A=    0.0000 R=    0.0000 C=    0.0000
 XYZ=    4.9456    0.2000    1.0955 Q=   -0.0198 A=    0.0000 R=    0.0000 C=    0.0000
 XYZ=    4.0075    0.3891    1.1193 Q=    0.0099 A=    0.0000 R=    0.0000 C=    0.0000
 XYZ=   -3.0888    3.1387   -1.7704 Q=   -0.0198 A=    0.0000 R=    0.0000 C=    0.0000
 XYZ=   -2.9516    3.8419   -1.1356 Q=    0.0099 A=    0.0000 R=    0.0000 C=    0.0000
 XYZ=   -2.7133    3.4741   -2.5844 Q=    0.0099 A=    0.0000 R=    0.0000 C=    0.0000
 XYZ=   -2.9424    3.7006    2.0265 Q=    0.0099 A=    0.0000 R=    0.0000 C=    0.0000
 XYZ=   -3.2231    1.4870   -2.7497 Q=    0.0099 A=    0.0000 R=    0.0000 C=    0.0000
 XYZ=   -2.5237    5.2344    0.0899 Q=   -0.0198 A=    0.0000 R=    0.0000 C=    0.0000
 XYZ=   -2.1808    5.3241    0.9790 Q=    0.0099 A=    0.0000 R=    0.0000 C=    0.0000
 XYZ=    2.6925    2.9887   -2.4939 Q=    0.0099 A=    0.0000 R=    0.0000 C=    0.0000
 XYZ=    2.9717    0.2914    3.0191 Q=   -0.0198 A=    0.0000 R=    0.0000 C=    0.0000
 XYZ=    2.7997    1.1852    2.7230 Q=    0.0099 A=    0.0000 R=    0.0000 C=    0.0000
 XYZ=    3.0500    3.5418    0.7625 Q=   -0.0198 A=    0.0000 R=    0.0000 C=    0.0000
 XYZ=    3.6249    3.5102   -0.0022 Q=    0.0099 A=    0.0000 R=    0.0000 C=    0.0000
 XYZ=    2.8023    2.6296    0.9137 Q=    0.0099 A=    0.0000 R=    0.0000 C=    0.0000
 XYZ=    1.3796    5.1931    1.2461 Q=    0.0099 A=    0.0000 R=    0.0000 C=    0.0000
 XYZ=   -2.5465   -2.6517   -3.8996 Q=   -0.0198 A=    0.0000 R=    0.0000 C=    0.0000
 XYZ=   -3.2009   -3.2243   -3.4996 Q=    0.0099 A=    0.0000 R=    0.0000 C=    0.0000
 XYZ=   -0.4163   -2.9862   -2.1010 Q=   -0.0198 A=    0.0000 R=    0.0000 C=    0.0000
 XYZ=   -0.5602   -3.6643   -1.4409 Q=    0.0099 A=    0.0000 R=    0.0000 C=    0.0000
 XYZ=    0.3364   -3.2973   -2.6038 Q=    0.0099 A=    0.0000 R=    0.0000 C=    0.0000
 XYZ=    4.7189   -3.8556   -2.0704 Q=    0.0099 A=    0.0000 R=    0.0000 C=    0.0000
 XYZ=   -0.3864    1.5966   -3.9719 Q=   -0.0198 A=    0.0000 R=    0.0000 C=    0.0000
 XYZ=    0.3317    1.2756   -4.5174 Q=    0.0099 A=    0.0000 R=    0.0000 C=    0.0000
 XYZ=    0.7207   -1.0747    3.0697 Q=   -0.0198 A=    0.0000 R=    0.0000 C=    0.0000
 XYZ=    0.1942   -0.4604    2.5581 Q=    0.0099 A=    0.0000 R=    0.0000 C=    0.0000
 XYZ=   -2.8223   -3.9714    2.2991 Q=   -0.0198 A=    0.0000 R=    0.0000 C=    0.0000
 XYZ=   -3.6806   -4.1461    1.9129 Q=    0.0099 A=    0.0000 R=    0.0000 C=    0.0000
 XYZ=   -2.8304    0.6546   -3.0124 Q=   -0.0198 A=    0.0000 R=    0.0000 C=    0.0000
 XYZ=   -1.9917    0.8984   -3.4041 Q=    0.0099 A=    0.0000 R=    0.0000 C=    0.0000
 XYZ=   -1.8887   -2.5253   -3.2158 Q=    0.0099 A=    0.0000 R=    0.0000 C=    0.0000
 XYZ=   -2.5698   -0.8101    3.6348 Q=   -0.0198 A=    0.0000 R=    0.0000 C=    0.0000
 XYZ=   -2.2086   -0.7207    2.7529 Q=    0.0099 A=    0.0000 R=    0.0000 C=    0.0000
 XYZ=   -2.1791   -1.6158    3.9730 Q=    0.0099 A=    0.0000 R=    0.0000 C=    0.0000
 XYZ=   -5.0924    0.3704   -2.8561 Q=    0.0099 A=    0.0000 R=    0.0000 C=    0.0000
 XYZ=   -5.7762    0.0556   -1.5430 Q=    0.0099 A=    0.0000 R=    0.0000 C=    0.0000
 XYZ=    0.1465   -3.5828    1.9183 Q=   -0.0198 A=    0.0000 R=    0.0000 C=    0.0000
 XYZ=    0.4258   -2.7133    2.2049 Q=    0.0099 A=    0.0000 R=    0.0000 C=    0.0000
 XYZ=    3.3461   -5.0531    0.7493 Q=    0.0099 A=    0.0000 R=    0.0000 C=    0.0000
 XYZ=    5.6106   -3.1786   -0.6243 Q=   -0.0198 A=    0.0000 R=    0.0000 C=    0.0000
 XYZ=    6.1169   -2.6385   -1.2311 Q=    0.0099 A=    0.0000 R=    0.0000 C=    0.0000
 XYZ=    2.8654    2.1090   -2.8292 Q=   -0.0198 A=    0.0000 R=    0.0000 C=    0.0000
 XYZ=    3.4411    1.7124   -2.1753 Q=    0.0099 A=    0.0000 R=    0.0000 C=    0.0000
 XYZ=    2.1567   -0.1796    2.8452 Q=    0.0099 A=    0.0000 R=    0.0000 C=    0.0000
 XYZ=    5.0952    0.0525   -1.8064 Q=    0.0099 A=    0.0000 R=    0.0000 C=    0.0000
 XYZ=    4.6926    0.5799    1.1229 Q=    0.0099 A=    0.0000 R=    0.0000 C=    0.0000
 XYZ=   -0.6575    2.8542   -3.9288 Q=    0.0099 A=    0.0000 R=    0.0000 C=    0.0000
 XYZ=   -3.0808    4.1305   -1.5627 Q=    0.0099 A=    0.0000 R=    0.0000 C=    0.0000
 XYZ=   -3.1047    1.7761   -2.5388 Q=    0.0099 A=    0.0000 R=    0.0000 C=    0.0000
 XYZ=   -5.1957    1.6973    0.2324 Q=   -0.0198 A=    0.0000 R=    0.0000 C=    0.0000
 XYZ=   -5.3377    0.8303   -1.3217 Q=    0.0099 A=    0.0000 R=    0.0000 C=    0.0000
 XYZ=   -2.4829    5.2599   -0.1444 Q=   -0.0198 A=    0.0000 R=    0.0000 C=    0.0000
 XYZ=   -2.6925    5.0508    0.7659 Q=    0.0099 A=    0.0000 R=    0.0000 C=    0.0000
 XYZ=    3.3691    0.4075    2.9384 Q=   -0.0198 A=    0.0000 R=    0.0000 C=    0.0000
 XYZ=    2.9255    3.7761    0.4146 Q=   -0.0198 A=    0.0000 R=    0.0000 C=    0.0000
 XYZ=    2.8863    2.8415    0.6174 Q=    0.0099 A=    0.0000 R=    0.0000 C=    0.0000
 XYZ=    1.7258    5.3848    1.1124 Q=    0.0099 A=    0.0000 R=    0.0000 C=    0.0000
 XYZ=    2.4187    4.6131   -1.1235 Q=    0.0099 A=    0.0000 R=    0.0000 C=    0.0000
 XYZ=   -2.6281   -2.8050   -3.4525 Q=   -0.0198 A=    0.0000 R=    0.0000 C=    0.0000
 XYZ=   -2.8407   -3.7082   -3.2175 Q=    0.0099 A=    0.0000 R=    0.0000 C=    0.0000
 XYZ=   -0.1660   -2.9451   -1.8617 Q=   -0.0198 A=    0.0000 R=    0.0000 C=    0.0000
 XYZ=   -0.5571   -3.5630   -1.2440 Q=    0.0099 A=    0.0000 R=    0.0000 C=    0.0000
 XYZ=    0.2933   -3.4973   -2.4944 Q=    0.0099 A=    0.0000 R=    0.0000 C=    0.0000
 XYZ=    4.9193   -3.5164   -2.3268 Q=    0.0099 A=    0.0000 R=    0.0000 C=    0.0000
 XYZ=   -0.6842    1.9389   -4.2079 Q=   -0.0198 A=    0.0000 R=    0.0000 C=    0.0000
 XYZ=    0.9507   -1.0072    2.8742 Q=   -0.0198 A=    0.0000 R=    0.0000 C=    0.0000
 XYZ=    0.0970   -0.8125    2.4876 Q=    0.0099 A=    0.0000 R=    0.0000 C=    0.0000
 XYZ=   -2.5545   -3.5424    2.3474 Q=   -0.0198 A=    0.0000 R=    0.0000 C=    0.0000
 XYZ=   -3.0614   -4.0300    1.6982 Q=    0.0099 A=    0.0000 R=    0.0000 C=    0.0000
 XYZ=   -2.7758    0.9285   -2.8382 Q=   -0.0198 A=    0.0000 R=    0.0000 C=    0.0000
 XYZ=   -2.0116    1.1435   -3.3730 Q=    0.0099 A=    0.0000 R=    0.0000 C=    0.0000
 XYZ=   -2.0356   -2.5106   -2.7607 Q=    0.0099 A=    0.0000 R=    0.0000 C=    0.0000
 XYZ=   -2.2913   -0.6962    3.1837 Q=    0.0099 A=    0.0000 R=    0.0000 C=    0.0000
 XYZ=   -5.6888    0.3591   -2.0772 Q=   -0.0198 A=    0.0000 R=    0.0000 C=    0.0000
 XYZ=   -4.9228   -0.0452   -2.4846 Q=    0.0099 A=    0.0000 R=    0.0000 C=    0.0000
 XYZ=    0.2846   -3.6192    1.7234 Q=   -0.0198 A=    0.0000 R=    0.0000 C=    0.0000
 XYZ=    0.7319   -2.7764    1.7994 Q=    0.0099 A=    0.0000 R=    0.0000 C=    0.0000
 XYZ=    3.6935   -4.8068    1.0615 Q=    0.0099 A=    0.0000 R=    0.0000 C=    0.0000
 XYZ=    3.3549    0.4368    1.9818 Q=    0.0099 A=    0.0000 R=    0.0000 C=    0.0000
 XYZ=    2.5519   -0.0301    3.1768 Q=    0.0099 A=    0.0000 R=    0.0000 C=    0.0000
 XYZ=    5.1243   -0.1509   -1.9609 Q=    0.0099 A=    0.0000 R=    0.0000 C=    0.0000
 XYZ=    5.1337    0.1189    1.4768 Q=    0.0099 A=    0.0000 R=    0.0000 C=    0.0000
 XYZ=   -0.7595    2.9903   -3.7420 Q=    0.0099 A=    0.0000 R=    0.0000 C=    0.0000
 XYZ=   -3.0846    3.9809   -1.3422 Q=    0.0099 A=    0.0000 R=    0.0000 C=    0.0000
 XYZ=   -3.3634    1.8592   -2.9197 Q=    0.0099 A=    0.0000 R=    0.0000 C=    0.0000
 XYZ=   -5.7601    1.1079   -1.2944 Q=    0.0099 A=    0.0000 R=    0.0000 C=    0.0000
 XYZ=   -2.2379    5.4391   -0.4188 Q=   -0.0198 A=    0.0000 R=    0.0000 C=    0.0000
 XYZ=   -2.5672    5.1108    0.4179 Q=    0.0099 A=    0.0000 R=    0.0000 C=    0.0000
 XYZ=    0.4139    5.6700   -1.1160 Q=   -0.0198 A=    0.0000 R=    0.0000 C=    0.0000
 XYZ=   -0.3959    5.7252   -0.6088 Q=    0.0099 A=    0.0000 R=    0.0000 C=    0.0000
 XYZ=    2.9632    3.5719    0.8711 Q=   -0.0198 A=    0.0000 R=    0.0000 C=    0.0000
 XYZ=    2.7951    2.7196    0.4691 Q=    0.0099 A=    0.0000 R=    0.0000 C=    0.0000
 XYZ=   -0.4114   -3.1946   -1.5039 Q=   -0.0198 A=    0.0000 R=    0.0000 C=    0.0000
 XYZ=   -0.8161   -3.5995   -0.7367 Q=    0.0099 A=    0.0000 R=    0.0000 C=    0.0000
 XYZ=    0.1134   -3.8932   -1.8946 Q=    0.0099 A=    0.0000 R=    0.0000 C=    0.0000
 XYZ=   -0.6799    2.0418   -3.8438 Q=   -0.0198 A=    0.0000 R=    0.0000 C=    0.0000
 XYZ=    0.1849    1.9146   -4.2341 Q=    0.0099 A=    0.0000 R=    0.0000 C=    0.0000
 XYZ=    0.5392   -0.7631    3.4962 Q=   -0.0198 A=    0.0000 R=    0.0000 C=    0.0000
 XYZ=   -0.0057   -0.3414    2.8318 Q=    0.0099 A=    0.0000 R=    0.0000 C=    0.0000
 XYZ=   -3.3640   -3.7410    2.8501 Q=   -0.0198 A=    0.0000 R=    0.0000 C=    0.0000
 XYZ=   -3.6355   -4.3044    2.1254 Q=    0.0099 A=    0.0000 R=    0.0000 C=    0.0000
 XYZ=   -3.0895    1.1642   -3.5182 Q=   -0.0198 A=    0.0000 R=    0.0000 C=    0.0000
 XYZ=   -2.1904    1.3923   -3.7545 Q=    0.0099 A=    0.0000 R=    0.0000 C=    0.0000
 XYZ=   -1.7128   -3.0843   -3.0202 Q=    0.0099 A=    0.0000 R=    0.0000 C=    0.0000
 XYZ=   -2.5049   -0.9182    3.7889 Q=   -0.0198 A=    0.0000 R=    0.0000 C=    0.0000
 XYZ=   -2.8685   -1.0252    2.9099 Q=    0.0099 A=    0.0000 R=    0.0000 C=    0.0000
 XYZ=   -5.7975    0.6597   -2.1394 Q=   -0.0198 A=    0.0000 R=    0.0000 C=    0.0000
 XYZ=   -4.8987    0.3709   -2.2973 Q=    0.0099 A=    0.0000 R=    0.0000 C=    0.0000
 XYZ=    0.9121   -4.0617    2.1992 Q=    0.0099 A=    0.0000 R=    0.0000 C=    0.0000
 XYZ=    3.3127   -4.9071    1.3919 Q=    0.0099 A=    0.0000 R=    0.0000 C=    0.0000
 XYZ=    2.4590    1.8925   -3.5490 Q=   -0.0198 A=    0.0000 R=    0.0000 C=    0.0000
 XYZ=    3.0691    1.6466   -2.8536 Q=    0.0099 A=    0.0000 R=    0.0000 C=    0.0000
 XYZ=    3.0730   -0.0359    2.7063 Q=   -0.0198 A=    0.0000 R=    0.0000 C=    0.0000
 XYZ=    3.0389    0.4090    1.8595 Q=    0.0099 A=    0.0000 R=    0.0000 C=    0.0000
 XYZ=    2.1574   -0.1085    2.9757 Q=    0.0099 A=    0.0000 R=    0.0000 C=    0.0000
 XYZ=    4.5534    0.3681   -2.0313 Q=   -0.0198 A=    0.0000 R=    0.0000 C=    0.0000
 XYZ=    5.0406    0.4286   -1.2095 Q=    0.0099 A=    0.0000 R=    0.0000 C=    0.0000
 XYZ=    4.0415   -0.4364   -1.9475 Q=    0.0099 A=    0.0000 R=    0.0000 C=    0.0000
 XYZ=    4.8320    0.0441    0.9554 Q=    0.0099 A=    0.0000 R=    0.0000 C=    0.0000
 XYZ=   -2.9129    3.3661   -1.9108 Q=   -0.0198 A=    0.0000 R=    0.0000 C=    0.0000
 XYZ=   -2.3082    3.8584   -1.3557 Q=    0.0099 A=    0.0000 R=    0.0000 C=    0.0000
 XYZ=   -2.8881    1.6688   -2.5701 Q=    0.0099 A=    0.0000 R=    0.0000 C=    0.0000
 XYZ=   -5.9315    0.6694    1.3413 Q=    0.0099 A=    0.0000 R=    0.0000 C=    0.0000
 XYZ=   -1.8719    4.8460    0.6436 Q=    0.0099 A=    0.0000 R=    0.0000 C=    0.0000
 XYZ=    0.5138    5.2528   -1.5060 Q=   -0.0198 A=    0.0000 R=    0.0000 C=    0.0000
 XYZ=   -0.1969    5.1651   -0.8708 Q=    0.0099 A=    0.0000 R=    0.0000 C=    0.0000
 XYZ=    2.0434    2.7597   -3.6506 Q=    0.0099 A=    0.0000 R=    0.0000 C=    0.0000
 XYZ=    3.1820    0.2205    3.1993 Q=   -0.0198 A=    0.0000 R=    0.0000 C=    0.0000
 XYZ=    3.3191    3.3924    1.1436 Q=   -0.0198 A=    0.0000 R=    0.0000 C=    0.0000
 XYZ=    3.4646    3.8006    0.2901 Q=    0.0099 A=    0.0000 R=    0.0000 C=    0.0000
 XYZ=    2.7610    2.6377    0.9561 Q=    0.0099 A=    0.0000 R=    0.0000 C=    0.0000
 XYZ=   -1.2947    4.3764    2.7799 Q=    0.0099 A=    0.0000 R=    0.0000 C=    0.0000
 XYZ=   -1.5876    5.4382   -0.0527 Q=   -0.0198 A=    0.0000 R=    0.0000 C=    0.0000
 XYZ=   -3.9769   -0.7379   -3.7158 Q=    0.0099 A=    0.0000 R=    0.0000 C=    0.0000
 XYZ=   -0.6678   -2.8302   -1.4638 Q=   -0.0198 A=    0.0000 R=    0.0000 C=    0.0000
 XYZ=   -0.6796   -3.5915   -0.8837 Q=    0.0099 A=    0.0000 R=    0.0000 C=    0.0000
 XYZ=   -0.1944   -3.1282   -2.2405 Q=    0.0099 A=    0.0000 R=    0.0000 C=    0.0000
 XYZ=    0.0395    1.6993   -4.0695 Q=    0.0099 A=    0.0000 R=    0.0000 C=    0.0000
 XYZ=    0.6028   -1.2644    3.2603 Q=   -0.0198 A=    0.0000 R=    0.0000 C=    0.0000
 XYZ=   -0.2460   -1.1334    2.8375 Q=    0.0099 A=    0.0000 R=    0.0000 C=    0.0000
 XYZ=    0.8588   -2.1530    3.0132 Q=    0.0099 A=    0.0000 R=    0.0000 C=    0.0000
 XYZ=   -2.8344    0.8804   -3.1102 Q=   -0.0198 A=    0.0000 R=    0.0000 C=    0.0000
 XYZ=   -2.2464    1.1203   -3.8264 Q=    0.0099 A=    0.0000 R=    0.0000 C=    0.0000
 XYZ=   -1.9999   -3.4695   -3.3388 Q=    0.0099 A=    0.0000 R=    0.0000 C=    0.0000
 XYZ=   -2.6447   -1.6320    3.4671 Q=    0.0099 A=    0.0000 R=    0.0000 C=    0.0000
 XYZ=    4.4219   -4.1456   -0.1516 Q=   -0.0198 A=    0.0000 R=    0.0000 C=    0.0000
 XYZ=    4.4207   -4.2872   -1.0982 Q=    0.0099 A=    0.0000 R=    0.0000 C=    0.0000
 XYZ=    0.4230   -3.7922    2.3307 Q=   -0.0198 A=    0.0000 R=    0.0000 C=    0.0000
 XYZ=    1.3660   -3.9288    2.2391 Q=    0.0099 A=    0.0000 R=    0.0000 C=    0.0000
 XYZ=    3.3963   -4.5864    1.4432 Q=    0.0099 A=    0.0000 R=    0.0000 C=    0.0000
 XYZ=    1.9084    1.8174   -3.5501 Q=   -0.0198 A=    0.0000 R=    0.0000 C=    0.0000
 XYZ=    2.7483    1.4878   -3.2305 Q=    0.0099 A=    0.0000 R=    0.0000 C=    0.0000
 XYZ=    2.4185   -0.0140    2.6717 Q=    0.0099 A=    0.0000 R=    0.0000 C=    0.0000
 XYZ=    4.2781    0.6710   -1.1610 Q=    0.0099 A=    0.0000 R=    0.0000 C=    0.0000
 XYZ=    4.8978   -0.0601   -2.3324 Q=    0.0099 A=    0.0000 R=    0.0000 C=    0.0000
 XYZ=    4.7497   -0.1912    1.0510 Q=    0.0099 A=    0.0000 R=    0.0000 C=    0.0000
 XYZ=   -2.8955    3.4907   -2.2451 Q=   -0.0198 A=    0.0000 R=    0.0000 C=    0.0000
 XYZ=   -2.3548    3.9251   -1.5854 Q=    0.0099 A=    0.0000 R=    0.0000 C=    0.0000
 XYZ=   -2.7894    1.7233   -2.9714 Q=    0.0099 A=    0.0000 R=    0.0000 C=    0.0000
 XYZ=   -4.3694    1.6962    0.3333 Q=   -0.0198 A=    0.0000 R=    0.0000 C=    0.0000
 XYZ=   -4.1521    2.3760   -0.3046 Q=    0.0099 A=    0.0000 R=    0.0000 C=    0.0000
 XYZ=   -6.0614   -0.2854    1.6138 Q=    0.0099 A=    0.0000 R=    0.0000 C=    0.0000
 XYZ=   -5.9826    1.2360   -0.7998 Q=    0.0099 A=    0.0000 R=    0.0000 C=    0.0000
 XYZ=    0.0018    5.2734   -1.5421 Q=    0.0099 A=    0.0000 R=    0.0000 C=    0.0000
 XYZ=    3.2754    0.9614    2.5177 Q=    0.0099 A=    0.0000 R=    0.0000 C=    0.0000
 XYZ=    3.6888    3.1524    1.3590 Q=   -0.0198 A=    0.0000 R=    0.0000 C=    0.0000
 XYZ=    2.9886    2.6733    0.9159 Q=    0.0099 A=    0.0000 R=    0.0000 C=    0.0000
 XYZ=   -0.1413    3.8904    3.2237 Q=   -0.0198 A=    0.0000 R=    0.0000 C=    0.0000
 XYZ=    0.6543    3.8186    2.6964 Q=    0.0099 A=    0.0000 R=    0.0000 C=    0.0000
 XYZ=    4.7776    1.5178    0.7551 Q=    0.0099 A=    0.0000 R=    0.0000 C=    0.0000
 XYZ=   -1.5581    4.5478    2.4576 Q=    0.0099 A=    0.0000 R=    0.0000 C=    0.0000
 XYZ=   -1.4382    5.4423   -0.5908 Q=   -0.0198 A=    0.0000 R=    0.0000 C=    0.0000
 XYZ=   -1.6057    5.2936    0.3399 Q=    0.0099 A=    0.0000 R=    0.0000 C=    0.0000
 XYZ=   -3.0616   -3.7233   -3.3333 Q=    0.0099 A=    0.0000 R=    0.0000 C=    0.0000
 XYZ=   -0.6618   -2.7999   -2.2765 Q=   -0.0198 A=    0.0000 R=    0.0000 C=    0.0000
 XYZ=   -0.7032   -3.2217   -1.4182 Q=    0.0099 A=    0.0000 R=    0.0000 C=    0.0000
 XYZ=    0.0578   -3.2425   -2.7264 Q=    0.0099 A=    0.0000 R=    0.0000 C=    0.0000
 XYZ=   -2.9270   -4.2681   -1.0407 Q=    0.0099 A=    0.0000 R=    0.0000 C=    0.0000
 XYZ=    0.8807   -1.5516    2.7385 Q=   -0.0198 A=    0.0000 R=    0.0000 C=    0.0000
 XYZ=    0.0945   -1.4969    2.1952 Q=    0.0099 A=    0.0000 R=    0.0000 C=    0.0000
 XYZ=    1.1776   -2.4562    2.6398 Q=    0.0099 A=    0.0000 R=    0.0000 C=    0.0000
 XYZ=   -2.7978    0.9217   -3.4946 Q=   -0.0198 A=    0.0000 R=    0.0000 C=    0.0000
 XYZ=   -2.0899    1.0415   -4.1277 Q=    0.0099 A=    0.0000 R=    0.0000 C=    0.0000
 XYZ=   -1.9874   -1.0610    3.3819 Q=    0.0099 A=    0.0000 R=    0.0000 C=    0.0000
 XYZ=   -0.6288   -3.8102    0.9448 Q=    0.0099 A=    0.0000 R=    0.0000 C=    0.0000
 XYZ=    2.0912    1.2208   -3.6934 Q=   -0.0198 A=    0.0000 R=    0.0000 C=    0.0000
 XYZ=    2.7481    1.0319   -3.0234 Q=    0.0099 A=    0.0000 R=    0.0000 C=    0.0000
 XYZ=    3.2903    0.1051    2.9452 Q=   -0.0198 A=    0.0000 R=    0.0000 C=    0.0000
 XYZ=    2.3715   -0.1611    2.9803 Q=    0.0099 A=    0.0000 R=    0.0000 C=    0.0000
 XYZ=    4.2613    0.5378   -1.8099 Q=   -0.0198 A=    0.0000 R=    0.0000 C=    0.0000
 XYZ=    4.4269    0.5860   -0.8684 Q=    0.0099 A=    0.0000 R=    0.0000 C=    0.0000
 XYZ=    4.9885    0.0812    1.1824 Q=    0.0099 A=    0.0000 R=    0.0000 C=    0.0000
 XYZ=   -3.2386    3.4842   -2.1617 Q=   -0.0198 A=    0.0000 R=    0.0000 C=    0.0000
 XYZ=   -2.3953    3.9189   -2.0346 Q=    0.0099 A=    0.0000 R=    0.0000 C=    0.0000
 XYZ=   -3.1673    1.8152   -2.7556 Q=    0.0099 A=    0.0000 R=    0.0000 C=    0.0000
 XYZ=   -4.4414    2.2465    0.1751 Q=   -0.0198 A=    0.0000 R=    0.0000 C=    0.0000
 XYZ=   -4.1331    2.8930   -0.4598 Q=    0.0099 A=    0.0000 R=    0.0000 C=    0.0000
 XYZ=   -2.3527   -0.7433    4.0492 Q=   -0.0198 A=    0.0000 R=    0.0000 C=    0.0000
 XYZ=   -5.4865    1.4694   -1.3083 Q=    0.0099 A=    0.0000 R=    0.0000 C=    0.0000
 XYZ=    0.2487    5.3260   -1.4614 Q=    0.0099 A=    0.0000 R=    0.0000 C=    0.0000
 XYZ=    3.8644    3.1708    1.1965 Q=   -0.0198 A=    0.0000 R=    0.0000 C=    0.0000
 XYZ=    3.0015    2.9491    0.8466 Q=    0.0099 A=    0.0000 R=    0.0000 C=    0.0000
 XYZ=   -1.5757    5.1649   -1.0696 Q=   -0.0198 A=    0.0000 R=    0.0000 C=    0.0000
 XYZ=   -1.7474    5.0832   -0.1315 Q=    0.0099 A=    0.0000 R=    0.0000 C=    0.0000
 XYZ=   -2.9593   -2.2428   -3.8425 Q=   -0.0198 A=    0.0000 R=    0.0000 C=    0.0000
 XYZ=   -2.9563   -2.9603   -3.2089 Q=    0.0099 A=    0.0000 R=    0.0000 C=    0.0000
 XYZ=   -0.3191   -2.4676   -2.3771 Q=   -0.0198 A=    0.0000 R=    0.0000 C=    0.0000
 XYZ=   -0.5222   -2.7940   -1.5005 Q=    0.0099 A=    0.0000 R=    0.0000 C=    0.0000
 XYZ=    0.5500   -2.8203   -2.5685 Q=    0.0099 A=    0.0000 R=    0.0000 C=    0.0000
 XYZ=    2.1678   -0.6010    2.9990 Q=    0.0099 A=    0.0000 R=    0.0000 C=    0.0000
 XYZ=   -3.5846   -3.8987   -1.6805 Q=   -0.0198 A=    0.0000 R=    0.0000 C=    0.0000
 XYZ=   -4.1691   -3.7835   -0.9313 Q=    0.0099 A=    0.0000 R=    0.0000 C=    0.0000
 XYZ=   -2.7997   -4.3038   -1.3117 Q=    0.0099 A=    0.0000 R=    0.0000 C=    0.0000
 XYZ=    0.5005   -1.4567    2.8564 Q=   -0.0198 A=    0.0000 R=    0.0000 C=    0.0000
 XYZ=   -0.1835   -0.9851    2.3810 Q=    0.0099 A=    0.0000 R=    0.0000 C=    0.0000
 XYZ=    0.2525   -2.3781    2.7814 Q=    0.0099 A=    0.0000 R=    0.0000 C=    0.0000
 XYZ=   -2.8974    0.9673   -3.1084 Q=   -0.0198 A=    0.0000 R=    0.0000 C=    0.0000
 XYZ=   -2.2426    1.1818   -3.7729 Q=    0.0099 A=    0.0000 R=    0.0000 C=    0.0000
 XYZ=   -2.1016   -1.8301   -3.7410 Q=    0.0099 A=    0.0000 R=    0.0000 C=    0.0000
 XYZ=   -2.1261   -1.0899    3.1862 Q=    0.0099 A=    0.0000 R=    0.0000 C=    0.0000
 XYZ=   -0.9780   -3.6248    0.6650 Q=    0.0099 A=    0.0000 R=    0.0000 C=    0.0000
 XYZ=    4.6818   -2.6938   -2.5197 Q=    0.0099 A=    0.0000 R=    0.0000 C=    0.0000
 XYZ=    1.9296    0.8947   -3.5303 Q=   -0.0198 A=    0.0000 R=    0.0000 C=    0.0000
 XYZ=    2.6898    0.5913   -3.0340 Q=    0.0099 A=    0.0000 R=    0.0000 C=    0.0000
 XYZ=    2.0287    1.8462   -3.5623 Q=    0.0099 A=    0.0000 R=    0.0000 C=    0.0000
 XYZ=    3.0316   -0.2010    2.8985 Q=   -0.0198 A=    0.0000 R=    0.0000 C=    0.0000
 XYZ=    2.9957    0.2358    2.0475 Q=    0.0099 A=    0.0000 R=    0.0000 C=    0.0000
 XYZ=    4.4750    0.0419   -2.1147 Q=   -0.0198 A=    0.0000 R=    0.0000 C=    0.0000
 XYZ=    4.4487    0.2217   -1.1749 Q=    0.0099 A=    0.0000 R=    0.0000 C=    0.0000
 XYZ=    4.8481    1.2666    0.5383 Q=    0.0099 A=    0.0000 R=    0.0000 C=    0.0000
 XYZ=    5.0727   -0.0351    1.2773 Q=    0.0099 A=    0.0000 R=    0.0000 C=    0.0000
 XYZ=    0.4325    3.8154    3.4735 Q=    0.0099 A=    0.0000 R=    0.0000 C=    0.0000
 XYZ=   -0.5954    3.1887   -3.1742 Q=   -0.0198 A=    0.0000 R=    0.0000 C=    0.0000
 XYZ=   -3.3416    2.2425   -2.8248 Q=    0.0099 A=    0.0000 R=    0.0000 C=    0.0000
 XYZ=   -3.8839    2.1183   -0.6374 Q=    0.0099 A=    0.0000 R=    0.0000 C=    0.0000
 XYZ=   -0.1474    1.7185    4.0236 Q=    0.0099 A=    0.0000 R=    0.0000 C=    0.0000
 XYZ=   -2.6831   -0.4277    3.7081 Q=   -0.0198 A=    0.0000 R=    0.0000 C=    0.0000
 XYZ=   -2.3150   -0.3607    2.8271 Q=    0.0099 A=    0.0000 R=    0.0000 C=    0.0000
 XYZ=   -5.4921    1.2654   -1.4401 Q=    0.0099 A=    0.0000 R=    0.0000 C=    0.0000
 XYZ=    0.0189    3.6583   -2.6099 Q=    0.0099 A=    0.0000 R=    0.0000 C=    0.0000
 XYZ=    0.6039    5.5728   -1.5851 Q=    0.0099 A=    0.0000 R=    0.0000 C=    0.0000
 XYZ=    2.8023    0.3371    2.9780 Q=   -0.0198 A=    0.0000 R=    0.0000 C=    0.0000
 XYZ=    2.7257    0.6167    2.0658 Q=    0.0099 A=    0.0000 R=    0.0000 C=    0.0000
 XYZ=    3.7799    2.9938    1.3252 Q=   -0.0198 A=    0.0000 R=    0.0000 C=    0.0000
 XYZ=    3.1659    2.3308    1.0093 Q=    0.0099 A=    0.0000 R=    0.0000 C=    0.0000
 XYZ=   -0.4530    4.0721    3.2161 Q=   -0.0198 A=    0.0000 R=    0.0000 C=    0.0000
 XYZ=   -1.6236    5.3381   -1.1019 Q=   -0.0198 A=    0.0000 R=    0.0000 C=    0.0000
 XYZ=   -1.9899    5.5151   -0.2355 Q=    0.0099 A=    0.0000 R=    0.0000 C=    0.0000
 XYZ=   -2.8039   -2.7437   -3.7528 Q=   -0.0198 A=    0.0000 R=    0.0000 C=    0.0000
 XYZ=    1.1764   -5.4911   -0.0094 Q=    0.0099 A=    0.0000 R=    0.0000 C=    0.0000
 XYZ=   -0.3126   -2.4865   -2.4502 Q=   -0.0198 A=    0.0000 R=    0.0000 C=    0.0000
 XYZ=   -0.8216   -3.0333   -1.8518 Q=    0.0099 A=    0.0000 R=    0.0000 C=    0.0000
 XYZ=    0.5128   -2.9582   -2.5622 Q=    0.0099 A=    0.0000 R=    0.0000 C=    0.0000
 XYZ=    4.5226   -3.3945   -2.7702 Q=   -0.0198 A=    0.0000 R=    0.0000 C=    0.0000
 XYZ=   -2.6427   -4.5257   -1.2559 Q=    0.0099 A=    0.0000 R=    0.0000 C=    0.0000
 XYZ=    0.4638   -1.0335    3.2958 Q=   -0.0198 A=    0.0000 R=    0.0000 C=    0.0000
 XYZ=   -0.2110   -0.6395    2.7428 Q=    0.0099 A=    0.0000 R=    0.0000 C=    0.0000
 XYZ=    0.5086   -1.9448    3.0064 Q=    0.0099 A=    0.0000 R=    0.0000 C=    0.0000
 XYZ=   -5.0301   -3.4825    2.0390 Q=    0.0099 A=    0.0000 R=    0.0000 C=    0.0000
 XYZ=   -2.9403    1.3747   -2.8697 Q=   -0.0198 A=    0.0000 R=    0.0000 C=    0.0000
 XYZ=   -2.0282    1.5444   -3.1049 Q=    0.0099 A=    0.0000 R=    0.0000 C=    0.0000
 XYZ=   -2.9879   -3.1169   -2.8908 Q=    0.0099 A=    0.0000 R=    0.0000 C=    0.0000
 XYZ=   -1.8876   -2.4710   -3.7052 Q=    0.0099 A=    0.0000 R=    0.0000 C=    0.0000
 XYZ=   -2.3937   -1.2836    4.0242 Q=    0.0099 A=    0.0000 R=    0.0000 C=    0.0000
 XYZ=    4.2915   -4.4689   -0.2384 Q=   -0.0198 A=    0.0000 R=    0.0000 C=    0.0000
 XYZ=    4.3778   -3.9006   -1.0038 Q=    0.0099 A=    0.0000 R=    0.0000 C=    0.0000
 XYZ=   -0.3698   -4.0907    0.2562 Q=    0.0099 A=    0.0000 R=    0.0000 C=    0.0000
 XYZ=    0.5414   -4.3294    2.0574 Q=    0.0099 A=    0.0000 R=    0.0000 C=    0.0000
 XYZ=    5.2069   -2.7830   -2.4979 Q=    0.0099 A=    0.0000 R=    0.0000 C=    0.0000
 XYZ=    2.1145    1.1806   -3.8504 Q=   -0.0198 A=    0.0000 R=    0.0000 C=    0.0000
 XYZ=    2.2308    2.1253   -3.7492 Q=    0.0099 A=    0.0000 R=    0.0000 C=    0.0000
 XYZ=    1.9771   -0.1122    3.1609 Q=    0.0099 A=    0.0000 R=    0.0000 C=    0.0000
 XYZ=    4.7637    0.3051    0.3472 Q=    0.0099 A=    0.0000 R=    0.0000 C=    0.0000
 XYZ=   -0.2871    3.3474   -3.4797 Q=   -0.0198 A=    0.0000 R=    0.0000 C=    0.0000
 XYZ=   -3.0037    3.0021    1.6960 Q=   -0.0198 A=    0.0000 R=    0.0000 C=    0.0000
 XYZ=   -2.6392    2.7633    2.5483 Q=    0.0099 A=    0.0000 R=    0.0000 C=    0.0000
 XYZ=   -2.6204    3.8576    1.5028 Q=    0.0099 A=    0.0000 R=    0.0000 C=    0.0000
 XYZ=   -2.9302    1.9691   -3.2726 Q=    0.0099 A=    0.0000 R=    0.0000 C=    0.0000
 XYZ=   -4.4746    2.2165   -0.6792 Q=   -0.0198 A=    0.0000 R=    0.0000 C=    0.0000
 XYZ=   -4.1572    2.3515    0.2137 Q=    0.0099 A=    0.0000 R=    0.0000 C=    0.0000
 XYZ=   -5.8612    1.5140   -0.2892 Q=    0.0099 A=    0.0000 R=    0.0000 C=    0.0000
 XYZ=   -2.8646   -0.0509    3.5921 Q=   -0.0198 A=    0.0000 R=    0.0000 C=    0.0000
 XYZ=   -2.1696   -0.0403    2.9340 Q=    0.0099 A=    0.0000 R=    0.0000 C=    0.0000
 XYZ=    0.2233    3.5407   -2.6934 Q=    0.0099 A=    0.0000 R=    0.0000 C=    0.0000
 XYZ=    1.4486    5.1627   -1.5801 Q=   -0.0198 A=    0.0000 R=    0.0000 C=    0.0000
 XYZ=    0.5408    5.2632   -1.2938 Q=    0.0099 A=    0.0000 R=    0.0000 C=    0.0000
 XYZ=    2.1710    0.8348    3.3386 Q=   -0.0198 A=    0.0000 R=    0.0000 C=    0.0000
 XYZ=    4.2855    2.6150    1.0163 Q=   -0.0198 A=    0.0000 R=    0.0000 C=    0.0000
 XYZ=    3.9187    2.9580    1.8312 Q=    0.0099 A=    0.0000 R=    0.0000 C=    0.0000
 XYZ=    3.5643    2.1307    0.6143 Q=    0.0099 A=    0.0000 R=    0.0000 C=    0.0000
 XYZ=   -0.9370    4.8020    2.4322 Q=    0.0099 A=    0.0000 R=    0.0000 C=    0.0000
 XYZ=   -1.7120    5.5555   -1.0248 Q=   -0.0198 A=    0.0000 R=    0.0000 C=    0.0000
 XYZ=   -1.8462    5.4249   -0.0861 Q=    0.0099 A=    0.0000 R=    0.0000 C=    0.0000
 XYZ=    1.0585   -5.5244   -0.2189 Q=    0.0099 A=    0.0000 R=    0.0000 C=    0.0000
 XYZ=   -0.4038   -2.4989   -2.3321 Q=   -0.0198 A=    0.0000 R=    0.0000 C=    0.0000
 XYZ=   -0.2621   -3.2178   -1.7162 Q=    0.0099 A=    0.0000 R=    0.0000 C=    0.0000
 XYZ=    0.0628   -2.7663   -3.1239 Q=    0.0099 A=    0.0000 R=    0.0000 C=    0.0000
 XYZ=    4.1304   -3.1466   -3.1151 Q=   -0.0198 A=    0.0000 R=    0.0000 C=    0.0000
 XYZ=   -0.2056    1.7726   -4.3340 Q=    0.0099 A=    0.0000 R=    0.0000 C=    0.0000
 XYZ=   -3.0605   -4.2066   -1.8617 Q=   -0.0198 A=    0.0000 R=    0.0000 C=    0.0000
 XYZ=   -2.3611   -3.7958   -1.3534 Q=    0.0099 A=    0.0000 R=    0.0000 C=    0.0000
 XYZ=    0.7096   -1.5635    3.1099 Q=   -0.0198 A=    0.0000 R=    0.0000 C=    0.0000
 XYZ=    0.0789   -1.3333    2.4276 Q=    0.0099 A=    0.0000 R=    0.0000 C=    0.0000
 XYZ=   -3.0412    1.0667   -2.9734 Q=   -0.0198 A=    0.0000 R=    0.0000 C=    0.0000
 XYZ=   -3.6850    1.1259   -2.2676 Q=    0.0099 A=    0.0000 R=    0.0000 C=    0.0000
 XYZ=   -2.2403   -2.0279   -3.6028 Q=    0.0099 A=    0.0000 R=    0.0000 C=    0.0000
 XYZ=   -0.5454   -3.9126    0.9234 Q=    0.0099 A=    0.0000 R=    0.0000 C=    0.0000
 XYZ=    1.6483   -4.6262   -2.1879 Q=   -0.0198 A=    0.0000 R=    0.0000 C=    0.0000
 XYZ=    2.4968   -4.5479   -1.7519 Q=    0.0099 A=    0.0000 R=    0.0000 C=    0.0000
 XYZ=    0.7441   -4.0626    2.3641 Q=   -0.0198 A=    0.0000 R=    0.0000 C=    0.0000
 XYZ=    1.5146   -4.5902    2.1538 Q=    0.0099 A=    0.0000 R=    0.0000 C=    0.0000
 XYZ=    3.2630   -4.7430    1.5708 Q=    0.0099 A=    0.0000 R=    0.0000 C=    0.0000
 XYZ=    5.7739   -1.8062   -1.4176 Q=   -0.0198 A=    0.0000 R=    0.0000 C=    0.0000
 XYZ=    5.5870   -1.1188   -0.7783 Q=    0.0099 A=    0.0000 R=    0.0000 C=    0.0000
 XYZ=    4.4505   -2.7075   -2.3271 Q=    0.0099 A=    0.0000 R=    0.0000 C=    0.0000
 XYZ=    2.4134    1.7376   -3.6595 Q=    0.0099 A=    0.0000 R=    0.0000 C=    0.0000
 XYZ=    1.8816    0.0457    2.8804 Q=    0.0099 A=    0.0000 R=    0.0000 C=    0.0000
 XYZ=    5.1553    1.1330    0.3634 Q=    0.0099 A=    0.0000 R=    0.0000 C=    0.0000
 XYZ=   -2.7854    4.6777   -1.8411 Q=    0.0099 A=    0.0000 R=    0.0000 C=    0.0000
 XYZ=   -2.6605    3.9410    1.8429 Q=    0.0099 A=    0.0000 R=    0.0000 C=    0.0000
 XYZ=   -2.7000    2.0430   -3.3908 Q=    0.0099 A=    0.0000 R=    0.0000 C=    0.0000
 XYZ=   -3.4577    1.5669   -2.1700 Q=    0.0099 A=    0.0000 R=    0.0000 C=    0.0000
 XYZ=   -4.1328    2.0938   -0.4722 Q=   -0.0198 A=    0.0000 R=    0.0000 C=    0.0000
 XYZ=   -5.7125    1.4608   -0.0985 Q=    0.0099 A=    0.0000 R=    0.0000 C=    0.0000
 XYZ=   -2.7245    0.3117    3.5947 Q=   -0.0198 A=    0.0000 R=    0.0000 C=    0.0000
 XYZ=   -2.1219    0.3217    2.8510 Q=    0.0099 A=    0.0000 R=    0.0000 C=    0.0000
 XYZ=   -2.9989   -0.6023    3.6684 Q=    0.0099 A=    0.0000 R=    0.0000 C=    0.0000
 XYZ=   -0.5572    3.9760   -2.6994 Q=    0.0099 A=    0.0000 R=    0.0000 C=    0.0000
 XYZ=    1.1382    5.1735   -1.6135 Q=   -0.0198 A=    0.0000 R=    0.0000 C=    0.0000
 XYZ=    4.3484    2.3790    1.2476 Q=   -0.0198 A=    0.0000 R=    0.0000 C=    0.0000
 XYZ=    3.6679    1.7169    1.1259 Q=    0.0099 A=    0.0000 R=    0.0000 C=    0.0000
 XYZ=   -0.7024    4.8658    2.3098 Q=    0.0099 A=    0.0000 R=    0.0000 C=    0.0000
 XYZ=   -1.3648    5.5819   -0.9648 Q=   -0.0198 A=    0.0000 R=    0.0000 C=    0.0000
 XYZ=   -1.4590    5.5321   -0.0136 Q=    0.0099 A=    0.0000 R=    0.0000 C=    0.0000
 XYZ=   -2.8545   -2.6134   -3.6223 Q=    0.0099 A=    0.0000 R=    0.0000 C=    0.0000
 XYZ=   -0.0105   -2.2866   -2.5456 Q=   -0.0198 A=    0.0000 R=    0.0000 C=    0.0000
 XYZ=    0.1418   -3.1484   -2.1579 Q=    0.0099 A=    0.0000 R=    0.0000 C=    0.0000
 XYZ=    0.8592   -1.9847   -2.8076 Q=    0.0099 A=    0.0000 R=    0.0000 C=    0.0000
 XYZ=    3.1945   -2.6121   -3.1042 Q=   -0.0198 A=    0.0000 R=    0.0000 C=    0.0000
 XYZ=    3.8600   -1.9717   -3.3557 Q=    0.0099 A=    0.0000 R=    0.0000 C=    0.0000
 XYZ=   -0.4679    1.8582   -4.3414 Q=    0.0099 A=    0.0000 R=    0.0000 C=    0.0000
 XYZ=   -3.4484   -4.1361   -1.6874 Q=   -0.0198 A=    0.0000 R=    0.0000 C=    0.0000
 XYZ=   -2.5224   -3.9721   -1.5089 Q=    0.0099 A=    0.0000 R=    0.0000 C=    0.0000
 XYZ=    0.4530   -1.3401    3.2695 Q=   -0.0198 A=    0.0000 R=    0.0000 C=    0.0000
 XYZ=    0.0238   -0.8371    2.5774 Q=    0.0099 A=    0.0000 R=    0.0000 C=    0.0000
 XYZ=    0.4070   -2.2479    2.9695 Q=    0.0099 A=    0.0000 R=    0.0000 C=    0.0000
 XYZ=   -1.7565   -2.5860    3.2029 Q=    0.0099 A=    0.0000 R=    0.0000 C=    0.0000
 XYZ=   -3.2716    1.3403   -3.0812 Q=   -0.0198 A=    0.0000 R=    0.0000 C=    0.0000
 XYZ=    4.1712   -4.7138    0.1095 Q=   -0.0198 A=    0.0000 R=    0.0000 C=    0.0000
 XYZ=    4.2554   -3.8102    0.4136 Q=    0.0099 A=    0.0000 R=    0.0000 C=    0.0000
 XYZ=   -0.4273   -4.2604    0.4718 Q=    0.0099 A=    0.0000 R=    0.0000 C=    0.0000
 XYZ=    1.5855   -4.9313   -1.6375 Q=   -0.0198 A=    0.0000 R=    0.0000 C=    0.0000
 XYZ=    1.3127   -5.3606   -0.8267 Q=    0.0099 A=    0.0000 R=    0.0000 C=    0.0000
 XYZ=    2.4647   -4.6022   -1.4502 Q=    0.0099 A=    0.0000 R=    0.0000 C=    0.0000
 XYZ=    5.6902   -1.6078   -1.2475 Q=    0.0099 A=    0.0000 R=    0.0000 C=    0.0000
 XYZ=    5.2231    0.5345    0.4857 Q=    0.0099 A=    0.0000 R=    0.0000 C=    0.0000
 XYZ=   -1.0684    3.1874   -3.3004 Q=   -0.0198 A=    0.0000 R=    0.0000 C=    0.0000
 XYZ=   -0.4171    3.5072   -2.6762 Q=    0.0099 A=    0.0000 R=    0.0000 C=    0.0000
 XYZ=   -3.5766    1.3965   -2.3687 Q=    0.0099 A=    0.0000 R=    0.0000 C=    0.0000
 XYZ=   -4.0199    2.3557   -0.4808 Q=   -0.0198 A=    0.0000 R=    0.0000 C=    0.0000
 XYZ=   -3.4571    2.6227    0.2460 Q=    0.0099 A=    0.0000 R=    0.0000 C=    0.0000
 XYZ=   -3.9322    3.0600   -1.1230 Q=    0.0099 A=    0.0000 R=    0.0000 C=    0.0000
 XYZ=   -6.1598    0.9243    0.4107 Q=   -0.0198 A=    0.0000 R=    0.0000 C=    0.0000
 XYZ=   -5.4367    1.4663    0.0952 Q=    0.0099 A=    0.0000 R=    0.0000 C=    0.0000
 XYZ=   -2.7501    0.3613    3.5847 Q=   -0.0198 A=    0.0000 R=    0.0000 C=    0.0000
 XYZ=   -2.1318   -0.0513    2.9815 Q=    0.0099 A=    0.0000 R=    0.0000 C=    0.0000
 XYZ=    1.1138    5.3476   -1.3622 Q=   -0.0198 A=    0.0000 R=    0.0000 C=    0.0000
 XYZ=    0.2024    5.5732   -1.1759 Q=    0.0099 A=    0.0000 R=    0.0000 C=    0.0000
 XYZ=    4.7731    2.1027    1.4929 Q=   -0.0198 A=    0.0000 R=    0.0000 C=    0.0000
 XYZ=    3.9210    1.6751    1.4069 Q=    0.0099 A=    0.0000 R=    0.0000 C=    0.0000
 XYZ=   -1.7497    5.3346   -0.7147 Q=   -0.0198 A=    0.0000 R=    0.0000 C=    0.0000
 XYZ=   -1.3893    5.1796    0.1584 Q=    0.0099 A=    0.0000 R=    0.0000 C=    0.0000
 XYZ=   -0.0016   -2.2067   -3.1503 Q=   -0.0198 A=    0.0000 R=    0.0000 C=    0.0000
 XYZ=    0.0028   -2.9891   -2.5990 Q=    0.0099 A=    0.0000 R=    0.0000 C=    0.0000
 XYZ=    3.2451   -2.7113   -3.4991 Q=   -0.0198 A=    0.0000 R=    0.0000 C=    0.0000
 XYZ=    3.1538   -1.8430   -3.1068 Q=    0.0099 A=    0.0000 R=    0.0000 C=    0.0000
 XYZ=    0.1151    0.4051   -4.2911 Q=    0.0099 A=    0.0000 R=    0.0000 C=    0.0000
 XYZ=   -3.9121   -4.3669   -1.2961 Q=   -0.0198 A=    0.0000 R=    0.0000 C=    0.0000
 XYZ=   -3.0426   -4.3158   -0.8991 Q=    0.0099 A=    0.0000 R=    0.0000 C=    0.0000
 XYZ=   -0.0797   -1.4786    2.7833 Q=    0.0099 A=    0.0000 R=    0.0000 C=    0.0000
 XYZ=   -2.6793   -3.4228    3.0012 Q=    0.0099 A=    0.0000 R=    0.0000 C=    0.0000
 XYZ=   -3.1042    0.9899   -3.0952 Q=   -0.0198 A=    0.0000 R=    0.0000 C=    0.0000
 XYZ=   -2.3783    1.5879   -3.2733 Q=    0.0099 A=    0.0000 R=    0.0000 C=    0.0000
 XYZ=   -1.5861   -2.5564   -3.7763 Q=    0.0099 A=    0.0000 R=    0.0000 C=    0.0000
 XYZ=   -5.7322   -1.9395    1.4878 Q=    0.0099 A=    0.0000 R=    0.0000 C=    0.0000
 XYZ=   -1.3502   -4.0284   -0.1548 Q=   -0.0198 A=    0.0000 R=    0.0000 C=    0.0000
 XYZ=   -1.1313   -3.9067    0.7690 Q=    0.0099 A=    0.0000 R=    0.0000 C=    0.0000
 XYZ=    1.8358   -4.6810   -1.7469 Q=    0.0099 A=    0.0000 R=    0.0000 C=    0.0000
 XYZ=    0.5571   -4.2544    2.2509 Q=   -0.0198 A=    0.0000 R=    0.0000 C=    0.0000
 XYZ=    0.9870   -4.8085    1.5996 Q=    0.0099 A=    0.0000 R=    0.0000 C=    0.0000
 XYZ=    6.0882   -1.6430   -0.8462 Q=    0.0099 A=    0.0000 R=    0.0000 C=    0.0000
 XYZ=    2.2935    0.6163   -2.9684 Q=   -0.0198 A=    0.0000 R=    0.0000 C=    0.0000
 XYZ=    2.4222    1.5647   -2.9583 Q=    0.0099 A=    0.0000 R=    0.0000 C=    0.0000
 XYZ=    5.1312   -0.4520    0.3453 Q=   -0.0198 A=    0.0000 R=    0.0000 C=    0.0000
 XYZ=    4.1762   -0.4066    0.3930 Q=    0.0099 A=    0.0000 R=    0.0000 C=    0.0000
 XYZ=    5.0657   -3.3578    0.4638 Q=    0.0099 A=    0.0000 R=    0.0000 C=    0.0000
 XYZ=   -1.2291    3.2968   -3.0969 Q=   -0.0198 A=    0.0000 R=    0.0000 C=    0.0000
 XYZ=   -0.6424    3.7144   -2.4663 Q=    0.0099 A=    0.0000 R=    0.0000 C=    0.0000
 XYZ=   -2.3958    2.0062   -3.1383 Q=    0.0099 A=    0.0000 R=    0.0000 C=    0.0000
 XYZ=   -3.3544    1.4014   -2.1351 Q=    0.0099 A=    0.0000 R=    0.0000 C=    0.0000
 XYZ=   -3.6750    2.7035   -0.6234 Q=   -0.0198 A=    0.0000 R=    0.0000 C=    0.0000
 XYZ=   -3.2453    3.0375    0.1640 Q=    0.0099 A=    0.0000 R=    0.0000 C=    0.0000
 XYZ=   -3.8855    3.4867   -1.1319 Q=    0.0099 A=    0.0000 R=    0.0000 C=    0.0000
 XYZ=   -5.7892    1.2391    0.0707 Q=   -0.0198 A=    0.0000 R=    0.0000 C=    0.0000
 XYZ=   -4.9532    1.6591   -0.1315 Q=    0.0099 A=    0.0000 R=    0.0000 C=    0.0000
 XYZ=   -2.7898    0.1365    3.5977 Q=   -0.0198 A=    0.0000 R=    0.0000 C=    0.0000
 XYZ=   -2.1789    0.0234    2.8695 Q=    0.0099 A=    0.0000 R=    0.0000 C=    0.0000
 XYZ=    0.4657    5.2836   -1.8001 Q=   -0.0198 A=    0.0000 R=    0.0000 C=    0.0000
 XYZ=    0.6386    5.8917   -1.0814 Q=    0.0099 A=    0.0000 R=    0.0000 C=    0.0000
 XYZ=    4.3321    2.3866    1.5558 Q=   -0.0198 A=    0.0000 R=    0.0000 C=    0.0000
 XYZ=    3.6464    1.7576    1.3311 Q=    0.0099 A=    0.0000 R=    0.0000 C=    0.0000
 XYZ=   -0.1846    4.7591    2.4881 Q=    0.0099 A=    0.0000 R=    0.0000 C=    0.0000
 XYZ=   -2.1499    5.5770   -0.3412 Q=   -0.0198 A=    0.0000 R=    0.0000 C=    0.0000
 XYZ=   -1.8095    5.2570    0.4942 Q=    0.0099 A=    0.0000 R=    0.0000 C=    0.0000
 XYZ=   -3.1342   -3.3116   -3.1768 Q=    0.0099 A=    0.0000 R=    0.0000 C=    0.0000
 XYZ=   -0.0003   -2.6295   -3.1939 Q=   -0.0198 A=    0.0000 R=    0.0000 C=    0.0000
 XYZ=    0.6011   -3.1013   -2.6177 Q=    0.0099 A=    0.0000 R=    0.0000 C=    0.0000
 XYZ=    3.4452   -2.3900   -3.5923 Q=   -0.0198 A=    0.0000 R=    0.0000 C=    0.0000
 XYZ=    0.6955    0.8846   -4.4366 Q=    0.0099 A=    0.0000 R=    0.0000 C=    0.0000
 XYZ=   -0.3462    1.9522   -4.1799 Q=    0.0099 A=    0.0000 R=    0.0000 C=    0.0000
 XYZ=   -4.0411   -4.1012   -1.7975 Q=   -0.0198 A=    0.0000 R=    0.0000 C=    0.0000
 XYZ=   -3.1584   -4.0393   -1.4324 Q=    0.0099 A=    0.0000 R=    0.0000 C=    0.0000
 XYZ=    0.8430   -0.9137    2.9635 Q=   -0.0198 A=    0.0000 R=    0.0000 C=    0.0000
 XYZ=   -0.0172   -0.7484    2.5776 Q=    0.0099 A=    0.0000 R=    0.0000 C=    0.0000
 XYZ=    1.0508   -1.8128    2.7092 Q=    0.0099 A=    0.0000 R=    0.0000 C=    0.0000
 XYZ=   -2.8424    1.1894   -2.9156 Q=   -0.0198 A=    0.0000 R=    0.0000 C=    0.0000
 XYZ=   -6.0760   -2.5760    1.0811 Q=   -0.0198 A=    0.0000 R=    0.0000 C=    0.0000
 XYZ=   -5.3170   -3.0545    1.4144 Q=    0.0099 A=    0.0000 R=    0.0000 C=    0.0000
 XYZ=   -1.5868   -4.2916   -0.7836 Q=   -0.0198 A=    0.0000 R=    0.0000 C=    0.0000
 XYZ=   -1.1300   -3.8320   -0.0791 Q=    0.0099 A=    0.0000 R=    0.0000 C=    0.0000
 XYZ=    2.1428   -4.4911   -2.2885 Q=   -0.0198 A=    0.0000 R=    0.0000 C=    0.0000
 XYZ=    2.6138   -4.9380   -1.5851 Q=    0.0099 A=    0.0000 R=    0.0000 C=    0.0000
 XYZ=    2.7203   -3.7719   -2.5443 Q=    0.0099 A=    0.0000 R=    0.0000 C=    0.0000
 XYZ=    1.0495   -4.4998    2.2435 Q=    0.0099 A=    0.0000 R=    0.0000 C=    0.0000
 XYZ=    6.1974   -2.2849   -1.2036 Q=   -0.0198 A=    0.0000 R=    0.0000 C=    0.0000
 XYZ=    3.7239   -1.4743   -3.5919 Q=    0.0099 A=    0.0000 R=    0.0000 C=    0.0000
 XYZ=    4.6873    0.1815   -0.5675 Q=    0.0099 A=    0.0000 R=    0.0000 C=    0.0000
 XYZ=    5.3028    0.9122    0.6065 Q=    0.0099 A=    0.0000 R=    0.0000 C=    0.0000
 XYZ=   -0.9580    2.9298   -3.2562 Q=   -0.0198 A=    0.0000 R=    0.0000 C=    0.0000
 XYZ=   -0.2349    3.3591   -2.7989 Q=    0.0099 A=    0.0000 R=    0.0000 C=    0.0000
 XYZ=   -2.2614    1.8383   -3.0145 Q=    0.0099 A=    0.0000 R=    0.0000 C=    0.0000
 XYZ=   -3.5586    2.0174   -2.2554 Q=    0.0099 A=    0.0000 R=    0.0000 C=    0.0000
 XYZ=   -3.9021    3.2037   -0.9432 Q=   -0.0198 A=    0.0000 R=    0.0000 C=    0.0000
 XYZ=   -3.8678    3.0403   -0.0007 Q=    0.0099 A=    0.0000 R=    0.0000 C=    0.0000
 XYZ=   -3.4145    4.0186   -1.0629 Q=    0.0099 A=    0.0000 R=    0.0000 C=    0.0000
 XYZ=   -5.7584    1.2458    0.3348 Q=    0.0099 A=    0.0000 R=    0.0000 C=    0.0000
 XYZ=   -3.0817   -0.1918    3.5323 Q=   -0.0198 A=    0.0000 R=    0.0000 C=    0.0000
 XYZ=   -2.3544   -0.3210    2.9236 Q=    0.0099 A=    0.0000 R=    0.0000 C=    0.0000
 XYZ=   -5.0482    0.8851    1.9186 Q=   -0.0198 A=    0.0000 R=    0.0000 C=    0.0000
 XYZ=    3.8425    2.8919    1.7751 Q=   -0.0198 A=    0.0000 R=    0.0000 C=    0.0000
 XYZ=    3.2822    2.1923    1.4391 Q=    0.0099 A=    0.0000 R=    0.0000 C=    0.0000
 XYZ=    1.8894    4.3183    1.8542 Q=    0.0099 A=    0.0000 R=    0.0000 C=    0.0000
 XYZ=   -1.2662    4.9722    2.1913 Q=   -0.0198 A=    0.0000 R=    0.0000 C=    0.0000
 XYZ=   -0.3931    4.5840    2.2483 Q=    0.0099 A=    0.0000 R=    0.0000 C=    0.0000
 XYZ=    1.8121    4.2686   -2.1565 Q=    0.0099 A=    0.0000 R=    0.0000 C=    0.0000
 XYZ=   -2.0193    5.4181   -0.4617 Q=   -0.0198 A=    0.0000 R=    0.0000 C=    0.0000
 XYZ=   -1.6389    5.2162    0.3931 Q=    0.0099 A=    0.0000 R=    0.0000 C=    0.0000
 XYZ=   -2.5870   -2.0720   -3.8972 Q=   -0.0198 A=    0.0000 R=    0.0000 C=    0.0000
 XYZ=   -2.9449   -2.7610   -3.3373 Q=    0.0099 A=    0.0000 R=    0.0000 C=    0.0000
 XYZ=    0.0692   -1.9945   -2.6943 Q=   -0.0198 A=    0.0000 R=    0.0000 C=    0.0000
 XYZ=    0.3273   -2.7777   -2.2084 Q=    0.0099 A=    0.0000 R=    0.0000 C=    0.0000
 XYZ=    0.6927   -1.9458   -3.4190 Q=    0.0099 A=    0.0000 R=    0.0000 C=    0.0000
 XYZ=    3.4523   -2.3855   -3.5573 Q=   -0.0198 A=    0.0000 R=    0.0000 C=    0.0000
 XYZ=   -6.5832   -1.6805   -0.1813 Q=    0.0099 A=    0.0000 R=    0.0000 C=    0.0000
 XYZ=   -3.5793   -4.1265   -1.4827 Q=   -0.0198 A=    0.0000 R=    0.0000 C=    0.0000
 XYZ=   -2.6827   -3.9487   -1.1987 Q=    0.0099 A=    0.0000 R=    0.0000 C=    0.0000
[...]
 Alpha virt. eigenvalues --    0.78144   0.78912   0.80161   0.81556   0.83798
 Alpha virt. eigenvalues --    0.85187   0.86189   0.87978   0.88744   0.89577
 Alpha virt. eigenvalues --    0.91660   0.94464   0.95514   0.96633   0.98140
 Alpha virt. eigenvalues --    0.99638   1.01750   1.02935   1.03023   1.04782
 Alpha virt. eigenvalues --    1.05779   1.06843   1.08999   1.10363   1.12637
 Alpha virt. eigenvalues --    1.12924   1.15276   1.15911   1.17133   1.17190
 Alpha virt. eigenvalues --    1.17766   1.18957   1.19987   1.20674   1.21188
 Alpha virt. eigenvalues --    1.22850   1.24723   1.26374   1.27885   1.28472
 Alpha virt. eigenvalues --    1.29424   1.31226   1.31673   1.32636   1.34629
 Alpha virt. eigenvalues --    1.36547   1.38195   1.38898   1.39951   1.41361
 Alpha virt. eigenvalues --    1.42889   1.44549   1.46115   1.47180   1.48608
 Alpha virt. eigenvalues --    1.49659   1.50427   1.50935   1.51804   1.52095
 Alpha virt. eigenvalues --    1.53822   1.55577   1.56044   1.57740   1.59656
 Alpha virt. eigenvalues --    1.59893   1.61826   1.62771   1.63223   1.65150
 Alpha virt. eigenvalues --    1.65586   1.69624   1.71250   1.73754   1.74327
 Alpha virt. eigenvalues --    1.75216   1.77240   1.78655   1.79424   1.82885
 Alpha virt. eigenvalues --    1.83228   1.86620   1.90082   1.90428   1.95151
 Alpha virt. eigenvalues --    1.97550   1.98414   2.02983   2.06351   2.07817
 Alpha virt. eigenvalues --    2.10937   2.12572   2.18697   2.21736   2.30549
 Alpha virt. eigenvalues --    2.33549   2.40670   2.41933   2.42815   2.46394
 Alpha virt. eigenvalues --    2.47696   2.50788   2.52770   2.54466   2.56932
 Alpha virt. eigenvalues --    2.58482   2.59337   2.62637   2.65840   2.66148
 Alpha virt. eigenvalues --    2.69413   2.70991   2.73390   2.74268   2.79041
 Alpha virt. eigenvalues --    2.81421   2.82864   2.84585   2.84862   2.85978
 Alpha virt. eigenvalues --    2.87086   2.89274   2.91771   2.93937   2.95820
 Alpha virt. eigenvalues --    2.96307   2.97524   2.99294   3.01165   3.04881
 Alpha virt. eigenvalues --    3.06140   3.06952   3.08044   3.08476   3.09586
 Alpha virt. eigenvalues --    3.10017   3.10706   3.11453   3.13833   3.15558
 Alpha virt. eigenvalues --    3.16214   3.18011   3.19233   3.20616   3.21541
 Alpha virt. eigenvalues --    3.22590   3.23635   3.25912   3.26583   3.28252
 Alpha virt. eigenvalues --    3.29807   3.30450   3.30997   3.31570   3.32833
 Alpha virt. eigenvalues --    3.33650   3.35364   3.37330   3.38510   3.38631
 Alpha virt. eigenvalues --    3.39509   3.41835   3.42910   3.43939   3.44937
 Alpha virt. eigenvalues --    3.46305   3.47871   3.50208   3.51734   3.52270
 Alpha virt. eigenvalues --    3.53638   3.55104   3.55646   3.57043   3.58198
 Alpha virt. eigenvalues --    3.59580   3.60102   3.62036   3.62274   3.63773
 Alpha virt. eigenvalues --    3.65580   3.66034   3.68015   3.70253   3.71052
 Alpha virt. eigenvalues --    3.72158   3.72518   3.73914   3.74390   3.75636
 Alpha virt. eigenvalues --    3.75954   3.77328   3.79047   3.79472   3.83042
 Alpha virt. eigenvalues --    3.83518   3.84286   3.84904   3.87207   3.88210
 Alpha virt. eigenvalues --    3.90774   3.90853   3.92190   3.92961   3.96462
 Alpha virt. eigenvalues --    3.98971   4.01487   4.02174   4.03209   4.05076
 Alpha virt. eigenvalues --    4.06702   4.08349   4.09155   4.10294   4.12313
 Alpha virt. eigenvalues --    4.13327   4.14118   4.15620   4.16740   4.18439
 Alpha virt. eigenvalues --    4.19280   4.19514   4.22105   4.23444   4.24442
 Alpha virt. eigenvalues --    4.26030   4.26947   4.29176   4.29937   4.30247
 Alpha virt. eigenvalues --    4.31799   4.32906   4.34621   4.36058   4.36468
 Alpha virt. eigenvalues --    4.37477   4.38071   4.38472   4.39192   4.41481
 Alpha virt. eigenvalues --    4.42562   4.43808   4.44539   4.46868   4.48590
 Alpha virt. eigenvalues --    4.50283   4.51649   4.52629   4.55925   4.56257
 Alpha virt. eigenvalues --    4.56530   4.58079   4.58969   4.60417   4.63270
 Alpha virt. eigenvalues --    4.66671   4.68260   4.71002   4.71437   4.72807
 Alpha virt. eigenvalues --    4.75893   4.79695   4.80731   4.86156   4.86972
 Alpha virt. eigenvalues --    4.89151   4.94325   4.94852   4.98633   5.04532
 Alpha virt. eigenvalues --    5.05453   5.08213   5.08794   5.10762   5.12521
 Alpha virt. eigenvalues --    5.15016   5.17162   5.17326   5.20075   5.20650
 Alpha virt. eigenvalues --    5.22430   5.23753   5.26103   5.28863   5.29681
 Alpha virt. eigenvalues --    5.32357   5.33368   5.38181   5.40698   5.43629
 Alpha virt. eigenvalues --    5.44597   5.45053   5.47588   5.48405   5.48650
 Alpha virt. eigenvalues --    5.51234   5.51868   5.54505   5.56255   5.57279
 Alpha virt. eigenvalues --    5.57928   5.59041   5.60006   5.60451   5.61544
 Alpha virt. eigenvalues --    5.62242   5.62479   5.63939   5.65613   5.66044
 Alpha virt. eigenvalues --    5.69324   5.70924   5.71327   5.74104   5.77089
 Alpha virt. eigenvalues --    5.78297   5.79378   5.81503   5.82800   5.88055
 Alpha virt. eigenvalues --    5.88664   5.96062   5.96614   5.97858   6.06043
 Alpha virt. eigenvalues --    6.08066   6.11021   6.12088   6.17428   6.18324
 Alpha virt. eigenvalues --    6.19571   6.21215   6.22308   6.24895   6.26072
 Alpha virt. eigenvalues --    6.29816   6.34546   6.41519   6.47855   6.50136
 Alpha virt. eigenvalues --    6.55922   6.59711   6.60850   6.73728   6.79001
 Alpha virt. eigenvalues --    6.86354   6.89093   6.90216   6.91236   7.02702
 Alpha virt. eigenvalues --    7.04621   7.22479   7.24384   7.32941   7.34083
 Alpha virt. eigenvalues --    7.53269   7.53442   7.54483   7.56501   9.94264
 Alpha virt. eigenvalues --   10.33062  12.25409  12.82782  12.94071  13.53099
 Alpha virt. eigenvalues --   13.89946  14.17817  14.26457  14.49179
          Condensed to atoms (all electrons):
              1          2          3          4          5          6
     1  H    0.543514   0.376046  -0.022834  -0.015176  -0.044682   0.008179
     2  C    0.376046   5.121297   0.363648   0.372169   0.323251  -0.085417
     3  H   -0.022834   0.363648   0.565916  -0.028580  -0.029361   0.002551
     4  H   -0.015176   0.372169  -0.028580   0.560710  -0.044386   0.001781
     5  C   -0.044682   0.323251  -0.029361  -0.044386   4.673538   0.662917
     6  O    0.008179  -0.085417   0.002551   0.001781   0.662917   8.033246
     7  N    0.007122  -0.090436   0.002076   0.011593   0.298122  -0.144850
     8  H   -0.000088  -0.003181  -0.000291  -0.001437  -0.014544   0.004558
     9  C   -0.000290   0.001975  -0.000032   0.000649  -0.068593  -0.001303
    10  H    0.000011  -0.000072   0.000000  -0.000037   0.007093   0.000294
    11  C   -0.000013  -0.000753  -0.000015   0.000126  -0.014049  -0.002665
    12  H   -0.000019   0.000500  -0.000125  -0.000017   0.003678   0.009858
    13  H   -0.000001   0.000023  -0.000004  -0.000002   0.000594   0.000021
    14  H    0.000011  -0.000111   0.000054  -0.000026  -0.000776  -0.000663
    15  C   -0.000043   0.001235  -0.000043  -0.000410   0.007220   0.017096
    16  O    0.000000   0.000000   0.000000   0.000002  -0.000076  -0.000335
    17  N    0.000064  -0.000132   0.000006   0.000141   0.006794  -0.007543
    18  H    0.000010  -0.001569   0.000088   0.000195  -0.001730  -0.003476
    19  C   -0.000002   0.000025   0.000001  -0.000013   0.000018   0.000758
    20  H    0.000002   0.000009   0.000001  -0.000006  -0.000017   0.000172
    21  H    0.000000   0.000002   0.000000  -0.000002   0.000135   0.000019
    22  H    0.000000   0.000000   0.000000  -0.000002  -0.000315   0.000087
              7          8          9         10         11         12
     1  H    0.007122  -0.000088  -0.000290   0.000011  -0.000013  -0.000019
     2  C   -0.090436  -0.003181   0.001975  -0.000072  -0.000753   0.000500
     3  H    0.002076  -0.000291  -0.000032   0.000000  -0.000015  -0.000125
     4  H    0.011593  -0.001437   0.000649  -0.000037   0.000126  -0.000017
     5  C    0.298122  -0.014544  -0.068593   0.007093  -0.014049   0.003678
     6  O   -0.144850   0.004558  -0.001303   0.000294  -0.002665   0.009858
     7  N    6.642146   0.325061   0.233644  -0.017526  -0.069253  -0.005421
     8  H    0.325061   0.468655  -0.017899  -0.008715   0.001670  -0.000136
     9  C    0.233644  -0.017899   5.370628   0.344968   0.291984  -0.034746
    10  H   -0.017526  -0.008715   0.344968   0.551932  -0.028097   0.004938
    11  C   -0.069253   0.001670   0.291984  -0.028097   5.109264   0.374467
    12  H   -0.005421  -0.000136  -0.034746   0.004938   0.374467   0.555125
    13  H    0.006957  -0.000320  -0.036038  -0.005535   0.363078  -0.019807
    14  H    0.006484   0.000371  -0.037117  -0.003153   0.381490  -0.028194
    15  C   -0.025137   0.001476   0.161674  -0.021820  -0.059046  -0.000033
    16  O    0.003684  -0.000167  -0.107371   0.002180   0.006265   0.001723
    17  N   -0.005596  -0.000095  -0.072945  -0.002003   0.002171  -0.000403
    18  H    0.015635  -0.000338  -0.003775  -0.000311   0.001301  -0.000023
    19  C   -0.000682   0.000049   0.008026  -0.000488  -0.000444  -0.000041
    20  H   -0.000175   0.000008   0.000599  -0.000018  -0.000005  -0.000003
    21  H   -0.000037  -0.000001  -0.000780   0.000148  -0.000068   0.000000
    22  H   -0.000133   0.000005   0.001450  -0.000104   0.000124   0.000005
             13         14         15         16         17         18
     1  H   -0.000001   0.000011  -0.000043   0.000000   0.000064   0.000010
     2  C    0.000023  -0.000111   0.001235   0.000000  -0.000132  -0.001569
     3  H   -0.000004   0.000054  -0.000043   0.000000   0.000006   0.000088
     4  H   -0.000002  -0.000026  -0.000410   0.000002   0.000141   0.000195
     5  C    0.000594  -0.000776   0.007220  -0.000076   0.006794  -0.001730
     6  O    0.000021  -0.000663   0.017096  -0.000335  -0.007543  -0.003476
     7  N    0.006957   0.006484  -0.025137   0.003684  -0.005596   0.015635
     8  H   -0.000320   0.000371   0.001476  -0.000167  -0.000095  -0.000338
     9  C   -0.036038  -0.037117   0.161674  -0.107371  -0.072945  -0.003775
    10  H   -0.005535  -0.003153  -0.021820   0.002180  -0.002003  -0.000311
    11  C    0.363078   0.381490  -0.059046   0.006265   0.002171   0.001301
    12  H   -0.019807  -0.028194  -0.000033   0.001723  -0.000403  -0.000023
    13  H    0.562597  -0.021886   0.003185   0.009918   0.000755  -0.000146
    14  H   -0.021886   0.556938   0.006363   0.000302  -0.000134  -0.000075
    15  C    0.003185   0.006363   4.716971   0.706282   0.364181  -0.026237
    16  O    0.009918   0.000302   0.706282   8.005139  -0.169076   0.005280
    17  N    0.000755  -0.000134   0.364181  -0.169076   6.532387   0.335411
    18  H   -0.000146  -0.000075  -0.026237   0.005280   0.335411   0.483439
    19  C   -0.000017   0.000011  -0.041943   0.008011   0.275366  -0.030898
    20  H   -0.000001   0.000000   0.004298   0.001043  -0.028763  -0.006984
    21  H    0.000007  -0.000001  -0.004240  -0.000270  -0.042597  -0.000890
    22  H   -0.000024   0.000002  -0.002387   0.014099  -0.046320   0.005404
             19         20         21         22
     1  H   -0.000002   0.000002   0.000000   0.000000
     2  C    0.000025   0.000009   0.000002   0.000000
     3  H    0.000001   0.000001   0.000000   0.000000
     4  H   -0.000013  -0.000006  -0.000002  -0.000002
     5  C    0.000018  -0.000017   0.000135  -0.000315
     6  O    0.000758   0.000172   0.000019   0.000087
     7  N   -0.000682  -0.000175  -0.000037  -0.000133
     8  H    0.000049   0.000008  -0.000001   0.000005
     9  C    0.008026   0.000599  -0.000780   0.001450
    10  H   -0.000488  -0.000018   0.000148  -0.000104
    11  C   -0.000444  -0.000005  -0.000068   0.000124
    12  H   -0.000041  -0.000003   0.000000   0.000005
    13  H   -0.000017  -0.000001   0.000007  -0.000024
    14  H    0.000011   0.000000  -0.000001   0.000002
    15  C   -0.041943   0.004298  -0.004240  -0.002387
    16  O    0.008011   0.001043  -0.000270   0.014099
    17  N    0.275366  -0.028763  -0.042597  -0.046320
    18  H   -0.030898  -0.006984  -0.000890   0.005404
    19  C    4.896830   0.384880   0.392085   0.368034
    20  H    0.384880   0.546528  -0.023101  -0.023244
    21  H    0.392085  -0.023101   0.589125  -0.052578
    22  H    0.368034  -0.023244  -0.052578   0.607711
 Mulliken atomic charges:
              1
     1  H    0.148187
     2  C   -0.378510
     3  H    0.146944
     4  H    0.142727
     5  C    0.235169
     6  O   -0.495287
     7  N   -0.193277
     8  H    0.245359
     9  C   -0.034708
    10  H    0.176315
    11  C   -0.357533
    12  H    0.138674
    13  H    0.136647
    14  H    0.140110
    15  C    0.191360
    16  O   -0.486635
    17  N   -0.141670
    18  H    0.229690
    19  C   -0.259567
    20  H    0.144776
    21  H    0.143042
    22  H    0.128188
 Sum of Mulliken atomic charges =   0.00000
 Mulliken charges with hydrogens summed into heavy atoms:
              1
     2  C    0.059347
     5  C    0.235169
     6  O   -0.495287
     7  N    0.052082
     9  C    0.141607
    11  C    0.057898
    15  C    0.191360
    16  O   -0.486635
    17  N    0.088020
    19  C    0.156439
 Sum of Mulliken charges with hydrogens summed into heavy atoms =   0.00000
 Electronic spatial extent (au):  <R**2>=           1702.0669
 Charge=              0.0000 electrons
 Dipole moment (field-independent basis, Debye):
    X=             -4.5167    Y=             -2.2034    Z=             -7.4716  Tot=              9.0044
 Quadrupole moment (field-independent basis, Debye-Ang):
   XX=            -62.3452   YY=            -54.9092   ZZ=            -63.1275
   XY=             -9.7712   XZ=              4.0725   YZ=             -0.2666
 Traceless Quadrupole moment (field-independent basis, Debye-Ang):
   XX=             -2.2179   YY=              5.2181   ZZ=             -3.0002
   XY=             -9.7712   XZ=              4.0725   YZ=             -0.2666
 Octapole moment (field-independent basis, Debye-Ang**2):
  XXX=            -45.4624  YYY=            -13.0040  ZZZ=            -16.4248  XYY=              0.1917
  XXY=            -28.8250  XXZ=            -19.4136  XZZ=              2.1668  YZZ=              4.5054
  YYZ=             -6.3124  XYZ=             -5.7633
 Hexadecapole moment (field-independent basis, Debye-Ang**3):
 XXXX=          -1269.1154 YYYY=           -705.9865 ZZZZ=           -208.0262 XXXY=            -53.8484
 XXXZ=             -3.7188 YYYX=            -23.3560 YYYZ=             -7.6425 ZZZX=             23.7360
 ZZZY=             -0.1080 XXYY=           -324.9182 XXZZ=           -249.5711 YYZZ=           -157.1466
 XXYZ=             -9.9959 YYXZ=             -1.3464 ZZXY=             -7.4173
 N-N= 5.617518719068D+02 E-N=-2.276894997154D+03  KE= 4.943211355482D+02
 Merz-Kollman atomic radii used.

 **********************************************************************

          Electrostatic Properties Using The MP2 Density

 **********************************************************************

       Atomic Center    1 is at  -3.217067 -1.880539  0.530285
       Atomic Center    2 is at  -2.954860 -1.177937 -0.260727
       Atomic Center    3 is at  -3.847161 -0.562175 -0.373586
       Atomic Center    4 is at  -2.735475 -1.643887 -1.221383
       Atomic Center    5 is at  -1.795771 -0.383763  0.196684
       Atomic Center    6 is at  -1.350242 -0.589443  1.352883
       Atomic Center    7 is at  -1.141180  0.362652 -0.715276
       Atomic Center    8 is at  -1.668579  0.478467 -1.568821
       Atomic Center    9 is at   0.101645  1.146937 -0.528739
       Atomic Center   10 is at   0.385035  1.430963 -1.542208
       Atomic Center   11 is at  -0.269225  2.463494  0.259212
       Atomic Center   12 is at  -0.423351  2.250299  1.316990
       Atomic Center   13 is at   0.573372  3.130968  0.078638
       Atomic Center   14 is at  -1.163429  2.911702 -0.173928
       Atomic Center   15 is at   1.384276  0.390534 -0.190488
       Atomic Center   16 is at   2.323902  0.940093  0.405173
       Atomic Center   17 is at   1.415259 -0.955759 -0.346999
       Atomic Center   18 is at   0.538604 -1.311535 -0.700553
       Atomic Center   19 is at   2.482490 -1.933268 -0.011309
       Atomic Center   20 is at   1.976765 -2.896532  0.055505
       Atomic Center   21 is at   3.258225 -1.892682 -0.775957
       Atomic Center   22 is at   2.923900 -1.704477  0.958698
    1013 points will be used for fitting atomic charges
 Fitting point charges to electrostatic potential
 Charges from ESP fit, RMS=   0.00162 RRMS=   0.04555:
 Charge=   0.00000 Dipole=    -4.4985    -2.2397    -7.4601 Tot=     8.9947
              1
     1  H    0.150370
     2  C   -0.509085
     3  H    0.130661
     4  H    0.155268
     5  C    0.894324
     6  O   -0.745410
     7  N   -0.891713
     8  H    0.432103
     9  C    0.482375
    10  H    0.026354
    11  C   -0.388066
    12  H    0.121638
    13  H    0.073706
    14  H    0.137959
    15  C    0.418275
    16  O   -0.663985
    17  N   -0.224946
    18  H    0.270938
    19  C   -0.350859
    20  H    0.173777
    21  H    0.142434
    22  H    0.163883
 -----------------------------------------------------------------

              Electrostatic Properties (Atomic Units)

 -----------------------------------------------------------------
    Center     Electric         -------- Electric Field --------
               Potential          X             Y             Z
 -----------------------------------------------------------------
    1 Atom     -1.088460
    2 Atom    -14.739085
    3 Atom     -1.063677
    4 Atom     -1.051649
    5 Atom    -14.643431
    6 Atom    -22.424378
    7 Atom    -18.305270
    8 Atom     -0.942809
    9 Atom    -14.679145
   10 Atom     -1.056832
   11 Atom    -14.761148
   12 Atom     -1.125920
   13 Atom     -1.119010
   14 Atom     -1.092149
   15 Atom    -14.663162
   16 Atom    -22.438649
   17 Atom    -18.341927
   18 Atom     -0.990351
   19 Atom    -14.718861
   20 Atom     -1.077389
   21 Atom     -1.095600
   22 Atom     -1.114703
 -----------------------------------------------------------------

 Test job not archived.
 1\1\GINC-TACHIKOMA\SP\RMP2-FC\CC-pVTZ\C6H12N2O2\STEBOSS\19-Mar-2017\0\
 \#MP2/cc-pvTZ density=MP2, charge, maxdisk=16GB, pop=(minimal, MK), 5d
 , punch=mo\\Generated by mdgx\\0,1\H,0,-3.2170672,-1.8805388,0.5302846
 \C,0,-2.9548603,-1.1779374,-0.2607267\H,0,-3.8471605,-0.5621751,-0.373
 5856\H,0,-2.7354745,-1.6438873,-1.221383\C,0,-1.7957706,-0.3837629,0.1
 966844\O,0,-1.3502415,-0.5894429,1.3528829\N,0,-1.1411801,0.362652,-0.
 7152763\H,0,-1.6685786,0.4784669,-1.5688205\C,0,0.1016446,1.1469375,-0
 .5287387\H,0,0.3850347,1.4309628,-1.5422079\C,0,-0.2692254,2.4634936,0
 .2592119\H,0,-0.4233508,2.2502993,1.3169897\H,0,0.5733721,3.1309684,0.
 0786385\H,0,-1.1634289,2.9117017,-0.1739284\C,0,1.3842758,0.3905338,-0
 .1904884\O,0,2.3239025,0.9400927,0.4051729\N,0,1.4152587,-0.9557589,-0
 .346999\H,0,0.5386041,-1.3115346,-0.7005528\C,0,2.4824898,-1.9332678,-
 0.0113086\H,0,1.9767648,-2.8965321,0.0555047\H,0,3.258225,-1.8926817,-
 0.7759573\H,0,2.9239002,-1.7044772,0.9586977\\Version=EM64L-G09RevA.02
 \State=1-A\HF=-492.4967877\MP2=-494.3773468\RMSD=5.245e-09\Dipole=-1.7
 769958,-0.8669016,-2.9395388\Quadrupole=-1.6489541,3.8795237,-2.230569
 6,-7.2646497,3.0278321,-0.1981792\PG=C01 [X(C6H12N2O2)]\\@


 POCKETA-POCKETA
 BARON VON RICHTOFEN
 SLAUGHTERED THE ALLIES WITH
 HARDLY A CARE.
 KILLED EIGHTY-ONE WITH HIS
 BLOOD-COLORED TRIPLANE, THEN
 UN-AEROBATICALLY
 PLUNGED FROM THE AIR.
   -- TONY HOFFMAN
 Job cpu time:  0 days  2 hours 55 minutes 32.4 seconds.
 File lengths (MBytes):  RWF=  13348 Int=      0 D2E=      0 Chk=     14 Scr=      1
 Normal termination of Gaussian 09 at Sun Mar 19 19:04:03 2017.
