 Entering Gaussian System, Link 0=/home/steboss/local/g09/g09
 Initial command:
 /home/steboss/local//g09/l1.exe /tmp/Gau-21427.inp -scrdir=/tmp/
 Entering Link 1 = /home/steboss/local//g09/l1.exe PID=     21429.
  
 Copyright (c) 1988,1990,1992,1993,1995,1998,2003,2009, Gaussian, Inc.
                  All Rights Reserved.
  
 This is part of the Gaussian(R) 09 program.  It is based on
 the Gaussian(R) 03 system (copyright 2003, Gaussian, Inc.),
 the Gaussian(R) 98 system (copyright 1998, Gaussian, Inc.),
 the Gaussian(R) 94 system (copyright 1995, Gaussian, Inc.),
 the Gaussian 92(TM) system (copyright 1992, Gaussian, Inc.),
 the Gaussian 90(TM) system (copyright 1990, Gaussian, Inc.),
 the Gaussian 88(TM) system (copyright 1988, Gaussian, Inc.),
 the Gaussian 86(TM) system (copyright 1986, Carnegie Mellon
 University), and the Gaussian 82(TM) system (copyright 1983,
 Carnegie Mellon University). Gaussian is a federally registered
 trademark of Gaussian, Inc.
  
 This software contains proprietary and confidential information,
 including trade secrets, belonging to Gaussian, Inc.
  
 This software is provided under written license and may be
 used, copied, transmitted, or stored only in accord with that
 written license.
  
 The following legend is applicable only to US Government
 contracts under FAR:
  
                    RESTRICTED RIGHTS LEGEND
  
 Use, reproduction and disclosure by the US Government is
 subject to restrictions as set forth in subparagraphs (a)
 and (c) of the Commercial Computer Software - Restricted
 Rights clause in FAR 52.227-19.
  
 Gaussian, Inc.
 340 Quinnipiac St., Bldg. 40, Wallingford CT 06492
  
  
 ---------------------------------------------------------------
 Warning -- This program may not be used in any manner that
 competes with the business of Gaussian, Inc. or will provide
 assistance to any competitor of Gaussian, Inc.  The licensee
 of this program is prohibited from giving any competitor of
 Gaussian, Inc. access to this program.  By using this program,
 the user acknowledges that Gaussian, Inc. is engaged in the
 business of creating and licensing software in the field of
 computational chemistry and represents and warrants to the
 licensee that it is not a competitor of Gaussian, Inc. and that
 it will not use this program in any manner prohibited above.
 ---------------------------------------------------------------
  

 Cite this work as:
 Gaussian 09, Revision A.02,
 M. J. Frisch, G. W. Trucks, H. B. Schlegel, G. E. Scuseria, 
 M. A. Robb, J. R. Cheeseman, G. Scalmani, V. Barone, B. Mennucci, 
 G. A. Petersson, H. Nakatsuji, M. Caricato, X. Li, H. P. Hratchian, 
 A. F. Izmaylov, J. Bloino, G. Zheng, J. L. Sonnenberg, M. Hada, 
 M. Ehara, K. Toyota, R. Fukuda, J. Hasegawa, M. Ishida, T. Nakajima, 
 Y. Honda, O. Kitao, H. Nakai, T. Vreven, J. A. Montgomery, Jr., 
 J. E. Peralta, F. Ogliaro, M. Bearpark, J. J. Heyd, E. Brothers, 
 K. N. Kudin, V. N. Staroverov, R. Kobayashi, J. Normand, 
 K. Raghavachari, A. Rendell, J. C. Burant, S. S. Iyengar, J. Tomasi, 
 M. Cossi, N. Rega, J. M. Millam, M. Klene, J. E. Knox, J. B. Cross, 
 V. Bakken, C. Adamo, J. Jaramillo, R. Gomperts, R. E. Stratmann, 
 O. Yazyev, A. J. Austin, R. Cammi, C. Pomelli, J. W. Ochterski, 
 R. L. Martin, K. Morokuma, V. G. Zakrzewski, G. A. Voth, 
 P. Salvador, J. J. Dannenberg, S. Dapprich, A. D. Daniels, 
 O. Farkas, J. B. Foresman, J. V. Ortiz, J. Cioslowski, 
 and D. J. Fox, Gaussian, Inc., Wallingford CT, 2009.
 
 ******************************************
 Gaussian 09:  EM64L-G09RevA.02 11-Jun-2009
                19-Mar-2017 
 ******************************************
 %nproc=8
 Will use up to    8 processors via shared memory.
 %mem=4096MB
 %chk=IPolQout.solv.chk
 ----------------------------------------------------------------------
 #MP2/cc-pvTZ density=MP2, charge, maxdisk=16GB, pop=(minimal, MK), 5d,
  punch=mo
 ----------------------------------------------------------------------
 1/18=10,28=-2,30=1,38=1,125=101/1;
 2/12=2,17=6,18=5,40=1/2;
 3/5=16,6=1,8=1,11=9,16=1,25=1,30=1,71=1/1,2,3;
 4//1;
 5/5=2,38=5/2;
 8/6=4,10=1/1;
 9/15=1,16=-3/6;
 10/5=1,13=10/2;
 6/7=2,8=2,9=2,10=2,15=8,20=1,22=2/1,2;
 99/5=1,9=1,10=32/99;
 -----------------
 Generated by mdgx
 -----------------
 Symbolic Z-matrix:
 Charge =  0 Multiplicity = 1
 H                    -3.91154  -1.28848   0.3498 
 C                    -3.40331  -0.69874  -0.4131 
 H                    -4.00861   0.19485  -0.5654 
 H                    -3.37972  -1.27305  -1.33923 
 C                    -2.04125  -0.24521   0.10486 
 O                    -1.6945   -0.67916   1.17164 
 N                    -1.26296   0.55223  -0.70472 
 H                    -1.69371   0.78205  -1.58887 
 C                     0.13127   0.96865  -0.43616 
 H                     0.46671   1.5464   -1.29743 
 C                     0.14757   2.07789   0.68415 
 H                    -0.18728   1.68715   1.64504 
 H                     1.11099   2.58545   0.73222 
 H                    -0.64699   2.81291   0.55568 
 C                     1.15202  -0.21226  -0.1977 
 O                     0.80825  -1.35976   0.11225 
 N                     2.43715   0.08189  -0.38257 
 H                     2.64028   1.01978  -0.69752 
 C                     3.52212  -0.77923   0.08027 
 H                     4.22778  -0.11221   0.57548 
 H                     3.17991  -1.51311   0.80993 
 H                     4.02227  -1.23582  -0.77383 
 
 Background charge distribution read from input stream:
 Point Charges:
 XYZ=    0.9789    4.3417    3.0956 Q=   -0.0198 A=    0.0000 R=    0.0000 C=    0.0000
 XYZ=    2.5789    3.0543    2.7575 Q=    0.0099 A=    0.0000 R=    0.0000 C=    0.0000
 XYZ=   -1.1642    2.4085    4.3867 Q=    0.0099 A=    0.0000 R=    0.0000 C=    0.0000
 XYZ=   -4.4377    2.5664   -1.6300 Q=    0.0099 A=    0.0000 R=    0.0000 C=    0.0000
 XYZ=   -4.4048    0.9738    2.1607 Q=   -0.0198 A=    0.0000 R=    0.0000 C=    0.0000
 XYZ=   -3.7634    2.8443    0.3657 Q=   -0.0198 A=    0.0000 R=    0.0000 C=    0.0000
 XYZ=   -3.9152    2.0468    0.8729 Q=    0.0099 A=    0.0000 R=    0.0000 C=    0.0000
 XYZ=   -2.2314    4.6871   -0.4703 Q=   -0.0198 A=    0.0000 R=    0.0000 C=    0.0000
 XYZ=   -1.5333    4.7043    0.1844 Q=    0.0099 A=    0.0000 R=    0.0000 C=    0.0000
 XYZ=   -2.7665    3.9307   -0.2300 Q=    0.0099 A=    0.0000 R=    0.0000 C=    0.0000
 XYZ=   -6.3802    0.6551   -1.9868 Q=   -0.0198 A=    0.0000 R=    0.0000 C=    0.0000
 XYZ=   -6.4766    0.8463   -1.0538 Q=    0.0099 A=    0.0000 R=    0.0000 C=    0.0000
 XYZ=    0.6923    4.0216   -2.3292 Q=   -0.0198 A=    0.0000 R=    0.0000 C=    0.0000
 XYZ=    1.2764    3.7848   -3.0496 Q=    0.0099 A=    0.0000 R=    0.0000 C=    0.0000
 XYZ=    1.2792    4.3051   -1.6283 Q=    0.0099 A=    0.0000 R=    0.0000 C=    0.0000
 XYZ=    1.2226    1.1945   -3.7692 Q=    0.0099 A=    0.0000 R=    0.0000 C=    0.0000
 XYZ=    2.7407    4.2061   -0.2895 Q=   -0.0198 A=    0.0000 R=    0.0000 C=    0.0000
 XYZ=    2.5011    5.1120   -0.0941 Q=    0.0099 A=    0.0000 R=    0.0000 C=    0.0000
 XYZ=   -3.8569   -4.1373   -1.6846 Q=    0.0099 A=    0.0000 R=    0.0000 C=    0.0000
 XYZ=   -4.5209   -2.6902   -3.6414 Q=    0.0099 A=    0.0000 R=    0.0000 C=    0.0000
 XYZ=    1.6267   -3.4917    1.5154 Q=   -0.0198 A=    0.0000 R=    0.0000 C=    0.0000
 XYZ=    1.8220   -2.9997    2.3129 Q=    0.0099 A=    0.0000 R=    0.0000 C=    0.0000
 XYZ=    1.2912   -2.8351    0.9050 Q=    0.0099 A=    0.0000 R=    0.0000 C=    0.0000
 XYZ=   -1.9323   -3.2692    1.4786 Q=   -0.0198 A=    0.0000 R=    0.0000 C=    0.0000
 XYZ=   -2.4616   -3.6448    0.7751 Q=    0.0099 A=    0.0000 R=    0.0000 C=    0.0000
 XYZ=   -1.5214   -2.4997    1.0846 Q=    0.0099 A=    0.0000 R=    0.0000 C=    0.0000
 XYZ=   -2.0808   -0.1598   -3.5853 Q=   -0.0198 A=    0.0000 R=    0.0000 C=    0.0000
 XYZ=   -1.1927    0.1682   -3.4440 Q=    0.0099 A=    0.0000 R=    0.0000 C=    0.0000
 XYZ=   -0.1340   -0.6450    3.4641 Q=   -0.0198 A=    0.0000 R=    0.0000 C=    0.0000
 XYZ=   -0.6133    0.0803    3.8647 Q=    0.0099 A=    0.0000 R=    0.0000 C=    0.0000
 XYZ=   -0.3929   -0.6232    2.5428 Q=    0.0099 A=    0.0000 R=    0.0000 C=    0.0000
 XYZ=   -4.8131   -3.6510    0.8247 Q=    0.0099 A=    0.0000 R=    0.0000 C=    0.0000
 XYZ=   -4.0651    0.1453    2.4991 Q=    0.0099 A=    0.0000 R=    0.0000 C=    0.0000
 XYZ=    0.9952   -2.8024   -1.3493 Q=    0.0099 A=    0.0000 R=    0.0000 C=    0.0000
 XYZ=    0.4083    0.8427   -4.1291 Q=   -0.0198 A=    0.0000 R=    0.0000 C=    0.0000
 XYZ=   -3.3190   -1.4955    3.5185 Q=   -0.0198 A=    0.0000 R=    0.0000 C=    0.0000
 XYZ=   -3.0224   -2.1043    2.8420 Q=    0.0099 A=    0.0000 R=    0.0000 C=    0.0000
 XYZ=   -3.9043   -0.2340   -3.9016 Q=    0.0099 A=    0.0000 R=    0.0000 C=    0.0000
 XYZ=    5.5757   -2.1312    1.1311 Q=    0.0099 A=    0.0000 R=    0.0000 C=    0.0000
 XYZ=    3.6258    0.5034   -3.3466 Q=   -0.0198 A=    0.0000 R=    0.0000 C=    0.0000
 XYZ=    3.9750   -0.3750   -3.1961 Q=    0.0099 A=    0.0000 R=    0.0000 C=    0.0000
 XYZ=    6.2504   -2.5027   -2.0895 Q=    0.0099 A=    0.0000 R=    0.0000 C=    0.0000
 XYZ=    6.2504    0.9680    1.2522 Q=   -0.0198 A=    0.0000 R=    0.0000 C=    0.0000
 XYZ=    6.9947    0.4167    1.0106 Q=    0.0099 A=    0.0000 R=    0.0000 C=    0.0000
 XYZ=    6.1028    0.7784    2.1787 Q=    0.0099 A=    0.0000 R=    0.0000 C=    0.0000
 XYZ=    6.4522   -0.6376   -2.3883 Q=   -0.0198 A=    0.0000 R=    0.0000 C=    0.0000
 XYZ=    0.4023    3.9943    3.1516 Q=   -0.0198 A=    0.0000 R=    0.0000 C=    0.0000
 XYZ=    3.3004    3.0921    2.2891 Q=   -0.0198 A=    0.0000 R=    0.0000 C=    0.0000
 XYZ=   -4.7973    2.7030   -1.2909 Q=    0.0099 A=    0.0000 R=    0.0000 C=    0.0000
 XYZ=   -4.3956    2.5978    0.4171 Q=   -0.0198 A=    0.0000 R=    0.0000 C=    0.0000
 XYZ=   -4.5900    1.9752    1.1177 Q=    0.0099 A=    0.0000 R=    0.0000 C=    0.0000
 XYZ=   -2.1034    4.0961   -0.6284 Q=    0.0099 A=    0.0000 R=    0.0000 C=    0.0000
 XYZ=    0.6782    3.4447    2.4180 Q=    0.0099 A=    0.0000 R=    0.0000 C=    0.0000
 XYZ=    3.4678    3.1997    1.3528 Q=    0.0099 A=    0.0000 R=    0.0000 C=    0.0000
 XYZ=    0.9445    1.7340   -4.0027 Q=   -0.0198 A=    0.0000 R=    0.0000 C=    0.0000
 XYZ=    1.1888    2.5104   -3.4989 Q=    0.0099 A=    0.0000 R=    0.0000 C=    0.0000
 XYZ=    1.6485    1.1078   -3.8341 Q=    0.0099 A=    0.0000 R=    0.0000 C=    0.0000
 XYZ=    3.2005    3.9896   -0.1773 Q=   -0.0198 A=    0.0000 R=    0.0000 C=    0.0000
 XYZ=    2.8057    4.8384    0.0225 Q=    0.0099 A=    0.0000 R=    0.0000 C=    0.0000
 XYZ=   -3.5882   -4.1354   -1.3615 Q=    0.0099 A=    0.0000 R=    0.0000 C=    0.0000
 XYZ=    1.8597   -3.5423    1.9645 Q=   -0.0198 A=    0.0000 R=    0.0000 C=    0.0000
 XYZ=    1.8095   -3.1423    2.8327 Q=    0.0099 A=    0.0000 R=    0.0000 C=    0.0000
 XYZ=    1.4664   -2.8949    1.3794 Q=    0.0099 A=    0.0000 R=    0.0000 C=    0.0000
 XYZ=   -1.8539   -2.8750    1.1920 Q=    0.0099 A=    0.0000 R=    0.0000 C=    0.0000
 XYZ=   -1.9931    0.3563   -4.0619 Q=   -0.0198 A=    0.0000 R=    0.0000 C=    0.0000
 XYZ=   -1.0619    0.1352   -4.0771 Q=    0.0099 A=    0.0000 R=    0.0000 C=    0.0000
 XYZ=   -0.8235   -0.2093    3.8314 Q=   -0.0198 A=    0.0000 R=    0.0000 C=    0.0000
 XYZ=   -1.2608    0.5584    4.1997 Q=    0.0099 A=    0.0000 R=    0.0000 C=    0.0000
 XYZ=   -1.1224   -0.2422    2.9226 Q=    0.0099 A=    0.0000 R=    0.0000 C=    0.0000
 XYZ=   -4.8679   -3.9499    1.1544 Q=    0.0099 A=    0.0000 R=    0.0000 C=    0.0000
 XYZ=    2.3339   -2.9271   -2.4974 Q=    0.0099 A=    0.0000 R=    0.0000 C=    0.0000
 XYZ=    1.3469   -2.7063   -1.3712 Q=    0.0099 A=    0.0000 R=    0.0000 C=    0.0000
 XYZ=    1.1957    0.0873    3.7206 Q=    0.0099 A=    0.0000 R=    0.0000 C=    0.0000
 XYZ=   -3.6417   -1.2633    3.3753 Q=   -0.0198 A=    0.0000 R=    0.0000 C=    0.0000
 XYZ=   -3.1636   -1.2951    2.5466 Q=    0.0099 A=    0.0000 R=    0.0000 C=    0.0000
 XYZ=   -6.5884    0.2801   -1.3677 Q=   -0.0198 A=    0.0000 R=    0.0000 C=    0.0000
 XYZ=   -6.8402    0.2746   -0.4442 Q=    0.0099 A=    0.0000 R=    0.0000 C=    0.0000
 XYZ=   -5.3671   -0.4497   -3.0785 Q=    0.0099 A=    0.0000 R=    0.0000 C=    0.0000
 XYZ=   -4.0884    0.1163   -3.6579 Q=    0.0099 A=    0.0000 R=    0.0000 C=    0.0000
 XYZ=    6.3499   -2.3604   -1.8599 Q=    0.0099 A=    0.0000 R=    0.0000 C=    0.0000
 XYZ=    6.6731    1.2836    1.3895 Q=   -0.0198 A=    0.0000 R=    0.0000 C=    0.0000
 XYZ=    6.9201    0.4500    0.9889 Q=    0.0099 A=    0.0000 R=    0.0000 C=    0.0000
 XYZ=    4.3697   -0.0377    3.4319 Q=    0.0099 A=    0.0000 R=    0.0000 C=    0.0000
 XYZ=    5.4686   -0.9683    2.9659 Q=    0.0099 A=    0.0000 R=    0.0000 C=    0.0000
 XYZ=    5.6781    0.4271   -2.3457 Q=    0.0099 A=    0.0000 R=    0.0000 C=    0.0000
 XYZ=    3.5443   -2.2256   -3.3858 Q=   -0.0198 A=    0.0000 R=    0.0000 C=    0.0000
 XYZ=    4.4015   -2.4996   -3.0596 Q=    0.0099 A=    0.0000 R=    0.0000 C=    0.0000
 XYZ=    2.0844    1.2853    3.4636 Q=    0.0099 A=    0.0000 R=    0.0000 C=    0.0000
 XYZ=    0.0208    3.8176    3.3807 Q=   -0.0198 A=    0.0000 R=    0.0000 C=    0.0000
 XYZ=    0.9370    3.5945    3.2165 Q=    0.0099 A=    0.0000 R=    0.0000 C=    0.0000
 XYZ=    2.6365    3.0908    2.7599 Q=   -0.0198 A=    0.0000 R=    0.0000 C=    0.0000
 XYZ=   -1.7769    2.7483   -3.6699 Q=    0.0099 A=    0.0000 R=    0.0000 C=    0.0000
 XYZ=   -4.9510    2.8181   -1.4293 Q=    0.0099 A=    0.0000 R=    0.0000 C=    0.0000
 XYZ=   -4.7913    2.6940    0.5050 Q=   -0.0198 A=    0.0000 R=    0.0000 C=    0.0000
 XYZ=   -4.8741    2.2086    1.3259 Q=    0.0099 A=    0.0000 R=    0.0000 C=    0.0000
 XYZ=   -2.2179    5.2970    0.0793 Q=    0.0099 A=    0.0000 R=    0.0000 C=    0.0000
 XYZ=   -0.2288    4.3671    2.6377 Q=    0.0099 A=    0.0000 R=    0.0000 C=    0.0000
 XYZ=    2.5674    3.0667    1.8055 Q=    0.0099 A=    0.0000 R=    0.0000 C=    0.0000
 XYZ=   -0.8880    5.6544    1.2108 Q=   -0.0198 A=    0.0000 R=    0.0000 C=    0.0000
 XYZ=    0.6277    1.7370   -4.0309 Q=   -0.0198 A=    0.0000 R=    0.0000 C=    0.0000
 XYZ=    1.0625    2.4931   -3.6365 Q=    0.0099 A=    0.0000 R=    0.0000 C=    0.0000
 XYZ=    1.3164    1.0763   -4.1048 Q=    0.0099 A=    0.0000 R=    0.0000 C=    0.0000
 XYZ=    3.0592    3.7981   -0.0011 Q=   -0.0198 A=    0.0000 R=    0.0000 C=    0.0000
 XYZ=    2.5694    4.6099   -0.1330 Q=    0.0099 A=    0.0000 R=    0.0000 C=    0.0000
 XYZ=    1.6911   -3.6653    1.6589 Q=   -0.0198 A=    0.0000 R=    0.0000 C=    0.0000
 XYZ=    1.8738   -3.3643    2.5490 Q=    0.0099 A=    0.0000 R=    0.0000 C=    0.0000
 XYZ=    0.9939   -3.0873    1.3490 Q=    0.0099 A=    0.0000 R=    0.0000 C=    0.0000
 XYZ=   -1.4916   -3.5563    1.5932 Q=   -0.0198 A=    0.0000 R=    0.0000 C=    0.0000
 XYZ=   -2.0212   -2.8848    1.1632 Q=    0.0099 A=    0.0000 R=    0.0000 C=    0.0000
 XYZ=   -1.9577   -0.0587   -3.5886 Q=   -0.0198 A=    0.0000 R=    0.0000 C=    0.0000
 XYZ=   -1.1823    0.2214   -4.0750 Q=    0.0099 A=    0.0000 R=    0.0000 C=    0.0000
 XYZ=   -2.2941   -0.8057   -4.0836 Q=    0.0099 A=    0.0000 R=    0.0000 C=    0.0000
 XYZ=   -0.1671   -0.1913    3.6694 Q=   -0.0198 A=    0.0000 R=    0.0000 C=    0.0000
 XYZ=   -0.8271    0.4112    4.0124 Q=    0.0099 A=    0.0000 R=    0.0000 C=    0.0000
 XYZ=   -0.3836   -0.2805    2.7413 Q=    0.0099 A=    0.0000 R=    0.0000 C=    0.0000
 XYZ=   -5.0350   -3.4926    1.1271 Q=    0.0099 A=    0.0000 R=    0.0000 C=    0.0000
 XYZ=    1.0243   -3.1891   -1.8301 Q=   -0.0198 A=    0.0000 R=    0.0000 C=    0.0000
 XYZ=    1.9776   -3.1492   -1.9059 Q=    0.0099 A=    0.0000 R=    0.0000 C=    0.0000
 XYZ=    0.8417   -2.8843   -0.9412 Q=    0.0099 A=    0.0000 R=    0.0000 C=    0.0000
 XYZ=   -3.5677   -0.8232    3.3101 Q=   -0.0198 A=    0.0000 R=    0.0000 C=    0.0000
 XYZ=   -2.7328   -0.7934    2.8428 Q=    0.0099 A=    0.0000 R=    0.0000 C=    0.0000
 XYZ=   -6.5720    0.2321   -1.3770 Q=   -0.0198 A=    0.0000 R=    0.0000 C=    0.0000
 XYZ=   -6.1499    0.2664   -0.5186 Q=    0.0099 A=    0.0000 R=    0.0000 C=    0.0000
 XYZ=   -5.4617   -0.0435   -2.8565 Q=    0.0099 A=    0.0000 R=    0.0000 C=    0.0000
 XYZ=   -4.0765    0.2702   -3.3796 Q=    0.0099 A=    0.0000 R=    0.0000 C=    0.0000
 XYZ=    5.3785   -2.6461    2.2106 Q=   -0.0198 A=    0.0000 R=    0.0000 C=    0.0000
 XYZ=    5.4878   -3.0840    1.3665 Q=    0.0099 A=    0.0000 R=    0.0000 C=    0.0000
 XYZ=    3.3107    0.7992   -3.5689 Q=   -0.0198 A=    0.0000 R=    0.0000 C=    0.0000
 XYZ=    5.8027   -2.6278   -1.7041 Q=   -0.0198 A=    0.0000 R=    0.0000 C=    0.0000
 XYZ=    5.9310   -1.9726   -2.3900 Q=    0.0099 A=    0.0000 R=    0.0000 C=    0.0000
 XYZ=    6.5180   -2.4722   -1.0874 Q=    0.0099 A=    0.0000 R=    0.0000 C=    0.0000
 XYZ=    6.5930    0.6594    1.9786 Q=    0.0099 A=    0.0000 R=    0.0000 C=    0.0000
 XYZ=    5.0529   -0.0135    2.9844 Q=   -0.0198 A=    0.0000 R=    0.0000 C=    0.0000
 XYZ=    4.1500    0.1369    3.2644 Q=    0.0099 A=    0.0000 R=    0.0000 C=    0.0000
 XYZ=    5.1017   -0.9569    2.8297 Q=    0.0099 A=    0.0000 R=    0.0000 C=    0.0000
 XYZ=   -0.2811    3.6181    3.8114 Q=   -0.0198 A=    0.0000 R=    0.0000 C=    0.0000
 XYZ=   -0.4543    4.1967    3.0687 Q=    0.0099 A=    0.0000 R=    0.0000 C=    0.0000
 XYZ=    2.8459    3.6109    2.4489 Q=    0.0099 A=    0.0000 R=    0.0000 C=    0.0000
 XYZ=   -1.8105    3.2796   -3.0829 Q=   -0.0198 A=    0.0000 R=    0.0000 C=    0.0000
 XYZ=   -0.8974    3.2496   -2.7973 Q=    0.0099 A=    0.0000 R=    0.0000 C=    0.0000
 XYZ=   -2.0945    2.3655   -3.0735 Q=    0.0099 A=    0.0000 R=    0.0000 C=    0.0000
 XYZ=   -5.2073    2.7963   -1.1889 Q=    0.0099 A=    0.0000 R=    0.0000 C=    0.0000
 XYZ=   -5.2413    2.0446   -2.5022 Q=    0.0099 A=    0.0000 R=    0.0000 C=    0.0000
 XYZ=    0.5985    1.0542   -3.6642 Q=   -0.0198 A=    0.0000 R=    0.0000 C=    0.0000
 XYZ=   -4.7819    2.2973    1.1954 Q=    0.0099 A=    0.0000 R=    0.0000 C=    0.0000
 XYZ=   -2.3621    5.0280   -0.4894 Q=   -0.0198 A=    0.0000 R=    0.0000 C=    0.0000
 XYZ=   -2.8023    4.2210   -0.2229 Q=    0.0099 A=    0.0000 R=    0.0000 C=    0.0000
 XYZ=   -3.6963    0.7830   -3.4173 Q=    0.0099 A=    0.0000 R=    0.0000 C=    0.0000
 XYZ=    0.9910    3.8320   -2.9685 Q=   -0.0198 A=    0.0000 R=    0.0000 C=    0.0000
 XYZ=    0.6459    2.0102   -3.6572 Q=    0.0099 A=    0.0000 R=    0.0000 C=    0.0000
 XYZ=    3.6290    3.4133    0.6980 Q=   -0.0198 A=    0.0000 R=    0.0000 C=    0.0000
 XYZ=    3.5831    4.0958    0.0284 Q=    0.0099 A=    0.0000 R=    0.0000 C=    0.0000
 XYZ=   -4.3909   -0.5335   -3.6916 Q=    0.0099 A=    0.0000 R=    0.0000 C=    0.0000
 XYZ=    2.0165   -3.4970    1.1283 Q=   -0.0198 A=    0.0000 R=    0.0000 C=    0.0000
 XYZ=    1.9072   -3.5034    2.0793 Q=    0.0099 A=    0.0000 R=    0.0000 C=    0.0000
 XYZ=    1.7863   -2.6055    0.8667 Q=    0.0099 A=    0.0000 R=    0.0000 C=    0.0000
 XYZ=   -1.6614   -3.4512    1.8856 Q=   -0.0198 A=    0.0000 R=    0.0000 C=    0.0000
 XYZ=   -1.3372   -2.5692    1.7033 Q=    0.0099 A=    0.0000 R=    0.0000 C=    0.0000
 XYZ=   -1.8248    0.0060   -3.3880 Q=   -0.0198 A=    0.0000 R=    0.0000 C=    0.0000
 XYZ=   -0.9081    0.2654   -3.4801 Q=    0.0099 A=    0.0000 R=    0.0000 C=    0.0000
 XYZ=   -1.8478   -0.9029   -3.6875 Q=    0.0099 A=    0.0000 R=    0.0000 C=    0.0000
 XYZ=   -0.1932    0.1900    3.4871 Q=   -0.0198 A=    0.0000 R=    0.0000 C=    0.0000
 XYZ=   -0.9364    0.7162    3.7823 Q=    0.0099 A=    0.0000 R=    0.0000 C=    0.0000
 XYZ=   -0.4658   -0.1534    2.6362 Q=    0.0099 A=    0.0000 R=    0.0000 C=    0.0000
 XYZ=   -4.3768   -3.8165    1.1274 Q=    0.0099 A=    0.0000 R=    0.0000 C=    0.0000
 XYZ=    1.0577   -3.6466   -1.7652 Q=   -0.0198 A=    0.0000 R=    0.0000 C=    0.0000
 XYZ=    0.9257   -2.9302   -1.1442 Q=    0.0099 A=    0.0000 R=    0.0000 C=    0.0000
 XYZ=    1.5480    0.6879    3.5960 Q=    0.0099 A=    0.0000 R=    0.0000 C=    0.0000
 XYZ=   -3.6804   -1.1480    3.2547 Q=   -0.0198 A=    0.0000 R=    0.0000 C=    0.0000
 XYZ=   -3.1953   -1.7193    2.6593 Q=    0.0099 A=    0.0000 R=    0.0000 C=    0.0000
 XYZ=   -6.8995    0.4211   -0.0454 Q=    0.0099 A=    0.0000 R=    0.0000 C=    0.0000
 XYZ=   -4.5296    0.3276   -3.2973 Q=   -0.0198 A=    0.0000 R=    0.0000 C=    0.0000
 XYZ=    4.6954   -3.0528    2.4292 Q=   -0.0198 A=    0.0000 R=    0.0000 C=    0.0000
 XYZ=    4.9826   -2.9702    1.5198 Q=    0.0099 A=    0.0000 R=    0.0000 C=    0.0000
 XYZ=    6.3589    1.6364    0.8326 Q=    0.0099 A=    0.0000 R=    0.0000 C=    0.0000
 XYZ=    3.3556    0.4819   -3.4837 Q=   -0.0198 A=    0.0000 R=    0.0000 C=    0.0000
 XYZ=    3.5568   -0.4431   -3.6254 Q=    0.0099 A=    0.0000 R=    0.0000 C=    0.0000
 XYZ=    6.3794   -2.5325   -1.2533 Q=   -0.0198 A=    0.0000 R=    0.0000 C=    0.0000
 XYZ=    6.1702   -2.3647   -2.1722 Q=    0.0099 A=    0.0000 R=    0.0000 C=    0.0000
 XYZ=    6.8886   -1.7693   -0.9804 Q=    0.0099 A=    0.0000 R=    0.0000 C=    0.0000
 XYZ=    4.3310   -0.2634    3.5369 Q=    0.0099 A=    0.0000 R=    0.0000 C=    0.0000
 XYZ=    5.1430   -1.4361    3.0305 Q=    0.0099 A=    0.0000 R=    0.0000 C=    0.0000
 XYZ=    1.5106    0.7688   -3.6102 Q=    0.0099 A=    0.0000 R=    0.0000 C=    0.0000
 XYZ=    4.6800   -3.9980   -1.4230 Q=    0.0099 A=    0.0000 R=    0.0000 C=    0.0000
 XYZ=    2.8902    3.7178    2.4847 Q=    0.0099 A=    0.0000 R=    0.0000 C=    0.0000
 XYZ=   -1.6993    2.2767   -3.6520 Q=    0.0099 A=    0.0000 R=    0.0000 C=    0.0000
 XYZ=   -5.0372    2.9210   -1.0075 Q=    0.0099 A=    0.0000 R=    0.0000 C=    0.0000
 XYZ=   -2.9125    4.7176    0.3833 Q=    0.0099 A=    0.0000 R=    0.0000 C=    0.0000
 XYZ=    3.7339    1.9677   -3.3189 Q=    0.0099 A=    0.0000 R=    0.0000 C=    0.0000
 XYZ=    0.2461    5.3580    0.7431 Q=    0.0099 A=    0.0000 R=    0.0000 C=    0.0000
 XYZ=    1.3013    1.8869   -3.8528 Q=    0.0099 A=    0.0000 R=    0.0000 C=    0.0000
 XYZ=    3.6442    3.3881    0.7677 Q=   -0.0198 A=    0.0000 R=    0.0000 C=    0.0000
 XYZ=   -4.0501   -3.3854   -2.7565 Q=   -0.0198 A=    0.0000 R=    0.0000 C=    0.0000
 XYZ=   -4.6452   -3.4100   -2.0072 Q=    0.0099 A=    0.0000 R=    0.0000 C=    0.0000
 XYZ=   -4.5450   -2.9348   -3.4408 Q=    0.0099 A=    0.0000 R=    0.0000 C=    0.0000
 XYZ=   -6.1520   -1.8127    1.5799 Q=    0.0099 A=    0.0000 R=    0.0000 C=    0.0000
 XYZ=    1.7928   -4.0521    1.1570 Q=   -0.0198 A=    0.0000 R=    0.0000 C=    0.0000
 XYZ=    1.9774   -3.8857    2.0814 Q=    0.0099 A=    0.0000 R=    0.0000 C=    0.0000
 XYZ=    1.2062   -3.3413    0.8982 Q=    0.0099 A=    0.0000 R=    0.0000 C=    0.0000
 XYZ=   -1.9186   -3.3199    1.9686 Q=   -0.0198 A=    0.0000 R=    0.0000 C=    0.0000
 XYZ=   -1.4580   -2.5702    1.5915 Q=    0.0099 A=    0.0000 R=    0.0000 C=    0.0000
 XYZ=   -1.6104    0.4390   -3.8392 Q=   -0.0198 A=    0.0000 R=    0.0000 C=    0.0000
 XYZ=   -0.6561    0.4893   -3.8938 Q=    0.0099 A=    0.0000 R=    0.0000 C=    0.0000
 XYZ=   -1.8272   -0.4138   -4.2160 Q=    0.0099 A=    0.0000 R=    0.0000 C=    0.0000
 XYZ=   -0.0400   -0.3404    3.4325 Q=   -0.0198 A=    0.0000 R=    0.0000 C=    0.0000
 XYZ=   -0.5113    0.4437    3.7141 Q=    0.0099 A=    0.0000 R=    0.0000 C=    0.0000
 XYZ=   -0.4315   -0.5650    2.5884 Q=    0.0099 A=    0.0000 R=    0.0000 C=    0.0000
 XYZ=   -4.8742   -3.1966    1.4512 Q=   -0.0198 A=    0.0000 R=    0.0000 C=    0.0000
 XYZ=   -4.0555   -3.5835    1.1408 Q=    0.0099 A=    0.0000 R=    0.0000 C=    0.0000
 XYZ=    1.2162   -3.5138   -1.6849 Q=   -0.0198 A=    0.0000 R=    0.0000 C=    0.0000
 XYZ=    1.1028   -2.7231   -1.1575 Q=    0.0099 A=    0.0000 R=    0.0000 C=    0.0000
 XYZ=   -3.8844   -1.0067    2.8512 Q=   -0.0198 A=    0.0000 R=    0.0000 C=    0.0000
 XYZ=   -4.1381   -1.8855    2.5688 Q=    0.0099 A=    0.0000 R=    0.0000 C=    0.0000
 XYZ=   -2.9507   -0.9501    2.6482 Q=    0.0099 A=    0.0000 R=    0.0000 C=    0.0000
 XYZ=   -6.3967   -0.1898   -1.5592 Q=    0.0099 A=    0.0000 R=    0.0000 C=    0.0000
 XYZ=    3.7904    0.1586   -3.3178 Q=   -0.0198 A=    0.0000 R=    0.0000 C=    0.0000
 XYZ=    3.8531   -0.7955   -3.2735 Q=    0.0099 A=    0.0000 R=    0.0000 C=    0.0000
 XYZ=    6.1205   -2.7495   -0.6697 Q=   -0.0198 A=    0.0000 R=    0.0000 C=    0.0000
 XYZ=    6.2012   -1.8046   -0.5397 Q=    0.0099 A=    0.0000 R=    0.0000 C=    0.0000
 XYZ=    1.0155    0.9885   -4.0182 Q=   -0.0198 A=    0.0000 R=    0.0000 C=    0.0000
 XYZ=    2.9137    0.3131    3.1461 Q=   -0.0198 A=    0.0000 R=    0.0000 C=    0.0000
 XYZ=   -0.4761    3.4887    3.8476 Q=   -0.0198 A=    0.0000 R=    0.0000 C=    0.0000
 XYZ=   -0.2908    3.9924    3.0550 Q=    0.0099 A=    0.0000 R=    0.0000 C=    0.0000
 XYZ=    2.6620    3.1170    2.9288 Q=   -0.0198 A=    0.0000 R=    0.0000 C=    0.0000
 XYZ=   -2.0543    2.0930   -3.5962 Q=    0.0099 A=    0.0000 R=    0.0000 C=    0.0000
 XYZ=   -0.9766    1.9266    4.5101 Q=    0.0099 A=    0.0000 R=    0.0000 C=    0.0000
 XYZ=   -5.3985    2.5196   -1.4712 Q=   -0.0198 A=    0.0000 R=    0.0000 C=    0.0000
 XYZ=   -4.7625    2.7243   -0.7858 Q=    0.0099 A=    0.0000 R=    0.0000 C=    0.0000
 XYZ=   -6.1568    2.1752   -0.9992 Q=    0.0099 A=    0.0000 R=    0.0000 C=    0.0000
 XYZ=    2.2024    3.2315    2.0970 Q=    0.0099 A=    0.0000 R=    0.0000 C=    0.0000
 XYZ=   -0.2352    5.5787   -0.2826 Q=    0.0099 A=    0.0000 R=    0.0000 C=    0.0000
 XYZ=    3.9323    2.7673   -0.1461 Q=   -0.0198 A=    0.0000 R=    0.0000 C=    0.0000
 XYZ=    4.5040    2.3410    0.4923 Q=    0.0099 A=    0.0000 R=    0.0000 C=    0.0000
 XYZ=   -4.2181   -3.6962   -2.8788 Q=   -0.0198 A=    0.0000 R=    0.0000 C=    0.0000
 XYZ=   -3.8308   -3.9196   -2.0324 Q=    0.0099 A=    0.0000 R=    0.0000 C=    0.0000
 XYZ=   -6.6165   -1.0759    0.7272 Q=   -0.0198 A=    0.0000 R=    0.0000 C=    0.0000
 XYZ=   -6.4136   -0.3846    1.3574 Q=    0.0099 A=    0.0000 R=    0.0000 C=    0.0000
 XYZ=   -6.2413   -1.8681    1.1117 Q=    0.0099 A=    0.0000 R=    0.0000 C=    0.0000
 XYZ=    1.6420   -3.8270    1.0724 Q=   -0.0198 A=    0.0000 R=    0.0000 C=    0.0000
 XYZ=    1.8832   -3.9014    1.9957 Q=    0.0099 A=    0.0000 R=    0.0000 C=    0.0000
 XYZ=    1.6635   -2.8867    0.8942 Q=    0.0099 A=    0.0000 R=    0.0000 C=    0.0000
 XYZ=   -1.8244   -3.1158    2.4885 Q=   -0.0198 A=    0.0000 R=    0.0000 C=    0.0000
 XYZ=   -0.8674   -3.1227    2.5079 Q=    0.0099 A=    0.0000 R=    0.0000 C=    0.0000
 XYZ=   -2.0442   -2.6744    1.6681 Q=    0.0099 A=    0.0000 R=    0.0000 C=    0.0000
 XYZ=   -1.7956    0.2767   -3.5424 Q=   -0.0198 A=    0.0000 R=    0.0000 C=    0.0000
 XYZ=   -0.9686    0.4069   -4.0064 Q=    0.0099 A=    0.0000 R=    0.0000 C=    0.0000
 XYZ=   -2.2488   -0.3996   -4.0459 Q=    0.0099 A=    0.0000 R=    0.0000 C=    0.0000
 XYZ=    3.0764   -2.3924    3.5649 Q=    0.0099 A=    0.0000 R=    0.0000 C=    0.0000
 XYZ=   -0.1097   -0.7372    3.2755 Q=   -0.0198 A=    0.0000 R=    0.0000 C=    0.0000
 XYZ=   -0.5622   -0.1089    3.8383 Q=    0.0099 A=    0.0000 R=    0.0000 C=    0.0000
 XYZ=   -0.5445   -0.6550    2.4267 Q=    0.0099 A=    0.0000 R=    0.0000 C=    0.0000
 XYZ=   -4.9288   -3.4473    1.9334 Q=   -0.0198 A=    0.0000 R=    0.0000 C=    0.0000
 XYZ=   -4.7402   -3.3499    1.0000 Q=    0.0099 A=    0.0000 R=    0.0000 C=    0.0000
 XYZ=   -4.2102    0.4366    2.4933 Q=    0.0099 A=    0.0000 R=    0.0000 C=    0.0000
 XYZ=    1.3361   -3.2658   -1.6288 Q=   -0.0198 A=    0.0000 R=    0.0000 C=    0.0000
 XYZ=    1.1506   -2.5688   -0.9995 Q=    0.0099 A=    0.0000 R=    0.0000 C=    0.0000
 XYZ=    2.4522   -2.5950   -2.7426 Q=    0.0099 A=    0.0000 R=    0.0000 C=    0.0000
 XYZ=    4.5637   -4.0050   -1.4377 Q=    0.0099 A=    0.0000 R=    0.0000 C=    0.0000
 XYZ=   -3.3896   -0.9162    3.5577 Q=   -0.0198 A=    0.0000 R=    0.0000 C=    0.0000
 XYZ=   -2.6180   -1.0643    3.0108 Q=    0.0099 A=    0.0000 R=    0.0000 C=    0.0000
 XYZ=    5.1123   -2.9805    2.0681 Q=   -0.0198 A=    0.0000 R=    0.0000 C=    0.0000
 XYZ=    5.6619   -2.9076    1.2878 Q=    0.0099 A=    0.0000 R=    0.0000 C=    0.0000
 XYZ=    3.3646   -0.7043   -3.4592 Q=    0.0099 A=    0.0000 R=    0.0000 C=    0.0000
 XYZ=    4.6468   -0.6724    3.4910 Q=    0.0099 A=    0.0000 R=    0.0000 C=    0.0000
 XYZ=    6.6070   -0.2936   -1.5426 Q=   -0.0198 A=    0.0000 R=    0.0000 C=    0.0000
 XYZ=    5.7864    0.1981   -1.5101 Q=    0.0099 A=    0.0000 R=    0.0000 C=    0.0000
 XYZ=    6.4891   -0.9087   -2.2665 Q=    0.0099 A=    0.0000 R=    0.0000 C=    0.0000
 XYZ=    3.3176   -2.4669   -3.1309 Q=   -0.0198 A=    0.0000 R=    0.0000 C=    0.0000
 XYZ=   -0.0797    3.9368    3.2063 Q=    0.0099 A=    0.0000 R=    0.0000 C=    0.0000
 XYZ=    1.9892    3.7684    3.0236 Q=    0.0099 A=    0.0000 R=    0.0000 C=    0.0000
 XYZ=   -1.2360    2.4866   -3.8066 Q=    0.0099 A=    0.0000 R=    0.0000 C=    0.0000
 XYZ=   -0.6867    3.3064    3.5942 Q=   -0.0198 A=    0.0000 R=    0.0000 C=    0.0000
 XYZ=   -0.7186    1.5336    4.0993 Q=    0.0099 A=    0.0000 R=    0.0000 C=    0.0000
 XYZ=   -5.0467    2.4041   -1.1749 Q=   -0.0198 A=    0.0000 R=    0.0000 C=    0.0000
 XYZ=   -4.6173    2.3864   -0.3196 Q=    0.0099 A=    0.0000 R=    0.0000 C=    0.0000
 XYZ=   -5.7498    1.7585   -1.1034 Q=    0.0099 A=    0.0000 R=    0.0000 C=    0.0000
 XYZ=   -2.6237    4.9526    0.9782 Q=    0.0099 A=    0.0000 R=    0.0000 C=    0.0000
 XYZ=    2.0261    5.1681   -0.3778 Q=    0.0099 A=    0.0000 R=    0.0000 C=    0.0000
 XYZ=   -0.2720    5.4573    1.8733 Q=    0.0099 A=    0.0000 R=    0.0000 C=    0.0000
 XYZ=    3.5185    2.8146   -0.9488 Q=   -0.0198 A=    0.0000 R=    0.0000 C=    0.0000
 XYZ=    3.3891    3.3862   -0.1919 Q=    0.0099 A=    0.0000 R=    0.0000 C=    0.0000
 XYZ=    4.4666    2.8019   -1.0800 Q=    0.0099 A=    0.0000 R=    0.0000 C=    0.0000
 XYZ=    4.5836   -3.3218    1.7391 Q=   -0.0198 A=    0.0000 R=    0.0000 C=    0.0000
 XYZ=   -6.7683   -2.0389    0.6921 Q=    0.0099 A=    0.0000 R=    0.0000 C=    0.0000
 XYZ=    1.4656   -3.8763    1.4605 Q=   -0.0198 A=    0.0000 R=    0.0000 C=    0.0000
 XYZ=    1.9392   -3.2364    0.9289 Q=    0.0099 A=    0.0000 R=    0.0000 C=    0.0000
 XYZ=   -1.1853   -2.6905    1.7721 Q=    0.0099 A=    0.0000 R=    0.0000 C=    0.0000
 XYZ=   -1.3923    0.7942   -3.8669 Q=   -0.0198 A=    0.0000 R=    0.0000 C=    0.0000
 XYZ=   -0.5628    0.6289   -4.3150 Q=    0.0099 A=    0.0000 R=    0.0000 C=    0.0000
 XYZ=   -2.0135    0.1980   -4.2852 Q=    0.0099 A=    0.0000 R=    0.0000 C=    0.0000
 XYZ=    3.3339   -2.9333    3.2960 Q=    0.0099 A=    0.0000 R=    0.0000 C=    0.0000
 XYZ=    0.6214   -1.0657    2.9088 Q=   -0.0198 A=    0.0000 R=    0.0000 C=    0.0000
 XYZ=    0.0635   -0.4992    3.4417 Q=    0.0099 A=    0.0000 R=    0.0000 C=    0.0000
 XYZ=    0.1044   -1.2394    2.1221 Q=    0.0099 A=    0.0000 R=    0.0000 C=    0.0000
 XYZ=    1.0620   -2.7710   -1.5833 Q=    0.0099 A=    0.0000 R=    0.0000 C=    0.0000
 XYZ=    3.0587   -3.0669   -2.6552 Q=    0.0099 A=    0.0000 R=    0.0000 C=    0.0000
 XYZ=   -3.2388   -0.8205    2.7146 Q=    0.0099 A=    0.0000 R=    0.0000 C=    0.0000
 XYZ=    5.0517   -2.9923    0.9719 Q=    0.0099 A=    0.0000 R=    0.0000 C=    0.0000
 XYZ=    6.0743    1.6178    1.4108 Q=    0.0099 A=    0.0000 R=    0.0000 C=    0.0000
 XYZ=    3.4916   -0.6841   -3.6199 Q=    0.0099 A=    0.0000 R=    0.0000 C=    0.0000
 XYZ=    6.2330   -3.1626   -0.3025 Q=   -0.0198 A=    0.0000 R=    0.0000 C=    0.0000
 XYZ=    6.3596   -2.2900   -0.6750 Q=    0.0099 A=    0.0000 R=    0.0000 C=    0.0000
 XYZ=    4.9719   -1.4825    2.9305 Q=    0.0099 A=    0.0000 R=    0.0000 C=    0.0000
 XYZ=    6.5597   -0.2089   -1.7756 Q=   -0.0198 A=    0.0000 R=    0.0000 C=    0.0000
 XYZ=   -1.6350    2.6171   -3.6030 Q=    0.0099 A=    0.0000 R=    0.0000 C=    0.0000
 XYZ=   -0.7836    3.3166    3.6939 Q=   -0.0198 A=    0.0000 R=    0.0000 C=    0.0000
 XYZ=   -0.3607    3.9292    3.0921 Q=    0.0099 A=    0.0000 R=    0.0000 C=    0.0000
 XYZ=   -1.2430    1.3481    4.0399 Q=    0.0099 A=    0.0000 R=    0.0000 C=    0.0000
 XYZ=   -6.3662    1.5284   -1.1290 Q=    0.0099 A=    0.0000 R=    0.0000 C=    0.0000
 XYZ=   -1.4893    0.8897   -3.4328 Q=   -0.0198 A=    0.0000 R=    0.0000 C=    0.0000
 XYZ=   -0.6530    0.8737   -3.8980 Q=    0.0099 A=    0.0000 R=    0.0000 C=    0.0000
 XYZ=    5.5796    1.9001    1.0441 Q=   -0.0198 A=    0.0000 R=    0.0000 C=    0.0000
 XYZ=    1.5214    3.8510   -2.8354 Q=    0.0099 A=    0.0000 R=    0.0000 C=    0.0000
 XYZ=    3.3922    2.6827   -1.3481 Q=   -0.0198 A=    0.0000 R=    0.0000 C=    0.0000
 XYZ=    3.8986    2.4551   -0.5683 Q=    0.0099 A=    0.0000 R=    0.0000 C=    0.0000
 XYZ=    4.0502    2.9354   -1.9957 Q=    0.0099 A=    0.0000 R=    0.0000 C=    0.0000
 XYZ=   -3.1638   -1.8553   -4.0731 Q=    0.0099 A=    0.0000 R=    0.0000 C=    0.0000
 XYZ=    2.0749   -3.9410    0.5074 Q=   -0.0198 A=    0.0000 R=    0.0000 C=    0.0000
 XYZ=    2.9747   -3.6881    0.7139 Q=    0.0099 A=    0.0000 R=    0.0000 C=    0.0000
 XYZ=    1.6619   -3.1318    0.2059 Q=    0.0099 A=    0.0000 R=    0.0000 C=    0.0000
 XYZ=   -0.8590   -3.4618    1.3478 Q=   -0.0198 A=    0.0000 R=    0.0000 C=    0.0000
 XYZ=   -0.0136   -3.0259    1.4551 Q=    0.0099 A=    0.0000 R=    0.0000 C=    0.0000
 XYZ=   -1.3057   -2.9545    0.6701 Q=    0.0099 A=    0.0000 R=    0.0000 C=    0.0000
 XYZ=   -2.0163    0.2170   -3.8639 Q=    0.0099 A=    0.0000 R=    0.0000 C=    0.0000
 XYZ=    2.9951   -2.8865    3.2659 Q=    0.0099 A=    0.0000 R=    0.0000 C=    0.0000
 XYZ=   -0.0646   -1.0877    3.4332 Q=    0.0099 A=    0.0000 R=    0.0000 C=    0.0000
 XYZ=    0.7374   -0.4765    2.3044 Q=    0.0099 A=    0.0000 R=    0.0000 C=    0.0000
 XYZ=   -4.3710    0.1850    2.2734 Q=    0.0099 A=    0.0000 R=    0.0000 C=    0.0000
 XYZ=    1.2911   -2.9811   -2.2403 Q=    0.0099 A=    0.0000 R=    0.0000 C=    0.0000
 XYZ=   -3.7181   -1.4820    2.9388 Q=   -0.0198 A=    0.0000 R=    0.0000 C=    0.0000
 XYZ=   -3.0187   -1.3014    2.3107 Q=    0.0099 A=    0.0000 R=    0.0000 C=    0.0000
 XYZ=    5.2441   -2.9298    1.7824 Q=   -0.0198 A=    0.0000 R=    0.0000 C=    0.0000
 XYZ=    5.4492   -3.0703    0.8581 Q=    0.0099 A=    0.0000 R=    0.0000 C=    0.0000
 XYZ=    6.2059    1.2000    1.2283 Q=    0.0099 A=    0.0000 R=    0.0000 C=    0.0000
 XYZ=    6.0785   -2.7956   -0.7673 Q=   -0.0198 A=    0.0000 R=    0.0000 C=    0.0000
 XYZ=    6.0218   -1.9173   -1.1435 Q=    0.0099 A=    0.0000 R=    0.0000 C=    0.0000
 XYZ=    5.5501   -0.5813    3.2059 Q=   -0.0198 A=    0.0000 R=    0.0000 C=    0.0000
 XYZ=    4.6634   -0.3599    3.4905 Q=    0.0099 A=    0.0000 R=    0.0000 C=    0.0000
 XYZ=    5.4677   -1.4549    2.8233 Q=    0.0099 A=    0.0000 R=    0.0000 C=    0.0000
 XYZ=    6.3912   -0.4461   -1.9276 Q=   -0.0198 A=    0.0000 R=    0.0000 C=    0.0000
 XYZ=    5.9771    0.3972   -2.1110 Q=    0.0099 A=    0.0000 R=    0.0000 C=    0.0000
 XYZ=    6.1117   -1.0118   -2.6474 Q=    0.0099 A=    0.0000 R=    0.0000 C=    0.0000
 XYZ=    4.8789   -3.9270   -1.2283 Q=    0.0099 A=    0.0000 R=    0.0000 C=    0.0000
 XYZ=   -0.4182    3.3441    3.8490 Q=   -0.0198 A=    0.0000 R=    0.0000 C=    0.0000
 XYZ=    0.1116    3.9730    3.3589 Q=    0.0099 A=    0.0000 R=    0.0000 C=    0.0000
 XYZ=   -1.2032    2.2801   -3.6672 Q=    0.0099 A=    0.0000 R=    0.0000 C=    0.0000
 XYZ=   -0.6384    1.6242    4.2773 Q=    0.0099 A=    0.0000 R=    0.0000 C=    0.0000
 XYZ=   -4.6783    2.9688   -1.4524 Q=    0.0099 A=    0.0000 R=    0.0000 C=    0.0000
 XYZ=    5.4331    2.2477    1.0255 Q=   -0.0198 A=    0.0000 R=    0.0000 C=    0.0000
 XYZ=    3.3423    2.6613   -1.6211 Q=   -0.0198 A=    0.0000 R=    0.0000 C=    0.0000
 XYZ=    3.8909    2.5266   -0.8483 Q=    0.0099 A=    0.0000 R=    0.0000 C=    0.0000
 XYZ=    3.9085    2.4356   -2.3591 Q=    0.0099 A=    0.0000 R=    0.0000 C=    0.0000
 XYZ=    2.5355    1.6132    2.6621 Q=    0.0099 A=    0.0000 R=    0.0000 C=    0.0000
 XYZ=   -3.3642   -1.6193   -4.2115 Q=   -0.0198 A=    0.0000 R=    0.0000 C=    0.0000
 XYZ=   -6.4822   -1.3334    1.1834 Q=   -0.0198 A=    0.0000 R=    0.0000 C=    0.0000
 XYZ=   -6.4658   -2.2690    0.9817 Q=    0.0099 A=    0.0000 R=    0.0000 C=    0.0000
 XYZ=    1.8112   -4.0146   -0.0004 Q=   -0.0198 A=    0.0000 R=    0.0000 C=    0.0000
 XYZ=    2.0045   -3.2281    0.5097 Q=    0.0099 A=    0.0000 R=    0.0000 C=    0.0000
 XYZ=   -0.7405   -3.5694    1.0088 Q=   -0.0198 A=    0.0000 R=    0.0000 C=    0.0000
 XYZ=    0.0117   -3.8674    0.4973 Q=    0.0099 A=    0.0000 R=    0.0000 C=    0.0000
 XYZ=   -0.8160   -2.6376    0.8032 Q=    0.0099 A=    0.0000 R=    0.0000 C=    0.0000
 XYZ=   -1.6681    0.3813   -3.6316 Q=   -0.0198 A=    0.0000 R=    0.0000 C=    0.0000
 XYZ=   -0.8598    0.1659   -4.0969 Q=    0.0099 A=    0.0000 R=    0.0000 C=    0.0000
 XYZ=   -2.2871   -0.2977   -3.8998 Q=    0.0099 A=    0.0000 R=    0.0000 C=    0.0000
 XYZ=   -0.0319   -1.5986    3.3694 Q=   -0.0198 A=    0.0000 R=    0.0000 C=    0.0000
 XYZ=   -0.2690   -0.6719    3.4043 Q=    0.0099 A=    0.0000 R=    0.0000 C=    0.0000
 XYZ=   -0.0390   -1.8127    2.4365 Q=    0.0099 A=    0.0000 R=    0.0000 C=    0.0000
 XYZ=   -4.8160    0.5859    2.1453 Q=   -0.0198 A=    0.0000 R=    0.0000 C=    0.0000
 XYZ=   -4.2857   -0.0340    2.6461 Q=    0.0099 A=    0.0000 R=    0.0000 C=    0.0000
 XYZ=   -5.5151    0.0523    1.7675 Q=    0.0099 A=    0.0000 R=    0.0000 C=    0.0000
 XYZ=    0.4616   -2.8761   -1.7791 Q=    0.0099 A=    0.0000 R=    0.0000 C=    0.0000
 XYZ=   -3.1978   -0.9584    3.7065 Q=   -0.0198 A=    0.0000 R=    0.0000 C=    0.0000
 XYZ=   -2.3320   -0.6771    3.4107 Q=    0.0099 A=    0.0000 R=    0.0000 C=    0.0000
 XYZ=   -6.9000    0.0869   -1.0346 Q=   -0.0198 A=    0.0000 R=    0.0000 C=    0.0000
 XYZ=   -6.7667   -0.2498   -0.1485 Q=    0.0099 A=    0.0000 R=    0.0000 C=    0.0000
 XYZ=    5.3017   -2.5676    1.7794 Q=   -0.0198 A=    0.0000 R=    0.0000 C=    0.0000
 XYZ=    5.6968   -2.4513    0.9154 Q=    0.0099 A=    0.0000 R=    0.0000 C=    0.0000
 XYZ=    6.4215   -2.2379   -1.3548 Q=    0.0099 A=    0.0000 R=    0.0000 C=    0.0000
 XYZ=    5.2456   -0.8072    3.2406 Q=    0.0099 A=    0.0000 R=    0.0000 C=    0.0000
 XYZ=    6.3830   -0.4471   -2.1052 Q=   -0.0198 A=    0.0000 R=    0.0000 C=    0.0000
 XYZ=    5.9359    0.3495   -2.3910 Q=    0.0099 A=    0.0000 R=    0.0000 C=    0.0000
 XYZ=    4.9150   -3.9762   -1.3219 Q=    0.0099 A=    0.0000 R=    0.0000 C=    0.0000
 XYZ=   -0.4862    3.8424    3.5231 Q=   -0.0198 A=    0.0000 R=    0.0000 C=    0.0000
 XYZ=   -0.0215    2.0060    4.4455 Q=    0.0099 A=    0.0000 R=    0.0000 C=    0.0000
 XYZ=   -0.6079    3.0596   -3.3590 Q=   -0.0198 A=    0.0000 R=    0.0000 C=    0.0000
 XYZ=   -1.0679    2.2755   -3.0594 Q=    0.0099 A=    0.0000 R=    0.0000 C=    0.0000
 XYZ=   -4.5929    0.9823    2.1733 Q=   -0.0198 A=    0.0000 R=    0.0000 C=    0.0000
 XYZ=   -2.5978    4.9088    1.4198 Q=    0.0099 A=    0.0000 R=    0.0000 C=    0.0000
 XYZ=    0.2542    2.7431   -3.6291 Q=    0.0099 A=    0.0000 R=    0.0000 C=    0.0000
 XYZ=    5.3006    2.2825    0.8433 Q=   -0.0198 A=    0.0000 R=    0.0000 C=    0.0000
 XYZ=    3.7580    2.5685   -1.3837 Q=   -0.0198 A=    0.0000 R=    0.0000 C=    0.0000
 XYZ=    4.1363    2.1238   -0.6252 Q=    0.0099 A=    0.0000 R=    0.0000 C=    0.0000
 XYZ=    4.1200    2.1046   -2.1386 Q=    0.0099 A=    0.0000 R=    0.0000 C=    0.0000
 XYZ=   -6.7597   -0.6231    0.8991 Q=   -0.0198 A=    0.0000 R=    0.0000 C=    0.0000
 XYZ=   -6.8821   -1.5087    0.5572 Q=    0.0099 A=    0.0000 R=    0.0000 C=    0.0000
 XYZ=    1.7459   -3.8355    0.5687 Q=   -0.0198 A=    0.0000 R=    0.0000 C=    0.0000
 XYZ=    2.6395   -3.9209    0.2364 Q=    0.0099 A=    0.0000 R=    0.0000 C=    0.0000
 XYZ=    1.4605   -2.9723    0.2693 Q=    0.0099 A=    0.0000 R=    0.0000 C=    0.0000
 XYZ=   -0.9599   -3.5384    0.9285 Q=   -0.0198 A=    0.0000 R=    0.0000 C=    0.0000
 XYZ=   -0.1135   -3.5863    0.4841 Q=    0.0099 A=    0.0000 R=    0.0000 C=    0.0000
 XYZ=   -1.3030   -2.6751    0.6977 Q=    0.0099 A=    0.0000 R=    0.0000 C=    0.0000
 XYZ=   -1.3235    0.4834   -3.4281 Q=   -0.0198 A=    0.0000 R=    0.0000 C=    0.0000
 XYZ=   -0.4277    0.4014   -3.7552 Q=    0.0099 A=    0.0000 R=    0.0000 C=    0.0000
 XYZ=   -1.8554    0.0053   -4.0642 Q=    0.0099 A=    0.0000 R=    0.0000 C=    0.0000
 XYZ=   -0.7809   -1.9409    3.7324 Q=   -0.0198 A=    0.0000 R=    0.0000 C=    0.0000
 XYZ=   -0.5360   -1.3343    3.0337 Q=    0.0099 A=    0.0000 R=    0.0000 C=    0.0000
 XYZ=   -3.9808    0.5120    2.7393 Q=    0.0099 A=    0.0000 R=    0.0000 C=    0.0000
 XYZ=   -5.2773    0.3426    1.9766 Q=    0.0099 A=    0.0000 R=    0.0000 C=    0.0000
 XYZ=    0.1091   -2.0177   -2.5842 Q=    0.0099 A=    0.0000 R=    0.0000 C=    0.0000
 XYZ=   -2.7333   -0.8602    3.3266 Q=    0.0099 A=    0.0000 R=    0.0000 C=    0.0000
 XYZ=   -6.9457    0.1169   -0.6488 Q=    0.0099 A=    0.0000 R=    0.0000 C=    0.0000
 XYZ=    6.6124   -2.5547   -0.8431 Q=   -0.0198 A=    0.0000 R=    0.0000 C=    0.0000
 XYZ=    6.6894   -1.8342   -1.4685 Q=    0.0099 A=    0.0000 R=    0.0000 C=    0.0000
 XYZ=    5.4131   -1.4344    2.9672 Q=    0.0099 A=    0.0000 R=    0.0000 C=    0.0000
 XYZ=    3.3106    1.1975    2.9092 Q=   -0.0198 A=    0.0000 R=    0.0000 C=    0.0000
 XYZ=    3.9388    1.4755    2.2426 Q=    0.0099 A=    0.0000 R=    0.0000 C=    0.0000
 XYZ=    4.9988   -3.6096   -0.7757 Q=    0.0099 A=    0.0000 R=    0.0000 C=    0.0000
 XYZ=   -1.4765    4.4838    2.8758 Q=    0.0099 A=    0.0000 R=    0.0000 C=    0.0000
 XYZ=    0.6603    2.0110    3.7668 Q=    0.0099 A=    0.0000 R=    0.0000 C=    0.0000
 XYZ=   -0.7185    1.6576    4.2815 Q=    0.0099 A=    0.0000 R=    0.0000 C=    0.0000
 XYZ=   -4.7425    1.5210    1.9855 Q=   -0.0198 A=    0.0000 R=    0.0000 C=    0.0000
 XYZ=    0.3181    2.6296   -3.5488 Q=    0.0099 A=    0.0000 R=    0.0000 C=    0.0000
 XYZ=    3.6023    2.6499   -1.3284 Q=   -0.0198 A=    0.0000 R=    0.0000 C=    0.0000
 XYZ=    4.4133    2.3367   -0.9279 Q=    0.0099 A=    0.0000 R=    0.0000 C=    0.0000
 XYZ=    3.8328    2.8081   -2.2439 Q=    0.0099 A=    0.0000 R=    0.0000 C=    0.0000
 XYZ=   -6.7085   -0.1380    0.5991 Q=   -0.0198 A=    0.0000 R=    0.0000 C=    0.0000
 XYZ=   -6.4915   -1.0602    0.4623 Q=    0.0099 A=    0.0000 R=    0.0000 C=    0.0000
 XYZ=    0.1924    1.3640    4.2948 Q=   -0.0198 A=    0.0000 R=    0.0000 C=    0.0000
 XYZ=    1.8481   -3.8411    0.3017 Q=   -0.0198 A=    0.0000 R=    0.0000 C=    0.0000
 XYZ=    2.6136   -4.0699   -0.2255 Q=    0.0099 A=    0.0000 R=    0.0000 C=    0.0000
 XYZ=    1.5394   -3.0150   -0.0703 Q=    0.0099 A=    0.0000 R=    0.0000 C=    0.0000
 XYZ=    0.1867   -3.9960    0.5854 Q=    0.0099 A=    0.0000 R=    0.0000 C=    0.0000
 XYZ=   -1.1957   -3.3921    0.4623 Q=    0.0099 A=    0.0000 R=    0.0000 C=    0.0000
 XYZ=   -2.0643    0.2385   -3.5827 Q=   -0.0198 A=    0.0000 R=    0.0000 C=    0.0000
 XYZ=   -1.1475    0.5013   -3.6640 Q=    0.0099 A=    0.0000 R=    0.0000 C=    0.0000
 XYZ=   -2.1880   -0.4155   -4.2706 Q=    0.0099 A=    0.0000 R=    0.0000 C=    0.0000
 XYZ=    2.0443   -1.4934    3.2261 Q=   -0.0198 A=    0.0000 R=    0.0000 C=    0.0000
 XYZ=    2.3671   -0.7935    2.6586 Q=    0.0099 A=    0.0000 R=    0.0000 C=    0.0000
 XYZ=   -0.7351   -2.1248    3.2864 Q=   -0.0198 A=    0.0000 R=    0.0000 C=    0.0000
 XYZ=   -1.1562   -1.9001    2.4567 Q=    0.0099 A=    0.0000 R=    0.0000 C=    0.0000
 XYZ=   -5.0987    0.7975    1.4699 Q=    0.0099 A=    0.0000 R=    0.0000 C=    0.0000
 XYZ=    0.8120    0.5333   -3.8664 Q=   -0.0198 A=    0.0000 R=    0.0000 C=    0.0000
 XYZ=    3.9244   -3.8823   -2.1120 Q=    0.0099 A=    0.0000 R=    0.0000 C=    0.0000
 XYZ=   -2.7352   -0.8814    3.7327 Q=    0.0099 A=    0.0000 R=    0.0000 C=    0.0000
 XYZ=   -6.7252    0.3065   -1.0437 Q=    0.0099 A=    0.0000 R=    0.0000 C=    0.0000
 XYZ=    6.2263   -2.4061    0.6410 Q=    0.0099 A=    0.0000 R=    0.0000 C=    0.0000
 XYZ=    6.4368   -2.3344   -0.9745 Q=   -0.0198 A=    0.0000 R=    0.0000 C=    0.0000
 XYZ=    6.8690   -1.4963   -1.1388 Q=    0.0099 A=    0.0000 R=    0.0000 C=    0.0000
 XYZ=    4.7969   -0.3331    3.4797 Q=    0.0099 A=    0.0000 R=    0.0000 C=    0.0000
 XYZ=    3.6018    0.8812    2.8337 Q=   -0.0198 A=    0.0000 R=    0.0000 C=    0.0000
 XYZ=    4.2326    1.5395    2.5424 Q=    0.0099 A=    0.0000 R=    0.0000 C=    0.0000
 XYZ=    5.2003   -3.6305   -0.3814 Q=    0.0099 A=    0.0000 R=    0.0000 C=    0.0000
 XYZ=    0.5644    2.0991    4.3887 Q=   -0.0198 A=    0.0000 R=    0.0000 C=    0.0000
 XYZ=   -0.0392    2.7251    3.9886 Q=    0.0099 A=    0.0000 R=    0.0000 C=    0.0000
 XYZ=   -1.2140    3.7493    3.3859 Q=   -0.0198 A=    0.0000 R=    0.0000 C=    0.0000
 XYZ=   -4.7267    0.9379    1.7453 Q=    0.0099 A=    0.0000 R=    0.0000 C=    0.0000
 XYZ=    0.0307    2.6455   -3.4616 Q=    0.0099 A=    0.0000 R=    0.0000 C=    0.0000
 XYZ=    3.4673    2.6411   -1.2661 Q=   -0.0198 A=    0.0000 R=    0.0000 C=    0.0000
 XYZ=    3.9824    2.6558   -0.4594 Q=    0.0099 A=    0.0000 R=    0.0000 C=    0.0000
 XYZ=    4.0869    2.3639   -1.9409 Q=    0.0099 A=    0.0000 R=    0.0000 C=    0.0000
 XYZ=   -6.5029   -0.3019    0.0458 Q=   -0.0198 A=    0.0000 R=    0.0000 C=    0.0000
 XYZ=   -6.5790   -1.2510    0.1441 Q=    0.0099 A=    0.0000 R=    0.0000 C=    0.0000
 XYZ=    1.6760   -4.0669    0.5673 Q=   -0.0198 A=    0.0000 R=    0.0000 C=    0.0000
 XYZ=    2.0615   -3.2958    0.9833 Q=    0.0099 A=    0.0000 R=    0.0000 C=    0.0000
 XYZ=   -0.9894   -3.5479    1.3763 Q=   -0.0198 A=    0.0000 R=    0.0000 C=    0.0000
 XYZ=   -0.1595   -3.7983    0.9703 Q=    0.0099 A=    0.0000 R=    0.0000 C=    0.0000
 XYZ=   -0.9515   -2.5930    1.4295 Q=    0.0099 A=    0.0000 R=    0.0000 C=    0.0000
 XYZ=   -2.2932    0.2283   -3.5116 Q=   -0.0198 A=    0.0000 R=    0.0000 C=    0.0000
 XYZ=   -1.4343    0.4916   -3.8419 Q=    0.0099 A=    0.0000 R=    0.0000 C=    0.0000
 XYZ=   -2.5136   -0.5553   -4.0151 Q=    0.0099 A=    0.0000 R=    0.0000 C=    0.0000
 XYZ=    2.0600   -1.7702    3.1895 Q=   -0.0198 A=    0.0000 R=    0.0000 C=    0.0000
 XYZ=    1.1978   -1.5423    2.8418 Q=    0.0099 A=    0.0000 R=    0.0000 C=    0.0000
 XYZ=    2.5822   -0.9764    3.0742 Q=    0.0099 A=    0.0000 R=    0.0000 C=    0.0000
 XYZ=   -1.0672   -1.8110    3.5718 Q=   -0.0198 A=    0.0000 R=    0.0000 C=    0.0000
 XYZ=   -1.2180   -1.4840    2.6850 Q=    0.0099 A=    0.0000 R=    0.0000 C=    0.0000
 XYZ=    1.0220   -2.7929   -2.0619 Q=   -0.0198 A=    0.0000 R=    0.0000 C=    0.0000
 XYZ=    0.7666   -2.2644   -1.3058 Q=    0.0099 A=    0.0000 R=    0.0000 C=    0.0000
 XYZ=    1.6274   -2.2352   -2.5504 Q=    0.0099 A=    0.0000 R=    0.0000 C=    0.0000
 XYZ=    0.3329    0.5287   -4.0170 Q=   -0.0198 A=    0.0000 R=    0.0000 C=    0.0000
 XYZ=   -2.5460   -0.7837    3.4811 Q=    0.0099 A=    0.0000 R=    0.0000 C=    0.0000
 XYZ=   -6.2254    0.0962   -2.0164 Q=    0.0099 A=    0.0000 R=    0.0000 C=    0.0000
 XYZ=    3.2189   -1.4387   -3.4315 Q=    0.0099 A=    0.0000 R=    0.0000 C=    0.0000
 XYZ=    3.6502    0.8240    3.0294 Q=   -0.0198 A=    0.0000 R=    0.0000 C=    0.0000
 XYZ=    4.0326    1.2631    2.2697 Q=    0.0099 A=    0.0000 R=    0.0000 C=    0.0000
 XYZ=    4.7799   -3.7325    0.0972 Q=    0.0099 A=    0.0000 R=    0.0000 C=    0.0000
 XYZ=    0.4323    2.4623    4.1860 Q=   -0.0198 A=    0.0000 R=    0.0000 C=    0.0000
 XYZ=    1.1801    2.7206    3.6473 Q=    0.0099 A=    0.0000 R=    0.0000 C=    0.0000
 XYZ=   -0.3314    2.7784    3.7032 Q=    0.0099 A=    0.0000 R=    0.0000 C=    0.0000
 XYZ=   -2.2006    0.7463   -3.6462 Q=   -0.0198 A=    0.0000 R=    0.0000 C=    0.0000
 XYZ=   -0.1832    2.9218   -3.7669 Q=   -0.0198 A=    0.0000 R=    0.0000 C=    0.0000
 XYZ=    0.2445    2.0704   -3.8589 Q=    0.0099 A=    0.0000 R=    0.0000 C=    0.0000
 XYZ=    5.0781    2.5592    1.0359 Q=   -0.0198 A=    0.0000 R=    0.0000 C=    0.0000
 XYZ=    3.2330    2.9542   -0.8934 Q=   -0.0198 A=    0.0000 R=    0.0000 C=    0.0000
 XYZ=    3.6919    2.8746   -0.0572 Q=    0.0099 A=    0.0000 R=    0.0000 C=    0.0000
 XYZ=    3.8957    2.7435   -1.5512 Q=    0.0099 A=    0.0000 R=    0.0000 C=    0.0000
 XYZ=   -6.8682   -0.4403   -0.5190 Q=   -0.0198 A=    0.0000 R=    0.0000 C=    0.0000
 XYZ=   -6.6618    0.0034    0.3037 Q=    0.0099 A=    0.0000 R=    0.0000 C=    0.0000
 XYZ=    1.3883   -4.1516    0.6995 Q=   -0.0198 A=    0.0000 R=    0.0000 C=    0.0000
 XYZ=    2.2257   -4.2347    0.2434 Q=    0.0099 A=    0.0000 R=    0.0000 C=    0.0000
 XYZ=    1.1898   -3.2158    0.6672 Q=    0.0099 A=    0.0000 R=    0.0000 C=    0.0000
 XYZ=   -2.2745   -3.5966    0.6048 Q=    0.0099 A=    0.0000 R=    0.0000 C=    0.0000
 XYZ=   -1.2629    0.7356   -3.4544 Q=    0.0099 A=    0.0000 R=    0.0000 C=    0.0000
 XYZ=   -2.3285    0.0203   -4.2569 Q=    0.0099 A=    0.0000 R=    0.0000 C=    0.0000
 XYZ=    2.2593   -1.8440    3.5550 Q=   -0.0198 A=    0.0000 R=    0.0000 C=    0.0000
 XYZ=    2.6079   -1.1368    3.0123 Q=    0.0099 A=    0.0000 R=    0.0000 C=    0.0000
 XYZ=   -0.3214   -1.4776    3.4662 Q=   -0.0198 A=    0.0000 R=    0.0000 C=    0.0000
 XYZ=   -0.6802   -1.3884    2.5833 Q=    0.0099 A=    0.0000 R=    0.0000 C=    0.0000
 XYZ=   -5.5271   -3.0199    1.9368 Q=    0.0099 A=    0.0000 R=    0.0000 C=    0.0000
 XYZ=   -4.7765   -3.6802    0.8003 Q=    0.0099 A=    0.0000 R=    0.0000 C=    0.0000
 XYZ=    0.9597   -2.9498   -2.2743 Q=   -0.0198 A=    0.0000 R=    0.0000 C=    0.0000
 XYZ=    0.8059   -2.9847   -1.3301 Q=    0.0099 A=    0.0000 R=    0.0000 C=    0.0000
 XYZ=    1.7329   -2.3939   -2.3707 Q=    0.0099 A=    0.0000 R=    0.0000 C=    0.0000
 XYZ=    0.5732    0.3224   -3.5371 Q=   -0.0198 A=    0.0000 R=    0.0000 C=    0.0000
 XYZ=    3.9539   -4.1433   -0.3732 Q=   -0.0198 A=    0.0000 R=    0.0000 C=    0.0000
 XYZ=    4.0205   -3.9951   -1.3165 Q=    0.0099 A=    0.0000 R=    0.0000 C=    0.0000
 XYZ=   -3.3637   -0.3131    2.8226 Q=    0.0099 A=    0.0000 R=    0.0000 C=    0.0000
 XYZ=    1.4241    0.6210   -3.8581 Q=    0.0099 A=    0.0000 R=    0.0000 C=    0.0000
 XYZ=    2.9981    0.7930    2.7501 Q=   -0.0198 A=    0.0000 R=    0.0000 C=    0.0000
 XYZ=    3.6924    0.8537    2.0940 Q=    0.0099 A=    0.0000 R=    0.0000 C=    0.0000
 XYZ=    4.8172   -3.9091   -0.0324 Q=    0.0099 A=    0.0000 R=    0.0000 C=    0.0000
 XYZ=    1.1630    1.9524    4.1778 Q=   -0.0198 A=    0.0000 R=    0.0000 C=    0.0000
 XYZ=    0.0255    1.8226   -3.8164 Q=    0.0099 A=    0.0000 R=    0.0000 C=    0.0000
 XYZ=   -0.9454    3.8203    3.2637 Q=    0.0099 A=    0.0000 R=    0.0000 C=    0.0000
 XYZ=    0.4360    2.4853    3.8557 Q=    0.0099 A=    0.0000 R=    0.0000 C=    0.0000
 XYZ=   -2.7914    1.0247   -3.3657 Q=   -0.0198 A=    0.0000 R=    0.0000 C=    0.0000
 XYZ=   -1.8619    1.2494   -3.4077 Q=    0.0099 A=    0.0000 R=    0.0000 C=    0.0000
 XYZ=   -1.2023    4.9761    1.3101 Q=    0.0099 A=    0.0000 R=    0.0000 C=    0.0000
 XYZ=   -3.0575    2.1276    2.2262 Q=   -0.0198 A=    0.0000 R=    0.0000 C=    0.0000
 XYZ=   -2.4424    2.5357    2.8356 Q=    0.0099 A=    0.0000 R=    0.0000 C=    0.0000
 XYZ=   -0.2816    2.7239   -3.7183 Q=   -0.0198 A=    0.0000 R=    0.0000 C=    0.0000
 XYZ=    0.5177    3.2506   -3.7179 Q=    0.0099 A=    0.0000 R=    0.0000 C=    0.0000
 XYZ=    5.1583    2.5193    1.6298 Q=   -0.0198 A=    0.0000 R=    0.0000 C=    0.0000
 XYZ=   -0.4778    4.8986    1.9309 Q=   -0.0198 A=    0.0000 R=    0.0000 C=    0.0000
 XYZ=    3.4999    3.1820   -0.3115 Q=   -0.0198 A=    0.0000 R=    0.0000 C=    0.0000
 XYZ=    4.0306    2.9409    0.4478 Q=    0.0099 A=    0.0000 R=    0.0000 C=    0.0000
 XYZ=    4.0886    3.0752   -1.0587 Q=    0.0099 A=    0.0000 R=    0.0000 C=    0.0000
 XYZ=   -3.0499   -4.1741   -1.8137 Q=    0.0099 A=    0.0000 R=    0.0000 C=    0.0000
 XYZ=   -6.1582   -1.1881   -0.4651 Q=    0.0099 A=    0.0000 R=    0.0000 C=    0.0000
 XYZ=    1.1584   -3.6902    1.1832 Q=   -0.0198 A=    0.0000 R=    0.0000 C=    0.0000
 XYZ=    2.0637   -3.7853    0.8869 Q=    0.0099 A=    0.0000 R=    0.0000 C=    0.0000
 XYZ=    0.8571   -2.8783    0.7755 Q=    0.0099 A=    0.0000 R=    0.0000 C=    0.0000
 XYZ=   -2.9110    0.3702   -4.0538 Q=    0.0099 A=    0.0000 R=    0.0000 C=    0.0000
 XYZ=    2.7827   -1.8441    3.6003 Q=   -0.0198 A=    0.0000 R=    0.0000 C=    0.0000
 XYZ=    1.8894   -2.1414    3.4272 Q=    0.0099 A=    0.0000 R=    0.0000 C=    0.0000
 XYZ=    2.8069   -0.9490    3.2622 Q=    0.0099 A=    0.0000 R=    0.0000 C=    0.0000
 XYZ=    0.0786   -1.6659    3.3212 Q=   -0.0198 A=    0.0000 R=    0.0000 C=    0.0000
 XYZ=   -0.1525   -1.0416    2.6334 Q=    0.0099 A=    0.0000 R=    0.0000 C=    0.0000
 XYZ=   -0.4777   -2.4261    3.1514 Q=    0.0099 A=    0.0000 R=    0.0000 C=    0.0000
 XYZ=   -4.9629   -3.5579    1.0719 Q=   -0.0198 A=    0.0000 R=    0.0000 C=    0.0000
 XYZ=   -4.6718   -3.8595    0.2113 Q=    0.0099 A=    0.0000 R=    0.0000 C=    0.0000
 XYZ=   -4.1914   -3.6489    1.6311 Q=    0.0099 A=    0.0000 R=    0.0000 C=    0.0000
 XYZ=    0.8466   -2.8083   -2.2630 Q=   -0.0198 A=    0.0000 R=    0.0000 C=    0.0000
 XYZ=    0.9023   -2.4815   -1.3650 Q=    0.0099 A=    0.0000 R=    0.0000 C=    0.0000
 XYZ=    0.9086    0.3147   -3.9552 Q=   -0.0198 A=    0.0000 R=    0.0000 C=    0.0000
 XYZ=    3.9057   -3.8512   -0.1794 Q=   -0.0198 A=    0.0000 R=    0.0000 C=    0.0000
 XYZ=    4.6354   -3.8504    0.4401 Q=    0.0099 A=    0.0000 R=    0.0000 C=    0.0000
 XYZ=   -3.2206   -0.6674    2.7562 Q=    0.0099 A=    0.0000 R=    0.0000 C=    0.0000
 XYZ=    5.5413   -0.6565    2.7912 Q=   -0.0198 A=    0.0000 R=    0.0000 C=    0.0000
 XYZ=    4.6303   -0.3874    2.6730 Q=    0.0099 A=    0.0000 R=    0.0000 C=    0.0000
 XYZ=    3.1819    0.6834    2.7066 Q=   -0.0198 A=    0.0000 R=    0.0000 C=    0.0000
 XYZ=    3.6994    1.4626    2.5036 Q=    0.0099 A=    0.0000 R=    0.0000 C=    0.0000
 XYZ=   -2.7452    1.1084   -3.5901 Q=   -0.0198 A=    0.0000 R=    0.0000 C=    0.0000
 XYZ=   -1.8649    1.3986   -3.8290 Q=    0.0099 A=    0.0000 R=    0.0000 C=    0.0000
 XYZ=   -3.4757    2.8664   -2.5783 Q=    0.0099 A=    0.0000 R=    0.0000 C=    0.0000
 XYZ=   -2.9561    2.5606    2.0510 Q=   -0.0198 A=    0.0000 R=    0.0000 C=    0.0000
 XYZ=   -2.4629    3.1170    2.6538 Q=    0.0099 A=    0.0000 R=    0.0000 C=    0.0000
 XYZ=   -0.4819    3.1491   -3.5221 Q=   -0.0198 A=    0.0000 R=    0.0000 C=    0.0000
 XYZ=   -0.0319    2.3057   -3.5714 Q=    0.0099 A=    0.0000 R=    0.0000 C=    0.0000
 XYZ=    4.8260    2.4446    1.9079 Q=   -0.0198 A=    0.0000 R=    0.0000 C=    0.0000
 XYZ=    1.7806    1.2828   -3.8577 Q=    0.0099 A=    0.0000 R=    0.0000 C=    0.0000
 XYZ=    3.4321    3.1011   -0.5106 Q=   -0.0198 A=    0.0000 R=    0.0000 C=    0.0000
 XYZ=    3.5028    2.9246    0.4275 Q=    0.0099 A=    0.0000 R=    0.0000 C=    0.0000
 XYZ=    4.1995    2.6755   -0.8930 Q=    0.0099 A=    0.0000 R=    0.0000 C=    0.0000
 XYZ=    4.6876   -3.4140    2.3965 Q=    0.0099 A=    0.0000 R=    0.0000 C=    0.0000
 XYZ=   -6.3119   -1.6834   -1.0441 Q=   -0.0198 A=    0.0000 R=    0.0000 C=    0.0000
 XYZ=   -5.4961   -2.1572   -1.2057 Q=    0.0099 A=    0.0000 R=    0.0000 C=    0.0000
 XYZ=   -6.5888   -1.9729   -0.1748 Q=    0.0099 A=    0.0000 R=    0.0000 C=    0.0000
 XYZ=    1.8850   -4.0869    0.9413 Q=    0.0099 A=    0.0000 R=    0.0000 C=    0.0000
 XYZ=    0.8928   -3.1289    1.5648 Q=    0.0099 A=    0.0000 R=    0.0000 C=    0.0000
 XYZ=   -1.5221   -3.1412    0.8584 Q=    0.0099 A=    0.0000 R=    0.0000 C=    0.0000
 XYZ=   -2.9725    0.4596   -4.2561 Q=    0.0099 A=    0.0000 R=    0.0000 C=    0.0000
 XYZ=    1.7919   -1.9646    3.3403 Q=    0.0099 A=    0.0000 R=    0.0000 C=    0.0000
 XYZ=    3.1094   -1.2905    3.6579 Q=    0.0099 A=    0.0000 R=    0.0000 C=    0.0000
 XYZ=   -0.1446   -1.9167    3.0301 Q=   -0.0198 A=    0.0000 R=    0.0000 C=    0.0000
 XYZ=   -0.5500   -1.5288    2.2546 Q=    0.0099 A=    0.0000 R=    0.0000 C=    0.0000
 XYZ=   -4.3194   -3.8335    1.4773 Q=   -0.0198 A=    0.0000 R=    0.0000 C=    0.0000
 XYZ=   -4.0462   -3.7453    0.5642 Q=    0.0099 A=    0.0000 R=    0.0000 C=    0.0000
 XYZ=   -3.6132   -3.4261    1.9790 Q=    0.0099 A=    0.0000 R=    0.0000 C=    0.0000
 XYZ=    0.9005   -3.0346   -2.0435 Q=   -0.0198 A=    0.0000 R=    0.0000 C=    0.0000
 XYZ=    1.0290   -2.7523   -1.1380 Q=    0.0099 A=    0.0000 R=    0.0000 C=    0.0000
 XYZ=    1.2607   -2.3212   -2.5703 Q=    0.0099 A=    0.0000 R=    0.0000 C=    0.0000
 XYZ=   -3.9312   -0.6590    3.0555 Q=   -0.0198 A=    0.0000 R=    0.0000 C=    0.0000
 XYZ=   -3.2321   -0.4036    2.4535 Q=    0.0099 A=    0.0000 R=    0.0000 C=    0.0000
 XYZ=    0.9437    0.8191   -3.8273 Q=   -0.0198 A=    0.0000 R=    0.0000 C=    0.0000
 XYZ=    3.5106    0.5544    3.3155 Q=   -0.0198 A=    0.0000 R=    0.0000 C=    0.0000
 XYZ=    3.8853    1.1901    2.7058 Q=    0.0099 A=    0.0000 R=    0.0000 C=    0.0000
 XYZ=   -2.5937    1.0708   -3.4254 Q=   -0.0198 A=    0.0000 R=    0.0000 C=    0.0000
 XYZ=   -1.6810    1.1768   -3.6940 Q=    0.0099 A=    0.0000 R=    0.0000 C=    0.0000
 XYZ=   -3.9986    3.0195   -1.4974 Q=    0.0099 A=    0.0000 R=    0.0000 C=    0.0000
 XYZ=   -3.1146    2.6352   -2.6643 Q=    0.0099 A=    0.0000 R=    0.0000 C=    0.0000
 XYZ=   -2.2224    3.5138    2.4513 Q=    0.0099 A=    0.0000 R=    0.0000 C=    0.0000
 XYZ=    0.5417    2.8055   -3.9538 Q=    0.0099 A=    0.0000 R=    0.0000 C=    0.0000
 XYZ=    3.6280    2.4206   -3.0165 Q=    0.0099 A=    0.0000 R=    0.0000 C=    0.0000
 XYZ=    3.4430    2.9361   -0.3813 Q=   -0.0198 A=    0.0000 R=    0.0000 C=    0.0000
 XYZ=    3.6863    2.7601    0.5276 Q=    0.0099 A=    0.0000 R=    0.0000 C=    0.0000
 XYZ=    4.2482    2.7890   -0.8776 Q=    0.0099 A=    0.0000 R=    0.0000 C=    0.0000
 XYZ=   -5.8852   -2.1180   -2.2204 Q=    0.0099 A=    0.0000 R=    0.0000 C=    0.0000
 XYZ=   -6.2453   -1.4851   -1.5991 Q=   -0.0198 A=    0.0000 R=    0.0000 C=    0.0000
 XYZ=   -5.9978   -1.8258   -0.7395 Q=    0.0099 A=    0.0000 R=    0.0000 C=    0.0000
 XYZ=    2.1985   -4.2981    0.9578 Q=    0.0099 A=    0.0000 R=    0.0000 C=    0.0000
 XYZ=    1.2019   -3.3301    1.5584 Q=    0.0099 A=    0.0000 R=    0.0000 C=    0.0000
 XYZ=   -2.8177    0.1774   -3.6858 Q=    0.0099 A=    0.0000 R=    0.0000 C=    0.0000
 XYZ=    2.8772   -1.0167    3.6668 Q=    0.0099 A=    0.0000 R=    0.0000 C=    0.0000
 XYZ=    0.1233   -1.9386    2.8234 Q=   -0.0198 A=    0.0000 R=    0.0000 C=    0.0000
 XYZ=   -0.0723   -1.4764    2.0083 Q=    0.0099 A=    0.0000 R=    0.0000 C=    0.0000
 XYZ=   -0.6287   -2.5155    2.9579 Q=    0.0099 A=    0.0000 R=    0.0000 C=    0.0000
 XYZ=   -3.7133   -3.7352    1.3533 Q=    0.0099 A=    0.0000 R=    0.0000 C=    0.0000
 XYZ=   -0.5880    0.9170    4.1686 Q=    0.0099 A=    0.0000 R=    0.0000 C=    0.0000
 XYZ=    1.1025   -3.0196   -2.2739 Q=   -0.0198 A=    0.0000 R=    0.0000 C=    0.0000
 XYZ=    0.9984   -2.6299   -1.4059 Q=    0.0099 A=    0.0000 R=    0.0000 C=    0.0000
 XYZ=    3.7187   -4.1148    0.1092 Q=   -0.0198 A=    0.0000 R=    0.0000 C=    0.0000
 XYZ=    3.7866   -3.1647    0.2041 Q=    0.0099 A=    0.0000 R=    0.0000 C=    0.0000
 XYZ=   -3.0753   -0.5487    2.9251 Q=    0.0099 A=    0.0000 R=    0.0000 C=    0.0000
 XYZ=   -5.8865   -0.3764    2.4061 Q=    0.0099 A=    0.0000 R=    0.0000 C=    0.0000
 XYZ=    5.2111   -2.6816    2.2530 Q=   -0.0198 A=    0.0000 R=    0.0000 C=    0.0000
 XYZ=    5.7408   -2.7514    1.4587 Q=    0.0099 A=    0.0000 R=    0.0000 C=    0.0000
 XYZ=    0.9638    0.9636   -3.7427 Q=   -0.0198 A=    0.0000 R=    0.0000 C=    0.0000
 XYZ=    5.8496   -0.6072   -2.7846 Q=   -0.0198 A=    0.0000 R=    0.0000 C=    0.0000
 XYZ=    6.1098   -1.5242   -2.8717 Q=    0.0099 A=    0.0000 R=    0.0000 C=    0.0000
 XYZ=    3.0997    0.6268    3.1926 Q=   -0.0198 A=    0.0000 R=    0.0000 C=    0.0000
 XYZ=    3.6227    1.3529    2.8529 Q=    0.0099 A=    0.0000 R=    0.0000 C=    0.0000
 XYZ=   -2.7890    1.0569   -3.4695 Q=   -0.0198 A=    0.0000 R=    0.0000 C=    0.0000
 XYZ=   -2.1580    1.1858   -4.1776 Q=    0.0099 A=    0.0000 R=    0.0000 C=    0.0000
 XYZ=   -3.1135    2.8066   -2.6602 Q=    0.0099 A=    0.0000 R=    0.0000 C=    0.0000
 XYZ=   -2.3749    3.4386    2.5614 Q=    0.0099 A=    0.0000 R=    0.0000 C=    0.0000
 XYZ=    0.5829    3.9755   -2.7015 Q=   -0.0198 A=    0.0000 R=    0.0000 C=    0.0000
 XYZ=    1.0486    3.1480   -2.8225 Q=    0.0099 A=    0.0000 R=    0.0000 C=    0.0000
 XYZ=    1.4527    1.4095   -3.7977 Q=   -0.0198 A=    0.0000 R=    0.0000 C=    0.0000
 XYZ=    3.7503    3.1441   -0.2909 Q=   -0.0198 A=    0.0000 R=    0.0000 C=    0.0000
 XYZ=    4.2174    3.1670    0.5443 Q=    0.0099 A=    0.0000 R=    0.0000 C=    0.0000
 XYZ=    4.4206    2.9130   -0.9340 Q=    0.0099 A=    0.0000 R=    0.0000 C=    0.0000
 XYZ=   -5.7543   -2.6150   -1.8409 Q=    0.0099 A=    0.0000 R=    0.0000 C=    0.0000
 XYZ=   -2.4788   -1.6207   -3.8726 Q=   -0.0198 A=    0.0000 R=    0.0000 C=    0.0000
 XYZ=   -3.7727   -3.6700   -3.0557 Q=    0.0099 A=    0.0000 R=    0.0000 C=    0.0000
 XYZ=    0.8282   -3.9375    0.9784 Q=   -0.0198 A=    0.0000 R=    0.0000 C=    0.0000
 XYZ=    1.7822   -3.9648    1.0520 Q=    0.0099 A=    0.0000 R=    0.0000 C=    0.0000
 XYZ=    0.5914   -3.0544    1.2620 Q=    0.0099 A=    0.0000 R=    0.0000 C=    0.0000
 XYZ=   -2.9355    0.1112   -3.4483 Q=    0.0099 A=    0.0000 R=    0.0000 C=    0.0000
 XYZ=   -2.8290   -3.9437   -1.3255 Q=   -0.0198 A=    0.0000 R=    0.0000 C=    0.0000
 XYZ=   -0.3378   -2.0605    2.8649 Q=   -0.0198 A=    0.0000 R=    0.0000 C=    0.0000
 XYZ=   -0.7904   -1.4772    2.2557 Q=    0.0099 A=    0.0000 R=    0.0000 C=    0.0000
 XYZ=   -1.0410   -2.5034    3.3397 Q=    0.0099 A=    0.0000 R=    0.0000 C=    0.0000
 XYZ=   -3.9989   -3.6225    1.9146 Q=   -0.0198 A=    0.0000 R=    0.0000 C=    0.0000
 XYZ=   -4.3399   -3.7422    1.0283 Q=    0.0099 A=    0.0000 R=    0.0000 C=    0.0000
 XYZ=   -0.2160    0.6958    3.9520 Q=    0.0099 A=    0.0000 R=    0.0000 C=    0.0000
 XYZ=    0.5111   -3.2132   -2.0526 Q=   -0.0198 A=    0.0000 R=    0.0000 C=    0.0000
 XYZ=    0.2644   -2.8341   -1.2090 Q=    0.0099 A=    0.0000 R=    0.0000 C=    0.0000
 XYZ=    0.8841   -2.4815   -2.5442 Q=    0.0099 A=    0.0000 R=    0.0000 C=    0.0000
 XYZ=    3.6090   -4.0896    0.4324 Q=   -0.0198 A=    0.0000 R=    0.0000 C=    0.0000
 XYZ=    3.4998   -3.8257   -0.4812 Q=    0.0099 A=    0.0000 R=    0.0000 C=    0.0000
 XYZ=    4.5167   -3.8671    0.6392 Q=    0.0099 A=    0.0000 R=    0.0000 C=    0.0000
 XYZ=   -3.4247    0.1264    3.0481 Q=    0.0099 A=    0.0000 R=    0.0000 C=    0.0000
 XYZ=    5.8881   -0.7566   -2.7940 Q=   -0.0198 A=    0.0000 R=    0.0000 C=    0.0000
 XYZ=    5.1636   -0.8366   -3.4144 Q=    0.0099 A=    0.0000 R=    0.0000 C=    0.0000
 XYZ=    3.2538    0.5157    3.2800 Q=   -0.0198 A=    0.0000 R=    0.0000 C=    0.0000
 XYZ=    3.8475    0.7886    2.5806 Q=    0.0099 A=    0.0000 R=    0.0000 C=    0.0000
 XYZ=   -2.4166    1.2936   -3.3083 Q=   -0.0198 A=    0.0000 R=    0.0000 C=    0.0000
 XYZ=   -1.9355    1.5279   -4.1019 Q=    0.0099 A=    0.0000 R=    0.0000 C=    0.0000
 XYZ=   -3.9108    3.0672   -1.1373 Q=    0.0099 A=    0.0000 R=    0.0000 C=    0.0000
 XYZ=   -3.5591    2.5348   -2.5098 Q=    0.0099 A=    0.0000 R=    0.0000 C=    0.0000
 XYZ=   -2.6833    3.8360    2.0722 Q=   -0.0198 A=    0.0000 R=    0.0000 C=    0.0000
 XYZ=   -2.1302    4.5719    2.3344 Q=    0.0099 A=    0.0000 R=    0.0000 C=    0.0000
 XYZ=   -2.3530    3.0951    2.5804 Q=    0.0099 A=    0.0000 R=    0.0000 C=    0.0000
 XYZ=   -0.9757    1.8362    4.3404 Q=    0.0099 A=    0.0000 R=    0.0000 C=    0.0000
 XYZ=   -6.3850    1.4661   -1.4081 Q=    0.0099 A=    0.0000 R=    0.0000 C=    0.0000
 XYZ=    0.5236    4.1139   -2.3781 Q=   -0.0198 A=    0.0000 R=    0.0000 C=    0.0000
 XYZ=    0.7274    3.3869   -2.9665 Q=    0.0099 A=    0.0000 R=    0.0000 C=    0.0000
 XYZ=    1.9279    1.7919   -3.4228 Q=   -0.0198 A=    0.0000 R=    0.0000 C=    0.0000
 XYZ=    4.2732    2.7063   -0.4097 Q=   -0.0198 A=    0.0000 R=    0.0000 C=    0.0000
 XYZ=    4.9183    2.4576    0.2523 Q=    0.0099 A=    0.0000 R=    0.0000 C=    0.0000
 XYZ=    4.7514    2.6643   -1.2378 Q=    0.0099 A=    0.0000 R=    0.0000 C=    0.0000
 XYZ=   -3.0336   -1.2061   -4.0306 Q=    0.0099 A=    0.0000 R=    0.0000 C=    0.0000
 XYZ=    1.5149   -3.8770    0.7124 Q=   -0.0198 A=    0.0000 R=    0.0000 C=    0.0000
 XYZ=    2.4535   -4.0592    0.7591 Q=    0.0099 A=    0.0000 R=    0.0000 C=    0.0000
 XYZ=    1.4620   -2.9417    0.5159 Q=    0.0099 A=    0.0000 R=    0.0000 C=    0.0000
 XYZ=   -2.4577    0.3374   -3.3266 Q=    0.0099 A=    0.0000 R=    0.0000 C=    0.0000
 XYZ=   -2.1644   -1.4579   -3.7185 Q=   -0.0198 A=    0.0000 R=    0.0000 C=    0.0000
 XYZ=    2.4037   -1.4353    3.4859 Q=    0.0099 A=    0.0000 R=    0.0000 C=    0.0000
 XYZ=   -0.7490   -1.9801    3.2203 Q=   -0.0198 A=    0.0000 R=    0.0000 C=    0.0000
 XYZ=   -0.9340   -1.4776    2.4269 Q=    0.0099 A=    0.0000 R=    0.0000 C=    0.0000
 XYZ=   -1.5896   -2.3716    3.4575 Q=    0.0099 A=    0.0000 R=    0.0000 C=    0.0000
 XYZ=   -4.2116   -3.8752    1.8058 Q=   -0.0198 A=    0.0000 R=    0.0000 C=    0.0000
 XYZ=   -3.3196   -3.8413    1.4602 Q=    0.0099 A=    0.0000 R=    0.0000 C=    0.0000
 XYZ=   -4.7560   -4.0757    1.0444 Q=    0.0099 A=    0.0000 R=    0.0000 C=    0.0000
 XYZ=   -0.8216    0.4945    3.6569 Q=    0.0099 A=    0.0000 R=    0.0000 C=    0.0000
 XYZ=   -0.2580   -2.8992   -1.6629 Q=   -0.0198 A=    0.0000 R=    0.0000 C=    0.0000
 XYZ=   -0.0083   -2.4841   -0.8373 Q=    0.0099 A=    0.0000 R=    0.0000 C=    0.0000
 XYZ=   -0.4583   -2.1683   -2.2475 Q=    0.0099 A=    0.0000 R=    0.0000 C=    0.0000
 XYZ=    1.9899    0.8391   -3.3555 Q=    0.0099 A=    0.0000 R=    0.0000 C=    0.0000
 XYZ=    3.5516    0.1545    3.1498 Q=   -0.0198 A=    0.0000 R=    0.0000 C=    0.0000
 XYZ=    4.1448    0.7895    2.7482 Q=    0.0099 A=    0.0000 R=    0.0000 C=    0.0000
 XYZ=    0.7277    1.7662    4.4489 Q=    0.0099 A=    0.0000 R=    0.0000 C=    0.0000
 XYZ=   -2.6453    1.4158   -3.2763 Q=   -0.0198 A=    0.0000 R=    0.0000 C=    0.0000
 XYZ=   -3.2096    1.5930   -4.0288 Q=    0.0099 A=    0.0000 R=    0.0000 C=    0.0000
 XYZ=   -4.6636    2.6795   -1.0610 Q=    0.0099 A=    0.0000 R=    0.0000 C=    0.0000
 XYZ=   -3.8092    2.5142   -2.2995 Q=    0.0099 A=    0.0000 R=    0.0000 C=    0.0000
 XYZ=   -3.0394    3.4512    1.9924 Q=   -0.0198 A=    0.0000 R=    0.0000 C=    0.0000
 XYZ=   -2.4538    4.1473    2.2904 Q=    0.0099 A=    0.0000 R=    0.0000 C=    0.0000
 XYZ=   -5.2177    2.3922    0.4722 Q=   -0.0198 A=    0.0000 R=    0.0000 C=    0.0000
 XYZ=   -4.3767    2.6506    0.8492 Q=    0.0099 A=    0.0000 R=    0.0000 C=    0.0000
 XYZ=    0.5883    3.5353   -3.3826 Q=    0.0099 A=    0.0000 R=    0.0000 C=    0.0000
 XYZ=    1.4191    1.9413   -3.8570 Q=   -0.0198 A=    0.0000 R=    0.0000 C=    0.0000
 XYZ=    4.3515    2.8277   -0.7026 Q=   -0.0198 A=    0.0000 R=    0.0000 C=    0.0000
 XYZ=    4.8382    2.7383    0.1167 Q=    0.0099 A=    0.0000 R=    0.0000 C=    0.0000
 XYZ=    3.0538    3.8783   -1.2117 Q=    0.0099 A=    0.0000 R=    0.0000 C=    0.0000
 XYZ=   -2.6867   -1.2833   -3.8366 Q=   -0.0198 A=    0.0000 R=    0.0000 C=    0.0000
 XYZ=   -3.6141   -1.0500   -3.8789 Q=    0.0099 A=    0.0000 R=    0.0000 C=    0.0000
 XYZ=   -5.0668   -3.1612   -2.8162 Q=   -0.0198 A=    0.0000 R=    0.0000 C=    0.0000
 XYZ=   -4.4710   -3.2432   -2.0715 Q=    0.0099 A=    0.0000 R=    0.0000 C=    0.0000
 XYZ=   -6.4276   -2.3405    0.7985 Q=   -0.0198 A=    0.0000 R=    0.0000 C=    0.0000
 XYZ=   -6.1446   -1.6143    1.3542 Q=    0.0099 A=    0.0000 R=    0.0000 C=    0.0000
 XYZ=   -5.8672   -3.0722    1.0566 Q=    0.0099 A=    0.0000 R=    0.0000 C=    0.0000
 XYZ=    1.1510   -3.9316    0.8134 Q=   -0.0198 A=    0.0000 R=    0.0000 C=    0.0000
 XYZ=    1.1784   -3.0192    0.5253 Q=    0.0099 A=    0.0000 R=    0.0000 C=    0.0000
 XYZ=   -0.9407   -3.5575    1.0850 Q=    0.0099 A=    0.0000 R=    0.0000 C=    0.0000
 XYZ=   -2.6028    0.4608   -3.2283 Q=    0.0099 A=    0.0000 R=    0.0000 C=    0.0000
 XYZ=   -0.9066   -1.9099    3.3833 Q=   -0.0198 A=    0.0000 R=    0.0000 C=    0.0000
 XYZ=   -1.0857   -1.4601    2.5575 Q=    0.0099 A=    0.0000 R=    0.0000 C=    0.0000
 XYZ=   -1.7120   -2.3908    3.5737 Q=    0.0099 A=    0.0000 R=    0.0000 C=    0.0000
 XYZ=   -3.5927   -3.8169    1.8837 Q=    0.0099 A=    0.0000 R=    0.0000 C=    0.0000
 XYZ=   -0.1506   -2.6549   -1.2554 Q=    0.0099 A=    0.0000 R=    0.0000 C=    0.0000
 XYZ=    1.3111    1.0120   -4.0593 Q=    0.0099 A=    0.0000 R=    0.0000 C=    0.0000
 XYZ=    4.0942    0.4713    3.3596 Q=   -0.0198 A=    0.0000 R=    0.0000 C=    0.0000
 XYZ=    3.1841    0.1756    3.3371 Q=    0.0099 A=    0.0000 R=    0.0000 C=    0.0000
 XYZ=    4.1319    1.1800    2.7174 Q=    0.0099 A=    0.0000 R=    0.0000 C=    0.0000
 XYZ=    0.4995    2.0757    3.5376 Q=    0.0099 A=    0.0000 R=    0.0000 C=    0.0000
 XYZ=   -3.0662    1.8765   -3.7346 Q=   -0.0198 A=    0.0000 R=    0.0000 C=    0.0000
 XYZ=   -3.0296    0.9217   -3.6790 Q=    0.0099 A=    0.0000 R=    0.0000 C=    0.0000
 XYZ=   -4.3060    2.7664   -0.9905 Q=    0.0099 A=    0.0000 R=    0.0000 C=    0.0000
 XYZ=   -3.4756    2.6338   -2.2490 Q=    0.0099 A=    0.0000 R=    0.0000 C=    0.0000
 XYZ=   -2.7473    4.3364    2.0117 Q=    0.0099 A=    0.0000 R=    0.0000 C=    0.0000
 XYZ=   -4.9424    2.3400    0.4890 Q=   -0.0198 A=    0.0000 R=    0.0000 C=    0.0000
 XYZ=   -5.5690    1.8117    0.9834 Q=    0.0099 A=    0.0000 R=    0.0000 C=    0.0000
 XYZ=   -0.4637    5.2869    1.7249 Q=    0.0099 A=    0.0000 R=    0.0000 C=    0.0000
 XYZ=    4.3362    3.1995   -0.5807 Q=   -0.0198 A=    0.0000 R=    0.0000 C=    0.0000
 XYZ=    4.6966    2.6984   -1.3123 Q=    0.0099 A=    0.0000 R=    0.0000 C=    0.0000
 XYZ=   -5.9321   -2.4755   -1.9959 Q=    0.0099 A=    0.0000 R=    0.0000 C=    0.0000
 XYZ=   -3.2055   -1.4421   -3.4931 Q=    0.0099 A=    0.0000 R=    0.0000 C=    0.0000
 XYZ=   -4.2828   -3.2080   -2.5452 Q=   -0.0198 A=    0.0000 R=    0.0000 C=    0.0000
 XYZ=   -3.9872   -3.4914   -1.6800 Q=    0.0099 A=    0.0000 R=    0.0000 C=    0.0000
 XYZ=   -6.5900   -1.8437   -0.7880 Q=    0.0099 A=    0.0000 R=    0.0000 C=    0.0000
 XYZ=   -6.4341   -1.9661    1.0224 Q=   -0.0198 A=    0.0000 R=    0.0000 C=    0.0000
 XYZ=   -6.4078   -1.3011    1.7104 Q=    0.0099 A=    0.0000 R=    0.0000 C=    0.0000
 XYZ=   -6.0532   -2.7452    1.4275 Q=    0.0099 A=    0.0000 R=    0.0000 C=    0.0000
 XYZ=    1.2296    1.4907    3.7399 Q=   -0.0198 A=    0.0000 R=    0.0000 C=    0.0000
 XYZ=    1.8248   -3.6646    0.9021 Q=   -0.0198 A=    0.0000 R=    0.0000 C=    0.0000
 XYZ=    2.7064   -3.5147    0.5609 Q=    0.0099 A=    0.0000 R=    0.0000 C=    0.0000
 XYZ=    1.3406   -2.8718    0.6712 Q=    0.0099 A=    0.0000 R=    0.0000 C=    0.0000
 XYZ=   -2.0571   -3.4522    1.3151 Q=   -0.0198 A=    0.0000 R=    0.0000 C=    0.0000
 XYZ=   -1.8353   -2.5335    1.1629 Q=    0.0099 A=    0.0000 R=    0.0000 C=    0.0000
 XYZ=   -2.3992   -1.0127   -3.7788 Q=   -0.0198 A=    0.0000 R=    0.0000 C=    0.0000
 XYZ=   -0.9976   -1.6113    3.7330 Q=   -0.0198 A=    0.0000 R=    0.0000 C=    0.0000
 XYZ=   -0.9819   -1.4252    2.7941 Q=    0.0099 A=    0.0000 R=    0.0000 C=    0.0000
 XYZ=   -0.8821   -3.0838   -1.4345 Q=   -0.0198 A=    0.0000 R=    0.0000 C=    0.0000
 XYZ=   -0.1656   -2.8204   -0.8570 Q=    0.0099 A=    0.0000 R=    0.0000 C=    0.0000
 XYZ=   -1.0016   -2.3385   -2.0231 Q=    0.0099 A=    0.0000 R=    0.0000 C=    0.0000
 XYZ=    4.2873   -3.9957   -0.0754 Q=   -0.0198 A=    0.0000 R=    0.0000 C=    0.0000
 XYZ=    4.6847    0.7809    2.8735 Q=   -0.0198 A=    0.0000 R=    0.0000 C=    0.0000
 XYZ=    3.7907    0.6561    2.5550 Q=    0.0099 A=    0.0000 R=    0.0000 C=    0.0000
 XYZ=    5.0625    1.4291    2.2790 Q=    0.0099 A=    0.0000 R=    0.0000 C=    0.0000
 XYZ=    4.7791   -3.9595   -0.8959 Q=    0.0099 A=    0.0000 R=    0.0000 C=    0.0000
 XYZ=   -1.2531    3.1289    3.9856 Q=   -0.0198 A=    0.0000 R=    0.0000 C=    0.0000
 XYZ=   -1.0039    3.8248    3.3775 Q=    0.0099 A=    0.0000 R=    0.0000 C=    0.0000
 XYZ=   -3.5022    0.9489   -2.9677 Q=   -0.0198 A=    0.0000 R=    0.0000 C=    0.0000
 XYZ=   -4.3882    1.0261   -3.3216 Q=    0.0099 A=    0.0000 R=    0.0000 C=    0.0000
 XYZ=   -3.5250    2.7009   -2.4900 Q=    0.0099 A=    0.0000 R=    0.0000 C=    0.0000
 XYZ=   -3.1955    3.4352    1.7908 Q=   -0.0198 A=    0.0000 R=    0.0000 C=    0.0000
 XYZ=   -2.4466    3.0244    2.2229 Q=    0.0099 A=    0.0000 R=    0.0000 C=    0.0000
 XYZ=    0.0408    1.3784   -3.7485 Q=   -0.0198 A=    0.0000 R=    0.0000 C=    0.0000
 XYZ=   -5.1510    2.6763   -0.0732 Q=   -0.0198 A=    0.0000 R=    0.0000 C=    0.0000
 XYZ=   -4.4672    2.7826    0.5881 Q=    0.0099 A=    0.0000 R=    0.0000 C=    0.0000
 XYZ=    3.9716    2.5175   -0.5054 Q=   -0.0198 A=    0.0000 R=    0.0000 C=    0.0000
 XYZ=    4.6775    2.6029    0.1353 Q=    0.0099 A=    0.0000 R=    0.0000 C=    0.0000
 XYZ=    4.4180    2.3204   -1.3289 Q=    0.0099 A=    0.0000 R=    0.0000 C=    0.0000
 XYZ=    2.0780    4.2072   -0.8296 Q=    0.0099 A=    0.0000 R=    0.0000 C=    0.0000
 XYZ=   -6.0813   -2.2595   -1.6621 Q=    0.0099 A=    0.0000 R=    0.0000 C=    0.0000
 XYZ=   -4.5755   -3.0832   -2.5624 Q=   -0.0198 A=    0.0000 R=    0.0000 C=    0.0000
 XYZ=   -4.1801   -3.4635   -1.7780 Q=    0.0099 A=    0.0000 R=    0.0000 C=    0.0000
 XYZ=   -6.4035   -1.5931   -0.3418 Q=    0.0099 A=    0.0000 R=    0.0000 C=    0.0000
 XYZ=   -6.1798   -1.8012    1.5045 Q=   -0.0198 A=    0.0000 R=    0.0000 C=    0.0000
 XYZ=   -5.8533   -2.6437    1.8206 Q=    0.0099 A=    0.0000 R=    0.0000 C=    0.0000
 XYZ=    1.4529   -3.7442    1.1606 Q=   -0.0198 A=    0.0000 R=    0.0000 C=    0.0000
 XYZ=    2.1626   -3.8749    0.5318 Q=    0.0099 A=    0.0000 R=    0.0000 C=    0.0000
 XYZ=    1.0738   -2.8984    0.9216 Q=    0.0099 A=    0.0000 R=    0.0000 C=    0.0000
 XYZ=   -2.6045   -3.3667    1.7260 Q=   -0.0198 A=    0.0000 R=    0.0000 C=    0.0000
 XYZ=   -2.2286   -2.4873    1.7672 Q=    0.0099 A=    0.0000 R=    0.0000 C=    0.0000
 XYZ=   -2.5376   -3.6127    0.8034 Q=    0.0099 A=    0.0000 R=    0.0000 C=    0.0000
 XYZ=   -3.2254    0.0641   -3.2060 Q=    0.0099 A=    0.0000 R=    0.0000 C=    0.0000
 XYZ=   -1.2942   -1.6012   -3.2446 Q=   -0.0198 A=    0.0000 R=    0.0000 C=    0.0000
 XYZ=   -0.3369   -1.7517    3.3335 Q=   -0.0198 A=    0.0000 R=    0.0000 C=    0.0000
 XYZ=   -0.6800   -1.3801    2.5208 Q=    0.0099 A=    0.0000 R=    0.0000 C=    0.0000
 XYZ=   -1.2298   -3.1950   -0.9865 Q=   -0.0198 A=    0.0000 R=    0.0000 C=    0.0000
 XYZ=   -0.4621   -2.7715   -0.6024 Q=    0.0099 A=    0.0000 R=    0.0000 C=    0.0000
 XYZ=   -1.3342   -2.7733   -1.8395 Q=    0.0099 A=    0.0000 R=    0.0000 C=    0.0000
 XYZ=    0.7012    0.7590   -4.0593 Q=    0.0099 A=    0.0000 R=    0.0000 C=    0.0000
 XYZ=    4.1731   -3.9083    0.1527 Q=   -0.0198 A=    0.0000 R=    0.0000 C=    0.0000
 XYZ=    4.5678   -4.0654   -0.7051 Q=    0.0099 A=    0.0000 R=    0.0000 C=    0.0000
 XYZ=    2.1586    1.0546    3.3202 Q=   -0.0198 A=    0.0000 R=    0.0000 C=    0.0000
 XYZ=    1.7424    1.2701    2.4856 Q=    0.0099 A=    0.0000 R=    0.0000 C=    0.0000
 XYZ=    4.8654    0.9345    2.9707 Q=   -0.0198 A=    0.0000 R=    0.0000 C=    0.0000
 XYZ=    3.9273    1.0246    3.1382 Q=    0.0099 A=    0.0000 R=    0.0000 C=    0.0000
 XYZ=    4.9796    1.2470    2.0732 Q=    0.0099 A=    0.0000 R=    0.0000 C=    0.0000
 XYZ=    4.7288   -3.2398    0.5533 Q=    0.0099 A=    0.0000 R=    0.0000 C=    0.0000
 XYZ=   -0.7492    3.9286    3.4701 Q=    0.0099 A=    0.0000 R=    0.0000 C=    0.0000
 XYZ=    2.5357    3.9355    2.7303 Q=   -0.0198 A=    0.0000 R=    0.0000 C=    0.0000
 XYZ=   -1.3035    3.1810    3.6939 Q=   -0.0198 A=    0.0000 R=    0.0000 C=    0.0000
 XYZ=   -2.0774    4.3686   -0.0755 Q=    0.0099 A=    0.0000 R=    0.0000 C=    0.0000
 XYZ=   -2.0952    0.8641   -3.6306 Q=    0.0099 A=    0.0000 R=    0.0000 C=    0.0000
 XYZ=   -3.6196    1.9910   -2.3553 Q=    0.0099 A=    0.0000 R=    0.0000 C=    0.0000
 XYZ=   -3.0021    3.6260    1.2782 Q=   -0.0198 A=    0.0000 R=    0.0000 C=    0.0000
 XYZ=   -2.5350    3.3366    2.0620 Q=    0.0099 A=    0.0000 R=    0.0000 C=    0.0000
 XYZ=   -0.3768    1.2350   -4.0176 Q=   -0.0198 A=    0.0000 R=    0.0000 C=    0.0000
 XYZ=   -0.3419    3.8824   -2.3256 Q=   -0.0198 A=    0.0000 R=    0.0000 C=    0.0000
 XYZ=   -0.1035    3.0356   -2.7028 Q=    0.0099 A=    0.0000 R=    0.0000 C=    0.0000
 XYZ=    0.4960    4.3002   -2.1262 Q=    0.0099 A=    0.0000 R=    0.0000 C=    0.0000
 XYZ=    2.1626    1.9346    2.8087 Q=    0.0099 A=    0.0000 R=    0.0000 C=    0.0000
 XYZ=   -1.4499    5.0484   -0.3212 Q=   -0.0198 A=    0.0000 R=    0.0000 C=    0.0000
 XYZ=   -1.0186    4.7047   -1.1036 Q=    0.0099 A=    0.0000 R=    0.0000 C=    0.0000
 XYZ=    3.7851    2.5341   -0.3925 Q=   -0.0198 A=    0.0000 R=    0.0000 C=    0.0000
 XYZ=    4.5204    2.7312    0.1878 Q=    0.0099 A=    0.0000 R=    0.0000 C=    0.0000
 XYZ=    4.1944    2.2721   -1.2171 Q=    0.0099 A=    0.0000 R=    0.0000 C=    0.0000
 XYZ=    2.5613    4.2396   -0.7250 Q=    0.0099 A=    0.0000 R=    0.0000 C=    0.0000
 XYZ=    4.9309    1.0489    3.0397 Q=   -0.0198 A=    0.0000 R=    0.0000 C=    0.0000
 XYZ=   -5.9678   -2.2325   -1.8109 Q=    0.0099 A=    0.0000 R=    0.0000 C=    0.0000
 XYZ=   -6.4734   -1.6291   -0.5182 Q=    0.0099 A=    0.0000 R=    0.0000 C=    0.0000
 XYZ=   -6.3800   -1.9772    1.3034 Q=   -0.0198 A=    0.0000 R=    0.0000 C=    0.0000
 XYZ=   -6.3350   -1.2555    1.9305 Q=    0.0099 A=    0.0000 R=    0.0000 C=    0.0000
 XYZ=    1.3370    0.6713    2.6921 Q=    0.0099 A=    0.0000 R=    0.0000 C=    0.0000
 XYZ=    1.5182   -3.6675    1.3340 Q=   -0.0198 A=    0.0000 R=    0.0000 C=    0.0000
 XYZ=    2.3610   -3.8992    0.9438 Q=    0.0099 A=    0.0000 R=    0.0000 C=    0.0000
 XYZ=    1.4159   -2.7344    1.1465 Q=    0.0099 A=    0.0000 R=    0.0000 C=    0.0000
 XYZ=   -2.7713   -3.4574    1.4887 Q=   -0.0198 A=    0.0000 R=    0.0000 C=    0.0000
 XYZ=   -2.2774   -2.7450    1.0826 Q=    0.0099 A=    0.0000 R=    0.0000 C=    0.0000
 XYZ=   -3.0357   -4.0136    0.7560 Q=    0.0099 A=    0.0000 R=    0.0000 C=    0.0000
 XYZ=   -2.8864    0.5377   -3.2021 Q=   -0.0198 A=    0.0000 R=    0.0000 C=    0.0000
 XYZ=   -3.4871    0.3459   -3.9223 Q=    0.0099 A=    0.0000 R=    0.0000 C=    0.0000
[...]
 Alpha virt. eigenvalues --    0.69439   0.72001   0.72537   0.73313   0.76316
 Alpha virt. eigenvalues --    0.77237   0.78120   0.79124   0.82345   0.82624
 Alpha virt. eigenvalues --    0.83768   0.85240   0.87788   0.89603   0.91401
 Alpha virt. eigenvalues --    0.91773   0.93628   0.95023   0.96847   0.99253
 Alpha virt. eigenvalues --    1.00466   1.00901   1.02494   1.03593   1.04195
 Alpha virt. eigenvalues --    1.04931   1.06448   1.07364   1.08746   1.10607
 Alpha virt. eigenvalues --    1.11787   1.13522   1.14503   1.15976   1.16454
 Alpha virt. eigenvalues --    1.17630   1.18758   1.19942   1.21403   1.22000
 Alpha virt. eigenvalues --    1.23053   1.24277   1.25503   1.28334   1.28809
 Alpha virt. eigenvalues --    1.28969   1.30548   1.31929   1.33273   1.33821
 Alpha virt. eigenvalues --    1.35141   1.36267   1.37419   1.38988   1.40285
 Alpha virt. eigenvalues --    1.42903   1.44209   1.45173   1.45850   1.48348
 Alpha virt. eigenvalues --    1.48481   1.49683   1.50225   1.51261   1.51805
 Alpha virt. eigenvalues --    1.52801   1.54131   1.56167   1.56886   1.57781
 Alpha virt. eigenvalues --    1.59658   1.60302   1.61241   1.62903   1.65547
 Alpha virt. eigenvalues --    1.67368   1.69617   1.71557   1.72448   1.73174
 Alpha virt. eigenvalues --    1.75170   1.76449   1.79523   1.80168   1.83462
 Alpha virt. eigenvalues --    1.84512   1.86231   1.88867   1.89920   1.97255
 Alpha virt. eigenvalues --    1.98111   1.99234   2.01153   2.07354   2.08279
 Alpha virt. eigenvalues --    2.10836   2.13786   2.14133   2.21221   2.32595
 Alpha virt. eigenvalues --    2.35151   2.36479   2.38943   2.43480   2.44254
 Alpha virt. eigenvalues --    2.46617   2.51107   2.51431   2.54924   2.56129
 Alpha virt. eigenvalues --    2.57452   2.60795   2.62522   2.63769   2.66533
 Alpha virt. eigenvalues --    2.68033   2.69900   2.73926   2.74317   2.77361
 Alpha virt. eigenvalues --    2.80282   2.80808   2.83778   2.85313   2.86341
 Alpha virt. eigenvalues --    2.87573   2.89210   2.90754   2.92635   2.94300
 Alpha virt. eigenvalues --    2.96838   2.98751   3.02295   3.02906   3.04479
 Alpha virt. eigenvalues --    3.05380   3.06464   3.07223   3.07855   3.08670
 Alpha virt. eigenvalues --    3.08972   3.10164   3.11829   3.12922   3.13667
 Alpha virt. eigenvalues --    3.14335   3.15674   3.19211   3.20431   3.21154
 Alpha virt. eigenvalues --    3.22581   3.23836   3.25373   3.26404   3.27778
 Alpha virt. eigenvalues --    3.28618   3.29148   3.30204   3.31349   3.33561
 Alpha virt. eigenvalues --    3.34764   3.35534   3.36171   3.37264   3.37923
 Alpha virt. eigenvalues --    3.39362   3.40707   3.41569   3.43367   3.43912
 Alpha virt. eigenvalues --    3.47471   3.48909   3.50136   3.51063   3.52905
 Alpha virt. eigenvalues --    3.54580   3.56119   3.57175   3.58143   3.58802
 Alpha virt. eigenvalues --    3.59072   3.60126   3.60962   3.62331   3.64235
 Alpha virt. eigenvalues --    3.65157   3.66132   3.67542   3.69086   3.69714
 Alpha virt. eigenvalues --    3.70996   3.71281   3.72118   3.72796   3.75635
 Alpha virt. eigenvalues --    3.76362   3.77546   3.77985   3.79153   3.80359
 Alpha virt. eigenvalues --    3.80574   3.83442   3.84858   3.86523   3.87217
 Alpha virt. eigenvalues --    3.88195   3.89371   3.91724   3.94167   3.95435
 Alpha virt. eigenvalues --    3.96907   3.97401   4.00429   4.03312   4.03440
 Alpha virt. eigenvalues --    4.05144   4.06776   4.09005   4.09645   4.09800
 Alpha virt. eigenvalues --    4.10610   4.11567   4.13755   4.14353   4.15350
 Alpha virt. eigenvalues --    4.17554   4.19493   4.20486   4.22874   4.23532
 Alpha virt. eigenvalues --    4.24048   4.26046   4.26787   4.28375   4.30144
 Alpha virt. eigenvalues --    4.31685   4.33475   4.34008   4.34492   4.35431
 Alpha virt. eigenvalues --    4.37238   4.38291   4.39336   4.39778   4.40923
 Alpha virt. eigenvalues --    4.42966   4.44167   4.44207   4.47230   4.48909
 Alpha virt. eigenvalues --    4.50226   4.52409   4.54057   4.55059   4.57680
 Alpha virt. eigenvalues --    4.58066   4.58441   4.60714   4.61571   4.63243
 Alpha virt. eigenvalues --    4.65765   4.66780   4.68324   4.69801   4.73271
 Alpha virt. eigenvalues --    4.77061   4.79575   4.81273   4.84859   4.87263
 Alpha virt. eigenvalues --    4.88790   4.92145   4.94103   4.95052   4.98777
 Alpha virt. eigenvalues --    5.00950   5.05933   5.08575   5.09577   5.10186
 Alpha virt. eigenvalues --    5.12228   5.16381   5.16843   5.17890   5.19954
 Alpha virt. eigenvalues --    5.21414   5.24251   5.25359   5.26482   5.27215
 Alpha virt. eigenvalues --    5.31660   5.33244   5.34866   5.37196   5.38594
 Alpha virt. eigenvalues --    5.40827   5.42890   5.44423   5.45689   5.47460
 Alpha virt. eigenvalues --    5.49310   5.50703   5.51452   5.54755   5.54933
 Alpha virt. eigenvalues --    5.56974   5.57496   5.58736   5.59291   5.60801
 Alpha virt. eigenvalues --    5.61826   5.62507   5.64009   5.65537   5.67065
 Alpha virt. eigenvalues --    5.69405   5.70808   5.71596   5.72389   5.75256
 Alpha virt. eigenvalues --    5.77362   5.80636   5.81886   5.83097   5.87431
 Alpha virt. eigenvalues --    5.92048   5.94474   5.97505   5.99527   6.02243
 Alpha virt. eigenvalues --    6.07960   6.11069   6.13698   6.16281   6.20913
 Alpha virt. eigenvalues --    6.22616   6.22852   6.25972   6.26070   6.29808
 Alpha virt. eigenvalues --    6.33014   6.36771   6.39086   6.44003   6.51131
 Alpha virt. eigenvalues --    6.52635   6.63412   6.70199   6.79236   6.80577
 Alpha virt. eigenvalues --    6.86932   6.88474   6.89352   6.92749   7.01493
 Alpha virt. eigenvalues --    7.06008   7.24939   7.33373   7.34234   7.34377
 Alpha virt. eigenvalues --    7.53287   7.55226   7.58822   7.59569   9.70716
 Alpha virt. eigenvalues --   10.20021  12.17104  12.99570  13.13281  13.78287
 Alpha virt. eigenvalues --   13.91918  14.14357  14.25661  14.31341
          Condensed to atoms (all electrons):
              1          2          3          4          5          6
     1  H    0.550664   0.379185  -0.022130  -0.022307  -0.042113   0.006481
     2  C    0.379185   5.108932   0.355770   0.366364   0.319488  -0.077970
     3  H   -0.022130   0.355770   0.584337  -0.026714  -0.035202   0.002445
     4  H   -0.022307   0.366364  -0.026714   0.558399  -0.026993   0.001475
     5  C   -0.042113   0.319488  -0.035202  -0.026993   4.629634   0.655586
     6  O    0.006481  -0.077970   0.002445   0.001475   0.655586   7.997461
     7  N    0.006792  -0.080963   0.007642   0.004602   0.339380  -0.151672
     8  H   -0.000093  -0.001342  -0.001164  -0.000875  -0.011673   0.004110
     9  C   -0.000257   0.005069   0.000125  -0.000495  -0.073337   0.013433
    10  H    0.000012  -0.000049   0.000008  -0.000003   0.004610   0.000090
    11  C    0.000034  -0.000591  -0.000234   0.000091  -0.004918  -0.003707
    12  H   -0.000010   0.000641  -0.000180  -0.000015   0.001505   0.012045
    13  H   -0.000002   0.000012   0.000000  -0.000001   0.000481   0.000153
    14  H   -0.000005  -0.000178   0.000126  -0.000019  -0.000124  -0.000665
    15  C   -0.000049   0.000054   0.000058  -0.000095  -0.003109   0.005336
    16  O    0.000035  -0.001498   0.000002   0.000304   0.019482  -0.017367
    17  N    0.000000  -0.000011   0.000000   0.000002   0.000079  -0.000073
    18  H    0.000000   0.000002   0.000000   0.000000   0.000021  -0.000007
    19  C    0.000000   0.000001   0.000000   0.000000  -0.000034   0.000007
    20  H    0.000000   0.000000   0.000000   0.000000  -0.000003   0.000002
    21  H    0.000000   0.000001   0.000000   0.000000  -0.000044   0.000004
    22  H    0.000000   0.000000   0.000000   0.000000   0.000006  -0.000001
              7          8          9         10         11         12
     1  H    0.006792  -0.000093  -0.000257   0.000012   0.000034  -0.000010
     2  C   -0.080963  -0.001342   0.005069  -0.000049  -0.000591   0.000641
     3  H    0.007642  -0.001164   0.000125   0.000008  -0.000234  -0.000180
     4  H    0.004602  -0.000875  -0.000495  -0.000003   0.000091  -0.000015
     5  C    0.339380  -0.011673  -0.073337   0.004610  -0.004918   0.001505
     6  O   -0.151672   0.004110   0.013433   0.000090  -0.003707   0.012045
     7  N    6.599075   0.323667   0.267440  -0.016288  -0.069759  -0.004598
     8  H    0.323667   0.457962  -0.017384  -0.006637   0.003456  -0.000154
     9  C    0.267440  -0.017384   5.270411   0.365259   0.271109  -0.036572
    10  H   -0.016288  -0.006637   0.365259   0.518966  -0.041345   0.006163
    11  C   -0.069759   0.003456   0.271109  -0.041345   5.200183   0.366530
    12  H   -0.004598  -0.000154  -0.036572   0.006163   0.366530   0.582076
    13  H    0.005106  -0.000224  -0.027586  -0.005517   0.370682  -0.021637
    14  H    0.008232   0.000653  -0.022880  -0.005099   0.358079  -0.041558
    15  C   -0.034455   0.002030   0.226662  -0.010892  -0.063525  -0.000250
    16  O    0.002999  -0.000391  -0.095686   0.001508   0.003074   0.001259
    17  N    0.001941  -0.000015  -0.063374  -0.003197   0.008346  -0.000395
    18  H    0.000074  -0.000030  -0.000381   0.000956  -0.001267   0.000123
    19  C   -0.000275   0.000014   0.006455  -0.000137  -0.000634  -0.000036
    20  H   -0.000003   0.000000   0.000575   0.000016  -0.000054  -0.000006
    21  H   -0.000041   0.000002   0.002605  -0.000023  -0.000387  -0.000030
    22  H    0.000023  -0.000001  -0.000691  -0.000078   0.000054   0.000002
             13         14         15         16         17         18
     1  H   -0.000002  -0.000005  -0.000049   0.000035   0.000000   0.000000
     2  C    0.000012  -0.000178   0.000054  -0.001498  -0.000011   0.000002
     3  H    0.000000   0.000126   0.000058   0.000002   0.000000   0.000000
     4  H   -0.000001  -0.000019  -0.000095   0.000304   0.000002   0.000000
     5  C    0.000481  -0.000124  -0.003109   0.019482   0.000079   0.000021
     6  O    0.000153  -0.000665   0.005336  -0.017367  -0.000073  -0.000007
     7  N    0.005106   0.008232  -0.034455   0.002999   0.001941   0.000074
     8  H   -0.000224   0.000653   0.002030  -0.000391  -0.000015  -0.000030
     9  C   -0.027586  -0.022880   0.226662  -0.095686  -0.063374  -0.000381
    10  H   -0.005517  -0.005099  -0.010892   0.001508  -0.003197   0.000956
    11  C    0.370682   0.358079  -0.063525   0.003074   0.008346  -0.001267
    12  H   -0.021637  -0.041558  -0.000250   0.001259  -0.000395   0.000123
    13  H    0.539969  -0.016659   0.001744  -0.000235   0.003197  -0.000317
    14  H   -0.016659   0.569863   0.005074  -0.000359   0.000287   0.000004
    15  C    0.001744   0.005074   4.647903   0.698451   0.399077  -0.018355
    16  O   -0.000235  -0.000359   0.698451   7.986658  -0.154376   0.004694
    17  N    0.003197   0.000287   0.399077  -0.154376   6.453627   0.335981
    18  H   -0.000317   0.000004  -0.018355   0.004694   0.335981   0.469173
    19  C   -0.000010   0.000032  -0.054331  -0.003970   0.267811  -0.026278
    20  H   -0.000063  -0.000004   0.004980   0.001363  -0.039567  -0.005527
    21  H   -0.000084   0.000004  -0.009945   0.021784  -0.037201   0.004482
    22  H    0.000047   0.000001  -0.001402  -0.001142  -0.037467  -0.000842
             19         20         21         22
     1  H    0.000000   0.000000   0.000000   0.000000
     2  C    0.000001   0.000000   0.000001   0.000000
     3  H    0.000000   0.000000   0.000000   0.000000
     4  H    0.000000   0.000000   0.000000   0.000000
     5  C   -0.000034  -0.000003  -0.000044   0.000006
     6  O    0.000007   0.000002   0.000004  -0.000001
     7  N   -0.000275  -0.000003  -0.000041   0.000023
     8  H    0.000014   0.000000   0.000002  -0.000001
     9  C    0.006455   0.000575   0.002605  -0.000691
    10  H   -0.000137   0.000016  -0.000023  -0.000078
    11  C   -0.000634  -0.000054  -0.000387   0.000054
    12  H   -0.000036  -0.000006  -0.000030   0.000002
    13  H   -0.000010  -0.000063  -0.000084   0.000047
    14  H    0.000032  -0.000004   0.000004   0.000001
    15  C   -0.054331   0.004980  -0.009945  -0.001402
    16  O   -0.003970   0.001363   0.021784  -0.001142
    17  N    0.267811  -0.039567  -0.037201  -0.037467
    18  H   -0.026278  -0.005527   0.004482  -0.000842
    19  C    4.918519   0.385499   0.374423   0.392737
    20  H    0.385499   0.566553  -0.018279  -0.035469
    21  H    0.374423  -0.018279   0.570149  -0.038460
    22  H    0.392737  -0.035469  -0.038460   0.583924
 Mulliken atomic charges:
              1
     1  H    0.143763
     2  C   -0.372919
     3  H    0.135113
     4  H    0.146282
     5  C    0.227280
     6  O   -0.447164
     7  N   -0.208918
     8  H    0.248089
     9  C   -0.090497
    10  H    0.191677
    11  C   -0.395216
    12  H    0.135098
    13  H    0.150943
    14  H    0.145194
    15  C    0.205041
    16  O   -0.466586
    17  N   -0.134669
    18  H    0.237495
    19  C   -0.259791
    20  H    0.139987
    21  H    0.131040
    22  H    0.138759
 Sum of Mulliken atomic charges =   0.00000
 Mulliken charges with hydrogens summed into heavy atoms:
              1
     2  C    0.052238
     5  C    0.227280
     6  O   -0.447164
     7  N    0.039172
     9  C    0.101179
    11  C    0.036020
    15  C    0.205041
    16  O   -0.466586
    17  N    0.102826
    19  C    0.149995
 Sum of Mulliken charges with hydrogens summed into heavy atoms =   0.00000
 Electronic spatial extent (au):  <R**2>=           1827.7114
 Charge=              0.0000 electrons
 Dipole moment (field-independent basis, Debye):
    X=              2.7189    Y=              7.0537    Z=             -5.7071  Tot=              9.4720
 Quadrupole moment (field-independent basis, Debye-Ang):
   XX=            -39.5987   YY=            -62.6922   ZZ=            -61.2324
   XY=              1.6149   XZ=              6.6545   YZ=              0.2891
 Traceless Quadrupole moment (field-independent basis, Debye-Ang):
   XX=             14.9091   YY=             -8.1844   ZZ=             -6.7246
   XY=              1.6149   XZ=              6.6545   YZ=              0.2891
 Octapole moment (field-independent basis, Debye-Ang**2):
  XXX=             29.9289  YYY=             13.7803  ZZZ=            -14.1480  XYY=              2.8567
  XXY=              4.0275  XXZ=            -18.2275  XZZ=              2.7889  YZZ=              5.9940
  YYZ=             -5.4876  XYZ=             -5.8850
 Hexadecapole moment (field-independent basis, Debye-Ang**3):
 XXXX=          -1455.5576 YYYY=           -479.8271 ZZZZ=           -201.9667 XXXY=              5.3815
 XXXZ=             17.5004 YYYX=             11.1668 YYYZ=             -4.5871 ZZZX=             17.1640
 ZZZY=             -7.5710 XXYY=           -343.3945 XXZZ=           -316.4802 YYZZ=           -109.0349
 XXYZ=             -2.9294 YYXZ=              0.7255 ZZXY=             -8.6408
 N-N= 5.599277043653D+02 E-N=-2.272674691176D+03  KE= 4.944103089917D+02
 Merz-Kollman atomic radii used.

 **********************************************************************

          Electrostatic Properties Using The MP2 Density

 **********************************************************************

       Atomic Center    1 is at  -3.911541 -1.288479  0.349803
       Atomic Center    2 is at  -3.403313 -0.698743 -0.413096
       Atomic Center    3 is at  -4.008614  0.194853 -0.565402
       Atomic Center    4 is at  -3.379725 -1.273048 -1.339227
       Atomic Center    5 is at  -2.041245 -0.245213  0.104855
       Atomic Center    6 is at  -1.694496 -0.679155  1.171645
       Atomic Center    7 is at  -1.262958  0.552225 -0.704717
       Atomic Center    8 is at  -1.693713  0.782050 -1.588872
       Atomic Center    9 is at   0.131266  0.968653 -0.436160
       Atomic Center   10 is at   0.466714  1.546404 -1.297426
       Atomic Center   11 is at   0.147572  2.077886  0.684155
       Atomic Center   12 is at  -0.187280  1.687153  1.645041
       Atomic Center   13 is at   1.110985  2.585454  0.732218
       Atomic Center   14 is at  -0.646994  2.812908  0.555677
       Atomic Center   15 is at   1.152020 -0.212256 -0.197697
       Atomic Center   16 is at   0.808253 -1.359762  0.112253
       Atomic Center   17 is at   2.437149  0.081889 -0.382569
       Atomic Center   18 is at   2.640278  1.019782 -0.697523
       Atomic Center   19 is at   3.522123 -0.779229  0.080268
       Atomic Center   20 is at   4.227776 -0.112206  0.575480
       Atomic Center   21 is at   3.179915 -1.513111  0.809933
       Atomic Center   22 is at   4.022272 -1.235817 -0.773827
    1022 points will be used for fitting atomic charges
 Fitting point charges to electrostatic potential
 Charges from ESP fit, RMS=   0.00188 RRMS=   0.04793:
 Charge=   0.00000 Dipole=     2.7230     6.9991    -5.6564 Tot=     9.4020
              1
     1  H    0.163128
     2  C   -0.586960
     3  H    0.159133
     4  H    0.166252
     5  C    0.858394
     6  O   -0.699034
     7  N   -0.788796
     8  H    0.425468
     9  C    0.328501
    10  H    0.054903
    11  C   -0.316424
    12  H    0.102312
    13  H    0.071031
    14  H    0.117398
    15  C    0.377564
    16  O   -0.594623
    17  N   -0.356718
    18  H    0.335607
    19  C   -0.118427
    20  H    0.101144
    21  H    0.110647
    22  H    0.089500
 -----------------------------------------------------------------

              Electrostatic Properties (Atomic Units)

 -----------------------------------------------------------------
    Center     Electric         -------- Electric Field --------
               Potential          X             Y             Z
 -----------------------------------------------------------------
    1 Atom     -1.123346
    2 Atom    -14.771555
    3 Atom     -1.088152
    4 Atom     -1.091518
    5 Atom    -14.683374
    6 Atom    -22.463169
    7 Atom    -18.338266
    8 Atom     -0.967252
    9 Atom    -14.678603
   10 Atom     -1.048797
   11 Atom    -14.752505
   12 Atom     -1.126167
   13 Atom     -1.080081
   14 Atom     -1.090882
   15 Atom    -14.670463
   16 Atom    -22.455703
   17 Atom    -18.327117
   18 Atom     -0.958125
   19 Atom    -14.718432
   20 Atom     -1.079373
   21 Atom     -1.109860
   22 Atom     -1.091871
 -----------------------------------------------------------------

 Test job not archived.
 1\1\GINC-TACHIKOMA\SP\RMP2-FC\CC-pVTZ\C6H12N2O2\STEBOSS\19-Mar-2017\0\
 \#MP2/cc-pvTZ density=MP2, charge, maxdisk=16GB, pop=(minimal, MK), 5d
 , punch=mo\\Generated by mdgx\\0,1\H,0,-3.9115406,-1.2884792,0.349803\
 C,0,-3.4033127,-0.6987427,-0.4130962\H,0,-4.0086137,0.1948532,-0.56540
 22\H,0,-3.3797248,-1.2730478,-1.3392266\C,0,-2.0412451,-0.2452132,0.10
 4855\O,0,-1.6944964,-0.6791552,1.1716447\N,0,-1.2629585,0.5522252,-0.7
 047166\H,0,-1.6937134,0.7820496,-1.5888721\C,0,0.1312658,0.9686533,-0.
 4361602\H,0,0.4667139,1.546404,-1.2974259\C,0,0.1475725,2.0778859,0.68
 41549\H,0,-0.1872798,1.6871535,1.645041\H,0,1.1109855,2.5854541,0.7322
 18\H,0,-0.6469944,2.8129079,0.5556774\C,0,1.1520197,-0.212256,-0.19769
 64\O,0,0.8082531,-1.3597618,0.1122533\N,0,2.4371487,0.0818894,-0.38256
 93\H,0,2.6402778,1.019782,-0.6975233\C,0,3.5221231,-0.7792288,0.080268
 1\H,0,4.2277762,-0.1122062,0.5754798\H,0,3.1799146,-1.5131109,0.809933
 4\H,0,4.0222724,-1.2358173,-0.7738267\\Version=EM64L-G09RevA.02\State=
 1-A\HF=-492.3167769\MP2=-494.1923652\RMSD=4.319e-09\Dipole=1.069688,2.
 7751487,-2.2453481\Quadrupole=11.0845293,-6.0849304,-4.999599,1.200648
 5,4.9474315,0.2149625\PG=C01 [X(C6H12N2O2)]\\@


 THE BEST WAY TO CONVINCE A FOOL THAT HE IS WRONG 
 IS TO LET HIM HAVE HIS OWN WAY.

                                         JOSH BILLINGS
 Job cpu time:  0 days  2 hours 43 minutes 52.0 seconds.
 File lengths (MBytes):  RWF=  12972 Int=      0 D2E=      0 Chk=     14 Scr=      1
 Normal termination of Gaussian 09 at Sun Mar 19 15:12:42 2017.
