 Entering Gaussian System, Link 0=g09
 Initial command:
 /home/steboss/Software/g09/l1.exe /home/steboss/projects/phi_psi_scan/alanine/330/4573/Gau-23412.inp -scrdir=/home/steboss/projects/phi_psi_scan/alanine/330/4573/
 Entering Link 1 = /home/steboss/Software/g09/l1.exe PID=     23414.
  
 Copyright (c) 1988,1990,1992,1993,1995,1998,2003,2009, Gaussian, Inc.
                  All Rights Reserved.
  
 This is part of the Gaussian(R) 09 program.  It is based on
 the Gaussian(R) 03 system (copyright 2003, Gaussian, Inc.),
 the Gaussian(R) 98 system (copyright 1998, Gaussian, Inc.),
 the Gaussian(R) 94 system (copyright 1995, Gaussian, Inc.),
 the Gaussian 92(TM) system (copyright 1992, Gaussian, Inc.),
 the Gaussian 90(TM) system (copyright 1990, Gaussian, Inc.),
 the Gaussian 88(TM) system (copyright 1988, Gaussian, Inc.),
 the Gaussian 86(TM) system (copyright 1986, Carnegie Mellon
 University), and the Gaussian 82(TM) system (copyright 1983,
 Carnegie Mellon University). Gaussian is a federally registered
 trademark of Gaussian, Inc.
  
 This software contains proprietary and confidential information,
 including trade secrets, belonging to Gaussian, Inc.
  
 This software is provided under written license and may be
 used, copied, transmitted, or stored only in accord with that
 written license.
  
 The following legend is applicable only to US Government
 contracts under FAR:
  
                    RESTRICTED RIGHTS LEGEND
  
 Use, reproduction and disclosure by the US Government is
 subject to restrictions as set forth in subparagraphs (a)
 and (c) of the Commercial Computer Software - Restricted
 Rights clause in FAR 52.227-19.
  
 Gaussian, Inc.
 340 Quinnipiac St., Bldg. 40, Wallingford CT 06492
  
  
 ---------------------------------------------------------------
 Warning -- This program may not be used in any manner that
 competes with the business of Gaussian, Inc. or will provide
 assistance to any competitor of Gaussian, Inc.  The licensee
 of this program is prohibited from giving any competitor of
 Gaussian, Inc. access to this program.  By using this program,
 the user acknowledges that Gaussian, Inc. is engaged in the
 business of creating and licensing software in the field of
 computational chemistry and represents and warrants to the
 licensee that it is not a competitor of Gaussian, Inc. and that
 it will not use this program in any manner prohibited above.
 ---------------------------------------------------------------
  

 Cite this work as:
 Gaussian 09, Revision A.02,
 M. J. Frisch, G. W. Trucks, H. B. Schlegel, G. E. Scuseria, 
 M. A. Robb, J. R. Cheeseman, G. Scalmani, V. Barone, B. Mennucci, 
 G. A. Petersson, H. Nakatsuji, M. Caricato, X. Li, H. P. Hratchian, 
 A. F. Izmaylov, J. Bloino, G. Zheng, J. L. Sonnenberg, M. Hada, 
 M. Ehara, K. Toyota, R. Fukuda, J. Hasegawa, M. Ishida, T. Nakajima, 
 Y. Honda, O. Kitao, H. Nakai, T. Vreven, J. A. Montgomery, Jr., 
 J. E. Peralta, F. Ogliaro, M. Bearpark, J. J. Heyd, E. Brothers, 
 K. N. Kudin, V. N. Staroverov, R. Kobayashi, J. Normand, 
 K. Raghavachari, A. Rendell, J. C. Burant, S. S. Iyengar, J. Tomasi, 
 M. Cossi, N. Rega, J. M. Millam, M. Klene, J. E. Knox, J. B. Cross, 
 V. Bakken, C. Adamo, J. Jaramillo, R. Gomperts, R. E. Stratmann, 
 O. Yazyev, A. J. Austin, R. Cammi, C. Pomelli, J. W. Ochterski, 
 R. L. Martin, K. Morokuma, V. G. Zakrzewski, G. A. Voth, 
 P. Salvador, J. J. Dannenberg, S. Dapprich, A. D. Daniels, 
 O. Farkas, J. B. Foresman, J. V. Ortiz, J. Cioslowski, 
 and D. J. Fox, Gaussian, Inc., Wallingford CT, 2009.
 
 ******************************************
 Gaussian 09:  EM64L-G09RevA.02 11-Jun-2009
                11-Feb-2017 
 ******************************************
 %chk=structure_285.chk
 %NProcShared=8
 Will use up to    8 processors via shared memory.
 ----------------------------------------------------------------------
 # b3lyp/6-31G* Opt=(ModRedundant, maxcycles=1000, calcfc) geom=nocrowd
 ----------------------------------------------------------------------
 1/6=1000,10=4,14=-1,18=120,19=15,26=3,38=1/1,3;
 2/9=110,12=1,17=6,18=5,40=1/2;
 3/5=1,6=6,7=1,11=2,16=1,25=1,30=1,71=2,74=-5/1,2,3;
 4//1;
 5/5=2,38=5/2;
 8/6=4,10=90,11=11/1;
 11/6=1,8=1,9=11,15=111,16=1/1,2,10;
 10/6=1,7=6,13=1/2;
 6/7=2,8=2,9=2,10=2,28=1/1;
 7/10=1,18=20,25=1/1,2,3,16;
 1/6=1000,10=4,14=-1,18=20,19=15/3(2);
 2/9=110,12=1/2;
 99//99;
 2/9=110,12=1/2;
 3/5=1,6=6,7=1,11=2,16=1,25=1,30=1,71=1,74=-5/1,2,3;
 4/5=5,16=3/1;
 5/5=2,38=5/2;
 7//1,2,3,16;
 1/6=1000,14=-1,18=20,19=15/3(-5);
 2/9=110,12=1/2;
 6/7=2,8=2,9=2,10=2,19=2,28=1/1;
 99/9=1/99;
 ------------------
 Phi Psi fixed scan
 ------------------
 Symbolic Z-matrix:
 Charge =  0 Multiplicity = 1
 H                     0.3668    4.29      0.9842 
 C                     1.1769    3.7481    0.496 
 H                     0.9253    3.584    -0.5518 
 H                     1.3209    2.787     0.9895 
 C                     2.4871    4.5351    0.5667 
 O                     2.5276    5.6304    1.1227 
 N                     3.5554    3.9697    0. 
 H                     3.4723    3.067    -0.4455 
 C                     4.8533    4.6139    0. 
 H                     5.4076    4.3155    0.8898 
 C                     5.6613    4.2208   -1.2322 
 H                     5.1233    4.5214   -2.1312 
 H                     6.6305    4.7189   -1.2058 
 H                     5.8085    3.1409   -1.2414 
 C                     4.7127    6.1294    0. 
 O                     4.928     6.7758    1.0229 
 N                     4.3498    6.6961   -1.153 
 H                     4.1839    6.1223   -1.9675 
 C                     4.1821    8.1295   -1.2823 
 H                     4.3948    8.6084   -0.3265 
 H                     4.8683    8.5094   -2.0392 
 H                     3.1567    8.3506   -1.5786 
 
 The following ModRedundant input section has been read:
 D    5    7    9   15 F                                                       
 D    7    9   15   17 F                                                       

 GradGradGradGradGradGradGradGradGradGradGradGradGradGradGradGradGradGrad
 Berny optimization.
 Initialization pass.
                           ----------------------------
                           !    Initial Parameters    !
                           ! (Angstroms and Degrees)  !
 --------------------------                            --------------------------
 ! Name  Definition              Value          Derivative Info.                !
 --------------------------------------------------------------------------------
 ! R1    R(1,2)                  1.0901         calculate D2E/DX2 analytically  !
 ! R2    R(2,3)                  1.09           calculate D2E/DX2 analytically  !
 ! R3    R(2,4)                  1.09           calculate D2E/DX2 analytically  !
 ! R4    R(2,5)                  1.53           calculate D2E/DX2 analytically  !
 ! R5    R(5,6)                  1.229          calculate D2E/DX2 analytically  !
 ! R6    R(5,7)                  1.3349         calculate D2E/DX2 analytically  !
 ! R7    R(7,8)                  1.0101         calculate D2E/DX2 analytically  !
 ! R8    R(7,9)                  1.449          calculate D2E/DX2 analytically  !
 ! R9    R(9,10)                 1.09           calculate D2E/DX2 analytically  !
 ! R10   R(9,11)                 1.525          calculate D2E/DX2 analytically  !
 ! R11   R(9,15)                 1.522          calculate D2E/DX2 analytically  !
 ! R12   R(11,12)                1.09           calculate D2E/DX2 analytically  !
 ! R13   R(11,13)                1.09           calculate D2E/DX2 analytically  !
 ! R14   R(11,14)                1.0899         calculate D2E/DX2 analytically  !
 ! R15   R(15,16)                1.229          calculate D2E/DX2 analytically  !
 ! R16   R(15,17)                1.335          calculate D2E/DX2 analytically  !
 ! R17   R(17,18)                1.01           calculate D2E/DX2 analytically  !
 ! R18   R(17,19)                1.449          calculate D2E/DX2 analytically  !
 ! R19   R(19,20)                1.09           calculate D2E/DX2 analytically  !
 ! R20   R(19,21)                1.09           calculate D2E/DX2 analytically  !
 ! R21   R(19,22)                1.09           calculate D2E/DX2 analytically  !
 ! A1    A(1,2,3)              109.5008         calculate D2E/DX2 analytically  !
 ! A2    A(1,2,4)              109.4971         calculate D2E/DX2 analytically  !
 ! A3    A(1,2,5)              111.0994         calculate D2E/DX2 analytically  !
 ! A4    A(3,2,4)              109.45           calculate D2E/DX2 analytically  !
 ! A5    A(3,2,5)              108.6337         calculate D2E/DX2 analytically  !
 ! A6    A(4,2,5)              108.6331         calculate D2E/DX2 analytically  !
 ! A7    A(2,5,6)              120.4996         calculate D2E/DX2 analytically  !
 ! A8    A(2,5,7)              116.6031         calculate D2E/DX2 analytically  !
 ! A9    A(6,5,7)              122.8973         calculate D2E/DX2 analytically  !
 ! A10   A(5,7,8)              119.9941         calculate D2E/DX2 analytically  !
 ! A11   A(5,7,9)              121.9053         calculate D2E/DX2 analytically  !
 ! A12   A(8,7,9)              118.1007         calculate D2E/DX2 analytically  !
 ! A13   A(7,9,10)             109.5            calculate D2E/DX2 analytically  !
 ! A14   A(7,9,11)             111.0992         calculate D2E/DX2 analytically  !
 ! A15   A(7,9,15)             111.0966         calculate D2E/DX2 analytically  !
 ! A16   A(10,9,11)            108.6382         calculate D2E/DX2 analytically  !
 ! A17   A(10,9,15)            108.6373         calculate D2E/DX2 analytically  !
 ! A18   A(11,9,15)            107.7947         calculate D2E/DX2 analytically  !
 ! A19   A(9,11,12)            109.5007         calculate D2E/DX2 analytically  !
 ! A20   A(9,11,13)            109.4959         calculate D2E/DX2 analytically  !
 ! A21   A(9,11,14)            109.4978         calculate D2E/DX2 analytically  !
 ! A22   A(12,11,13)           109.441          calculate D2E/DX2 analytically  !
 ! A23   A(12,11,14)           109.4482         calculate D2E/DX2 analytically  !
 ! A24   A(13,11,14)           109.4436         calculate D2E/DX2 analytically  !
 ! A25   A(9,15,16)            120.4983         calculate D2E/DX2 analytically  !
 ! A26   A(9,15,17)            116.6018         calculate D2E/DX2 analytically  !
 ! A27   A(16,15,17)           122.8999         calculate D2E/DX2 analytically  !
 ! A28   A(15,17,18)           119.9973         calculate D2E/DX2 analytically  !
 ! A29   A(15,17,19)           121.9018         calculate D2E/DX2 analytically  !
 ! A30   A(18,17,19)           118.1009         calculate D2E/DX2 analytically  !
 ! A31   A(17,19,20)           109.4996         calculate D2E/DX2 analytically  !
 ! A32   A(17,19,21)           109.5054         calculate D2E/DX2 analytically  !
 ! A33   A(17,19,22)           109.4995         calculate D2E/DX2 analytically  !
 ! A34   A(20,19,21)           109.4465         calculate D2E/DX2 analytically  !
 ! A35   A(20,19,22)           109.4394         calculate D2E/DX2 analytically  !
 ! A36   A(21,19,22)           109.4369         calculate D2E/DX2 analytically  !
 ! D1    D(1,2,5,6)             -0.003          calculate D2E/DX2 analytically  !
 ! D2    D(1,2,5,7)           -179.9971         calculate D2E/DX2 analytically  !
 ! D3    D(3,2,5,6)            120.5085         calculate D2E/DX2 analytically  !
 ! D4    D(3,2,5,7)            -59.4857         calculate D2E/DX2 analytically  !
 ! D5    D(4,2,5,6)           -120.5094         calculate D2E/DX2 analytically  !
 ! D6    D(4,2,5,7)             59.4964         calculate D2E/DX2 analytically  !
 ! D7    D(2,5,7,8)             -0.0039         calculate D2E/DX2 analytically  !
 ! D8    D(2,5,7,9)           -179.9999         calculate D2E/DX2 analytically  !
 ! D9    D(6,5,7,8)           -179.998          calculate D2E/DX2 analytically  !
 ! D10   D(6,5,7,9)              0.0061         calculate D2E/DX2 analytically  !
 ! D11   D(5,7,9,10)            89.996          calculate D2E/DX2 analytically  !
 ! D12   D(5,7,9,11)          -150.0014         calculate D2E/DX2 analytically  !
 ! D13   D(5,7,9,15)           -30.0038         frozen, calculate D2E/DX2 analyt!
 ! D14   D(8,7,9,10)           -90.0            calculate D2E/DX2 analytically  !
 ! D15   D(8,7,9,11)            30.0026         calculate D2E/DX2 analytically  !
 ! D16   D(8,7,9,15)           150.0002         calculate D2E/DX2 analytically  !
 ! D17   D(7,9,11,12)           60.0024         calculate D2E/DX2 analytically  !
 ! D18   D(7,9,11,13)          179.9986         calculate D2E/DX2 analytically  !
 ! D19   D(7,9,11,14)          -60.0038         calculate D2E/DX2 analytically  !
 ! D20   D(10,9,11,12)        -179.4843         calculate D2E/DX2 analytically  !
 ! D21   D(10,9,11,13)         -59.4881         calculate D2E/DX2 analytically  !
 ! D22   D(10,9,11,14)          60.5095         calculate D2E/DX2 analytically  !
 ! D23   D(15,9,11,12)         -61.938          calculate D2E/DX2 analytically  !
 ! D24   D(15,9,11,13)          58.0582         calculate D2E/DX2 analytically  !
 ! D25   D(15,9,11,14)         178.0558         calculate D2E/DX2 analytically  !
 ! D26   D(7,9,15,16)          105.0004         calculate D2E/DX2 analytically  !
 ! D27   D(7,9,15,17)          -74.9976         frozen, calculate D2E/DX2 analyt!
 ! D28   D(10,9,15,16)         -15.5107         calculate D2E/DX2 analytically  !
 ! D29   D(10,9,15,17)         164.4913         calculate D2E/DX2 analytically  !
 ! D30   D(11,9,15,16)        -133.0576         calculate D2E/DX2 analytically  !
 ! D31   D(11,9,15,17)          46.9444         calculate D2E/DX2 analytically  !
 ! D32   D(9,15,17,18)          -0.0053         calculate D2E/DX2 analytically  !
 ! D33   D(9,15,17,19)        -179.9963         calculate D2E/DX2 analytically  !
 ! D34   D(16,15,17,18)        179.9968         calculate D2E/DX2 analytically  !
 ! D35   D(16,15,17,19)          0.0058         calculate D2E/DX2 analytically  !
 ! D36   D(15,17,19,20)         -0.0095         calculate D2E/DX2 analytically  !
 ! D37   D(15,17,19,21)        119.9986         calculate D2E/DX2 analytically  !
 ! D38   D(15,17,19,22)       -120.0052         calculate D2E/DX2 analytically  !
 ! D39   D(18,17,19,20)        179.9994         calculate D2E/DX2 analytically  !
 ! D40   D(18,17,19,21)        -59.9925         calculate D2E/DX2 analytically  !
 ! D41   D(18,17,19,22)         60.0037         calculate D2E/DX2 analytically  !
 --------------------------------------------------------------------------------
 Trust Radius=3.00D-01 FncErr=1.00D-07 GrdErr=1.00D-06
 Number of steps in this run= 132 maximum allowed number of steps= 132.
 GradGradGradGradGradGradGradGradGradGradGradGradGradGradGradGradGradGrad

                          Input orientation:                          
 ---------------------------------------------------------------------
 Center     Atomic      Atomic             Coordinates (Angstroms)
 Number     Number       Type             X           Y           Z
 ---------------------------------------------------------------------
      1          1           0        0.366800    4.290000    0.984200
      2          6           0        1.176900    3.748100    0.496000
      3          1           0        0.925300    3.584000   -0.551800
      4          1           0        1.320900    2.787000    0.989500
      5          6           0        2.487100    4.535100    0.566700
      6          8           0        2.527600    5.630400    1.122700
      7          7           0        3.555400    3.969700    0.000000
      8          1           0        3.472300    3.067000   -0.445500
      9          6           0        4.853300    4.613900    0.000000
     10          1           0        5.407600    4.315500    0.889800
     11          6           0        5.661300    4.220800   -1.232200
     12          1           0        5.123300    4.521400   -2.131200
     13          1           0        6.630500    4.718900   -1.205800
     14          1           0        5.808500    3.140900   -1.241400
     15          6           0        4.712700    6.129400    0.000000
     16          8           0        4.928000    6.775800    1.022900
     17          7           0        4.349800    6.696100   -1.153000
     18          1           0        4.183900    6.122300   -1.967500
     19          6           0        4.182100    8.129500   -1.282300
     20          1           0        4.394800    8.608400   -0.326500
     21          1           0        4.868300    8.509400   -2.039200
     22          1           0        3.156700    8.350600   -1.578600
 ---------------------------------------------------------------------
                    Distance matrix (angstroms):
                    1          2          3          4          5
     1  H    0.000000
     2  C    1.090072   0.000000
     3  H    1.780352   1.090007   0.000000
     4  H    1.780265   1.089950   1.779695   0.000000
     5  C    2.174868   1.530030   2.143561   2.143510   0.000000
     6  O    2.546549   2.400041   3.091774   3.091729   1.229007
     7  N    3.352374   2.439751   2.714898   2.714936   1.334950
     8  H    3.630964   2.572777   2.601115   2.601182   2.037274
     9  C    4.604589   3.809402   4.098092   4.098112   2.434391
    10  H    5.041748   4.286705   4.764905   4.364329   2.946513
    11  C    5.740117   4.829075   4.826816   5.082402   3.662017
    12  H    5.690655   4.803566   4.582186   5.215856   3.772055
    13  H    6.649360   5.794854   5.853633   6.061636   4.510355
    14  H    5.990478   4.983871   4.951518   5.024014   4.030474
    15  C    4.820673   4.291677   4.596514   4.863646   2.795753
    16  O    5.194732   4.849262   5.356200   5.377993   3.344675
    17  N    5.120667   4.634350   4.666241   5.389397   3.331207
    18  H    5.161406   4.554965   4.366423   5.297626   3.438096
    19  C    5.868160   5.602700   5.639321   6.472237   4.383097
    20  H    6.049074   5.886757   6.110056   6.713376   4.585728
    21  H    6.870792   6.536333   6.482220   7.382610   5.315627
    22  H    5.553374   5.422783   5.362270   6.396792   4.428173
                    6          7          8          9         10
     6  O    0.000000
     7  N    2.252721   0.000000
     8  H    3.150036   1.010071   0.000000
     9  C    2.775357   1.448978   2.120974   0.000000
    10  H    3.174524   2.083739   2.662173   1.089970   0.000000
    11  C    4.165645   2.452791   2.596512   1.525027   2.139209
    12  H    4.307598   2.702720   2.771762   2.150225   3.041326
    13  H    4.804845   3.386959   3.644318   2.150214   2.459625
    14  H    4.748777   2.702673   2.469159   2.150165   2.466256
    15  C    2.506814   2.450234   3.333970   1.522008   2.136554
    16  O    2.661545   3.287028   4.246229   2.392847   2.510141
    17  N    3.104020   3.064920   3.800122   2.432792   3.310473
    18  H    3.540428   2.983246   3.486792   2.567961   3.595293
    19  C    3.842772   4.397838   5.180054   3.801874   4.557024
    20  H    3.801986   4.725329   5.618922   4.033963   4.575384
    21  H    4.874949   5.146933   5.840241   4.396986   5.143800
    22  H    3.884878   4.673674   5.412943   4.396971   5.238471
                   11         12         13         14         15
    11  C    0.000000
    12  H    1.089957   0.000000
    13  H    1.090023   1.779613   0.000000
    14  H    1.089925   1.779613   1.779617   0.000000
    15  C    2.461892   2.701161   2.668599   3.416575   0.000000
    16  O    3.485861   3.881856   3.477995   4.372051   1.229029
    17  N    2.802395   2.506890   3.018891   3.843835   1.335011
    18  H    2.517753   1.863371   2.921570   3.472073   2.037336
    19  C    4.179531   3.824248   4.199132   5.247188   2.434385
    20  H    4.655679   4.526723   4.571623   5.720939   2.520536
    21  H    4.435334   3.997203   4.262370   5.508289   3.137985
    22  H    4.842341   4.340006   5.039396   5.855486   3.137968
                   16         17         18         19         20
    16  O    0.000000
    17  N    2.252822   0.000000
    18  H    3.150117   1.010039   0.000000
    19  C    2.775395   1.448957   2.120932   0.000000
    20  H    2.337436   2.083751   2.986311   1.090018   0.000000
    21  H    3.519288   2.083807   2.484309   1.089996   1.779703
    22  H    3.519276   2.083745   2.484291   1.090011   1.779637
                   21         22
    21  H    0.000000
    22  H    1.779591   0.000000
 Stoichiometry    C6H12N2O2
 Framework group  C1[X(C6H12N2O2)]
 Deg. of freedom    60
 Full point group                 C1      NOp   1
 Largest Abelian subgroup         C1      NOp   1
 Largest concise Abelian subgroup C1      NOp   1
                         Standard orientation:                         
 ---------------------------------------------------------------------
 Center     Atomic      Atomic             Coordinates (Angstroms)
 Number     Number       Type             X           Y           Z
 ---------------------------------------------------------------------
      1          1           0        3.369158   -1.729493   -0.433574
      2          6           0        3.079289   -0.687679   -0.570895
      3          1           0        3.035266   -0.459579   -1.635859
      4          1           0        3.812655   -0.039738   -0.090960
      5          6           0        1.706154   -0.412217    0.045233
      6          8           0        1.081458   -1.311165    0.603896
      7          7           0        1.242753    0.835230   -0.060727
      8          1           0        1.793465    1.540353   -0.529514
      9          6           0       -0.043876    1.222848    0.481377
     10          1           0        0.081865    1.562598    1.509382
     11          6           0       -0.664773    2.352935   -0.332930
     12          1           0       -0.805355    2.024661   -1.362725
     13          1           0       -1.629438    2.623322    0.096561
     14          1           0       -0.004050    3.219579   -0.315297
     15          6           0       -1.017483    0.053020    0.471369
     16          8           0       -1.296363   -0.535324    1.513764
     17          7           0       -1.535258   -0.283699   -0.712179
     18          1           0       -1.275266    0.230429   -1.541791
     19          6           0       -2.473412   -1.378803   -0.853917
     20          1           0       -2.653578   -1.832043    0.120893
     21          1           0       -3.413115   -1.002942   -1.258615
     22          1           0       -2.060229   -2.126564   -1.530864
 ---------------------------------------------------------------------
 Rotational constants (GHZ):      1.8115880      1.0328115      0.8376544
 Standard basis: 6-31G(d) (6D, 7F)
 There are   174 symmetry adapted basis functions of A   symmetry.
 Integral buffers will be    131072 words long.
 Raffenetti 2 integral format.
 Two-electron integral symmetry is turned on.
   174 basis functions,   328 primitive gaussians,   174 cartesian basis functions
    39 alpha electrons       39 beta electrons
       nuclear repulsion energy       576.0816743739 Hartrees.
 NAtoms=   22 NActive=   22 NUniq=   22 SFac= 7.50D-01 NAtFMM=   80 NAOKFM=F Big=F
 One-electron integrals computed using PRISM.
 NBasis=   174 RedAO= T  NBF=   174
 NBsUse=   174 1.00D-06 NBFU=   174
 Harris functional with IExCor=  402 diagonalized for initial guess.
 ExpMin= 1.61D-01 ExpMax= 5.48D+03 ExpMxC= 8.25D+02 IAcc=1 IRadAn=         1 AccDes= 0.00D+00
 HarFok:  IExCor=  402 AccDes= 0.00D+00 IRadAn=         1 IDoV= 1
 ScaDFX=  1.000000  1.000000  1.000000  1.000000
 FoFCou: FMM=F IPFlag=           0 FMFlag=      100000 FMFlg1=           0
         NFxFlg=           0 DoJE=T BraDBF=F KetDBF=T FulRan=T
         Omega=  0.000000  0.000000  1.000000  0.000000  0.000000 ICntrl=     500 IOpCl=  0
         NMat0=    1 NMatS0=    1 NMatT0=    0 NMatD0=    1 NMtDS0=    0 NMtDT0=    0
         I1Cent=           4 NGrid=           0.
 Petite list used in FoFCou.
 Initial guess orbital symmetries:
       Occupied  (A) (A) (A) (A) (A) (A) (A) (A) (A) (A) (A) (A)
                 (A) (A) (A) (A) (A) (A) (A) (A) (A) (A) (A) (A)
                 (A) (A) (A) (A) (A) (A) (A) (A) (A) (A) (A) (A)
                 (A) (A) (A)
       Virtual   (A) (A) (A) (A) (A) (A) (A) (A) (A) (A) (A) (A)
                 (A) (A) (A) (A) (A) (A) (A) (A) (A) (A) (A) (A)
                 (A) (A) (A) (A) (A) (A) (A) (A) (A) (A) (A) (A)
                 (A) (A) (A) (A) (A) (A) (A) (A) (A) (A) (A) (A)
                 (A) (A) (A) (A) (A) (A) (A) (A) (A) (A) (A) (A)
                 (A) (A) (A) (A) (A) (A) (A) (A) (A) (A) (A) (A)
                 (A) (A) (A) (A) (A) (A) (A) (A) (A) (A) (A) (A)
                 (A) (A) (A) (A) (A) (A) (A) (A) (A) (A) (A) (A)
                 (A) (A) (A) (A) (A) (A) (A) (A) (A) (A) (A) (A)
                 (A) (A) (A) (A) (A) (A) (A) (A) (A) (A) (A) (A)
                 (A) (A) (A) (A) (A) (A) (A) (A) (A) (A) (A) (A)
                 (A) (A) (A)
 The electronic state of the initial guess is 1-A.
 Requested convergence on RMS density matrix=1.00D-08 within 128 cycles.
 Requested convergence on MAX density matrix=1.00D-06.
 Requested convergence on             energy=1.00D-06.
 No special actions if energy rises.
 Integral accuracy reduced to 1.0D-05 until final iterations.
 Initial convergence to 1.0D-05 achieved.  Increase integral accuracy.
 SCF Done:  E(RB3LYP) =  -495.821778663     A.U. after   15 cycles
             Convg  =    0.7864D-08             -V/T =  2.0086
 Range of M.O.s used for correlation:     1   174
 NBasis=   174 NAE=    39 NBE=    39 NFC=     0 NFV=     0
 NROrb=    174 NOA=    39 NOB=    39 NVA=   135 NVB=   135
 Symmetrizing basis deriv contribution to polar:
 IMax=3 JMax=2 DiffMx= 0.00D+00
 G2DrvN: will do    23 centers at a time, making    1 passes doing MaxLOS=2.
 Calling FoFCou, ICntrl=  3107 FMM=F I1Cent=   0 AccDes= 0.00D+00.
 FoFDir/FoFCou used for L=0 through L=2.
 End of G2Drv Frequency-dependent properties file   721 does not exist.
 End of G2Drv Frequency-dependent properties file   722 does not exist.
          IDoAtm=1111111111111111111111
          Differentiating once with respect to nuclear coordinates.
          There are    69 degrees of freedom in the 1st order CPHF.  IDoFFX=5.
     63 vectors produced by pass  0 Test12= 7.63D-11 1.45D-07 XBig12= 1.93D-01 9.35D-02.
 AX will form    63 AO Fock derivatives at one time.
     63 vectors produced by pass  1 Test12= 7.63D-11 1.45D-07 XBig12= 6.00D-02 9.06D-02.
     63 vectors produced by pass  2 Test12= 7.63D-11 1.45D-07 XBig12= 4.97D-05 1.28D-03.
     63 vectors produced by pass  3 Test12= 7.63D-11 1.45D-07 XBig12= 1.57D-07 8.96D-05.
     28 vectors produced by pass  4 Test12= 7.63D-11 1.45D-07 XBig12= 1.72D-10 1.46D-06.
 Inverted reduced A of dimension   280 with in-core refinement.
 End of Minotr Frequency-dependent properties file   721 does not exist.
 End of Minotr Frequency-dependent properties file   722 does not exist.

 **********************************************************************

            Population analysis using the SCF density.

 **********************************************************************

 Orbital symmetries:
       Occupied  (A) (A) (A) (A) (A) (A) (A) (A) (A) (A) (A) (A)
                 (A) (A) (A) (A) (A) (A) (A) (A) (A) (A) (A) (A)
                 (A) (A) (A) (A) (A) (A) (A) (A) (A) (A) (A) (A)
                 (A) (A) (A)
       Virtual   (A) (A) (A) (A) (A) (A) (A) (A) (A) (A) (A) (A)
                 (A) (A) (A) (A) (A) (A) (A) (A) (A) (A) (A) (A)
                 (A) (A) (A) (A) (A) (A) (A) (A) (A) (A) (A) (A)
                 (A) (A) (A) (A) (A) (A) (A) (A) (A) (A) (A) (A)
                 (A) (A) (A) (A) (A) (A) (A) (A) (A) (A) (A) (A)
                 (A) (A) (A) (A) (A) (A) (A) (A) (A) (A) (A) (A)
                 (A) (A) (A) (A) (A) (A) (A) (A) (A) (A) (A) (A)
                 (A) (A) (A) (A) (A) (A) (A) (A) (A) (A) (A) (A)
                 (A) (A) (A) (A) (A) (A) (A) (A) (A) (A) (A) (A)
                 (A) (A) (A) (A) (A) (A) (A) (A) (A) (A) (A) (A)
                 (A) (A) (A) (A) (A) (A) (A) (A) (A) (A) (A) (A)
                 (A) (A) (A)
 The electronic state is 1-A.
 Alpha  occ. eigenvalues --  -19.09635 -19.08069 -14.36558 -14.35156 -10.27937
 Alpha  occ. eigenvalues --  -10.26572 -10.23265 -10.20681 -10.20038 -10.18836
 Alpha  occ. eigenvalues --   -1.03026  -1.00533  -0.93176  -0.91056  -0.79193
 Alpha  occ. eigenvalues --   -0.73054  -0.70408  -0.65105  -0.60239  -0.57832
 Alpha  occ. eigenvalues --   -0.52016  -0.51382  -0.46849  -0.45098  -0.44427
 Alpha  occ. eigenvalues --   -0.43399  -0.42535  -0.42119  -0.40236  -0.39242
 Alpha  occ. eigenvalues --   -0.38835  -0.38200  -0.36505  -0.35456  -0.34386
 Alpha  occ. eigenvalues --   -0.25534  -0.24233  -0.22585  -0.22130
 Alpha virt. eigenvalues --    0.03393   0.04531   0.05993   0.08027   0.11575
 Alpha virt. eigenvalues --    0.12908   0.13359   0.14437   0.15610   0.16438
 Alpha virt. eigenvalues --    0.17132   0.17649   0.18271   0.19268   0.20093
 Alpha virt. eigenvalues --    0.21783   0.23607   0.26538   0.27753   0.34140
 Alpha virt. eigenvalues --    0.35823   0.39549   0.44201   0.50536   0.51495
 Alpha virt. eigenvalues --    0.52037   0.53646   0.53952   0.55317   0.56119
 Alpha virt. eigenvalues --    0.57419   0.58629   0.60990   0.62805   0.65994
 Alpha virt. eigenvalues --    0.68016   0.71016   0.71750   0.73159   0.75975
 Alpha virt. eigenvalues --    0.76894   0.77458   0.79758   0.82078   0.83733
 Alpha virt. eigenvalues --    0.85545   0.87189   0.87648   0.87933   0.88425
 Alpha virt. eigenvalues --    0.89985   0.90512   0.91685   0.92884   0.94512
 Alpha virt. eigenvalues --    0.95092   0.96072   0.96228   0.99256   1.00748
 Alpha virt. eigenvalues --    1.04544   1.06239   1.08670   1.13706   1.20611
 Alpha virt. eigenvalues --    1.23225   1.27857   1.31593   1.33534   1.36160
 Alpha virt. eigenvalues --    1.38630   1.42449   1.44390   1.47205   1.49344
 Alpha virt. eigenvalues --    1.52367   1.54852   1.61698   1.67121   1.69773
 Alpha virt. eigenvalues --    1.73813   1.75649   1.80124   1.83113   1.85594
 Alpha virt. eigenvalues --    1.86929   1.88694   1.90250   1.93600   1.94881
 Alpha virt. eigenvalues --    1.96707   1.97590   1.99958   2.01340   2.04276
 Alpha virt. eigenvalues --    2.05307   2.09275   2.13307   2.15196   2.18278
 Alpha virt. eigenvalues --    2.19179   2.24659   2.27121   2.29182   2.31189
 Alpha virt. eigenvalues --    2.32287   2.35689   2.36448   2.40571   2.44453
 Alpha virt. eigenvalues --    2.45383   2.49841   2.55073   2.58532   2.65064
 Alpha virt. eigenvalues --    2.67057   2.73385   2.75212   2.77963   2.90825
 Alpha virt. eigenvalues --    2.92785   2.99054   3.02931   3.18068   3.21249
 Alpha virt. eigenvalues --    3.95333   4.00849   4.07941   4.18096   4.24167
 Alpha virt. eigenvalues --    4.26207   4.35421   4.47044   4.48696   4.68756
          Condensed to atoms (all electrons):
              1          2          3          4          5          6
     1  H    0.496922   0.360307  -0.021341  -0.020684  -0.016552   0.005140
     2  C    0.360307   5.367048   0.347334   0.347989   0.337388  -0.078937
     3  H   -0.021341   0.347334   0.564581  -0.027765  -0.026597   0.001239
     4  H   -0.020684   0.347989  -0.027765   0.555307  -0.025041   0.001327
     5  C   -0.016552   0.337388  -0.026597  -0.025041   4.365721   0.606623
     6  O    0.005140  -0.078937   0.001239   0.001327   0.606623   8.050927
     7  N    0.004595  -0.146313   0.005410   0.005423   0.222370  -0.104154
     8  H   -0.000160   0.000677   0.000819   0.000801  -0.018270   0.003825
     9  C   -0.000133   0.006537   0.000040  -0.000221  -0.036376  -0.001252
    10  H    0.000003  -0.000058   0.000000   0.000008  -0.000052   0.000754
    11  C    0.000002  -0.000253   0.000004  -0.000008   0.004668   0.000644
    12  H    0.000000  -0.000020   0.000002   0.000000   0.000187  -0.000013
    13  H    0.000000   0.000004   0.000000   0.000000   0.000029   0.000006
    14  H    0.000000   0.000003  -0.000002  -0.000001  -0.000180  -0.000001
    15  C    0.000008  -0.000139  -0.000043   0.000025  -0.001594   0.024929
    16  O    0.000002  -0.000087   0.000001   0.000001  -0.001331  -0.016381
    17  N    0.000002  -0.000079   0.000034  -0.000001   0.004711  -0.007357
    18  H    0.000000  -0.000048   0.000013   0.000000  -0.000176  -0.000155
    19  C    0.000000   0.000004  -0.000001   0.000000  -0.000161   0.000427
    20  H    0.000000   0.000000   0.000000   0.000000  -0.000032   0.000041
    21  H    0.000000   0.000000   0.000000   0.000000   0.000005   0.000002
    22  H    0.000000   0.000002  -0.000001   0.000000   0.000005   0.000144
              7          8          9         10         11         12
     1  H    0.004595  -0.000160  -0.000133   0.000003   0.000002   0.000000
     2  C   -0.146313   0.000677   0.006537  -0.000058  -0.000253  -0.000020
     3  H    0.005410   0.000819   0.000040   0.000000   0.000004   0.000002
     4  H    0.005423   0.000801  -0.000221   0.000008  -0.000008   0.000000
     5  C    0.222370  -0.018270  -0.036376  -0.000052   0.004668   0.000187
     6  O   -0.104154   0.003825  -0.001252   0.000754   0.000644  -0.000013
     7  N    7.211367   0.294373   0.237361  -0.049053  -0.045414  -0.000755
     8  H    0.294373   0.425943  -0.031066   0.001083  -0.005132   0.000807
     9  C    0.237361  -0.031066   5.079763   0.375297   0.309881  -0.032215
    10  H   -0.049053   0.001083   0.375297   0.569669  -0.047018   0.005885
    11  C   -0.045414  -0.005132   0.309881  -0.047018   5.198857   0.359322
    12  H   -0.000755   0.000807  -0.032215   0.005885   0.359322   0.587528
    13  H    0.004224  -0.000110  -0.030425  -0.000131   0.374915  -0.025544
    14  H   -0.004811   0.005173  -0.026930  -0.005580   0.359135  -0.030213
    15  C   -0.041890   0.003405   0.338678  -0.035568  -0.033225  -0.013758
    16  O    0.001412  -0.000153  -0.071332   0.005202   0.002059  -0.000021
    17  N    0.000836  -0.000464  -0.122262   0.006043   0.003636   0.000826
    18  H    0.002527   0.000040  -0.000701   0.000110  -0.002551   0.011231
    19  C   -0.000171   0.000017   0.006539  -0.000140  -0.000025   0.000007
    20  H   -0.000024   0.000001   0.001142  -0.000022  -0.000085  -0.000001
    21  H   -0.000009   0.000000  -0.000020   0.000007  -0.000090   0.000035
    22  H    0.000025  -0.000001  -0.000282   0.000000   0.000027  -0.000004
             13         14         15         16         17         18
     1  H    0.000000   0.000000   0.000008   0.000002   0.000002   0.000000
     2  C    0.000004   0.000003  -0.000139  -0.000087  -0.000079  -0.000048
     3  H    0.000000  -0.000002  -0.000043   0.000001   0.000034   0.000013
     4  H    0.000000  -0.000001   0.000025   0.000001  -0.000001   0.000000
     5  C    0.000029  -0.000180  -0.001594  -0.001331   0.004711  -0.000176
     6  O    0.000006  -0.000001   0.024929  -0.016381  -0.007357  -0.000155
     7  N    0.004224  -0.004811  -0.041890   0.001412   0.000836   0.002527
     8  H   -0.000110   0.005173   0.003405  -0.000153  -0.000464   0.000040
     9  C   -0.030425  -0.026930   0.338678  -0.071332  -0.122262  -0.000701
    10  H   -0.000131  -0.005580  -0.035568   0.005202   0.006043   0.000110
    11  C    0.374915   0.359135  -0.033225   0.002059   0.003636  -0.002551
    12  H   -0.025544  -0.030213  -0.013758  -0.000021   0.000826   0.011231
    13  H    0.523505  -0.025739  -0.002117   0.000390   0.000243  -0.000114
    14  H   -0.025739   0.576501   0.004618  -0.000110   0.000323  -0.000237
    15  C   -0.002117   0.004618   4.384793   0.564245   0.216513  -0.018112
    16  O    0.000390  -0.000110   0.564245   8.124989  -0.100242   0.004107
    17  N    0.000243   0.000323   0.216513  -0.100242   7.138959   0.293107
    18  H   -0.000114  -0.000237  -0.018112   0.004107   0.293107   0.423419
    19  C   -0.000104   0.000004  -0.026205  -0.010768   0.272992  -0.032044
    20  H   -0.000009   0.000001  -0.000487   0.023918  -0.037107   0.003893
    21  H    0.000010  -0.000003   0.001108   0.000639  -0.046344  -0.000063
    22  H    0.000000   0.000001   0.002649   0.000629  -0.043971  -0.001291
             19         20         21         22
     1  H    0.000000   0.000000   0.000000   0.000000
     2  C    0.000004   0.000000   0.000000   0.000002
     3  H   -0.000001   0.000000   0.000000  -0.000001
     4  H    0.000000   0.000000   0.000000   0.000000
     5  C   -0.000161  -0.000032   0.000005   0.000005
     6  O    0.000427   0.000041   0.000002   0.000144
     7  N   -0.000171  -0.000024  -0.000009   0.000025
     8  H    0.000017   0.000001   0.000000  -0.000001
     9  C    0.006539   0.001142  -0.000020  -0.000282
    10  H   -0.000140  -0.000022   0.000007   0.000000
    11  C   -0.000025  -0.000085  -0.000090   0.000027
    12  H    0.000007  -0.000001   0.000035  -0.000004
    13  H   -0.000104  -0.000009   0.000010   0.000000
    14  H    0.000004   0.000001  -0.000003   0.000001
    15  C   -0.026205  -0.000487   0.001108   0.002649
    16  O   -0.010768   0.023918   0.000639   0.000629
    17  N    0.272992  -0.037107  -0.046344  -0.043971
    18  H   -0.032044   0.003893  -0.000063  -0.001291
    19  C    4.957912   0.374672   0.381635   0.381052
    20  H    0.374672   0.468582  -0.025155  -0.022279
    21  H    0.381635  -0.025155   0.580762  -0.040665
    22  H    0.381052  -0.022279  -0.040665   0.566563
 Mulliken atomic charges:
              1
     1  H    0.191889
     2  C   -0.541360
     3  H    0.156275
     4  H    0.162839
     5  C    0.584655
     6  O   -0.487778
     7  N   -0.597326
     8  H    0.318391
     9  C   -0.002023
    10  H    0.173562
    11  C   -0.479348
    12  H    0.136712
    13  H    0.180967
    14  H    0.148047
    15  C    0.632168
    16  O   -0.527169
    17  N   -0.580395
    18  H    0.317045
    19  C   -0.305645
    20  H    0.212951
    21  H    0.148144
    22  H    0.157398
 Sum of Mulliken atomic charges =   0.00000
 Mulliken charges with hydrogens summed into heavy atoms:
              1
     2  C   -0.030357
     5  C    0.584655
     6  O   -0.487778
     7  N   -0.278935
     9  C    0.171539
    11  C   -0.013622
    15  C    0.632168
    16  O   -0.527169
    17  N   -0.263350
    19  C    0.212849
 Sum of Mulliken charges with hydrogens summed into heavy atoms =   0.00000
 APT atomic charges:
              1
     1  H    0.564651
     2  C   -1.256495
     3  H    0.345218
     4  H    0.498190
     5  C    0.210184
     6  O   -0.399522
     7  N   -0.743651
     8  H    0.666596
     9  C   -0.356935
    10  H    0.468820
    11  C   -1.223686
    12  H    0.255009
    13  H    0.487553
    14  H    0.498968
    15  C   -0.172706
    16  O   -0.079047
    17  N   -0.404249
    18  H    0.483895
    19  C   -1.284552
    20  H    0.445310
    21  H    0.587161
    22  H    0.409289
 Sum of APT charges=   0.00000
 APT Atomic charges with hydrogens summed into heavy atoms:
              1
     1  H    0.000000
     2  C    0.151564
     3  H    0.000000
     4  H    0.000000
     5  C    0.210184
     6  O   -0.399522
     7  N   -0.077055
     8  H    0.000000
     9  C    0.111885
    10  H    0.000000
    11  C    0.017843
    12  H    0.000000
    13  H    0.000000
    14  H    0.000000
    15  C   -0.172706
    16  O   -0.079047
    17  N    0.079645
    18  H    0.000000
    19  C    0.157209
    20  H    0.000000
    21  H    0.000000
    22  H    0.000000
 Sum of APT charges=   0.00000
 Electronic spatial extent (au):  <R**2>=           1563.7784
 Charge=              0.0000 electrons
 Dipole moment (field-independent basis, Debye):
    X=              1.2776    Y=              4.0147    Z=             -4.8135  Tot=              6.3968
 Quadrupole moment (field-independent basis, Debye-Ang):
   XX=            -52.9634   YY=            -58.1509   ZZ=            -62.4000
   XY=              2.8689   XZ=              2.9625   YZ=              3.7567
 Traceless Quadrupole moment (field-independent basis, Debye-Ang):
   XX=              4.8747   YY=             -0.3128   ZZ=             -4.5619
   XY=              2.8689   XZ=              2.9625   YZ=              3.7567
 Octapole moment (field-independent basis, Debye-Ang**2):
  XXX=              8.7313  YYY=              2.7197  ZZZ=             -8.1472  XYY=             -1.9259
  XXY=             -2.5978  XXZ=             -8.5636  XZZ=              2.8741  YZZ=              3.0892
  YYZ=             -1.7455  XYZ=             -2.6866
 Hexadecapole moment (field-independent basis, Debye-Ang**3):
 XXXX=          -1107.7179 YYYY=           -592.2932 ZZZZ=           -268.9427 XXXY=              9.7038
 XXXZ=              9.7538 YYYX=             16.1064 YYYZ=              3.6627 ZZZX=             13.1701
 ZZZY=              1.3017 XXYY=           -272.3246 XXZZ=           -242.6814 YYZZ=           -145.6633
 XXYZ=              3.2321 YYXZ=             -7.1099 ZZXY=             -0.3005
 N-N= 5.760816743739D+02 E-N=-2.308875488861D+03  KE= 4.915984454773D+02
  Exact polarizability:   0.000   0.000   0.000   0.000   0.000   0.000
 Approx polarizability: 102.438   8.626 118.095  -4.246 -11.948 117.341
 Calling FoFJK, ICntrl=    100147 FMM=F ISym2X=0 I1Cent= 0 IOpClX= 0 NMat=1 NMatS=1 NMatT=0.
 ***** Axes restored to original set *****
 -------------------------------------------------------------------
 Center     Atomic                   Forces (Hartrees/Bohr)
 Number     Number              X              Y              Z
 -------------------------------------------------------------------
      1        1           0.003194549    0.002358189    0.000440957
      2        6           0.010238850   -0.001054255   -0.003011576
      3        1          -0.004257058   -0.004312745   -0.003377891
      4        1          -0.003424919   -0.005869428   -0.000002377
      5        6          -0.038929472    0.022687810    0.025224283
      6        8          -0.006762156   -0.009630012   -0.003280087
      7        7           0.015571916   -0.013394597   -0.018035092
      8        1          -0.000369688   -0.001555085    0.000181532
      9        6           0.008322878   -0.002354841   -0.009571174
     10        1           0.001315541    0.005627961    0.005199196
     11        6          -0.002973281   -0.008122851    0.004587427
     12        1           0.003122324   -0.004804719   -0.005596064
     13        1           0.002536524   -0.000574161   -0.001766152
     14        1           0.003312348   -0.004338934   -0.004307387
     15        6           0.003641303    0.010187122    0.047510135
     16        8           0.014876744    0.000223500   -0.009080430
     17        7          -0.004156360    0.008778301   -0.020341732
     18        1          -0.001892440    0.002910334    0.001562669
     19        6          -0.001929899   -0.001244418   -0.003027305
     20        1           0.000161778   -0.003768445    0.000804064
     21        1           0.001720958    0.004378825   -0.003057514
     22        1          -0.003320439    0.003872449   -0.001055482
 -------------------------------------------------------------------
 Cartesian Forces:  Max     0.047510135 RMS     0.010677428

 GradGradGradGradGradGradGradGradGradGradGradGradGradGradGradGradGradGrad
 Berny optimization.
 Internal  Forces:  Max     0.047370726 RMS     0.010764065
 Search for a local minimum.
 Step number   1 out of a maximum of  132
 All quantities printed in internal units (Hartrees-Bohrs-Radians)
 Mixed Optimization -- RFO/linear search
 Second derivative matrix not updated -- analytic derivatives used.
     Eigenvalues ---   -0.00076  -0.00059   0.00090   0.00217   0.00363
     Eigenvalues ---    0.00998   0.01463   0.02266   0.03908   0.04383
     Eigenvalues ---    0.04645   0.04908   0.05525   0.05829   0.05978
     Eigenvalues ---    0.06372   0.06466   0.06596   0.11755   0.11791
     Eigenvalues ---    0.12440   0.12801   0.13247   0.13296   0.13599
     Eigenvalues ---    0.14235   0.15173   0.17429   0.17824   0.18162
     Eigenvalues ---    0.18579   0.20976   0.21965   0.23427   0.23870
     Eigenvalues ---    0.25836   0.29652   0.30535   0.33787   0.34509
     Eigenvalues ---    0.34713   0.34867   0.35042   0.35132   0.35374
     Eigenvalues ---    0.35680   0.35883   0.35896   0.36474   0.39359
     Eigenvalues ---    0.43431   0.46515   0.48358   0.49691   0.53992
     Eigenvalues ---    0.79449   0.82231   0.841581000.000001000.00000
     Eigenvalues --- 1000.000001000.000001000.000001000.000001000.00000
     Eigenvalues --- 1000.000001000.000001000.000001000.000001000.00000
     Eigenvalues --- 1000.000001000.000001000.000001000.000001000.00000
     Eigenvalues --- 1000.000001000.000001000.000001000.000001000.00000
     Eigenvalues --- 1000.000001000.000001000.000001000.000001000.00000
     Eigenvalues --- 1000.000001000.000001000.000001000.000001000.00000
     Eigenvalues --- 1000.000001000.000001000.000001000.000001000.00000
     Eigenvalues --- 1000.000001000.000001000.00000
 RFO step:  Lambda=-2.17648030D-02 EMin=-7.55572353D-04
 Linear search not attempted -- first point.
 Maximum step size (   0.300) exceeded in Quadratic search.
    -- Step size scaled by   0.259
 Iteration  1 RMS(Cart)=  0.05747615 RMS(Int)=  0.00247869
 Iteration  2 RMS(Cart)=  0.00263412 RMS(Int)=  0.00013098
 Iteration  3 RMS(Cart)=  0.00000599 RMS(Int)=  0.00013090
 Iteration  4 RMS(Cart)=  0.00000000 RMS(Int)=  0.00013090
 Iteration  1 RMS(Cart)=  0.00000789 RMS(Int)=  0.00000274
 Iteration  2 RMS(Cart)=  0.00000534 RMS(Int)=  0.00000303
 Iteration  3 RMS(Cart)=  0.00000363 RMS(Int)=  0.00000348
 Iteration  4 RMS(Cart)=  0.00000246 RMS(Int)=  0.00000386
 Iteration  5 RMS(Cart)=  0.00000167 RMS(Int)=  0.00000415
 Iteration  6 RMS(Cart)=  0.00000113 RMS(Int)=  0.00000435
 Iteration  7 RMS(Cart)=  0.00000077 RMS(Int)=  0.00000449
 Variable       Old X    -DE/DX   Delta X   Delta X   Delta X     New X
                                 (Linear)    (Quad)   (Total)
    R1        2.05994  -0.00101   0.00000   0.00000   0.00000   2.05994
    R2        2.05982   0.00488   0.00000   0.00307   0.00307   2.06288
    R3        2.05971   0.00472   0.00000   0.00291   0.00291   2.06262
    R4        2.89134  -0.00008   0.00000  -0.00211  -0.00211   2.88922
    R5        2.32249  -0.01029   0.00000  -0.00313  -0.00313   2.31936
    R6        2.52269   0.04050   0.00000   0.01568   0.01568   2.53836
    R7        1.90876   0.00134   0.00000   0.00059   0.00059   1.90935
    R8        2.73817   0.02695   0.00000   0.00711   0.00711   2.74528
    R9        2.05975   0.00337   0.00000   0.00278   0.00278   2.06253
   R10        2.88188   0.01350   0.00000   0.00465   0.00465   2.88653
   R11        2.87618   0.02440   0.00000   0.01096   0.01096   2.88714
   R12        2.05972   0.00175   0.00000   0.00246   0.00246   2.06218
   R13        2.05984   0.00195   0.00000   0.00182   0.00182   2.06166
   R14        2.05966   0.00478   0.00000   0.00337   0.00337   2.06303
   R15        2.32253  -0.00483   0.00000  -0.00345  -0.00345   2.31908
   R16        2.52281   0.03057   0.00000   0.01226   0.01226   2.53506
   R17        1.90870  -0.00261   0.00000  -0.00028  -0.00028   1.90842
   R18        2.73813   0.00417   0.00000   0.00081   0.00081   2.73894
   R19        2.05984  -0.00091   0.00000   0.00011   0.00011   2.05995
   R20        2.05979   0.00473   0.00000   0.00217   0.00217   2.06196
   R21        2.05982   0.00420   0.00000   0.00372   0.00372   2.06354
    A1        1.91115  -0.00018   0.00000  -0.00031  -0.00028   1.91087
    A2        1.91109  -0.00023   0.00000  -0.00197  -0.00196   1.90913
    A3        1.93905  -0.00816   0.00000  -0.01049  -0.01047   1.92858
    A4        1.91026  -0.00539   0.00000  -0.00657  -0.00662   1.90364
    A5        1.89602   0.00703   0.00000   0.01303   0.01302   1.90904
    A6        1.89600   0.00697   0.00000   0.00639   0.00637   1.90238
    A7        2.10312   0.00123   0.00000   0.00918   0.00918   2.11229
    A8        2.03511  -0.01775   0.00000  -0.00929  -0.00929   2.02582
    A9        2.14496   0.01652   0.00000   0.00011   0.00010   2.14507
   A10        2.09429  -0.02411   0.00000  -0.00734  -0.00754   2.08676
   A11        2.12765   0.04737   0.00000   0.01348   0.01328   2.14093
   A12        2.06125  -0.02326   0.00000  -0.00614  -0.00634   2.05491
   A13        1.91114   0.00477   0.00000   0.00235   0.00236   1.91350
   A14        1.93905  -0.02431   0.00000  -0.00947  -0.00957   1.92948
   A15        1.93900   0.02127   0.00000   0.00613   0.00615   1.94515
   A16        1.89609   0.00190   0.00000   0.00111   0.00117   1.89726
   A17        1.89608  -0.01414   0.00000  -0.01750  -0.01749   1.87859
   A18        1.88137   0.01028   0.00000   0.01716   0.01718   1.89856
   A19        1.91115   0.00933   0.00000   0.00986   0.00983   1.92098
   A20        1.91106   0.00097   0.00000   0.00258   0.00257   1.91363
   A21        1.91110   0.00483   0.00000   0.00504   0.00502   1.91611
   A22        1.91011  -0.00401   0.00000  -0.00568  -0.00570   1.90441
   A23        1.91023  -0.00717   0.00000  -0.00569  -0.00572   1.90451
   A24        1.91015  -0.00396   0.00000  -0.00613  -0.00613   1.90402
   A25        2.10309   0.00049   0.00000  -0.00025  -0.00034   2.10275
   A26        2.03509   0.00251   0.00000  -0.00478  -0.00487   2.03022
   A27        2.14501  -0.00301   0.00000   0.00504   0.00495   2.14995
   A28        2.09435   0.00115   0.00000  -0.00461  -0.00530   2.08905
   A29        2.12759   0.00145   0.00000   0.00177   0.00108   2.12867
   A30        2.06125  -0.00260   0.00000   0.00285   0.00216   2.06341
   A31        1.91113  -0.00742   0.00000  -0.01014  -0.01013   1.90100
   A32        1.91123   0.00495   0.00000   0.00173   0.00171   1.91294
   A33        1.91113   0.00490   0.00000   0.01172   0.01171   1.92284
   A34        1.91020   0.00049   0.00000   0.00306   0.00306   1.91326
   A35        1.91008   0.00003   0.00000  -0.00503  -0.00500   1.90508
   A36        1.91003  -0.00296   0.00000  -0.00134  -0.00137   1.90866
    D1       -0.00005   0.00001   0.00000   0.04059   0.04060   0.04055
    D2       -3.14154  -0.00004   0.00000   0.04422   0.04423  -3.09731
    D3        2.10327  -0.00072   0.00000   0.04215   0.04211   2.14538
    D4       -1.03822  -0.00076   0.00000   0.04578   0.04575  -0.99248
    D5       -2.10329   0.00082   0.00000   0.04539   0.04541  -2.05788
    D6        1.03841   0.00078   0.00000   0.04901   0.04904   1.08745
    D7       -0.00007  -0.00069   0.00000   0.00570   0.00572   0.00565
    D8       -3.14159   0.00094   0.00000   0.04367   0.04366  -3.09794
    D9       -3.14156  -0.00073   0.00000   0.00942   0.00943  -3.13213
   D10        0.00011   0.00090   0.00000   0.04739   0.04736   0.04747
   D11        1.57073   0.00129   0.00000  -0.01637  -0.01636   1.55436
   D12       -2.61802  -0.00860   0.00000  -0.01944  -0.01941  -2.63743
   D13       -0.52367   0.00234   0.00000   0.00000   0.00000  -0.52367
   D14       -1.57080   0.00289   0.00000   0.02091   0.02091  -1.54988
   D15        0.52364  -0.00700   0.00000   0.01784   0.01787   0.54151
   D16        2.61800   0.00395   0.00000   0.03728   0.03728   2.65527
   D17        1.04724   0.00761   0.00000   0.01093   0.01092   1.05816
   D18        3.14157   0.00900   0.00000   0.01160   0.01159  -3.13003
   D19       -1.04726   0.00771   0.00000   0.00876   0.00874  -1.03853
   D20       -3.13259  -0.00031   0.00000   0.00870   0.00870  -3.12390
   D21       -1.03826   0.00109   0.00000   0.00937   0.00937  -1.02890
   D22        1.05609  -0.00020   0.00000   0.00653   0.00651   1.06260
   D23       -1.08102  -0.01040   0.00000  -0.00203  -0.00200  -1.08302
   D24        1.01331  -0.00901   0.00000  -0.00136  -0.00133   1.01198
   D25        3.10766  -0.01030   0.00000  -0.00420  -0.00418   3.10348
   D26        1.83260   0.01597   0.00000   0.02408   0.02403   1.85663
   D27       -1.30895   0.01067   0.00000   0.00000   0.00000  -1.30896
   D28       -0.27071   0.00604   0.00000   0.02869   0.02863  -0.24208
   D29        2.87092   0.00075   0.00000   0.00461   0.00461   2.87552
   D30       -2.32229   0.00577   0.00000   0.02738   0.02745  -2.29485
   D31        0.81934   0.00047   0.00000   0.00330   0.00342   0.82275
   D32       -0.00009   0.00338   0.00000   0.06262   0.06254   0.06245
   D33       -3.14153   0.00204   0.00000  -0.00793  -0.00781   3.13384
   D34        3.14154  -0.00206   0.00000   0.03791   0.03780  -3.10385
   D35        0.00010  -0.00339   0.00000  -0.03264  -0.03256  -0.03246
   D36       -0.00017   0.00046   0.00000   0.12620   0.12624   0.12607
   D37        2.09437  -0.00045   0.00000   0.12479   0.12483   2.21920
   D38       -2.09449   0.00197   0.00000   0.13139   0.13147  -1.96302
   D39        3.14158  -0.00085   0.00000   0.05694   0.05687  -3.08473
   D40       -1.04707  -0.00176   0.00000   0.05553   0.05546  -0.99160
   D41        1.04726   0.00065   0.00000   0.06213   0.06211   1.10937
         Item               Value     Threshold  Converged?
 Maximum Force            0.047371     0.000450     NO 
 RMS     Force            0.010714     0.000300     NO 
 Maximum Displacement     0.264636     0.001800     NO 
 RMS     Displacement     0.057596     0.001200     NO 
 Predicted change in Energy=-5.306150D-03
 GradGradGradGradGradGradGradGradGradGradGradGradGradGradGradGradGradGrad

                          Input orientation:                          
 ---------------------------------------------------------------------
 Center     Atomic      Atomic             Coordinates (Angstroms)
 Number     Number       Type             X           Y           Z
 ---------------------------------------------------------------------
      1          1           0        0.342833    4.261280    0.935652
      2          6           0        1.173218    3.708917    0.495638
      3          1           0        0.939273    3.465621   -0.542502
      4          1           0        1.328155    2.783147    1.052684
      5          6           0        2.455411    4.540229    0.545348
      6          8           0        2.470007    5.649805    1.069768
      7          7           0        3.541271    3.984795   -0.017420
      8          1           0        3.470146    3.070981   -0.442575
      9          6           0        4.845329    4.624886   -0.004534
     10          1           0        5.388962    4.331619    0.895302
     11          6           0        5.659979    4.206792   -1.227137
     12          1           0        5.144080    4.506088   -2.140985
     13          1           0        6.639547    4.686121   -1.196544
     14          1           0        5.792605    3.123175   -1.229892
     15          6           0        4.720213    6.147526    0.005890
     16          8           0        4.960077    6.784818    1.026849
     17          7           0        4.368578    6.723447   -1.153543
     18          1           0        4.151109    6.146192   -1.953146
     19          6           0        4.205380    8.158126   -1.279170
     20          1           0        4.534840    8.633574   -0.355225
     21          1           0        4.806218    8.523241   -2.113603
     22          1           0        3.155871    8.403821   -1.454053
 ---------------------------------------------------------------------
                    Distance matrix (angstroms):
                    1          2          3          4          5
     1  H    0.000000
     2  C    1.090071   0.000000
     3  H    1.781503   1.091631   0.000000
     4  H    1.780290   1.091493   1.778094   0.000000
     5  C    2.166364   1.528912   2.153340   2.148356   0.000000
     6  O    2.543788   2.403817   3.116604   3.085749   1.227350
     7  N    3.348849   2.438649   2.704745   2.736231   1.343245
     8  H    3.618895   2.561852   2.563404   2.628074   2.040679
     9  C    4.613960   3.817535   4.109814   4.108555   2.453823
    10  H    5.046780   4.280185   4.755729   4.348872   2.961707
    11  C    5.740441   4.831859   4.827331   5.097946   3.677246
    12  H    5.707679   4.832702   4.617155   5.265866   3.800855
    13  H    6.661482   5.805097   5.866047   6.073814   4.534585
    14  H    5.973682   4.965812   4.913716   5.025643   4.036878
    15  C    4.856319   4.332186   4.667853   4.890898   2.829089
    16  O    5.262651   4.907510   5.444887   5.404155   3.397554
    17  N    5.160777   4.692283   4.769375   5.444041   3.363462
    18  H    5.138191   4.561216   4.414891   5.321105   3.420085
    19  C    5.916934   5.669163   5.764524   6.527356   4.413665
    20  H    6.193241   6.023016   6.298485   6.818543   4.678731
    21  H    6.883609   6.571495   6.557525   7.420982   5.334857
    22  H    5.548380   5.456586   5.489085   6.419989   4.406312
                    6          7          8          9         10
     6  O    0.000000
     7  N    2.258726   0.000000
     8  H    3.152427   1.010382   0.000000
     9  C    2.801204   1.452739   2.120761   0.000000
    10  H    3.207546   2.089811   2.657250   1.091443   0.000000
    11  C    4.187360   2.449821   2.588624   1.527486   2.143311
    12  H    4.332170   2.711140   2.783198   2.160507   3.051139
    13  H    4.842512   3.388437   3.636241   2.154960   2.462815
    14  H    4.765706   2.698330   2.452837   2.157306   2.477845
    15  C    2.538305   2.463301   3.350958   1.527808   2.129741
    16  O    2.736886   3.308117   4.262826   2.396294   2.493879
    17  N    3.114546   3.078219   3.827945   2.439564   3.310558
    18  H    3.494355   2.964891   3.493202   2.567762   3.597028
    19  C    3.849767   4.410187   5.207640   3.810252   4.557561
    20  H    3.898335   4.765757   5.664243   4.035960   4.560720
    21  H    4.883479   5.156701   5.857010   4.432479   5.192571
    22  H    3.797985   4.662643   5.437007   4.385855   5.204709
                   11         12         13         14         15
    11  C    0.000000
    12  H    1.091260   0.000000
    13  H    1.090983   1.777864   0.000000
    14  H    1.091706   1.778518   1.777982   0.000000
    15  C    2.483941   2.735517   2.695440   3.438587   0.000000
    16  O    3.495216   3.906615   3.488356   4.381051   1.227206
    17  N    2.829609   2.548161   3.051204   3.872420   1.341498
    18  H    2.562236   1.926452   2.982713   3.515144   2.040025
    19  C    4.210892   3.867980   4.241087   5.279436   2.441096
    20  H    4.650007   4.538310   4.551922   5.719398   2.518969
    21  H    4.488481   4.031429   4.350354   5.560091   3.184913
    22  H    4.892556   4.429128   5.101333   5.906593   3.109577
                   16         17         18         19         20
    16  O    0.000000
    17  N    2.260033   0.000000
    18  H    3.153196   1.009891   0.000000
    19  C    2.788059   1.449386   2.122514   0.000000
    20  H    2.347096   2.076906   2.981219   1.090077   0.000000
    21  H    3.592802   2.086265   2.470885   1.091143   1.782614
    22  H    3.468603   2.093949   2.517236   1.091979   1.778135
                   21         22
    21  H    0.000000
    22  H    1.781267   0.000000
 Stoichiometry    C6H12N2O2
 Framework group  C1[X(C6H12N2O2)]
 Deg. of freedom    60
 Full point group                 C1      NOp   1
 Largest Abelian subgroup         C1      NOp   1
 Largest concise Abelian subgroup C1      NOp   1
                         Standard orientation:                         
 ---------------------------------------------------------------------
 Center     Atomic      Atomic             Coordinates (Angstroms)
 Number     Number       Type             X           Y           Z
 ---------------------------------------------------------------------
      1          1           0        3.388369   -1.730963   -0.438606
      2          6           0        3.115106   -0.679847   -0.532091
      3          1           0        3.130779   -0.391791   -1.584913
      4          1           0        3.834449   -0.068414    0.015679
      5          6           0        1.718069   -0.436924    0.039615
      6          8           0        1.079303   -1.348003    0.557592
      7          7           0        1.246513    0.816344   -0.066494
      8          1           0        1.812562    1.526049   -0.510093
      9          6           0       -0.040291    1.218392    0.474747
     10          1           0        0.083401    1.549292    1.507439
     11          6           0       -0.629525    2.367769   -0.340699
     12          1           0       -0.779443    2.054496   -1.375219
     13          1           0       -1.588902    2.665387    0.085051
     14          1           0        0.050367    3.221682   -0.320602
     15          6           0       -1.033066    0.057103    0.476578
     16          8           0       -1.336112   -0.501086    1.526636
     17          7           0       -1.556639   -0.279778   -0.711698
     18          1           0       -1.245035    0.193140   -1.547839
     19          6           0       -2.502951   -1.368562   -0.852280
     20          1           0       -2.777842   -1.728184    0.139373
     21          1           0       -3.393701   -1.014392   -1.373548
     22          1           0       -2.053721   -2.187145   -1.418436
 ---------------------------------------------------------------------
 Rotational constants (GHZ):      1.8099878      1.0166752      0.8242897
 Standard basis: 6-31G(d) (6D, 7F)
 There are   174 symmetry adapted basis functions of A   symmetry.
 Integral buffers will be    131072 words long.
 Raffenetti 2 integral format.
 Two-electron integral symmetry is turned on.
   174 basis functions,   328 primitive gaussians,   174 cartesian basis functions
    39 alpha electrons       39 beta electrons
       nuclear repulsion energy       573.6248506154 Hartrees.
 NAtoms=   22 NActive=   22 NUniq=   22 SFac= 7.50D-01 NAtFMM=   80 NAOKFM=F Big=F
 One-electron integrals computed using PRISM.
 NBasis=   174 RedAO= T  NBF=   174
 NBsUse=   174 1.00D-06 NBFU=   174
 Initial guess read from the read-write file.
 B after Tr=     0.000000    0.000000    0.000000
         Rot=    1.000000    0.000000    0.000000    0.000000 Ang=   0.00 deg.
 Initial guess orbital symmetries:
       Occupied  (A) (A) (A) (A) (A) (A) (A) (A) (A) (A) (A) (A)
                 (A) (A) (A) (A) (A) (A) (A) (A) (A) (A) (A) (A)
                 (A) (A) (A) (A) (A) (A) (A) (A) (A) (A) (A) (A)
                 (A) (A) (A)
       Virtual   (A) (A) (A) (A) (A) (A) (A) (A) (A) (A) (A) (A)
                 (A) (A) (A) (A) (A) (A) (A) (A) (A) (A) (A) (A)
                 (A) (A) (A) (A) (A) (A) (A) (A) (A) (A) (A) (A)
                 (A) (A) (A) (A) (A) (A) (A) (A) (A) (A) (A) (A)
                 (A) (A) (A) (A) (A) (A) (A) (A) (A) (A) (A) (A)
                 (A) (A) (A) (A) (A) (A) (A) (A) (A) (A) (A) (A)
                 (A) (A) (A) (A) (A) (A) (A) (A) (A) (A) (A) (A)
                 (A) (A) (A) (A) (A) (A) (A) (A) (A) (A) (A) (A)
                 (A) (A) (A) (A) (A) (A) (A) (A) (A) (A) (A) (A)
                 (A) (A) (A) (A) (A) (A) (A) (A) (A) (A) (A) (A)
                 (A) (A) (A) (A) (A) (A) (A) (A) (A) (A) (A) (A)
                 (A) (A) (A)
 Harris functional with IExCor=  402 diagonalized for initial guess.
 ExpMin= 1.61D-01 ExpMax= 5.48D+03 ExpMxC= 8.25D+02 IAcc=1 IRadAn=         1 AccDes= 0.00D+00
 HarFok:  IExCor=  402 AccDes= 0.00D+00 IRadAn=         1 IDoV= 1
 ScaDFX=  1.000000  1.000000  1.000000  1.000000
 FoFCou: FMM=F IPFlag=           0 FMFlag=      100000 FMFlg1=           0
         NFxFlg=           0 DoJE=T BraDBF=F KetDBF=T FulRan=T
         Omega=  0.000000  0.000000  1.000000  0.000000  0.000000 ICntrl=     500 IOpCl=  0
         NMat0=    1 NMatS0=    1 NMatT0=    0 NMatD0=    1 NMtDS0=    0 NMtDT0=    0
         I1Cent=           4 NGrid=           0.
 Petite list used in FoFCou.
 Requested convergence on RMS density matrix=1.00D-08 within 128 cycles.
 Requested convergence on MAX density matrix=1.00D-06.
 Requested convergence on             energy=1.00D-06.
 No special actions if energy rises.
 Integral accuracy reduced to 1.0D-05 until final iterations.
 Initial convergence to 1.0D-05 achieved.  Increase integral accuracy.
 SCF Done:  E(RB3LYP) =  -495.827100459     A.U. after   12 cycles
             Convg  =    0.7800D-08             -V/T =  2.0088
 Calling FoFJK, ICntrl=      2127 FMM=F ISym2X=0 I1Cent= 0 IOpClX= 0 NMat=1 NMatS=1 NMatT=0.
 ***** Axes restored to original set *****
 -------------------------------------------------------------------
 Center     Atomic                   Forces (Hartrees/Bohr)
 Number     Number              X              Y              Z
 -------------------------------------------------------------------
      1        1           0.002354042    0.001902824    0.000240597
      2        6           0.008114191   -0.000661180   -0.002389409
      3        1          -0.003158537   -0.003585556   -0.002317992
      4        1          -0.002600210   -0.004498081    0.000261305
      5        6          -0.030385752    0.017339060    0.017935211
      6        8          -0.004952342   -0.007530165   -0.002225095
      7        7           0.011837927   -0.009527528   -0.014235535
      8        1          -0.000141354   -0.001416274    0.000654090
      9        6           0.006145026   -0.002067330   -0.008291319
     10        1           0.000732215    0.004554612    0.004161380
     11        6          -0.002193426   -0.006003858    0.003972800
     12        1           0.002407626   -0.003851223   -0.004191172
     13        1           0.001977302   -0.000554174   -0.001371087
     14        1           0.002592743   -0.003324552   -0.003248380
     15        6           0.002571186    0.007612254    0.037350131
     16        8           0.011882116    0.000207706   -0.007361046
     17        7          -0.002196494    0.006786357   -0.015835697
     18        1          -0.001694818    0.002181079    0.001357846
     19        6          -0.002031305   -0.001112833   -0.002234428
     20        1           0.000205082   -0.002750177    0.000581555
     21        1           0.001068491    0.003287371   -0.002432847
     22        1          -0.002533706    0.003011669   -0.000380909
 -------------------------------------------------------------------
 Cartesian Forces:  Max     0.037350131 RMS     0.008258001

 GradGradGradGradGradGradGradGradGradGradGradGradGradGradGradGradGradGrad
 Berny optimization.
 Using GEDIIS/GDIIS optimizer.
 Internal  Forces:  Max     0.036242289 RMS     0.008253189
 Search for a local minimum.
 Step number   2 out of a maximum of  132
 All quantities printed in internal units (Hartrees-Bohrs-Radians)
 Mixed Optimization -- RFO/linear search
 Update second derivatives using D2CorX and points    1    2
 DE= -5.32D-03 DEPred=-5.31D-03 R= 1.00D+00
 SS=  1.41D+00  RLast= 3.00D-01 DXNew= 5.0454D-01 8.9997D-01
 Trust test= 1.00D+00 RLast= 3.00D-01 DXMaxT set to 5.05D-01
 Use linear search instead of GDIIS.
 Linear search step of   0.594 exceeds DXMaxT=   0.505 but not scaled.
 Quartic linear search produced a step of  2.00000.
 Iteration  1 RMS(Cart)=  0.10786196 RMS(Int)=  0.01228633
 Iteration  2 RMS(Cart)=  0.01758761 RMS(Int)=  0.00084869
 Iteration  3 RMS(Cart)=  0.00038528 RMS(Int)=  0.00078306
 Iteration  4 RMS(Cart)=  0.00000022 RMS(Int)=  0.00078306
 Iteration  1 RMS(Cart)=  0.00004697 RMS(Int)=  0.00001644
 Iteration  2 RMS(Cart)=  0.00003189 RMS(Int)=  0.00001816
 Iteration  3 RMS(Cart)=  0.00002168 RMS(Int)=  0.00002088
 Iteration  4 RMS(Cart)=  0.00001474 RMS(Int)=  0.00002318
 Iteration  5 RMS(Cart)=  0.00001003 RMS(Int)=  0.00002488
 Iteration  6 RMS(Cart)=  0.00000682 RMS(Int)=  0.00002609
 Iteration  7 RMS(Cart)=  0.00000464 RMS(Int)=  0.00002693
 Iteration  8 RMS(Cart)=  0.00000315 RMS(Int)=  0.00002751
 Iteration  9 RMS(Cart)=  0.00000214 RMS(Int)=  0.00002791
 Iteration 10 RMS(Cart)=  0.00000146 RMS(Int)=  0.00002818
 Iteration 11 RMS(Cart)=  0.00000099 RMS(Int)=  0.00002837
 Variable       Old X    -DE/DX   Delta X   Delta X   Delta X     New X
                                 (Linear)    (Quad)   (Total)
    R1        2.05994  -0.00074   0.00000   0.00000   0.00000   2.05993
    R2        2.06288   0.00369   0.00613   0.00000   0.00613   2.06902
    R3        2.06262   0.00358   0.00583   0.00000   0.00583   2.06845
    R4        2.88922  -0.00008  -0.00423   0.00000  -0.00423   2.88500
    R5        2.31936  -0.00782  -0.00626   0.00000  -0.00626   2.31309
    R6        2.53836   0.03079   0.03135   0.00000   0.03135   2.56972
    R7        1.90935   0.00102   0.00118   0.00000   0.00118   1.91052
    R8        2.74528   0.02054   0.01421   0.00000   0.01421   2.75949
    R9        2.06253   0.00257   0.00557   0.00000   0.00557   2.06809
   R10        2.88653   0.01018   0.00929   0.00000   0.00929   2.89583
   R11        2.88714   0.01865   0.02192   0.00000   0.02192   2.90906
   R12        2.06218   0.00132   0.00493   0.00000   0.00493   2.06711
   R13        2.06166   0.00150   0.00363   0.00000   0.00363   2.06529
   R14        2.06303   0.00362   0.00673   0.00000   0.00673   2.06976
   R15        2.31908  -0.00369  -0.00689   0.00000  -0.00689   2.31219
   R16        2.53506   0.02313   0.02452   0.00000   0.02452   2.55958
   R17        1.90842  -0.00196  -0.00056   0.00000  -0.00056   1.90786
   R18        2.73894   0.00317   0.00162   0.00000   0.00162   2.74057
   R19        2.05995  -0.00064   0.00022   0.00000   0.00022   2.06017
   R20        2.06196   0.00354   0.00433   0.00000   0.00433   2.06630
   R21        2.06354   0.00317   0.00744   0.00000   0.00744   2.07098
    A1        1.91087  -0.00014  -0.00055   0.00000  -0.00037   1.91050
    A2        1.90913  -0.00020  -0.00392   0.00000  -0.00387   1.90526
    A3        1.92858  -0.00623  -0.02094   0.00000  -0.02082   1.90777
    A4        1.90364  -0.00421  -0.01325   0.00000  -0.01358   1.89006
    A5        1.90904   0.00542   0.02604   0.00000   0.02597   1.93500
    A6        1.90238   0.00537   0.01274   0.00000   0.01260   1.91497
    A7        2.11229   0.00096   0.01835   0.00000   0.01834   2.13063
    A8        2.02582  -0.01353  -0.01858   0.00000  -0.01859   2.00723
    A9        2.14507   0.01257   0.00021   0.00000   0.00020   2.14527
   A10        2.08676  -0.01845  -0.01507   0.00000  -0.01622   2.07054
   A11        2.14093   0.03624   0.02656   0.00000   0.02540   2.16633
   A12        2.05491  -0.01782  -0.01268   0.00000  -0.01385   2.04105
   A13        1.91350   0.00389   0.00472   0.00000   0.00478   1.91828
   A14        1.92948  -0.01897  -0.01913   0.00000  -0.01967   1.90981
   A15        1.94515   0.01640   0.01229   0.00000   0.01236   1.95751
   A16        1.89726   0.00146   0.00234   0.00000   0.00268   1.89994
   A17        1.87859  -0.01115  -0.03499   0.00000  -0.03496   1.84362
   A18        1.89856   0.00834   0.03437   0.00000   0.03453   1.93309
   A19        1.92098   0.00712   0.01967   0.00000   0.01951   1.94049
   A20        1.91363   0.00080   0.00514   0.00000   0.00508   1.91871
   A21        1.91611   0.00366   0.01003   0.00000   0.00992   1.92604
   A22        1.90441  -0.00310  -0.01139   0.00000  -0.01150   1.89291
   A23        1.90451  -0.00555  -0.01144   0.00000  -0.01165   1.89286
   A24        1.90402  -0.00309  -0.01226   0.00000  -0.01227   1.89175
   A25        2.10275   0.00047  -0.00069   0.00000  -0.00121   2.10154
   A26        2.03022   0.00193  -0.00974   0.00000  -0.01027   2.01994
   A27        2.14995  -0.00249   0.00989   0.00000   0.00935   2.15930
   A28        2.08905   0.00083  -0.01060   0.00000  -0.01463   2.07442
   A29        2.12867   0.00098   0.00216   0.00000  -0.00194   2.12673
   A30        2.06341  -0.00189   0.00431   0.00000   0.00006   2.06346
   A31        1.90100  -0.00550  -0.02025   0.00000  -0.02017   1.88083
   A32        1.91294   0.00373   0.00341   0.00000   0.00329   1.91623
   A33        1.92284   0.00370   0.02342   0.00000   0.02340   1.94624
   A34        1.91326   0.00030   0.00612   0.00000   0.00611   1.91937
   A35        1.90508  -0.00002  -0.01000   0.00000  -0.00983   1.89525
   A36        1.90866  -0.00223  -0.00275   0.00000  -0.00296   1.90570
    D1        0.04055   0.00006   0.08120   0.00000   0.08123   0.12177
    D2       -3.09731   0.00002   0.08846   0.00000   0.08854  -3.00877
    D3        2.14538  -0.00056   0.08423   0.00000   0.08400   2.22938
    D4       -0.99248  -0.00060   0.09149   0.00000   0.09131  -0.90116
    D5       -2.05788   0.00073   0.09082   0.00000   0.09095  -1.96693
    D6        1.08745   0.00069   0.09808   0.00000   0.09826   1.18571
    D7        0.00565  -0.00048   0.01144   0.00000   0.01160   0.01725
    D8       -3.09794   0.00072   0.08731   0.00000   0.08723  -3.01070
    D9       -3.13213  -0.00049   0.01886   0.00000   0.01894  -3.11319
   D10        0.04747   0.00071   0.09472   0.00000   0.09457   0.14204
   D11        1.55436   0.00107  -0.03273   0.00000  -0.03271   1.52166
   D12       -2.63743  -0.00652  -0.03882   0.00000  -0.03864  -2.67607
   D13       -0.52367   0.00214   0.00000   0.00000   0.00000  -0.52367
   D14       -1.54988   0.00230   0.04183   0.00000   0.04183  -1.50806
   D15        0.54151  -0.00530   0.03574   0.00000   0.03589   0.57740
   D16        2.65527   0.00336   0.07455   0.00000   0.07453   2.72980
   D17        1.05816   0.00573   0.02184   0.00000   0.02177   1.07994
   D18       -3.13003   0.00685   0.02318   0.00000   0.02311  -3.10691
   D19       -1.03853   0.00581   0.01748   0.00000   0.01733  -1.02120
   D20       -3.12390  -0.00017   0.01739   0.00000   0.01736  -3.10653
   D21       -1.02890   0.00095   0.01873   0.00000   0.01870  -1.01019
   D22        1.06260  -0.00009   0.01302   0.00000   0.01292   1.07552
   D23       -1.08302  -0.00804  -0.00400   0.00000  -0.00382  -1.08684
   D24        1.01198  -0.00692  -0.00266   0.00000  -0.00248   1.00950
   D25        3.10348  -0.00796  -0.00837   0.00000  -0.00827   3.09521
   D26        1.85663   0.01253   0.04806   0.00000   0.04774   1.90437
   D27       -1.30896   0.00855   0.00000   0.00000   0.00000  -1.30896
   D28       -0.24208   0.00509   0.05727   0.00000   0.05696  -0.18512
   D29        2.87552   0.00110   0.00921   0.00000   0.00922   2.88474
   D30       -2.29485   0.00501   0.05490   0.00000   0.05529  -2.23955
   D31        0.82275   0.00103   0.00684   0.00000   0.00756   0.83031
   D32        0.06245   0.00274   0.12509   0.00000   0.12452   0.18697
   D33        3.13384   0.00135  -0.01563   0.00000  -0.01487   3.11897
   D34       -3.10385  -0.00131   0.07560   0.00000   0.07485  -3.02900
   D35       -0.03246  -0.00271  -0.06511   0.00000  -0.06455  -0.09700
   D36        0.12607   0.00055   0.25247   0.00000   0.25259   0.37866
   D37        2.21920  -0.00019   0.24965   0.00000   0.24977   2.46897
   D38       -1.96302   0.00174   0.26294   0.00000   0.26329  -1.69973
   D39       -3.08473  -0.00073   0.11375   0.00000   0.11347  -2.97126
   D40       -0.99160  -0.00146   0.11093   0.00000   0.11065  -0.88095
   D41        1.10937   0.00047   0.12421   0.00000   0.12417   1.23354
         Item               Value     Threshold  Converged?
 Maximum Force            0.036223     0.000450     NO 
 RMS     Force            0.008200     0.000300     NO 
 Maximum Displacement     0.499435     0.001800     NO 
 RMS     Displacement     0.115014     0.001200     NO 
 Predicted change in Energy=-6.954524D-03
 GradGradGradGradGradGradGradGradGradGradGradGradGradGradGradGradGradGrad

                          Input orientation:                          
 ---------------------------------------------------------------------
 Center     Atomic      Atomic             Coordinates (Angstroms)
 Number     Number       Type             X           Y           Z
 ---------------------------------------------------------------------
      1          1           0        0.298599    4.195559    0.831451
      2          6           0        1.170427    3.634162    0.495292
      3          1           0        0.984061    3.237051   -0.507866
      4          1           0        1.338024    2.791027    1.172886
      5          6           0        2.392445    4.549254    0.499554
      6          8           0        2.353480    5.683605    0.957802
      7          7           0        3.513472    4.013787   -0.053368
      8          1           0        3.466288    3.078780   -0.435029
      9          6           0        4.828721    4.647011   -0.014535
     10          1           0        5.350794    4.365632    0.905221
     11          6           0        5.655599    4.178443   -1.216608
     12          1           0        5.184474    4.472270   -2.159079
     13          1           0        6.654480    4.620124   -1.176673
     14          1           0        5.759232    3.088139   -1.205958
     15          6           0        4.732847    6.183120    0.016266
     16          8           0        5.019819    6.801316    1.032425
     17          7           0        4.403778    6.775470   -1.156522
     18          1           0        4.084483    6.198542   -1.921039
     19          6           0        4.249913    8.212961   -1.271220
     20          1           0        4.799129    8.672876   -0.449414
     21          1           0        4.655082    8.553509   -2.228021
     22          1           0        3.197953    8.511561   -1.198763
 ---------------------------------------------------------------------
                    Distance matrix (angstroms):
                    1          2          3          4          5
     1  H    0.000000
     2  C    1.090070   0.000000
     3  H    1.783919   1.094877   0.000000
     4  H    1.780363   1.094578   1.774585   0.000000
     5  C    2.149289   1.526675   2.172628   2.157902   0.000000
     6  O    2.540233   2.411171   3.163719   3.073178   1.224035
     7  N    3.339364   2.436186   2.684735   2.780542   1.359835
     8  H    3.589627   2.538685   2.488333   2.682853   2.046675
     9  C    4.630497   3.830000   4.124653   4.127906   2.491844
    10  H    5.055596   4.263632   4.726401   4.318953   2.991675
    11  C    5.735180   4.831523   4.817862   5.126018   3.705522
    12  H    5.735121   4.884740   4.679288   5.359454   3.856123
    13  H    6.679075   5.817424   5.874848   6.093499   4.580361
    14  H    5.932616   4.924381   4.828226   5.029340   4.047083
    15  C    4.927218   4.406528   4.796606   4.936486   2.894921
    16  O    5.396321   5.013701   5.600341   5.445895   3.501262
    17  N    5.240274   4.801131   4.963429   5.540828   3.426965
    18  H    5.091273   4.572354   4.514432   5.359717   3.382664
    19  C    6.014451   5.793893   6.000681   6.621943   4.473095
    20  H    6.476245   6.280811   6.641261   7.014789   4.867949
    21  H    6.879756   6.615076   6.685810   7.468283   5.347266
    22  H    5.581747   5.547044   5.761867   6.465955   4.385545
                    6          7          8          9         10
     6  O    0.000000
     7  N    2.270758   0.000000
     8  H    3.156491   1.011004   0.000000
     9  C    2.854257   1.460260   2.119525   0.000000
    10  H    3.274708   2.102009   2.646436   1.094389   0.000000
    11  C    4.230551   2.443143   2.571616   1.532405   2.151768
[...]
    13  H    6.611116   5.841978   5.805530   6.349679   4.625102
    14  H    5.826755   4.933117   4.639448   5.397518   4.082262
    15  C    4.987918   4.486929   4.939765   5.000018   2.973386
    16  O    5.664569   5.178245   5.777094   5.498897   3.674374
    17  N    5.221307   4.924991   5.288528   5.655722   3.510087
    18  H    4.733782   4.489124   4.710055   5.354166   3.244682
    19  C    5.961335   5.872579   6.374985   6.586054   4.495508
    20  H    6.752761   6.581734   7.132158   7.183551   5.125878
    21  H    6.538180   6.520326   6.914931   7.334352   5.235982
    22  H    5.489290   5.561550   6.197999   6.238858   4.284412
                    6          7          8          9         10
     6  O    0.000000
     7  N    2.283607   0.000000
     8  H    3.154705   1.011842   0.000000
     9  C    2.912959   1.469092   2.107397   0.000000
    10  H    3.316515   2.099985   2.570043   1.097316   0.000000
    11  C    4.291718   2.453283   2.597626   1.532228   2.154656
    12  H    4.457275   2.738566   2.874223   2.188720   3.079667
    13  H    4.990355   3.403065   3.633487   2.167208   2.484405
    14  H    4.850252   2.709795   2.439676   2.175704   2.494789
    15  C    2.705131   2.523500   3.424442   1.548716   2.087986
    16  O    3.146141   3.427546   4.327828   2.409303   2.412520
    17  N    3.202123   3.145983   3.992983   2.470853   3.308205
    18  H    3.176494   2.861514   3.590781   2.583146   3.605267
    19  C    3.845688   4.440694   5.348574   3.829181   4.525521
    20  H    4.415345   4.997026   5.918515   4.132894   4.618187
    21  H    4.691127   5.114337   5.938994   4.558140   5.362063
    22  H    3.421880   4.567005   5.525586   4.229190   4.881434
                   11         12         13         14         15
    11  C    0.000000
    12  H    1.094503   0.000000
    13  H    1.093964   1.774348   0.000000
    14  H    1.097545   1.775110   1.770370   0.000000
    15  C    2.564284   2.887601   2.766379   3.512478   0.000000
    16  O    3.483058   3.984494   3.426900   4.356327   1.219977
    17  N    2.955984   2.760820   3.162977   4.009651   1.372776
    18  H    2.877413   2.382090   3.352305   3.829840   2.028784
    19  C    4.373391   4.137014   4.418990   5.446014   2.440899
    20  H    4.675657   4.625511   4.488873   5.758810   2.635437
    21  H    4.819578   4.361954   4.839796   5.887848   3.330482
    22  H    5.039707   4.835407   5.232542   6.058246   2.854343
                   16         17         18         19         20
    16  O    0.000000
    17  N    2.280928   0.000000
    18  H    3.131130   1.012939   0.000000
    19  C    2.782773   1.457584   2.106984   0.000000
    20  H    2.533917   2.078796   2.963059   1.090906   0.000000
    21  H    3.804891   2.089835   2.395530   1.093505   1.782560
    22  H    3.070671   2.127903   2.584637   1.097676   1.773675
                   21         22
    21  H    0.000000
    22  H    1.789603   0.000000
 Stoichiometry    C6H12N2O2
 Framework group  C1[X(C6H12N2O2)]
 Deg. of freedom    60
 Full point group                 C1      NOp   1
 Largest Abelian subgroup         C1      NOp   1
 Largest concise Abelian subgroup C1      NOp   1
                         Standard orientation:                         
 ---------------------------------------------------------------------
 Center     Atomic      Atomic             Coordinates (Angstroms)
 Number     Number       Type             X           Y           Z
 ---------------------------------------------------------------------
      1          1           0        3.402131   -1.617548   -0.813389
      2          6           0        3.247926   -0.652491   -0.325743
      3          1           0        3.618229    0.146530   -0.976551
      4          1           0        3.838403   -0.648574    0.597783
      5          6           0        1.772318   -0.515317    0.028237
      6          8           0        1.104555   -1.467965    0.404499
      7          7           0        1.259037    0.749189   -0.120118
      8          1           0        1.911445    1.484255   -0.360674
      9          6           0       -0.038054    1.211515    0.391783
     10          1           0        0.078864    1.510771    1.441010
     11          6           0       -0.510352    2.421792   -0.420551
     12          1           0       -0.645428    2.173630   -1.477956
     13          1           0       -1.463413    2.788980   -0.028627
     14          1           0        0.217732    3.240181   -0.351706
     15          6           0       -1.104871    0.091512    0.469333
     16          8           0       -1.563679   -0.253116    1.545934
     17          7           0       -1.646708   -0.289072   -0.733198
     18          1           0       -1.046888   -0.173534   -1.541228
     19          6           0       -2.556041   -1.427510   -0.773515
     20          1           0       -3.291512   -1.310448    0.023640
     21          1           0       -3.067777   -1.444427   -1.739741
     22          1           0       -2.030654   -2.378991   -0.620078
 ---------------------------------------------------------------------
 Rotational constants (GHZ):      1.7967549      0.9594013      0.7696408

 **********************************************************************

            Population analysis using the SCF density.

 **********************************************************************

 Orbital symmetries:
       Occupied  (A) (A) (A) (A) (A) (A) (A) (A) (A) (A) (A) (A)
                 (A) (A) (A) (A) (A) (A) (A) (A) (A) (A) (A) (A)
                 (A) (A) (A) (A) (A) (A) (A) (A) (A) (A) (A) (A)
                 (A) (A) (A)
       Virtual   (A) (A) (A) (A) (A) (A) (A) (A) (A) (A) (A) (A)
                 (A) (A) (A) (A) (A) (A) (A) (A) (A) (A) (A) (A)
                 (A) (A) (A) (A) (A) (A) (A) (A) (A) (A) (A) (A)
                 (A) (A) (A) (A) (A) (A) (A) (A) (A) (A) (A) (A)
                 (A) (A) (A) (A) (A) (A) (A) (A) (A) (A) (A) (A)
                 (A) (A) (A) (A) (A) (A) (A) (A) (A) (A) (A) (A)
                 (A) (A) (A) (A) (A) (A) (A) (A) (A) (A) (A) (A)
                 (A) (A) (A) (A) (A) (A) (A) (A) (A) (A) (A) (A)
                 (A) (A) (A) (A) (A) (A) (A) (A) (A) (A) (A) (A)
                 (A) (A) (A) (A) (A) (A) (A) (A) (A) (A) (A) (A)
                 (A) (A) (A) (A) (A) (A) (A) (A) (A) (A) (A) (A)
                 (A) (A) (A)
 The electronic state is 1-A.
 Alpha  occ. eigenvalues --  -19.11292 -19.10120 -14.36769 -14.34957 -10.29205
 Alpha  occ. eigenvalues --  -10.27686 -10.23748 -10.20629 -10.19754 -10.19684
 Alpha  occ. eigenvalues --   -1.03521  -1.01969  -0.92823  -0.90711  -0.78477
 Alpha  occ. eigenvalues --   -0.73300  -0.69770  -0.64683  -0.59636  -0.56587
 Alpha  occ. eigenvalues --   -0.51517  -0.50196  -0.47743  -0.45087  -0.44392
 Alpha  occ. eigenvalues --   -0.43434  -0.42309  -0.41700  -0.40257  -0.39754
 Alpha  occ. eigenvalues --   -0.38932  -0.38027  -0.37591  -0.35410  -0.35212
 Alpha  occ. eigenvalues --   -0.26083  -0.24947  -0.24769  -0.23509
 Alpha virt. eigenvalues --    0.02278   0.03018   0.06250   0.08806   0.11438
 Alpha virt. eigenvalues --    0.12855   0.13478   0.14579   0.15239   0.15644
 Alpha virt. eigenvalues --    0.16749   0.17698   0.18445   0.18686   0.19754
 Alpha virt. eigenvalues --    0.20777   0.22879   0.24751   0.27345   0.32401
 Alpha virt. eigenvalues --    0.34627   0.38446   0.41553   0.50432   0.51395
 Alpha virt. eigenvalues --    0.52479   0.52673   0.53848   0.55448   0.56299
 Alpha virt. eigenvalues --    0.57402   0.59353   0.61163   0.62502   0.64942
 Alpha virt. eigenvalues --    0.67542   0.69756   0.71398   0.72138   0.74198
 Alpha virt. eigenvalues --    0.75443   0.76687   0.78315   0.82455   0.84741
 Alpha virt. eigenvalues --    0.85388   0.85884   0.86818   0.87727   0.89208
 Alpha virt. eigenvalues --    0.89730   0.90694   0.91187   0.93060   0.93959
 Alpha virt. eigenvalues --    0.94632   0.96026   0.96963   0.98700   1.00049
 Alpha virt. eigenvalues --    1.02848   1.04893   1.09609   1.10758   1.15032
 Alpha virt. eigenvalues --    1.19738   1.22885   1.26197   1.31983   1.32594
 Alpha virt. eigenvalues --    1.35368   1.39360   1.42402   1.45664   1.48238
 Alpha virt. eigenvalues --    1.52401   1.54743   1.61541   1.66802   1.69877
 Alpha virt. eigenvalues --    1.72524   1.75438   1.76933   1.79499   1.81323
 Alpha virt. eigenvalues --    1.84117   1.87409   1.87965   1.90543   1.92067
 Alpha virt. eigenvalues --    1.94288   1.95784   1.98576   1.98688   2.01457
 Alpha virt. eigenvalues --    2.02338   2.06367   2.10408   2.11612   2.18230
 Alpha virt. eigenvalues --    2.20694   2.22685   2.24512   2.25483   2.28878
 Alpha virt. eigenvalues --    2.30976   2.34346   2.35971   2.38854   2.41969
 Alpha virt. eigenvalues --    2.43725   2.47011   2.53279   2.57915   2.59384
 Alpha virt. eigenvalues --    2.66058   2.70132   2.74270   2.75224   2.88461
 Alpha virt. eigenvalues --    2.89303   2.97646   3.01251   3.11529   3.16747
 Alpha virt. eigenvalues --    3.89990   3.96184   4.03824   4.14520   4.22841
 Alpha virt. eigenvalues --    4.26017   4.29130   4.43352   4.48370   4.63652
          Condensed to atoms (all electrons):
              1          2          3          4          5          6
     1  H    0.512600   0.359305  -0.025316  -0.021821  -0.019422   0.002812
     2  C    0.359305   5.340104   0.340277   0.361064   0.336924  -0.079779
     3  H   -0.025316   0.340277   0.579500  -0.026458  -0.025423   0.002793
     4  H   -0.021821   0.361064  -0.026458   0.519141  -0.018869  -0.000087
     5  C   -0.019422   0.336924  -0.025423  -0.018869   4.315747   0.593019
     6  O    0.002812  -0.079779   0.002793  -0.000087   0.593019   8.048803
     7  N    0.003505  -0.123709   0.006674   0.000129   0.268140  -0.091663
     8  H   -0.000044   0.002484   0.001591  -0.000042  -0.017450   0.003617
     9  C   -0.000107   0.005735   0.000235  -0.000248  -0.033730  -0.003866
    10  H   -0.000008  -0.000146   0.000007   0.000062   0.000603   0.000692
    11  C    0.000005  -0.000274  -0.000018   0.000000   0.003483   0.000288
    12  H   -0.000001  -0.000011   0.000003   0.000001   0.000149  -0.000011
    13  H    0.000000   0.000004   0.000000   0.000000   0.000001   0.000004
    14  H    0.000000  -0.000002  -0.000007   0.000000  -0.000127  -0.000001
    15  C    0.000014   0.000216  -0.000032  -0.000005   0.002622   0.021875
    16  O    0.000000  -0.000022   0.000000   0.000000  -0.000190  -0.003863
    17  N    0.000002  -0.000019   0.000002   0.000000   0.001326  -0.004282
    18  H   -0.000007  -0.000007  -0.000001   0.000001   0.001032   0.000295
    19  C    0.000000  -0.000001   0.000000   0.000000  -0.000148  -0.000405
    20  H    0.000000   0.000000   0.000000   0.000000   0.000002   0.000008
    21  H    0.000000   0.000000   0.000000   0.000000   0.000000  -0.000004
    22  H   -0.000001   0.000005   0.000000   0.000000   0.000012   0.001403
              7          8          9         10         11         12
     1  H    0.003505  -0.000044  -0.000107  -0.000008   0.000005  -0.000001
     2  C   -0.123709   0.002484   0.005735  -0.000146  -0.000274  -0.000011
     3  H    0.006674   0.001591   0.000235   0.000007  -0.000018   0.000003
     4  H    0.000129  -0.000042  -0.000248   0.000062   0.000000   0.000001
     5  C    0.268140  -0.017450  -0.033730   0.000603   0.003483   0.000149
     6  O   -0.091663   0.003617  -0.003866   0.000692   0.000288  -0.000011
     7  N    7.167069   0.289271   0.216813  -0.047795  -0.047130   0.000008
     8  H    0.289271   0.426656  -0.028814  -0.001246  -0.003153   0.000006
     9  C    0.216813  -0.028814   5.094132   0.368926   0.334125  -0.028712
    10  H   -0.047795  -0.001246   0.368926   0.577389  -0.044965   0.005152
    11  C   -0.047130  -0.003153   0.334125  -0.044965   5.152312   0.364937
    12  H    0.000008   0.000006  -0.028712   0.005152   0.364937   0.564087
    13  H    0.004067  -0.000166  -0.028574   0.000403   0.371005  -0.024383
    14  H   -0.005156   0.005443  -0.026938  -0.005709   0.361236  -0.031936
    15  C   -0.035061   0.003629   0.340033  -0.041326  -0.029547  -0.009056
    16  O    0.001580  -0.000115  -0.067721   0.008465   0.000514  -0.000034
    17  N    0.002156  -0.000352  -0.121462   0.006537   0.004248   0.003941
    18  H    0.004110   0.000022  -0.001105   0.000173  -0.002591   0.003567
    19  C   -0.000159   0.000012   0.006611  -0.000210   0.000083  -0.000113
    20  H   -0.000008   0.000000   0.000496  -0.000007  -0.000087  -0.000001
    21  H   -0.000003   0.000000  -0.000101   0.000003  -0.000020   0.000010
    22  H   -0.000020   0.000000  -0.000151  -0.000002   0.000022   0.000003
             13         14         15         16         17         18
     1  H    0.000000   0.000000   0.000014   0.000000   0.000002  -0.000007
     2  C    0.000004  -0.000002   0.000216  -0.000022  -0.000019  -0.000007
     3  H    0.000000  -0.000007  -0.000032   0.000000   0.000002  -0.000001
     4  H    0.000000   0.000000  -0.000005   0.000000   0.000000   0.000001
     5  C    0.000001  -0.000127   0.002622  -0.000190   0.001326   0.001032
     6  O    0.000004  -0.000001   0.021875  -0.003863  -0.004282   0.000295
     7  N    0.004067  -0.005156  -0.035061   0.001580   0.002156   0.004110
     8  H   -0.000166   0.005443   0.003629  -0.000115  -0.000352   0.000022
     9  C   -0.028574  -0.026938   0.340033  -0.067721  -0.121462  -0.001105
    10  H    0.000403  -0.005709  -0.041326   0.008465   0.006537   0.000173
    11  C    0.371005   0.361236  -0.029547   0.000514   0.004248  -0.002591
    12  H   -0.024383  -0.031936  -0.009056  -0.000034   0.003941   0.003567
    13  H    0.529366  -0.028130  -0.001712   0.000585   0.000306   0.000107
    14  H   -0.028130   0.583914   0.003798  -0.000097   0.000214  -0.000123
    15  C   -0.001712   0.003798   4.347263   0.580787   0.241358  -0.019034
    16  O    0.000585  -0.000097   0.580787   8.070161  -0.100329   0.003674
    17  N    0.000306   0.000214   0.241358  -0.100329   7.090432   0.292770
    18  H    0.000107  -0.000123  -0.019034   0.003674   0.292770   0.428838
    19  C   -0.000069   0.000004  -0.025412   0.002716   0.278871  -0.034794
    20  H    0.000002   0.000000  -0.003607   0.011608  -0.038984   0.004698
    21  H   -0.000001   0.000000   0.004983   0.000586  -0.036141  -0.002187
    22  H    0.000000   0.000001  -0.002170   0.001012  -0.044667  -0.000927
             19         20         21         22
     1  H    0.000000   0.000000   0.000000  -0.000001
     2  C   -0.000001   0.000000   0.000000   0.000005
     3  H    0.000000   0.000000   0.000000   0.000000
     4  H    0.000000   0.000000   0.000000   0.000000
     5  C   -0.000148   0.000002   0.000000   0.000012
     6  O   -0.000405   0.000008  -0.000004   0.001403
     7  N   -0.000159  -0.000008  -0.000003  -0.000020
     8  H    0.000012   0.000000   0.000000   0.000000
     9  C    0.006611   0.000496  -0.000101  -0.000151
    10  H   -0.000210  -0.000007   0.000003  -0.000002
    11  C    0.000083  -0.000087  -0.000020   0.000022
    12  H   -0.000113  -0.000001   0.000010   0.000003
    13  H   -0.000069   0.000002  -0.000001   0.000000
    14  H    0.000004   0.000000   0.000000   0.000001
    15  C   -0.025412  -0.003607   0.004983  -0.002170
    16  O    0.002716   0.011608   0.000586   0.001012
    17  N    0.278871  -0.038984  -0.036141  -0.044667
    18  H   -0.034794   0.004698  -0.002187  -0.000927
    19  C    4.941559   0.381774   0.370664   0.384786
    20  H    0.381774   0.511774  -0.024620  -0.032966
    21  H    0.370664  -0.024620   0.579341  -0.036967
    22  H    0.384786  -0.032966  -0.036967   0.558141
 Mulliken atomic charges:
              1
     1  H    0.188484
     2  C   -0.542148
     3  H    0.146171
     4  H    0.187132
     5  C    0.592296
     6  O   -0.491647
     7  N   -0.612817
     8  H    0.318653
     9  C   -0.025577
    10  H    0.173002
    11  C   -0.464472
    12  H    0.152394
    13  H    0.177188
    14  H    0.143615
    15  C    0.620385
    16  O   -0.509320
    17  N   -0.575926
    18  H    0.321488
    19  C   -0.305767
    20  H    0.189918
    21  H    0.144459
    22  H    0.172489
 Sum of Mulliken atomic charges =   0.00000
 Mulliken charges with hydrogens summed into heavy atoms:
              1
     2  C   -0.020360
     5  C    0.592296
     6  O   -0.491647
     7  N   -0.294164
     9  C    0.147425
    11  C    0.008725
    15  C    0.620385
    16  O   -0.509320
    17  N   -0.254439
    19  C    0.201099
 Sum of Mulliken charges with hydrogens summed into heavy atoms =   0.00000
 Electronic spatial extent (au):  <R**2>=           1656.5711
 Charge=              0.0000 electrons
 Dipole moment (field-independent basis, Debye):
    X=              2.4665    Y=              3.1272    Z=             -3.8978  Tot=              5.5728
 Quadrupole moment (field-independent basis, Debye-Ang):
   XX=            -53.1501   YY=            -58.6237   ZZ=            -62.5458
   XY=              3.9804   XZ=              4.0163   YZ=              3.4855
 Traceless Quadrupole moment (field-independent basis, Debye-Ang):
   XX=              4.9564   YY=             -0.5172   ZZ=             -4.4393
   XY=              3.9804   XZ=              4.0163   YZ=              3.4855
 Octapole moment (field-independent basis, Debye-Ang**2):
  XXX=             18.5872  YYY=              5.9045  ZZZ=             -7.8719  XYY=             -3.2523
  XXY=             -5.2534  XXZ=             -7.0645  XZZ=              5.5363  YZZ=             -0.9268
  YYZ=             -1.6972  XYZ=             -3.1203
 Hexadecapole moment (field-independent basis, Debye-Ang**3):
 XXXX=          -1197.5986 YYYY=           -621.8912 ZZZZ=           -249.7144 XXXY=             11.1202
 XXXZ=              8.3455 YYYX=             14.5815 YYYZ=              5.1677 ZZZX=             17.7758
 ZZZY=              2.5713 XXYY=           -296.4289 XXZZ=           -258.0183 YYZZ=           -146.4910
 XXYZ=              6.7435 YYXZ=             -7.6049 ZZXY=              0.1278
 N-N= 5.639099302420D+02 E-N=-2.284033126234D+03  KE= 4.912291464417D+02
 1\1\GINC-NODE005\FOpt\RB3LYP\6-31G(d)\C6H12N2O2\MANAGER\11-Feb-2017\0\
 \# b3lyp/6-31G* Opt=(ModRedundant, maxcycles=1000, calcfc) geom=nocrow
 d\\Phi Psi fixed scan\\0,1\H,0.2434733966,4.1335468373,0.2706125221\C,
 1.1633941089,3.5809770777,0.4739005948\H,1.2490113214,2.7466828999,-0.
 2301817195\H,1.0882532364,3.1719316214,1.4881065078\C,2.3374593376,4.5
 503640561,0.415607009\O,2.2499484848,5.6999099312,0.8229201883\N,3.483
 7711651,4.0349036451,-0.1364010627\H,3.4783682367,3.0504617426,-0.3702
 160973\C,4.8152739798,4.6526946894,-0.0758441136\H,5.292028157,4.37990
 97682,0.8741007168\C,5.6768637181,4.1332565226,-1.2315127387\H,5.24401
 6634,4.3833215521,-2.205189669\H,6.6791788095,4.5683379682,-1.17835542
 81\H,5.7818145791,3.0422552641,-1.1740110598\C,4.7747683226,6.19947230
 52,-0.0098212624\O,5.1979845883,6.7886462975,0.9710484089\N,4.46886996
 ,6.83082026,-1.1897952137\H,3.8871130892,6.3050884855,-1.8310514984\C,
 4.2738152025,8.2752923588,-1.1921946735\H,5.0988015425,8.7360887124,-0
 .6470885107\H,4.2745104891,8.6361236045,-2.2244510205\H,3.3343816409,8
 .5641144003,-0.7033818798\\Version=EM64L-G09RevA.02\State=1-A\HF=-495.
 8384702\RMSD=5.037e-09\RMSF=1.802e-03\Dipole=-0.3062225,-1.5815552,-1.
 4872595\Quadrupole=-1.7267799,4.5179934,-2.7912135,0.4691484,-0.760560
 5,-4.5064767\PG=C01 [X(C6H12N2O2)]\\@


 SI MONUMENTUM REQUIRIS, CIRCUMSPICE
     -- FROM SIR CHRISTOPHER WREN'S TOMBSTONE
 Job cpu time:  0 days  1 hours 33 minutes 37.0 seconds.
 File lengths (MBytes):  RWF=    186 Int=      0 D2E=      0 Chk=      4 Scr=      2
 Normal termination of Gaussian 09 at Sat Feb 11 01:17:22 2017.
