 Entering Gaussian System, Link 0=g09
 Initial command:
 /home/steboss/Software/g09/l1.exe /tmp/Gau-27986.inp -scrdir=/tmp/
 Entering Link 1 = /home/steboss/Software/g09/l1.exe PID=     27988.
  
 Copyright (c) 1988,1990,1992,1993,1995,1998,2003,2009, Gaussian, Inc.
                  All Rights Reserved.
  
 This is part of the Gaussian(R) 09 program.  It is based on
 the Gaussian(R) 03 system (copyright 2003, Gaussian, Inc.),
 the Gaussian(R) 98 system (copyright 1998, Gaussian, Inc.),
 the Gaussian(R) 94 system (copyright 1995, Gaussian, Inc.),
 the Gaussian 92(TM) system (copyright 1992, Gaussian, Inc.),
 the Gaussian 90(TM) system (copyright 1990, Gaussian, Inc.),
 the Gaussian 88(TM) system (copyright 1988, Gaussian, Inc.),
 the Gaussian 86(TM) system (copyright 1986, Carnegie Mellon
 University), and the Gaussian 82(TM) system (copyright 1983,
 Carnegie Mellon University). Gaussian is a federally registered
 trademark of Gaussian, Inc.
  
 This software contains proprietary and confidential information,
 including trade secrets, belonging to Gaussian, Inc.
  
 This software is provided under written license and may be
 used, copied, transmitted, or stored only in accord with that
 written license.
  
 The following legend is applicable only to US Government
 contracts under FAR:
  
                    RESTRICTED RIGHTS LEGEND
  
 Use, reproduction and disclosure by the US Government is
 subject to restrictions as set forth in subparagraphs (a)
 and (c) of the Commercial Computer Software - Restricted
 Rights clause in FAR 52.227-19.
  
 Gaussian, Inc.
 340 Quinnipiac St., Bldg. 40, Wallingford CT 06492
  
  
 ---------------------------------------------------------------
 Warning -- This program may not be used in any manner that
 competes with the business of Gaussian, Inc. or will provide
 assistance to any competitor of Gaussian, Inc.  The licensee
 of this program is prohibited from giving any competitor of
 Gaussian, Inc. access to this program.  By using this program,
 the user acknowledges that Gaussian, Inc. is engaged in the
 business of creating and licensing software in the field of
 computational chemistry and represents and warrants to the
 licensee that it is not a competitor of Gaussian, Inc. and that
 it will not use this program in any manner prohibited above.
 ---------------------------------------------------------------
  

 Cite this work as:
 Gaussian 09, Revision A.02,
 M. J. Frisch, G. W. Trucks, H. B. Schlegel, G. E. Scuseria, 
 M. A. Robb, J. R. Cheeseman, G. Scalmani, V. Barone, B. Mennucci, 
 G. A. Petersson, H. Nakatsuji, M. Caricato, X. Li, H. P. Hratchian, 
 A. F. Izmaylov, J. Bloino, G. Zheng, J. L. Sonnenberg, M. Hada, 
 M. Ehara, K. Toyota, R. Fukuda, J. Hasegawa, M. Ishida, T. Nakajima, 
 Y. Honda, O. Kitao, H. Nakai, T. Vreven, J. A. Montgomery, Jr., 
 J. E. Peralta, F. Ogliaro, M. Bearpark, J. J. Heyd, E. Brothers, 
 K. N. Kudin, V. N. Staroverov, R. Kobayashi, J. Normand, 
 K. Raghavachari, A. Rendell, J. C. Burant, S. S. Iyengar, J. Tomasi, 
 M. Cossi, N. Rega, J. M. Millam, M. Klene, J. E. Knox, J. B. Cross, 
 V. Bakken, C. Adamo, J. Jaramillo, R. Gomperts, R. E. Stratmann, 
 O. Yazyev, A. J. Austin, R. Cammi, C. Pomelli, J. W. Ochterski, 
 R. L. Martin, K. Morokuma, V. G. Zakrzewski, G. A. Voth, 
 P. Salvador, J. J. Dannenberg, S. Dapprich, A. D. Daniels, 
 O. Farkas, J. B. Foresman, J. V. Ortiz, J. Cioslowski, 
 and D. J. Fox, Gaussian, Inc., Wallingford CT, 2009.
 
 ******************************************
 Gaussian 09:  EM64L-G09RevA.02 11-Jun-2009
                 9-Feb-2017 
 ******************************************
 %chk=structure_240.chk
 %NProcShared=8
 Will use up to    8 processors via shared memory.
 -------------------------------------------
 # HF/6-31G* Opt=(ModRedundant) geom=nocrowd
 -------------------------------------------
 1/18=120,19=15,38=1/1,3;
 2/9=110,12=1,17=6,18=5,40=1/2;
 3/5=1,6=6,7=1,11=9,16=1,25=1,30=1,71=1/1,2,3;
 4//1;
 5/5=2,38=5/2;
 6/7=2,8=2,9=2,10=2,28=1/1;
 7//1,2,3,16;
 1/18=20,19=15/3(2);
 2/9=110,12=1/2;
 99//99;
 2/9=110,12=1/2;
 3/5=1,6=6,7=1,11=9,16=1,25=1,30=1,71=1/1,2,3;
 4/5=5,16=3/1;
 5/5=2,38=5/2;
 7//1,2,3,16;
 1/18=20,19=15/3(-5);
 2/9=110,12=1/2;
 6/7=2,8=2,9=2,10=2,19=2,28=1/1;
 99/9=1/99;
 ------------------
 Phi Psi fixed scan
 ------------------
 Symbolic Z-matrix:
 Charge =  0 Multiplicity = 1
 H                     0.2496    4.5262    0. 
 C                     1.1178    3.8672    0. 
 H                     1.097     3.238    -0.8898 
 H                     1.097     3.238     0.8898 
 C                     2.4195    4.6711    0. 
 O                     2.3938    5.8999    0. 
 N                     3.5554    3.9697    0. 
 H                     3.5254    2.9601    0. 
 C                     4.8533    4.6139    0. 
 H                     5.4076    4.3155    0.8898 
 C                     5.6613    4.2208   -1.2322 
 H                     5.1233    4.5214   -2.1312 
 H                     6.6305    4.7189   -1.2058 
 H                     5.8085    3.1409   -1.2414 
 C                     4.7127    6.1294    0. 
 O                     4.1278    6.7016    0.9171 
 N                     5.2518    6.7798   -1.0338 
 H                     5.7229    6.2651   -1.764 
 C                     5.1851    8.2226   -1.1497 
 H                     4.6503    8.6321   -0.2928 
 H                     6.1948    8.6324   -1.1769 
 H                     4.6601    8.4901   -2.0667 
 
 The following ModRedundant input section has been read:
 D    5    7    9   15 F                                                       
 D    7    9   15   17 F                                                       

 GradGradGradGradGradGradGradGradGradGradGradGradGradGradGradGradGradGrad
 Berny optimization.
 Initialization pass.
                           ----------------------------
                           !    Initial Parameters    !
                           ! (Angstroms and Degrees)  !
 --------------------------                            --------------------------
 ! Name  Definition              Value          Derivative Info.                !
 --------------------------------------------------------------------------------
 ! R1    R(1,2)                  1.09           estimate D2E/DX2                !
 ! R2    R(2,3)                  1.09           estimate D2E/DX2                !
 ! R3    R(2,4)                  1.09           estimate D2E/DX2                !
 ! R4    R(2,5)                  1.5299         estimate D2E/DX2                !
 ! R5    R(5,6)                  1.2291         estimate D2E/DX2                !
 ! R6    R(5,7)                  1.335          estimate D2E/DX2                !
 ! R7    R(7,8)                  1.01           estimate D2E/DX2                !
 ! R8    R(7,9)                  1.449          estimate D2E/DX2                !
 ! R9    R(9,10)                 1.09           estimate D2E/DX2                !
 ! R10   R(9,11)                 1.525          estimate D2E/DX2                !
 ! R11   R(9,15)                 1.522          estimate D2E/DX2                !
 ! R12   R(11,12)                1.09           estimate D2E/DX2                !
 ! R13   R(11,13)                1.09           estimate D2E/DX2                !
 ! R14   R(11,14)                1.0899         estimate D2E/DX2                !
 ! R15   R(15,16)                1.2291         estimate D2E/DX2                !
 ! R16   R(15,17)                1.3351         estimate D2E/DX2                !
 ! R17   R(17,18)                1.01           estimate D2E/DX2                !
 ! R18   R(17,19)                1.449          estimate D2E/DX2                !
 ! R19   R(19,20)                1.0899         estimate D2E/DX2                !
 ! R20   R(19,21)                1.09           estimate D2E/DX2                !
 ! R21   R(19,22)                1.09           estimate D2E/DX2                !
 ! A1    A(1,2,3)              109.5001         estimate D2E/DX2                !
 ! A2    A(1,2,4)              109.5001         estimate D2E/DX2                !
 ! A3    A(1,2,5)              111.1015         estimate D2E/DX2                !
 ! A4    A(3,2,4)              109.4403         estimate D2E/DX2                !
 ! A5    A(3,2,5)              108.636          estimate D2E/DX2                !
 ! A6    A(4,2,5)              108.636          estimate D2E/DX2                !
 ! A7    A(2,5,6)              120.5004         estimate D2E/DX2                !
 ! A8    A(2,5,7)              116.6068         estimate D2E/DX2                !
 ! A9    A(6,5,7)              122.8928         estimate D2E/DX2                !
 ! A10   A(5,7,8)              119.9926         estimate D2E/DX2                !
 ! A11   A(5,7,9)              121.9083         estimate D2E/DX2                !
 ! A12   A(8,7,9)              118.0991         estimate D2E/DX2                !
 ! A13   A(7,9,10)             109.5            estimate D2E/DX2                !
 ! A14   A(7,9,11)             111.0992         estimate D2E/DX2                !
 ! A15   A(7,9,15)             111.0966         estimate D2E/DX2                !
 ! A16   A(10,9,11)            108.6382         estimate D2E/DX2                !
 ! A17   A(10,9,15)            108.6373         estimate D2E/DX2                !
 ! A18   A(11,9,15)            107.7947         estimate D2E/DX2                !
 ! A19   A(9,11,12)            109.5007         estimate D2E/DX2                !
 ! A20   A(9,11,13)            109.4959         estimate D2E/DX2                !
 ! A21   A(9,11,14)            109.4978         estimate D2E/DX2                !
 ! A22   A(12,11,13)           109.441          estimate D2E/DX2                !
 ! A23   A(12,11,14)           109.4482         estimate D2E/DX2                !
 ! A24   A(13,11,14)           109.4436         estimate D2E/DX2                !
 ! A25   A(9,15,16)            120.4994         estimate D2E/DX2                !
 ! A26   A(9,15,17)            116.6015         estimate D2E/DX2                !
 ! A27   A(16,15,17)           122.8991         estimate D2E/DX2                !
 ! A28   A(15,17,18)           119.9952         estimate D2E/DX2                !
 ! A29   A(15,17,19)           121.9            estimate D2E/DX2                !
 ! A30   A(18,17,19)           118.1048         estimate D2E/DX2                !
 ! A31   A(17,19,20)           109.4999         estimate D2E/DX2                !
 ! A32   A(17,19,21)           109.4937         estimate D2E/DX2                !
 ! A33   A(17,19,22)           109.5016         estimate D2E/DX2                !
 ! A34   A(20,19,21)           109.4435         estimate D2E/DX2                !
 ! A35   A(20,19,22)           109.4435         estimate D2E/DX2                !
 ! A36   A(21,19,22)           109.4451         estimate D2E/DX2                !
 ! D1    D(1,2,5,6)              0.0            estimate D2E/DX2                !
 ! D2    D(1,2,5,7)            180.0            estimate D2E/DX2                !
 ! D3    D(3,2,5,6)            120.5133         estimate D2E/DX2                !
 ! D4    D(3,2,5,7)            -59.4867         estimate D2E/DX2                !
 ! D5    D(4,2,5,6)           -120.5133         estimate D2E/DX2                !
 ! D6    D(4,2,5,7)             59.4867         estimate D2E/DX2                !
 ! D7    D(2,5,7,8)              0.0            estimate D2E/DX2                !
 ! D8    D(2,5,7,9)            180.0            estimate D2E/DX2                !
 ! D9    D(6,5,7,8)            180.0            estimate D2E/DX2                !
 ! D10   D(6,5,7,9)              0.0            estimate D2E/DX2                !
 ! D11   D(5,7,9,10)           119.9998         estimate D2E/DX2                !
 ! D12   D(5,7,9,11)          -119.9976         estimate D2E/DX2                !
 ! D13   D(5,7,9,15)             0.0            Frozen                          !
 ! D14   D(8,7,9,10)           -60.0002         estimate D2E/DX2                !
 ! D15   D(8,7,9,11)            60.0024         estimate D2E/DX2                !
 ! D16   D(8,7,9,15)           180.0            estimate D2E/DX2                !
 ! D17   D(7,9,11,12)           60.0024         estimate D2E/DX2                !
 ! D18   D(7,9,11,13)          179.9986         estimate D2E/DX2                !
 ! D19   D(7,9,11,14)          -60.0038         estimate D2E/DX2                !
 ! D20   D(10,9,11,12)        -179.4843         estimate D2E/DX2                !
 ! D21   D(10,9,11,13)         -59.4881         estimate D2E/DX2                !
 ! D22   D(10,9,11,14)          60.5095         estimate D2E/DX2                !
 ! D23   D(15,9,11,12)         -61.938          estimate D2E/DX2                !
 ! D24   D(15,9,11,13)          58.0582         estimate D2E/DX2                !
 ! D25   D(15,9,11,14)         178.0558         estimate D2E/DX2                !
 ! D26   D(7,9,15,16)           59.9975         estimate D2E/DX2                !
 ! D27   D(7,9,15,17)         -120.0005         Frozen                          !
 ! D28   D(10,9,15,16)         -60.5135         estimate D2E/DX2                !
 ! D29   D(10,9,15,17)         119.4884         estimate D2E/DX2                !
 ! D30   D(11,9,15,16)        -178.0604         estimate D2E/DX2                !
 ! D31   D(11,9,15,17)           1.9415         estimate D2E/DX2                !
 ! D32   D(9,15,17,18)           0.0029         estimate D2E/DX2                !
 ! D33   D(9,15,17,19)         179.9981         estimate D2E/DX2                !
 ! D34   D(16,15,17,18)       -179.9951         estimate D2E/DX2                !
 ! D35   D(16,15,17,19)          0.0            estimate D2E/DX2                !
 ! D36   D(15,17,19,20)          0.0044         estimate D2E/DX2                !
 ! D37   D(15,17,19,21)        120.0018         estimate D2E/DX2                !
 ! D38   D(15,17,19,22)       -119.9978         estimate D2E/DX2                !
 ! D39   D(18,17,19,20)        179.9996         estimate D2E/DX2                !
 ! D40   D(18,17,19,21)        -60.003          estimate D2E/DX2                !
 ! D41   D(18,17,19,22)         59.9974         estimate D2E/DX2                !
 --------------------------------------------------------------------------------
 Trust Radius=3.00D-01 FncErr=1.00D-07 GrdErr=1.00D-07
 Number of steps in this run= 108 maximum allowed number of steps= 132.
 GradGradGradGradGradGradGradGradGradGradGradGradGradGradGradGradGradGrad

                          Input orientation:                          
 ---------------------------------------------------------------------
 Center     Atomic      Atomic             Coordinates (Angstroms)
 Number     Number       Type             X           Y           Z
 ---------------------------------------------------------------------
      1          1           0        0.249600    4.526200    0.000000
      2          6           0        1.117800    3.867200    0.000000
      3          1           0        1.097000    3.238000   -0.889800
      4          1           0        1.097000    3.238000    0.889800
      5          6           0        2.419500    4.671100    0.000000
      6          8           0        2.393800    5.899900    0.000000
      7          7           0        3.555400    3.969700    0.000000
      8          1           0        3.525400    2.960100    0.000000
      9          6           0        4.853300    4.613900    0.000000
     10          1           0        5.407600    4.315500    0.889800
     11          6           0        5.661300    4.220800   -1.232200
     12          1           0        5.123300    4.521400   -2.131200
     13          1           0        6.630500    4.718900   -1.205800
     14          1           0        5.808500    3.140900   -1.241400
     15          6           0        4.712700    6.129400    0.000000
     16          8           0        4.127800    6.701600    0.917100
     17          7           0        5.251800    6.779800   -1.033800
     18          1           0        5.722900    6.265100   -1.764000
     19          6           0        5.185100    8.222600   -1.149700
     20          1           0        4.650300    8.632100   -0.292800
     21          1           0        6.194800    8.632400   -1.176900
     22          1           0        4.660100    8.490100   -2.066700
 ---------------------------------------------------------------------
                    Distance matrix (angstroms):
                    1          2          3          4          5
     1  H    0.000000
     2  C    1.089978   0.000000
     3  H    1.780250   1.089986   0.000000
     4  H    1.780250   1.089986   1.779600   0.000000
     5  C    2.174733   1.529927   2.143485   2.143485   0.000000
     6  O    2.546497   2.400009   3.091787   3.091787   1.229069
     7  N    3.352314   2.439754   2.714933   2.714933   1.335002
     8  H    3.630914   2.572813   2.601173   2.601173   2.037286
     9  C    4.604535   3.809399   4.098126   4.098126   2.434472
    10  H    5.238426   4.403987   4.786361   4.443228   3.137983
    11  C    5.558604   4.720884   4.681449   5.128510   3.497192
    12  H    5.319303   4.584105   4.404462   5.194675   3.446006
    13  H    6.496689   5.706944   5.736945   6.099527   4.380498
    14  H    5.861868   4.906246   4.725599   5.172009   3.920192
    15  C    4.742311   4.247453   4.714364   4.714364   2.717610
    16  O    4.540250   4.234973   4.944407   4.602501   2.807542
    17  N    5.582962   5.161583   5.461451   5.788519   3.679304
    18  H    6.007702   5.483481   5.597009   6.132287   4.070010
    19  C    6.272507   6.069123   6.451848   6.761535   4.645805
    20  H    6.025803   5.938734   6.486807   6.566643   4.555406
    21  H    7.320613   7.061739   7.427620   7.704438   5.597310
    22  H    6.279830   6.179834   6.454869   7.001509   4.886338
                    6          7          8          9         10
     6  O    0.000000
     7  N    2.252773   0.000000
     8  H    3.150070   1.010046   0.000000
     9  C    2.775416   1.448978   2.120937   0.000000
    10  H    3.519241   2.083739   2.484256   1.089970   0.000000
    11  C    3.874823   2.452791   2.769431   1.525027   2.139209
    12  H    3.727257   2.702720   3.087548   2.150225   3.041326
    13  H    4.560520   3.386959   3.766826   2.150214   2.459625
    14  H    4.562163   2.702673   2.605054   2.150165   2.466256
    15  C    2.330229   2.450234   3.384397   1.522008   2.136554
    16  O    2.119092   2.938025   3.899074   2.392888   2.707786
    17  N    3.164037   3.441392   4.317326   2.432831   3.130062
    18  H    3.785231   3.616437   4.343239   2.567949   3.308022
    19  C    3.808950   4.697328   5.636517   3.801923   4.412992
    20  H    3.555621   4.798178   5.789880   4.033965   4.539282
    21  H    4.826930   5.485645   6.378540   4.396937   4.850418
    22  H    4.014536   5.091721   6.011630   4.396988   5.169810
                   11         12         13         14         15
    11  C    0.000000
    12  H    1.089957   0.000000
    13  H    1.090023   1.779613   0.000000
    14  H    1.089925   1.779613   1.779617   0.000000
    15  C    2.461892   2.701161   2.668599   3.416575   0.000000
    16  O    3.622911   3.877683   3.834229   4.490263   1.229062
    17  N    2.599141   2.514194   2.485499   3.687086   1.335062
    18  H    2.113236   1.880119   1.877780   3.168764   2.037306
    19  C    4.030878   3.829627   3.790546   5.120616   2.434432
    20  H    4.622138   4.527836   4.479720   5.691621   2.520542
    21  H    4.444085   4.354207   3.937785   5.505448   3.137949
    22  H    4.463823   3.996160   4.341149   5.532981   3.137980
                   16         17         18         19         20
    16  O    0.000000
    17  N    2.252887   0.000000
    18  H    3.150107   1.009972   0.000000
    19  C    2.775425   1.448984   2.120943   0.000000
    20  H    2.337455   2.083722   2.986233   1.089944   0.000000
    21  H    3.519277   2.083711   2.484247   1.090032   1.779638
    22  H    3.519252   2.083775   2.484310   1.089986   1.779601
                   21         22
    21  H    0.000000
    22  H    1.779690   0.000000
 Stoichiometry    C6H12N2O2
 Framework group  C1[X(C6H12N2O2)]
 Deg. of freedom    60
 Full point group                 C1      NOp   1
 Largest Abelian subgroup         C1      NOp   1
 Largest concise Abelian subgroup C1      NOp   1
                         Standard orientation:                         
 ---------------------------------------------------------------------
 Center     Atomic      Atomic             Coordinates (Angstroms)
 Number     Number       Type             X           Y           Z
 ---------------------------------------------------------------------
      1          1           0        3.374097   -1.655609   -0.753091
      2          6           0        3.184199   -0.618244   -0.477652
      3          1           0        3.443777    0.033146   -1.312146
      4          1           0        3.789719   -0.355400    0.389716
      5          6           0        1.710388   -0.401953   -0.128686
      6          8           0        0.913549   -1.336310   -0.180031
      7          7           0        1.355236    0.835116    0.225937
      8          1           0        2.046856    1.570715    0.253292
      9          6           0       -0.009857    1.168359    0.579504
     10          1           0       -0.039306    1.544971    1.601919
     11          6           0       -0.572242    2.238274   -0.350394
     12          1           0       -0.557817    1.872257   -1.376956
     13          1           0       -1.597798    2.468619   -0.061732
     14          1           0        0.036228    3.139632   -0.277914
     15          6           0       -0.913938   -0.052352    0.484583
     16          8           0       -0.692822   -1.047276    1.171480
     17          7           0       -1.935943    0.025711   -0.370871
     18          1           0       -2.076673    0.865435   -0.914105
     19          6           0       -2.867699   -1.068986   -0.552592
     20          1           0       -2.586514   -1.897743    0.097082
     21          1           0       -3.874338   -0.735537   -0.300284
     22          1           0       -2.844199   -1.398180   -1.591413
 ---------------------------------------------------------------------
 Rotational constants (GHZ):      2.1304410      1.0137768      0.7961222
 Standard basis: 6-31G(d) (6D, 7F)
 There are   174 symmetry adapted basis functions of A   symmetry.
 Integral buffers will be    131072 words long.
 Raffenetti 1 integral format.
 Two-electron integral symmetry is turned on.
   174 basis functions,   328 primitive gaussians,   174 cartesian basis functions
    39 alpha electrons       39 beta electrons
       nuclear repulsion energy       581.6654425267 Hartrees.
 NAtoms=   22 NActive=   22 NUniq=   22 SFac= 7.50D-01 NAtFMM=   80 NAOKFM=F Big=F
 One-electron integrals computed using PRISM.
 NBasis=   174 RedAO= T  NBF=   174
 NBsUse=   174 1.00D-06 NBFU=   174
 Harris functional with IExCor=  205 diagonalized for initial guess.
 ExpMin= 1.61D-01 ExpMax= 5.48D+03 ExpMxC= 8.25D+02 IAcc=1 IRadAn=         1 AccDes= 0.00D+00
 HarFok:  IExCor=  205 AccDes= 0.00D+00 IRadAn=         1 IDoV= 1
 ScaDFX=  1.000000  1.000000  1.000000  1.000000
 FoFCou: FMM=F IPFlag=           0 FMFlag=      100000 FMFlg1=           0
         NFxFlg=           0 DoJE=T BraDBF=F KetDBF=T FulRan=T
         Omega=  0.000000  0.000000  1.000000  0.000000  0.000000 ICntrl=     500 IOpCl=  0
         NMat0=    1 NMatS0=    1 NMatT0=    0 NMatD0=    1 NMtDS0=    0 NMtDT0=    0
         I1Cent=           4 NGrid=           0.
 Petite list used in FoFCou.
 Initial guess orbital symmetries:
       Occupied  (A) (A) (A) (A) (A) (A) (A) (A) (A) (A) (A) (A)
                 (A) (A) (A) (A) (A) (A) (A) (A) (A) (A) (A) (A)
                 (A) (A) (A) (A) (A) (A) (A) (A) (A) (A) (A) (A)
                 (A) (A) (A)
       Virtual   (A) (A) (A) (A) (A) (A) (A) (A) (A) (A) (A) (A)
                 (A) (A) (A) (A) (A) (A) (A) (A) (A) (A) (A) (A)
                 (A) (A) (A) (A) (A) (A) (A) (A) (A) (A) (A) (A)
                 (A) (A) (A) (A) (A) (A) (A) (A) (A) (A) (A) (A)
                 (A) (A) (A) (A) (A) (A) (A) (A) (A) (A) (A) (A)
                 (A) (A) (A) (A) (A) (A) (A) (A) (A) (A) (A) (A)
                 (A) (A) (A) (A) (A) (A) (A) (A) (A) (A) (A) (A)
                 (A) (A) (A) (A) (A) (A) (A) (A) (A) (A) (A) (A)
                 (A) (A) (A) (A) (A) (A) (A) (A) (A) (A) (A) (A)
                 (A) (A) (A) (A) (A) (A) (A) (A) (A) (A) (A) (A)
                 (A) (A) (A) (A) (A) (A) (A) (A) (A) (A) (A) (A)
                 (A) (A) (A)
 The electronic state of the initial guess is 1-A.
 Requested convergence on RMS density matrix=1.00D-08 within 128 cycles.
 Requested convergence on MAX density matrix=1.00D-06.
 Requested convergence on             energy=1.00D-06.
 No special actions if energy rises.
 Integral accuracy reduced to 1.0D-05 until final iterations.
 Initial convergence to 1.0D-05 achieved.  Increase integral accuracy.
 SCF Done:  E(RHF) =  -492.780197371     A.U. after   15 cycles
             Convg  =    0.8436D-08             -V/T =  2.0014

 **********************************************************************

            Population analysis using the SCF density.

 **********************************************************************

 Orbital symmetries:
       Occupied  (A) (A) (A) (A) (A) (A) (A) (A) (A) (A) (A) (A)
                 (A) (A) (A) (A) (A) (A) (A) (A) (A) (A) (A) (A)
                 (A) (A) (A) (A) (A) (A) (A) (A) (A) (A) (A) (A)
                 (A) (A) (A)
       Virtual   (A) (A) (A) (A) (A) (A) (A) (A) (A) (A) (A) (A)
                 (A) (A) (A) (A) (A) (A) (A) (A) (A) (A) (A) (A)
                 (A) (A) (A) (A) (A) (A) (A) (A) (A) (A) (A) (A)
                 (A) (A) (A) (A) (A) (A) (A) (A) (A) (A) (A) (A)
                 (A) (A) (A) (A) (A) (A) (A) (A) (A) (A) (A) (A)
                 (A) (A) (A) (A) (A) (A) (A) (A) (A) (A) (A) (A)
                 (A) (A) (A) (A) (A) (A) (A) (A) (A) (A) (A) (A)
                 (A) (A) (A) (A) (A) (A) (A) (A) (A) (A) (A) (A)
                 (A) (A) (A) (A) (A) (A) (A) (A) (A) (A) (A) (A)
                 (A) (A) (A) (A) (A) (A) (A) (A) (A) (A) (A) (A)
                 (A) (A) (A) (A) (A) (A) (A) (A) (A) (A) (A) (A)
                 (A) (A) (A)
 The electronic state is 1-A.
 Alpha  occ. eigenvalues --  -20.49392 -20.47756 -15.59374 -15.57705 -11.33741
 Alpha  occ. eigenvalues --  -11.32755 -11.28495 -11.24606 -11.23960 -11.22920
 Alpha  occ. eigenvalues --   -1.37686  -1.33265  -1.24193  -1.21706  -1.06361
 Alpha  occ. eigenvalues --   -0.98714  -0.94301  -0.88871  -0.80973  -0.77366
 Alpha  occ. eigenvalues --   -0.70754  -0.69299  -0.65042  -0.62209  -0.61466
 Alpha  occ. eigenvalues --   -0.60813  -0.58905  -0.57448  -0.56020  -0.55631
 Alpha  occ. eigenvalues --   -0.54437  -0.53260  -0.52740  -0.51260  -0.48563
 Alpha  occ. eigenvalues --   -0.40772  -0.38769  -0.37695  -0.32898
 Alpha virt. eigenvalues --    0.18835   0.21517   0.22520   0.24211   0.26135
 Alpha virt. eigenvalues --    0.27760   0.28404   0.29135   0.30427   0.31834
 Alpha virt. eigenvalues --    0.32755   0.33533   0.33850   0.34142   0.37481
 Alpha virt. eigenvalues --    0.38676   0.39614   0.46105   0.46273   0.51535
 Alpha virt. eigenvalues --    0.56287   0.60350   0.61387   0.72190   0.73339
 Alpha virt. eigenvalues --    0.74843   0.75963   0.76179   0.78719   0.80553
 Alpha virt. eigenvalues --    0.81378   0.84493   0.85511   0.86672   0.92921
 Alpha virt. eigenvalues --    0.94371   0.94985   0.97053   0.97966   1.00112
 Alpha virt. eigenvalues --    1.01381   1.03540   1.05840   1.07402   1.09849
 Alpha virt. eigenvalues --    1.11093   1.13228   1.14364   1.15546   1.16187
 Alpha virt. eigenvalues --    1.17090   1.17732   1.18003   1.20854   1.21469
 Alpha virt. eigenvalues --    1.21989   1.22944   1.24204   1.24681   1.28569
 Alpha virt. eigenvalues --    1.32357   1.34609   1.36886   1.42368   1.48409
 Alpha virt. eigenvalues --    1.51091   1.56683   1.57996   1.63819   1.66277
 Alpha virt. eigenvalues --    1.67696   1.68788   1.73036   1.75849   1.79433
 Alpha virt. eigenvalues --    1.80116   1.84350   1.88097   1.93365   2.00736
 Alpha virt. eigenvalues --    2.03884   2.06359   2.09606   2.12214   2.16092
 Alpha virt. eigenvalues --    2.16708   2.19464   2.22647   2.23594   2.26273
 Alpha virt. eigenvalues --    2.29044   2.31705   2.33965   2.35058   2.38758
 Alpha virt. eigenvalues --    2.42230   2.44132   2.47255   2.50152   2.53499
 Alpha virt. eigenvalues --    2.55928   2.57570   2.60626   2.63072   2.64626
 Alpha virt. eigenvalues --    2.67261   2.71440   2.72113   2.74177   2.78267
 Alpha virt. eigenvalues --    2.81638   2.83551   2.90609   2.91538   3.00948
 Alpha virt. eigenvalues --    3.03481   3.06303   3.09921   3.14416   3.25104
 Alpha virt. eigenvalues --    3.33895   3.38028   3.41753   3.58314   3.61589
 Alpha virt. eigenvalues --    4.38684   4.45976   4.54013   4.61893   4.67433
 Alpha virt. eigenvalues --    4.70048   4.75922   4.82667   4.92930   5.20189
          Condensed to atoms (all electrons):
              1          2          3          4          5          6
     1  H    0.451980   0.385566  -0.018979  -0.017651  -0.029136   0.003886
     2  C    0.385566   5.261508   0.372444   0.372064   0.371924  -0.064410
     3  H   -0.018979   0.372444   0.529282  -0.025699  -0.035868   0.001074
     4  H   -0.017651   0.372064  -0.025699   0.523825  -0.038043   0.000984
     5  C   -0.029136   0.371924  -0.035868  -0.038043   4.220458   0.584801
     6  O    0.003886  -0.064410   0.001074   0.000984   0.584801   8.280465
     7  N    0.003756  -0.126944   0.004188   0.005420   0.224363  -0.103718
     8  H   -0.000039  -0.000509   0.000628   0.000419  -0.017978   0.002503
     9  C   -0.000060   0.003134  -0.000117  -0.000093  -0.031710  -0.001840
    10  H    0.000001  -0.000039  -0.000003   0.000009   0.001823   0.000367
    11  C    0.000002  -0.000167   0.000015   0.000003   0.000981  -0.000233
    12  H    0.000000  -0.000017   0.000001   0.000000   0.000754   0.000085
    13  H    0.000000   0.000003   0.000000   0.000000  -0.000027   0.000001
    14  H    0.000000  -0.000005   0.000002  -0.000001  -0.000100  -0.000006
    15  C   -0.000009   0.000178  -0.000017   0.000009  -0.006796   0.014896
    16  O    0.000017  -0.000554   0.000000   0.000040   0.005758  -0.126078
    17  N    0.000000  -0.000011   0.000001   0.000000   0.002141  -0.003738
    18  H    0.000000   0.000000   0.000000   0.000000  -0.000118   0.000030
    19  C    0.000000   0.000000   0.000000   0.000000  -0.000021   0.000222
    20  H    0.000000   0.000000   0.000000   0.000000  -0.000012   0.000075
    21  H    0.000000   0.000000   0.000000   0.000000   0.000001   0.000002
    22  H    0.000000   0.000000   0.000000   0.000000  -0.000004   0.000063
              7          8          9         10         11         12
     1  H    0.003756  -0.000039  -0.000060   0.000001   0.000002   0.000000
     2  C   -0.126944  -0.000509   0.003134  -0.000039  -0.000167  -0.000017
     3  H    0.004188   0.000628  -0.000117  -0.000003   0.000015   0.000001
     4  H    0.005420   0.000419  -0.000093   0.000009   0.000003   0.000000
     5  C    0.224363  -0.017978  -0.031710   0.001823   0.000981   0.000754
     6  O   -0.103718   0.002503  -0.001840   0.000367  -0.000233   0.000085
     7  N    7.423260   0.325063   0.190133  -0.042463  -0.074099   0.000237
     8  H    0.325063   0.325809  -0.023591  -0.001055  -0.002028   0.000054
     9  C    0.190133  -0.023591   5.017035   0.411980   0.310705  -0.036195
    10  H   -0.042463  -0.001055   0.411980   0.493151  -0.050826   0.004395
    11  C   -0.074099  -0.002028   0.310705  -0.050826   5.281231   0.383439
    12  H    0.000237   0.000054  -0.036195   0.004395   0.383439   0.522218
    13  H    0.005284  -0.000052  -0.041684  -0.000648   0.387793  -0.029747
    14  H   -0.001892   0.002061  -0.029879  -0.002588   0.385677  -0.021243
    15  C   -0.025157   0.002734   0.385730  -0.026466  -0.063076  -0.004155
    16  O    0.003873  -0.000185  -0.075066   0.000000   0.003618  -0.000137
    17  N    0.000052  -0.000147  -0.102455   0.001025  -0.017647  -0.002335
    18  H    0.000308   0.000006  -0.002676   0.000075  -0.003146   0.000012
    19  C   -0.000085   0.000002   0.004483  -0.000102   0.000090  -0.000045
    20  H   -0.000005   0.000000   0.000550  -0.000010  -0.000063  -0.000014
    21  H   -0.000001   0.000000  -0.000071   0.000015  -0.000002   0.000028
    22  H    0.000008   0.000000  -0.000119  -0.000002   0.000003  -0.000031
             13         14         15         16         17         18
     1  H    0.000000   0.000000  -0.000009   0.000017   0.000000   0.000000
     2  C    0.000003  -0.000005   0.000178  -0.000554  -0.000011   0.000000
     3  H    0.000000   0.000002  -0.000017   0.000000   0.000001   0.000000
     4  H    0.000000  -0.000001   0.000009   0.000040   0.000000   0.000000
     5  C   -0.000027  -0.000100  -0.006796   0.005758   0.002141  -0.000118
     6  O    0.000001  -0.000006   0.014896  -0.126078  -0.003738   0.000030
     7  N    0.005284  -0.001892  -0.025157   0.003873   0.000052   0.000308
     8  H   -0.000052   0.002061   0.002734  -0.000185  -0.000147   0.000006
     9  C   -0.041684  -0.029879   0.385730  -0.075066  -0.102455  -0.002676
    10  H   -0.000648  -0.002588  -0.026466   0.000000   0.001025   0.000075
    11  C    0.387793   0.385677  -0.063076   0.003618  -0.017647  -0.003146
    12  H   -0.029747  -0.021243  -0.004155  -0.000137  -0.002335   0.000012
    13  H    0.525271  -0.019338  -0.000649  -0.000085  -0.003686  -0.001225
    14  H   -0.019338   0.507871   0.003392  -0.000057   0.000681   0.000610
    15  C   -0.000649   0.003392   4.141499   0.547184   0.281761  -0.015048
    16  O   -0.000085  -0.000057   0.547184   8.329230  -0.086575   0.002598
    17  N   -0.003686   0.000681   0.281761  -0.086575   7.367527   0.318990
    18  H   -0.001225   0.000610  -0.015048   0.002598   0.318990   0.325993
    19  C   -0.000018   0.000003  -0.025219  -0.005176   0.190201  -0.022518
    20  H   -0.000015   0.000001  -0.001868   0.012103  -0.030795   0.002344
    21  H   -0.000036   0.000000   0.000980   0.000317  -0.049770  -0.000997
    22  H    0.000023   0.000000   0.001281   0.000450  -0.047592  -0.000951
             19         20         21         22
     1  H    0.000000   0.000000   0.000000   0.000000
     2  C    0.000000   0.000000   0.000000   0.000000
     3  H    0.000000   0.000000   0.000000   0.000000
     4  H    0.000000   0.000000   0.000000   0.000000
     5  C   -0.000021  -0.000012   0.000001  -0.000004
     6  O    0.000222   0.000075   0.000002   0.000063
     7  N   -0.000085  -0.000005  -0.000001   0.000008
     8  H    0.000002   0.000000   0.000000   0.000000
     9  C    0.004483   0.000550  -0.000071  -0.000119
    10  H   -0.000102  -0.000010   0.000015  -0.000002
    11  C    0.000090  -0.000063  -0.000002   0.000003
    12  H   -0.000045  -0.000014   0.000028  -0.000031
    13  H   -0.000018  -0.000015  -0.000036   0.000023
    14  H    0.000003   0.000001   0.000000   0.000000
    15  C   -0.025219  -0.001868   0.000980   0.001281
    16  O   -0.005176   0.012103   0.000317   0.000450
    17  N    0.190201  -0.030795  -0.049770  -0.047592
    18  H   -0.022518   0.002344  -0.000997  -0.000951
    19  C    4.939543   0.395531   0.402178   0.402378
    20  H    0.395531   0.423746  -0.023104  -0.021162
    21  H    0.402178  -0.023104   0.550619  -0.038427
    22  H    0.402378  -0.021162  -0.038427   0.536827
 Mulliken atomic charges:
              1
     1  H    0.220666
     2  C   -0.574165
     3  H    0.173048
     4  H    0.178713
     5  C    0.746809
     6  O   -0.589434
     7  N   -0.811579
     8  H    0.386304
     9  C    0.021806
    10  H    0.211361
    11  C   -0.542270
    12  H    0.182696
    13  H    0.178834
    14  H    0.174811
    15  C    0.788813
    16  O   -0.611274
    17  N   -0.817628
    18  H    0.395714
    19  C   -0.281447
    20  H    0.242699
    21  H    0.158268
    22  H    0.167254
 Sum of Mulliken atomic charges =   0.00000
 Mulliken charges with hydrogens summed into heavy atoms:
              1
     2  C   -0.001738
     5  C    0.746809
     6  O   -0.589434
     7  N   -0.425275
     9  C    0.233167
    11  C   -0.005929
    15  C    0.788813
    16  O   -0.611274
    17  N   -0.421914
    19  C    0.286775
 Sum of Mulliken charges with hydrogens summed into heavy atoms =   0.00000
 Electronic spatial extent (au):  <R**2>=           1569.8909
 Charge=              0.0000 electrons
 Dipole moment (field-independent basis, Debye):
    X=              0.6433    Y=              5.7653    Z=             -2.1560  Tot=              6.1887
 Quadrupole moment (field-independent basis, Debye-Ang):
   XX=            -47.2978   YY=            -61.2983   ZZ=            -62.5969
   XY=              1.9777   XZ=              3.2720   YZ=              3.3486
 Traceless Quadrupole moment (field-independent basis, Debye-Ang):
   XX=              9.7665   YY=             -4.2339   ZZ=             -5.5326
   XY=              1.9777   XZ=              3.2720   YZ=              3.3486
 Octapole moment (field-independent basis, Debye-Ang**2):
  XXX=              6.3659  YYY=              5.4819  ZZZ=             -2.9681  XYY=              0.3010
  XXY=             -1.5303  XXZ=             -5.6499  XZZ=              0.8498  YZZ=              3.7991
  YYZ=              0.0909  XYZ=             -0.3141
 Hexadecapole moment (field-independent basis, Debye-Ang**3):
 XXXX=          -1218.7003 YYYY=           -565.9272 ZZZZ=           -193.8557 XXXY=              8.9864
 XXXZ=             11.4038 YYYX=             19.8506 YYYZ=              6.4869 ZZZX=              5.4222
 ZZZY=              5.3388 XXYY=           -283.3547 XXZZ=           -244.6188 YYZZ=           -129.7208
 XXYZ=              2.3987 YYXZ=              4.3928 ZZXY=             -3.8158
 N-N= 5.816654425267D+02 E-N=-2.319551888314D+03  KE= 4.921029990715D+02
 Calling FoFJK, ICntrl=      2127 FMM=F ISym2X=0 I1Cent= 0 IOpClX= 0 NMat=1 NMatS=1 NMatT=0.
 ***** Axes restored to original set *****
 -------------------------------------------------------------------
 Center     Atomic                   Forces (Hartrees/Bohr)
 Number     Number              X              Y              Z
 -------------------------------------------------------------------
      1        1           0.009750903   -0.001795979    0.000035658
      2        6           0.010255514   -0.002114708    0.002973771
      3        1          -0.002675958   -0.000965808    0.003934133
      4        1          -0.003445840   -0.001431881   -0.004129896
      5        6          -0.046367279    0.067878459    0.001617525
      6        8          -0.054269934   -0.082985991   -0.035876803
      7        7           0.016839182   -0.015442795   -0.000875862
      8        1           0.000601040    0.015413412    0.001357858
      9        6           0.011688391   -0.002018230   -0.015204868
     10        1          -0.003806704    0.005954873   -0.001072481
     11        6           0.001033143   -0.019575841    0.001305878
     12        1           0.003402817   -0.008239163    0.001962631
     13        1          -0.001214011   -0.010168111   -0.001036660
     14        1           0.002501323    0.003608529   -0.004536720
     15        6          -0.032212231    0.039312664    0.072541914
     16        8           0.086460024   -0.009399133   -0.014894446
     17        7           0.010979160    0.003897885   -0.018575691
     18        1          -0.011770051    0.019176833    0.014350734
     19        6          -0.000309949    0.002148598    0.000192111
     20        1           0.004408877   -0.005980984   -0.007433615
     21        1          -0.004241651    0.001224498   -0.000613994
     22        1           0.002393235    0.001502874    0.003978823
 -------------------------------------------------------------------
 Cartesian Forces:  Max     0.086460024 RMS     0.023655986

 GradGradGradGradGradGradGradGradGradGradGradGradGradGradGradGradGradGrad
 Berny optimization.
 Internal  Forces:  Max     0.207581825 RMS     0.038954856
 Search for a local minimum.
 Step number   1 out of a maximum of  108
 All quantities printed in internal units (Hartrees-Bohrs-Radians)
 Mixed Optimization -- RFO/linear search
 Second derivative matrix not updated -- first step.
     Eigenvalues ---    0.00370   0.00435   0.00998   0.01044   0.01270
     Eigenvalues ---    0.01422   0.01660   0.02551   0.02552   0.03503
     Eigenvalues ---    0.05232   0.05841   0.05844   0.05844   0.07165
     Eigenvalues ---    0.07464   0.07685   0.07686   0.15421   0.16000
     Eigenvalues ---    0.16000   0.16000   0.16000   0.16000   0.16000
     Eigenvalues ---    0.16000   0.16000   0.16000   0.16000   0.16000
     Eigenvalues ---    0.16180   0.22000   0.22000   0.25000   0.25000
     Eigenvalues ---    0.25000   0.25000   0.29430   0.29887   0.30174
     Eigenvalues ---    0.34809   0.34810   0.34814   0.34814   0.34814
     Eigenvalues ---    0.34815   0.34816   0.34818   0.34819   0.34821
     Eigenvalues ---    0.38378   0.38379   0.45965   0.45977   0.58326
     Eigenvalues ---    0.58340   0.91475   0.914781000.000001000.00000
     Eigenvalues --- 1000.000001000.000001000.000001000.000001000.00000
     Eigenvalues --- 1000.000001000.000001000.000001000.000001000.00000
     Eigenvalues --- 1000.000001000.000001000.000001000.000001000.00000
     Eigenvalues --- 1000.000001000.000001000.000001000.000001000.00000
     Eigenvalues --- 1000.000001000.000001000.000001000.000001000.00000
     Eigenvalues --- 1000.000001000.000001000.000001000.000001000.00000
     Eigenvalues --- 1000.000001000.000001000.000001000.000001000.00000
     Eigenvalues --- 1000.000001000.000001000.00000
 RFO step:  Lambda=-2.80654696D-01 EMin= 3.70064225D-03
 Linear search not attempted -- first point.
 Maximum step size (   0.300) exceeded in Quadratic search.
    -- Step size scaled by   0.387
 Iteration  1 RMS(Cart)=  0.22354491 RMS(Int)=  0.00956662
 Iteration  2 RMS(Cart)=  0.02651595 RMS(Int)=  0.00033562
 Iteration  3 RMS(Cart)=  0.00037855 RMS(Int)=  0.00030779
 Iteration  4 RMS(Cart)=  0.00000008 RMS(Int)=  0.00030779
 Iteration  1 RMS(Cart)=  0.00023850 RMS(Int)=  0.00010474
 Iteration  2 RMS(Cart)=  0.00016368 RMS(Int)=  0.00011547
 Iteration  3 RMS(Cart)=  0.00011233 RMS(Int)=  0.00013299
 Iteration  4 RMS(Cart)=  0.00007709 RMS(Int)=  0.00014820
 Iteration  5 RMS(Cart)=  0.00005291 RMS(Int)=  0.00015970
 Iteration  6 RMS(Cart)=  0.00003631 RMS(Int)=  0.00016798
 Iteration  7 RMS(Cart)=  0.00002492 RMS(Int)=  0.00017383
 Iteration  8 RMS(Cart)=  0.00001710 RMS(Int)=  0.00017790
 Iteration  9 RMS(Cart)=  0.00001173 RMS(Int)=  0.00018073
 Iteration 10 RMS(Cart)=  0.00000805 RMS(Int)=  0.00018268
 Iteration 11 RMS(Cart)=  0.00000553 RMS(Int)=  0.00018403
 Iteration 12 RMS(Cart)=  0.00000379 RMS(Int)=  0.00018496
 Iteration 13 RMS(Cart)=  0.00000260 RMS(Int)=  0.00018559
 Iteration 14 RMS(Cart)=  0.00000179 RMS(Int)=  0.00018603
 Iteration 15 RMS(Cart)=  0.00000123 RMS(Int)=  0.00018633
 Iteration 16 RMS(Cart)=  0.00000084 RMS(Int)=  0.00018654
 Variable       Old X    -DE/DX   Delta X   Delta X   Delta X     New X
                                 (Linear)    (Quad)   (Total)
    R1        2.05976  -0.00885   0.00000  -0.00544  -0.00544   2.05432
    R2        2.05977  -0.00260   0.00000  -0.00160  -0.00160   2.05817
    R3        2.05977  -0.00248   0.00000  -0.00152  -0.00152   2.05825
    R4        2.89114  -0.00850   0.00000  -0.00572  -0.00572   2.88543
    R5        2.32260  -0.08183   0.00000  -0.02647  -0.02647   2.29613
    R6        2.52279   0.06256   0.00000   0.02800   0.02800   2.55078
    R7        1.90871  -0.01542   0.00000  -0.00806  -0.00806   1.90065
    R8        2.73817   0.07162   0.00000   0.04168   0.04168   2.77985
    R9        2.05975  -0.00444   0.00000  -0.00273  -0.00273   2.05701
   R10        2.88188   0.01376   0.00000   0.00918   0.00918   2.89106
   R11        2.87618   0.04652   0.00000   0.03088   0.03088   2.90706
   R12        2.05972  -0.00557   0.00000  -0.00343  -0.00343   2.05629
   R13        2.05984  -0.00575   0.00000  -0.00354  -0.00354   2.05631
   R14        2.05966  -0.00320   0.00000  -0.00197  -0.00197   2.05769
   R15        2.32259  -0.05664   0.00000  -0.01832  -0.01832   2.30427
   R16        2.52290   0.01757   0.00000   0.00786   0.00786   2.53076
   R17        1.90857  -0.02564   0.00000  -0.01339  -0.01339   1.89518
   R18        2.73818  -0.00089   0.00000  -0.00052  -0.00052   2.73766
   R19        2.05970  -0.01025   0.00000  -0.00631  -0.00631   2.05339
   R20        2.05986  -0.00345   0.00000  -0.00212  -0.00212   2.05774
   R21        2.05978  -0.00413   0.00000  -0.00254  -0.00254   2.05724
    A1        1.91114   0.00058   0.00000   0.00037   0.00038   1.91152
    A2        1.91114   0.00016   0.00000   0.00007   0.00009   1.91122
    A3        1.93909  -0.00883   0.00000  -0.00785  -0.00784   1.93125
    A4        1.91009  -0.00504   0.00000  -0.00421  -0.00423   1.90587
    A5        1.89606   0.00576   0.00000   0.00509   0.00508   1.90114
    A6        1.89606   0.00741   0.00000   0.00657   0.00657   1.90262
    A7        2.10313  -0.03661   0.00000  -0.02667  -0.02671   2.07642
    A8        2.03517  -0.05684   0.00000  -0.04141  -0.04146   1.99372
    A9        2.14488   0.09344   0.00000   0.06809   0.06803   2.21292
   A10        2.09427  -0.10365   0.00000  -0.08004  -0.08007   2.01420
   A11        2.12770   0.20758   0.00000   0.16031   0.16028   2.28798
   A12        2.06122  -0.10393   0.00000  -0.08028  -0.08032   1.98090
   A13        1.91114   0.00206   0.00000  -0.00861  -0.00875   1.90239
   A14        1.93905  -0.08717   0.00000  -0.06045  -0.06155   1.87750
   A15        1.93900   0.10046   0.00000   0.09475   0.09521   2.03422
   A16        1.89609   0.01735   0.00000   0.00667   0.00587   1.90196
   A17        1.89608  -0.05639   0.00000  -0.03580  -0.03631   1.85977
   A18        1.88137   0.02266   0.00000   0.00225   0.00375   1.88513
   A19        1.91115   0.00516   0.00000   0.00477   0.00475   1.91590
   A20        1.91106   0.00597   0.00000   0.00544   0.00542   1.91649
   A21        1.91110   0.00422   0.00000   0.00326   0.00326   1.91435
   A22        1.91011  -0.00140   0.00000  -0.00035  -0.00038   1.90973
   A23        1.91023  -0.00662   0.00000  -0.00621  -0.00622   1.90401
   A24        1.91015  -0.00735   0.00000  -0.00692  -0.00692   1.90323
   A25        2.10311   0.00366   0.00000   0.00266   0.00221   2.10532
   A26        2.03508   0.02341   0.00000   0.01706   0.01664   2.05172
   A27        2.14499  -0.02707   0.00000  -0.01972  -0.02011   2.12488
   A28        2.09431   0.00840   0.00000   0.00722   0.00722   2.10153
   A29        2.12756  -0.00293   0.00000  -0.00226  -0.00226   2.12530
   A30        2.06132  -0.00547   0.00000  -0.00495  -0.00496   2.05636
   A31        1.91113  -0.00488   0.00000  -0.00439  -0.00438   1.90675
   A32        1.91103   0.00430   0.00000   0.00385   0.00385   1.91488
   A33        1.91116   0.00377   0.00000   0.00333   0.00333   1.91449
   A34        1.91015  -0.00004   0.00000  -0.00009  -0.00008   1.91007
   A35        1.91015  -0.00037   0.00000  -0.00048  -0.00047   1.90968
   A36        1.91018  -0.00279   0.00000  -0.00224  -0.00225   1.90793
    D1        0.00000  -0.00629   0.00000  -0.00834  -0.00811  -0.00811
    D2        3.14159   0.00657   0.00000   0.00862   0.00839  -3.13320
    D3        2.10335  -0.00731   0.00000  -0.00944  -0.00923   2.09413
    D4       -1.03824   0.00556   0.00000   0.00751   0.00727  -1.03097
    D5       -2.10335  -0.00582   0.00000  -0.00782  -0.00758  -2.11093
    D6        1.03824   0.00705   0.00000   0.00913   0.00892   1.04716
    D7        0.00000   0.01872   0.00000   0.00645   0.00643   0.00643
    D8        3.14159   0.00593   0.00000   0.02395   0.02333  -3.11826
    D9        3.14159   0.03192   0.00000   0.02385   0.02446  -3.11714
   D10        0.00000   0.01913   0.00000   0.04134   0.04136   0.04136
   D11        2.09439   0.03944   0.00000   0.00971   0.01039   2.10479
   D12       -2.09435   0.00729   0.00000  -0.02576  -0.02424  -2.11860
   D13        0.00000   0.04480   0.00000   0.00000   0.00000   0.00000
   D14       -1.04720   0.02688   0.00000   0.02689   0.02704  -1.02016
   D15        1.04724  -0.00527   0.00000  -0.00858  -0.00760   1.03964
   D16        3.14159   0.03224   0.00000   0.01718   0.01665  -3.12495
   D17        1.04724   0.03954   0.00000   0.03916   0.03890   1.08614
   D18        3.14157   0.04466   0.00000   0.04499   0.04475  -3.09687
   D19       -1.04726   0.04190   0.00000   0.04185   0.04160  -1.00566
   D20       -3.13259  -0.00064   0.00000  -0.00459  -0.00437  -3.13696
   D21       -1.03826   0.00447   0.00000   0.00124   0.00147  -1.03679
   D22        1.05609   0.00172   0.00000  -0.00190  -0.00167   1.05442
   D23       -1.08102  -0.04569   0.00000  -0.04217  -0.04215  -1.12317
   D24        1.01331  -0.04058   0.00000  -0.03634  -0.03631   0.97700
   D25        3.10766  -0.04333   0.00000  -0.03948  -0.03946   3.06820
   D26        1.04715   0.05533   0.00000   0.05340   0.05314   1.10029
   D27       -2.09440   0.02993   0.00000   0.00000   0.00000  -2.09441
   D28       -1.05616   0.02707   0.00000   0.02857   0.02913  -1.02703
   D29        2.08547   0.00168   0.00000  -0.02483  -0.02401   2.06146
   D30       -3.10774   0.02444   0.00000   0.03869   0.03941  -3.06833
   D31        0.03389  -0.00095   0.00000  -0.01471  -0.01373   0.02016
   D32        0.00005   0.01375   0.00000   0.02832   0.02781   0.02786
   D33        3.14156   0.01310   0.00000   0.02747   0.02695  -3.11467
   D34       -3.14151  -0.01231   0.00000  -0.02648  -0.02597   3.11571
   D35        0.00000  -0.01297   0.00000  -0.02733  -0.02682  -0.02682
   D36        0.00008   0.00007   0.00000   0.00015   0.00015   0.00023
   D37        2.09443  -0.00033   0.00000  -0.00028  -0.00029   2.09414
   D38       -2.09436   0.00121   0.00000   0.00138   0.00138  -2.09298
   D39        3.14159  -0.00057   0.00000  -0.00068  -0.00068   3.14090
   D40       -1.04725  -0.00097   0.00000  -0.00112  -0.00112  -1.04837
   D41        1.04715   0.00057   0.00000   0.00054   0.00055   1.04770
         Item               Value     Threshold  Converged?
 Maximum Force            0.207582     0.000450     NO 
 RMS     Force            0.038166     0.000300     NO 
 Maximum Displacement     0.923506     0.001800     NO 
 RMS     Displacement     0.242885     0.001200     NO 
 Predicted change in Energy=-1.003116D-01
 GradGradGradGradGradGradGradGradGradGradGradGradGradGradGradGradGradGrad

                          Input orientation:                          
 ---------------------------------------------------------------------
 Center     Atomic      Atomic             Coordinates (Angstroms)
 Number     Number       Type             X           Y           Z
 ---------------------------------------------------------------------
      1          1           0        0.108555    4.058504    0.019617
      2          6           0        1.082654    3.576194    0.036592
      3          1           0        1.178447    2.918953   -0.826589
      4          1           0        1.181153    2.987514    0.947672
      5          6           0        2.199502    4.616490   -0.006639
      6          8           0        1.905102    5.794093   -0.060999
      7          7           0        3.444010    4.093857    0.001033
      8          1           0        3.490068    3.089496    0.028177
      9          6           0        4.764740    4.741602   -0.004867
     10          1           0        5.312462    4.437701    0.885375
     11          6           0        5.515497    4.248513   -1.243322
     12          1           0        4.980977    4.549702   -2.142005
     13          1           0        6.517869    4.671664   -1.259640
     14          1           0        5.588648    3.162348   -1.219610
     15          6           0        4.776171    6.279805   -0.022820
     16          8           0        4.303944    6.915381    0.904490
     17          7           0        5.375723    6.882852   -1.057416
     18          1           0        5.776849    6.339472   -1.798779
     19          6           0        5.468612    8.325612   -1.149988
     20          1           0        4.992313    8.771725   -0.281173
     21          1           0        6.515043    8.624941   -1.183245
     22          1           0        4.967160    8.668280   -2.053463
 ---------------------------------------------------------------------
                    Distance matrix (angstroms):
                    1          2          3          4          5
     1  H    0.000000
     2  C    1.087098   0.000000
     3  H    1.777445   1.089139   0.000000
     4  H    1.777293   1.089179   1.775587   0.000000
     5  C    2.164277   1.526903   2.143945   2.145065   0.000000
     6  O    2.499270   2.367493   3.062774   3.068942   1.215062
     7  N    3.335694   2.417693   2.682933   2.690844   1.349817
     8  H    3.517624   2.456132   2.470486   2.487360   1.999621
     9  C    4.706090   3.862338   4.105944   4.101982   2.568289
    10  H    5.289044   4.399307   4.725198   4.378886   3.243175
    11  C    5.555731   4.662648   4.555370   5.017680   3.558177
    12  H    5.352979   4.570659   4.341531   5.140544   3.507257
    13  H    6.564433   5.694017   5.636396   6.015740   4.496816
    14  H    5.689482   4.696093   4.434363   4.914640   3.882286
    15  C    5.169392   4.577675   4.988485   4.970431   3.066937
    16  O    5.152285   4.720183   5.360672   5.018150   3.247112
    17  N    6.072891   5.528225   5.777793   6.065348   4.040904
    18  H    6.374868   5.748022   5.812951   6.316568   4.356357
    19  C    6.950281   6.572791   6.909563   7.160850   5.074635
    20  H    6.793823   6.509989   7.006996   7.035062   5.014094
    21  H    7.958789   7.515897   7.820790   8.048091   6.006328
    22  H    7.010973   6.736992   6.993877   7.457329   5.316617
                    6          7          8          9         10
     6  O    0.000000
     7  N    2.294099   0.000000
     8  H    3.136067   1.005783   0.000000
     9  C    3.047691   1.471033   2.086944   0.000000
    10  H    3.787550   2.095568   2.423544   1.088525   0.000000
    11  C    4.101422   2.421446   2.657517   1.529884   2.146711
    12  H    3.916644   2.676317   3.010764   2.156604   3.047532
    13  H    4.896347   3.372205   3.650933   2.157037   2.471605
    14  H    4.673005   2.637641   2.442605   2.156031   2.476644
    15  C    2.912114   2.559998   3.440164   1.538350   2.122681
    16  O    2.818493   3.084918   4.008455   2.400954   2.675140
    17  N    3.771399   3.553916   4.373071   2.462947   3.123652
    18  H    4.278755   3.704625   4.373726   2.606851   3.322209
    19  C    4.504786   4.830282   5.720107   3.827776   4.391235
    20  H    4.294839   4.935518   5.885590   4.045989   4.499677
    21  H    5.524916   5.600401   6.423330   4.419554   4.822694
    22  H    4.648340   5.240829   6.134970   4.433567   5.162732
                   11         12         13         14         15
    11  C    0.000000
    12  H    1.088144   0.000000
    13  H    1.088151   1.776367   0.000000
    14  H    1.088884   1.773367   1.772877   0.000000
    15  C    2.482413   2.743382   2.673827   3.436709   0.000000
    16  O    3.632237   3.916113   3.823505   4.499725   1.219368
    17  N    2.644587   2.603026   2.496947   3.730120   1.339223
    18  H    2.179208   1.988590   1.902989   3.234962   2.039350
    19  C    4.078437   3.934384   3.803196   5.165129   2.436249
    20  H    4.653912   4.613924   4.482769   5.718513   2.514583
    21  H    4.489524   4.458716   3.954016   5.540709   3.141644
    22  H    4.526736   4.119552   4.359792   5.603289   3.140828
                   16         17         18         19         20
    16  O    0.000000
    17  N    2.235810   0.000000
    18  H    3.131898   1.002887   0.000000
    19  C    2.750652   1.448708   2.112035   0.000000
    20  H    2.307740   2.077835   2.972285   1.086608   0.000000
    21  H    3.488581   2.085368   2.479351   1.088908   1.775946
    22  H    3.501714   2.084895   2.478670   1.088642   1.775484
                   21         22
    21  H    0.000000
    22  H    1.776260   0.000000
 Stoichiometry    C6H12N2O2
 Framework group  C1[X(C6H12N2O2)]
 Deg. of freedom    60
 Full point group                 C1      NOp   1
 Largest Abelian subgroup         C1      NOp   1
 Largest concise Abelian subgroup C1      NOp   1
                         Standard orientation:                         
 ---------------------------------------------------------------------
 Center     Atomic      Atomic             Coordinates (Angstroms)
 Number     Number       Type             X           Y           Z
 ---------------------------------------------------------------------
      1          1           0        3.804332   -1.333535   -0.683098
      2          6           0        3.416003   -0.376271   -0.344531
      3          1           0        3.635881    0.389053   -1.087604
      4          1           0        3.888010   -0.105507    0.598976
      5          6           0        1.904441   -0.449693   -0.141493
      6          8           0        1.329780   -1.495175   -0.371943
      7          7           0        1.343948    0.707134    0.270337
      8          1           0        1.980431    1.476861    0.388697
      9          6           0       -0.049969    1.042785    0.599383
     10          1           0       -0.097969    1.384431    1.631788
     11          6           0       -0.480131    2.184974   -0.323065
     12          1           0       -0.441392    1.855628   -1.359447
     13          1           0       -1.494686    2.493675   -0.079233
     14          1           0        0.190210    3.033242   -0.193627
     15          6           0       -1.080583   -0.091313    0.464558
     16          8           0       -1.000602   -1.089344    1.160546
     17          7           0       -2.092317    0.089822   -0.393987
     18          1           0       -2.150116    0.928566   -0.940750
     19          6           0       -3.131726   -0.904101   -0.568641
     20          1           0       -2.933107   -1.748858    0.085311
     21          1           0       -4.099243   -0.471684   -0.318345
     22          1           0       -3.145409   -1.242691   -1.603199
 ---------------------------------------------------------------------
 Rotational constants (GHZ):      2.2206285      0.8569815      0.7062502
 Standard basis: 6-31G(d) (6D, 7F)
 There are   174 symmetry adapted basis functions of A   symmetry.
 Integral buffers will be    131072 words long.
 Raffenetti 1 integral format.
 Two-electron integral symmetry is turned on.
   174 basis functions,   328 primitive gaussians,   174 cartesian basis functions
    39 alpha electrons       39 beta electrons
       nuclear repulsion energy       563.5616808786 Hartrees.
 NAtoms=   22 NActive=   22 NUniq=   22 SFac= 7.50D-01 NAtFMM=   80 NAOKFM=F Big=F
 One-electron integrals computed using PRISM.
 NBasis=   174 RedAO= T  NBF=   174
 NBsUse=   174 1.00D-06 NBFU=   174
 Initial guess read from the read-write file.
 B after Tr=     0.000000    0.000000    0.000000
         Rot=    1.000000    0.000000    0.000000    0.000000 Ang=   0.00 deg.
 Initial guess orbital symmetries:
       Occupied  (A) (A) (A) (A) (A) (A) (A) (A) (A) (A) (A) (A)
                 (A) (A) (A) (A) (A) (A) (A) (A) (A) (A) (A) (A)
                 (A) (A) (A) (A) (A) (A) (A) (A) (A) (A) (A) (A)
                 (A) (A) (A)
       Virtual   (A) (A) (A) (A) (A) (A) (A) (A) (A) (A) (A) (A)
                 (A) (A) (A) (A) (A) (A) (A) (A) (A) (A) (A) (A)
                 (A) (A) (A) (A) (A) (A) (A) (A) (A) (A) (A) (A)
                 (A) (A) (A) (A) (A) (A) (A) (A) (A) (A) (A) (A)
                 (A) (A) (A) (A) (A) (A) (A) (A) (A) (A) (A) (A)
                 (A) (A) (A) (A) (A) (A) (A) (A) (A) (A) (A) (A)
                 (A) (A) (A) (A) (A) (A) (A) (A) (A) (A) (A) (A)
                 (A) (A) (A) (A) (A) (A) (A) (A) (A) (A) (A) (A)
                 (A) (A) (A) (A) (A) (A) (A) (A) (A) (A) (A) (A)
                 (A) (A) (A) (A) (A) (A) (A) (A) (A) (A) (A) (A)
                 (A) (A) (A) (A) (A) (A) (A) (A) (A) (A) (A) (A)
                 (A) (A) (A)
 Harris functional with IExCor=  205 diagonalized for initial guess.
 ExpMin= 1.61D-01 ExpMax= 5.48D+03 ExpMxC= 8.25D+02 IAcc=1 IRadAn=         1 AccDes= 0.00D+00
 HarFok:  IExCor=  205 AccDes= 0.00D+00 IRadAn=         1 IDoV= 1
 ScaDFX=  1.000000  1.000000  1.000000  1.000000
 FoFCou: FMM=F IPFlag=           0 FMFlag=      100000 FMFlg1=           0
         NFxFlg=           0 DoJE=T BraDBF=F KetDBF=T FulRan=T
         Omega=  0.000000  0.000000  1.000000  0.000000  0.000000 ICntrl=     500 IOpCl=  0
         NMat0=    1 NMatS0=    1 NMatT0=    0 NMatD0=    1 NMtDS0=    0 NMtDT0=    0
         I1Cent=           4 NGrid=           0.
 Petite list used in FoFCou.
 Requested convergence on RMS density matrix=1.00D-08 within 128 cycles.
 Requested convergence on MAX density matrix=1.00D-06.
 Requested convergence on             energy=1.00D-06.
 No special actions if energy rises.
 Integral accuracy reduced to 1.0D-05 until final iterations.
 Initial convergence to 1.0D-05 achieved.  Increase integral accuracy.
 SCF Done:  E(RHF) =  -492.821373242     A.U. after   15 cycles
             Convg  =    0.7575D-08             -V/T =  2.0019
 Calling FoFJK, ICntrl=      2127 FMM=F ISym2X=0 I1Cent= 0 IOpClX= 0 NMat=1 NMatS=1 NMatT=0.
 ***** Axes restored to original set *****
 -------------------------------------------------------------------
 Center     Atomic                   Forces (Hartrees/Bohr)
 Number     Number              X              Y              Z
 -------------------------------------------------------------------
      1        1           0.007724428    0.000290022   -0.000078919
      2        6           0.008391200   -0.002953118    0.001072902
      3        1          -0.002695871   -0.001569058    0.003297101
      4        1          -0.002707522   -0.001674341   -0.003372170
      5        6          -0.035238248    0.039030821   -0.000880702
      6        8           0.016969382   -0.032336248   -0.003632877
      7        7           0.014086896   -0.002788677    0.004924020
      8        1           0.000988482    0.010652707    0.001262222
      9        6           0.001858654    0.000119986   -0.022496405
     10        1          -0.004476923    0.003779516   -0.000784886
     11        6           0.002646213   -0.013483748    0.004074867
     12        1           0.001827965   -0.005518416    0.001760458
     13        1          -0.000550180   -0.008888004   -0.000974098
     14        1           0.002130607    0.002906625   -0.003739804
     15        6          -0.033177801    0.023257722    0.048794356
     16        8           0.020350168   -0.022670736   -0.021575909
     17        7           0.007548636   -0.001064481   -0.013411212
     18        1          -0.007415178    0.012897096    0.009330877
     19        6           0.000075770    0.002398391   -0.000305043
     20        1           0.002991995   -0.004454132   -0.006095229
     21        1          -0.003362940    0.001224766   -0.000311897
     22        1           0.002034266    0.000843308    0.003142347
 -------------------------------------------------------------------
 Cartesian Forces:  Max     0.048794356 RMS     0.013255860

 GradGradGradGradGradGradGradGradGradGradGradGradGradGradGradGradGradGrad
 Berny optimization.
 Using GEDIIS/GDIIS optimizer.
 Internal  Forces:  Max     0.040165516 RMS     0.009350901
 Search for a local minimum.
 Step number   2 out of a maximum of  108
 All quantities printed in internal units (Hartrees-Bohrs-Radians)
 Mixed Optimization -- RFO/linear search
 Update second derivatives using D2CorX and points    1    2
 DE= -4.12D-02 DEPred=-1.00D-01 R= 4.10D-01
 Trust test= 4.10D-01 RLast= 3.00D-01 DXMaxT set to 3.00D-01
 Use linear search instead of GDIIS.
     Eigenvalues ---    0.00370   0.00435   0.01044   0.01054   0.01346
     Eigenvalues ---    0.01431   0.01665   0.02551   0.02602   0.03184
     Eigenvalues ---    0.05582   0.05781   0.05811   0.06056   0.07193
     Eigenvalues ---    0.07412   0.07652   0.07699   0.15860   0.15999
     Eigenvalues ---    0.16000   0.16000   0.16000   0.16000   0.16000
     Eigenvalues ---    0.16000   0.16000   0.16000   0.16000   0.16264
     Eigenvalues ---    0.17418   0.22000   0.24415   0.24825   0.24970
     Eigenvalues ---    0.25000   0.29420   0.29832   0.30013   0.34743
     Eigenvalues ---    0.34809   0.34811   0.34814   0.34814   0.34814
     Eigenvalues ---    0.34816   0.34817   0.34818   0.34821   0.37245
     Eigenvalues ---    0.38378   0.45740   0.45968   0.56926   0.58266
     Eigenvalues ---    0.87577   0.91267   1.278861000.000001000.00000
     Eigenvalues --- 1000.000001000.000001000.000001000.000001000.00000
     Eigenvalues --- 1000.000001000.000001000.000001000.000001000.00000
     Eigenvalues --- 1000.000001000.000001000.000001000.000001000.00000
     Eigenvalues --- 1000.000001000.000001000.000001000.000001000.00000
     Eigenvalues --- 1000.000001000.000001000.000001000.000001000.00000
     Eigenvalues --- 1000.000001000.000001000.000001000.000001000.00000
     Eigenvalues --- 1000.000001000.000001000.000001000.000001000.00000
     Eigenvalues --- 1000.000001000.000001000.00000
 RFO step:  Lambda=-5.12253770D-02 EMin= 3.70064297D-03
 Quartic linear search produced a step of  0.34749.
 Maximum step size (   0.300) exceeded in Quadratic search.
    -- Step size scaled by   0.473
 Iteration  1 RMS(Cart)=  0.11259640 RMS(Int)=  0.00371925
 Iteration  2 RMS(Cart)=  0.00568896 RMS(Int)=  0.00046851
 Iteration  3 RMS(Cart)=  0.00001040 RMS(Int)=  0.00046843
 Iteration  4 RMS(Cart)=  0.00000001 RMS(Int)=  0.00046843
 Iteration  1 RMS(Cart)=  0.00020086 RMS(Int)=  0.00009014
 Iteration  2 RMS(Cart)=  0.00013755 RMS(Int)=  0.00009936
 Iteration  3 RMS(Cart)=  0.00009437 RMS(Int)=  0.00011442
 Iteration  4 RMS(Cart)=  0.00006481 RMS(Int)=  0.00012749
 Iteration  5 RMS(Cart)=  0.00004454 RMS(Int)=  0.00013740
 Iteration  6 RMS(Cart)=  0.00003062 RMS(Int)=  0.00014455
 Iteration  7 RMS(Cart)=  0.00002106 RMS(Int)=  0.00014960
 Iteration  8 RMS(Cart)=  0.00001449 RMS(Int)=  0.00015314
 Iteration  9 RMS(Cart)=  0.00000996 RMS(Int)=  0.00015559
 Iteration 10 RMS(Cart)=  0.00000686 RMS(Int)=  0.00015730
 Iteration 11 RMS(Cart)=  0.00000472 RMS(Int)=  0.00015847
 Iteration 12 RMS(Cart)=  0.00000325 RMS(Int)=  0.00015929
 Iteration 13 RMS(Cart)=  0.00000223 RMS(Int)=  0.00015985
 Iteration 14 RMS(Cart)=  0.00000154 RMS(Int)=  0.00016023
 Iteration 15 RMS(Cart)=  0.00000106 RMS(Int)=  0.00016050
 Iteration 16 RMS(Cart)=  0.00000073 RMS(Int)=  0.00016068
 Variable       Old X    -DE/DX   Delta X   Delta X   Delta X     New X
                                 (Linear)    (Quad)   (Total)
    R1        2.05432  -0.00679  -0.00189  -0.00951  -0.01140   2.04292
    R2        2.05817  -0.00190  -0.00056  -0.00265  -0.00320   2.05497
    R3        2.05825  -0.00216  -0.00053  -0.00307  -0.00360   2.05465
    R4        2.88543  -0.00379  -0.00199  -0.00583  -0.00781   2.87762
    R5        2.29613  -0.03529  -0.00920  -0.01437  -0.02356   2.27257
    R6        2.55078   0.00729   0.00973  -0.00068   0.00905   2.55983
    R7        1.90065  -0.01056  -0.00280  -0.01092  -0.01372   1.88694
    R8        2.77985  -0.01055   0.01448  -0.02466  -0.01018   2.76967
    R9        2.05701  -0.00395  -0.00095  -0.00562  -0.00657   2.05044
   R10        2.89106   0.01012   0.00319   0.01641   0.01960   2.91066
   R11        2.90706   0.01212   0.01073   0.01576   0.02649   2.93355
   R12        2.05629  -0.00388  -0.00119  -0.00536  -0.00655   2.04974
   R13        2.05631  -0.00395  -0.00123  -0.00545  -0.00668   2.04963
   R14        2.05769  -0.00284  -0.00068  -0.00404  -0.00472   2.05297
   R15        2.30427  -0.03611  -0.00637  -0.01752  -0.02389   2.28038
   R16        2.53076   0.01208   0.00273   0.00972   0.01245   2.54322
   R17        1.89518  -0.01685  -0.00465  -0.01729  -0.02194   1.87324
   R18        2.73766   0.00035  -0.00018   0.00063   0.00044   2.73811
   R19        2.05339  -0.00801  -0.00219  -0.01124  -0.01343   2.03996
   R20        2.05774  -0.00289  -0.00074  -0.00408  -0.00482   2.05292
   R21        2.05724  -0.00328  -0.00088  -0.00461  -0.00549   2.05174
    A1        1.91152   0.00002   0.00013  -0.00120  -0.00095   1.91057
    A2        1.91122   0.00007   0.00003  -0.00087  -0.00072   1.91050
    A3        1.93125  -0.00754  -0.00272  -0.02319  -0.02580   1.90545
    A4        1.90587  -0.00449  -0.00147  -0.01073  -0.01247   1.89340
    A5        1.90114   0.00600   0.00177   0.01811   0.01979   1.92093
    A6        1.90262   0.00599   0.00228   0.01809   0.02029   1.92291
    A7        2.07642   0.01302  -0.00928   0.03097   0.02148   2.09790
    A8        1.99372  -0.00601  -0.01441  -0.00642  -0.02103   1.97268
    A9        2.21292  -0.00704   0.02364  -0.02500  -0.00156   2.21135
   A10        2.01420  -0.00058  -0.02782   0.00906  -0.01936   1.99484
   A11        2.28798   0.00410   0.05570  -0.01035   0.04474   2.33272
   A12        1.98090  -0.00351  -0.02791   0.00045  -0.02808   1.95282
   A13        1.90239   0.00768  -0.00304  -0.00229  -0.00654   1.89585
   A14        1.87750  -0.01316  -0.02139  -0.01601  -0.03983   1.83767
   A15        2.03422  -0.01569   0.03309  -0.03162   0.00121   2.03542
   A16        1.90196  -0.00744   0.00204  -0.03609  -0.03435   1.86761
   A17        1.85977  -0.01117  -0.01262  -0.01995  -0.03201   1.82776
   A18        1.88513   0.04017   0.00130   0.10484   0.10721   1.99234
   A19        1.91590   0.00266   0.00165   0.01000   0.01143   1.92733
   A20        1.91649   0.00636   0.00188   0.02072   0.02239   1.93888
   A21        1.91435   0.00329   0.00113   0.00523   0.00637   1.92072
   A22        1.90973  -0.00124  -0.00013   0.00499   0.00445   1.91417
   A23        1.90401  -0.00460  -0.00216  -0.01749  -0.01964   1.88437
   A24        1.90323  -0.00662  -0.00241  -0.02392  -0.02633   1.87690
   A25        2.10532  -0.01439   0.00077  -0.03144  -0.03176   2.07356
   A26        2.05172   0.01838   0.00578   0.03476   0.03947   2.09119
   A27        2.12488  -0.00409  -0.00699  -0.00631  -0.01435   2.11054
   A28        2.10153   0.00420   0.00251   0.01204   0.01453   2.11606
   A29        2.12530  -0.00002  -0.00079   0.00023  -0.00057   2.12473
   A30        2.05636  -0.00418  -0.00172  -0.01228  -0.01401   2.04235
   A31        1.90675  -0.00303  -0.00152  -0.00960  -0.01110   1.89565
   A32        1.91488   0.00315   0.00134   0.00976   0.01107   1.92595
   A33        1.91449   0.00278   0.00116   0.00832   0.00945   1.92394
   A34        1.91007  -0.00029  -0.00003  -0.00129  -0.00129   1.90878
   A35        1.90968  -0.00049  -0.00016  -0.00261  -0.00275   1.90693
   A36        1.90793  -0.00212  -0.00078  -0.00462  -0.00548   1.90245
    D1       -0.00811  -0.00079  -0.00282  -0.01378  -0.01662  -0.02473
    D2       -3.13320   0.00084   0.00291   0.01420   0.01713  -3.11607
    D3        2.09413  -0.00160  -0.00321  -0.01806  -0.02143   2.07270
    D4       -1.03097   0.00003   0.00253   0.00993   0.01232  -1.01865
    D5       -2.11093  -0.00003  -0.00263  -0.00987  -0.01236  -2.12330
    D6        1.04716   0.00161   0.00310   0.01811   0.02138   1.06854
    D7        0.00643   0.00252   0.00224  -0.01137  -0.00893  -0.00250
    D8       -3.11826   0.00152   0.00811   0.05505   0.06301  -3.05525
    D9       -3.11714   0.00408   0.00850   0.01856   0.02721  -3.08993
   D10        0.04136   0.00308   0.01437   0.08498   0.09915   0.14051
   D11        2.10479   0.00161   0.00361  -0.05006  -0.04594   2.05885
   D12       -2.11860  -0.01043  -0.00842  -0.10313  -0.11018  -2.22878
   D13        0.00000   0.02120   0.00000   0.00000   0.00000   0.00000
   D14       -1.02016   0.00060   0.00940   0.01529   0.02467  -0.99548
   D15        1.03964  -0.01143  -0.00264  -0.03778  -0.03957   1.00007
   D16       -3.12495   0.02020   0.00578   0.06535   0.07061  -3.05434
   D17        1.08614  -0.00151   0.01352   0.00962   0.02243   1.10857
   D18       -3.09687   0.00262   0.01555   0.03505   0.05011  -3.04676
   D19       -1.00566   0.00046   0.01446   0.02170   0.03556  -0.97010
   D20       -3.13696  -0.00376  -0.00152  -0.02160  -0.02254   3.12368
   D21       -1.03679   0.00037   0.00051   0.00383   0.00514  -1.03165
   D22        1.05442  -0.00180  -0.00058  -0.00951  -0.00940   1.04501
   D23       -1.12317   0.00065  -0.01465  -0.00794  -0.02279  -1.14597
   D24        0.97700   0.00478  -0.01262   0.01749   0.00489   0.98189
   D25        3.06820   0.00262  -0.01371   0.00414  -0.00966   3.05855
   D26        1.10029   0.00097   0.01846   0.06265   0.08035   1.18064
   D27       -2.09441  -0.00096   0.00000   0.00000   0.00000  -2.09441
   D28       -1.02703   0.01001   0.01012   0.10196   0.11204  -0.91499
   D29        2.06146   0.00808  -0.00834   0.03931   0.03169   2.09315
   D30       -3.06833   0.00439   0.01369   0.10195   0.11662  -2.95171
   D31        0.02016   0.00246  -0.00477   0.03930   0.03627   0.05642
   D32        0.02786   0.00225   0.00966   0.04230   0.05186   0.07972
   D33       -3.11467   0.00132   0.00937   0.03307   0.04225  -3.07242
   D34        3.11571  -0.00002  -0.00902  -0.02190  -0.03073   3.08498
   D35       -0.02682  -0.00096  -0.00932  -0.03112  -0.04035  -0.06717
   D36        0.00023   0.00027   0.00005   0.00346   0.00348   0.00371
   D37        2.09414  -0.00002  -0.00010   0.00192   0.00175   2.09589
   D38       -2.09298   0.00105   0.00048   0.00748   0.00797  -2.08501
   D39        3.14090  -0.00063  -0.00024  -0.00553  -0.00573   3.13518
   D40       -1.04837  -0.00093  -0.00039  -0.00706  -0.00746  -1.05583
   D41        1.04770   0.00014   0.00019  -0.00150  -0.00124   1.04646
         Item               Value     Threshold  Converged?
 Maximum Force            0.036106     0.000450     NO 
 RMS     Force            0.008793     0.000300     NO 
 Maximum Displacement     0.411317     0.001800     NO 
 RMS     Displacement     0.112096     0.001200     NO 
 Predicted change in Energy=-8.567632D-03
 GradGradGradGradGradGradGradGradGradGradGradGradGradGradGradGradGradGrad

                          Input orientation:                          
 ---------------------------------------------------------------------
 Center     Atomic      Atomic             Coordinates (Angstroms)
 Number     Number       Type             X           Y           Z
 ---------------------------------------------------------------------
      1          1           0        0.119098    3.982505    0.033295
      2          6           0        1.101902    3.533475    0.067526
      3          1           0        1.202884    2.819889   -0.746802
      4          1           0        1.225082    3.002567    1.008340
      5          6           0        2.155431    4.625419   -0.061158
      6          8           0        1.823513    5.772539   -0.203202
      7          7           0        3.421308    4.143227   -0.059163
      8          1           0        3.482626    3.150393    0.027843
      9          6           0        4.744264    4.774006   -0.064291
     10          1           0        5.265328    4.493718    0.845248
     11          6           0        5.500949    4.121260   -1.236358
     12          1           0        5.013362    4.352287   -2.177319
     13          1           0        6.532766    4.454005   -1.268400
     14          1           0        5.508743    3.041229   -1.119279
     15          6           0        4.774848    6.326041   -0.074183
     16          8           0        4.385045    6.921519    0.900318
     17          7           0        5.370905    6.977132   -1.090061
     18          1           0        5.735391    6.487497   -1.871112
     19          6           0        5.498148    8.420443   -1.100103
     20          1           0        5.054547    8.811724   -0.197087
     21          1           0        6.545226    8.707089   -1.140556
     22          1           0        4.984136    8.836736   -1.961098
 ---------------------------------------------------------------------
                    Distance matrix (angstroms):
                    1          2          3          4          5
     1  H    0.000000
     2  C    1.081065   0.000000
     3  H    1.770542   1.087443   0.000000
     4  H    1.770365   1.087275   1.764763   0.000000
     5  C    2.137501   1.522769   2.153461   2.154768   0.000000
     6  O    2.482979   2.368000   3.065750   3.081996   1.202593
     7  N    3.307411   2.401560   2.673102   2.695196   1.354606
     8  H    3.464933   2.411674   2.430336   2.465711   1.986220
     9  C    4.693416   3.850077   4.101922   4.083280   2.593095
    10  H    5.234910   4.342929   4.673305   4.309724   3.241971
    11  C    5.531328   4.625713   4.517365   4.957134   3.581586
    12  H    5.383063   4.583590   4.349065   5.130422   3.566582
    13  H    6.561392   5.668012   5.599111   5.954976   4.543994
    14  H    5.591306   4.590323   4.327604   4.783097   3.856680
    15  C    5.213417   4.616172   5.050193   4.981784   3.123080
    16  O    5.252412   4.790763   5.446330   5.035396   3.341808
    17  N    6.149081   5.605638   5.896855   6.114598   4.114422
    18  H    6.437740   5.826988   5.937932   6.385834   4.422599
    19  C    7.064988   6.676286   7.066846   7.215123   5.162883
    20  H    6.908914   6.599495   7.144199   7.061457   5.093967
    21  H    8.061931   7.606282   7.959572   8.090937   6.090601
    22  H    7.156099   6.878346   7.209357   7.548880   5.417244
                    6          7          8          9         10
     6  O    0.000000
     7  N    2.286559   0.000000
     8  H    3.111540   0.998524   0.000000
     9  C    3.089846   1.465647   2.058236   0.000000
    10  H    3.818471   2.083558   2.377120   1.085048   0.000000
    11  C    4.161450   2.389806   2.571850   1.540257   2.127751
    12  H    4.011158   2.657992   2.941163   2.171439   3.036346
    13  H    5.005022   3.352612   3.561321   2.179684   2.464849
    14  H    4.677625   2.587592   2.330871   2.167936   2.455268
    15  C    3.005559   2.568457   3.430013   1.552368   2.107921
    16  O    3.016513   3.093266   3.974539   2.381453   2.583050
    17  N    3.849877   3.590919   4.411263   2.509711   3.150225
    18  H    4.312293   3.759487   4.451657   2.680110   3.402165
    19  C    4.617225   4.867381   5.753957   3.864939   4.388367
    20  H    4.435794   4.947864   5.879813   4.051800   4.447030
    21  H    5.637800   5.635345   6.451476   4.457685   4.830533
    22  H    4.740152   5.299888   6.208456   4.490122   5.178461
                   11         12         13         14         15
    11  C    0.000000
    12  H    1.084676   0.000000
[...]
    16  O    4.813447   4.271447   5.044031   4.194574   3.083447
    17  N    5.826975   5.347294   5.913544   5.666874   3.853566
    18  H    5.965508   5.499227   5.930768   5.976217   3.990099
    19  C    6.506035   6.201798   6.918179   6.470211   4.765433
    20  H    6.925245   6.571590   7.344096   6.667913   5.211104
    21  H    7.393123   7.105440   7.759020   7.449567   5.633920
    22  H    6.017738   5.885341   6.684254   6.201281   4.532848
                    6          7          8          9         10
     6  O    0.000000
     7  N    2.255147   0.000000
     8  H    3.087623   0.996541   0.000000
     9  C    2.940847   1.464218   2.054681   0.000000
    10  H    3.709587   2.065693   2.233207   1.083726   0.000000
    11  C    3.974501   2.443021   2.855058   1.528639   2.135828
    12  H    3.800050   2.713626   3.289455   2.171697   3.047697
    13  H    4.763490   3.395087   3.795531   2.173854   2.487893
    14  H    4.579171   2.663470   2.701334   2.150571   2.455389
    15  C    2.697317   2.501956   3.307264   1.539820   2.062431
    16  O    2.876605   3.027327   3.707096   2.363088   2.481009
    17  N    3.397167   3.513877   4.385772   2.475995   3.123523
    18  H    3.565691   3.555265   4.430738   2.621422   3.451000
    19  C    4.029947   4.729898   5.636801   3.822169   4.366036
    20  H    4.569122   5.145922   5.970773   4.144442   4.439135
    21  H    4.881659   5.515770   6.426507   4.542058   5.125407
    22  H    3.595393   4.806490   5.760289   4.200205   4.840519
                   11         12         13         14         15
    11  C    0.000000
    12  H    1.085034   0.000000
    13  H    1.084294   1.769756   0.000000
    14  H    1.084834   1.745183   1.754626   0.000000
    15  C    2.600964   2.937885   2.837559   3.515150   0.000000
    16  O    3.674948   4.099486   3.885750   4.475393   1.198210
    17  N    2.844974   2.870101   2.777637   3.916918   1.352177
    18  H    2.495866   2.205379   2.475868   3.566828   2.013730
    19  C    4.291557   4.232605   4.132164   5.366176   2.417957
    20  H    4.783068   4.937396   4.518535   5.816150   2.673264
    21  H    4.693138   4.508534   4.381477   5.773780   3.298348
    22  H    4.829954   4.643166   4.877063   5.881308   2.780525
                   16         17         18         19         20
    16  O    0.000000
    17  N    2.239794   0.000000
    18  H    3.088784   0.993621   0.000000
    19  C    2.733436   1.450323   2.091152   0.000000
    20  H    2.602334   2.075854   2.921555   1.079512   0.000000
    21  H    3.769792   2.067280   2.317098   1.082309   1.760286
    22  H    2.911217   2.109028   2.629564   1.084207   1.756584
                   21         22
    21  H    0.000000
    22  H    1.768644   0.000000
 Stoichiometry    C6H12N2O2
 Framework group  C1[X(C6H12N2O2)]
 Deg. of freedom    60
 Full point group                 C1      NOp   1
 Largest Abelian subgroup         C1      NOp   1
 Largest concise Abelian subgroup C1      NOp   1
                         Standard orientation:                         
 ---------------------------------------------------------------------
 Center     Atomic      Atomic             Coordinates (Angstroms)
 Number     Number       Type             X           Y           Z
 ---------------------------------------------------------------------
      1          1           0        3.554253   -1.579360   -0.548883
      2          6           0        3.236725   -0.709946    0.007236
      3          1           0        3.856276    0.139791   -0.259772
      4          1           0        3.365384   -0.903910    1.067861
      5          6           0        1.773900   -0.450535   -0.278751
      6          8           0        1.069736   -1.262370   -0.802258
      7          7           0        1.340110    0.809191    0.046990
      8          1           0        2.022092    1.359459    0.521541
      9          6           0       -0.022043    1.164248    0.449990
     10          1           0        0.013864    1.453118    1.493890
     11          6           0       -0.497605    2.364241   -0.368907
     12          1           0       -0.509570    2.136523   -1.429708
     13          1           0       -1.485007    2.689036   -0.060297
     14          1           0        0.186868    3.194147   -0.228846
     15          6           0       -0.970075   -0.048779    0.479103
     16          8           0       -0.820819   -0.877615    1.331429
     17          7           0       -2.054817   -0.016359   -0.327535
     18          1           0       -1.993441    0.528058   -1.156466
     19          6           0       -2.936376   -1.167022   -0.375125
     20          1           0       -3.268772   -1.405759    0.623807
     21          1           0       -3.796343   -0.917056   -0.982880
     22          1           0       -2.441152   -2.037220   -0.791074
 ---------------------------------------------------------------------
 Rotational constants (GHZ):      2.0152728      0.9450489      0.7569365

 **********************************************************************

            Population analysis using the SCF density.

 **********************************************************************

 Orbital symmetries:
       Occupied  (A) (A) (A) (A) (A) (A) (A) (A) (A) (A) (A) (A)
                 (A) (A) (A) (A) (A) (A) (A) (A) (A) (A) (A) (A)
                 (A) (A) (A) (A) (A) (A) (A) (A) (A) (A) (A) (A)
                 (A) (A) (A)
       Virtual   (A) (A) (A) (A) (A) (A) (A) (A) (A) (A) (A) (A)
                 (A) (A) (A) (A) (A) (A) (A) (A) (A) (A) (A) (A)
                 (A) (A) (A) (A) (A) (A) (A) (A) (A) (A) (A) (A)
                 (A) (A) (A) (A) (A) (A) (A) (A) (A) (A) (A) (A)
                 (A) (A) (A) (A) (A) (A) (A) (A) (A) (A) (A) (A)
                 (A) (A) (A) (A) (A) (A) (A) (A) (A) (A) (A) (A)
                 (A) (A) (A) (A) (A) (A) (A) (A) (A) (A) (A) (A)
                 (A) (A) (A) (A) (A) (A) (A) (A) (A) (A) (A) (A)
                 (A) (A) (A) (A) (A) (A) (A) (A) (A) (A) (A) (A)
                 (A) (A) (A) (A) (A) (A) (A) (A) (A) (A) (A) (A)
                 (A) (A) (A) (A) (A) (A) (A) (A) (A) (A) (A) (A)
                 (A) (A) (A)
 The electronic state is 1-A.
 Alpha  occ. eigenvalues --  -20.52433 -20.51215 -15.58633 -15.57819 -11.34842
 Alpha  occ. eigenvalues --  -11.34082 -11.28530 -11.24680 -11.23181 -11.23112
 Alpha  occ. eigenvalues --   -1.39664  -1.38058  -1.23823  -1.22470  -1.05688
 Alpha  occ. eigenvalues --   -0.99333  -0.94693  -0.88506  -0.80212  -0.77266
 Alpha  occ. eigenvalues --   -0.70829  -0.68826  -0.65354  -0.63768  -0.62192
 Alpha  occ. eigenvalues --   -0.61151  -0.59812  -0.57684  -0.57154  -0.56338
 Alpha  occ. eigenvalues --   -0.54701  -0.54392  -0.53222  -0.52162  -0.49428
 Alpha  occ. eigenvalues --   -0.41707  -0.41114  -0.39159  -0.38324
 Alpha virt. eigenvalues --    0.18696   0.19548   0.22477   0.24012   0.26184
 Alpha virt. eigenvalues --    0.28143   0.29365   0.30176   0.31032   0.31299
 Alpha virt. eigenvalues --    0.31961   0.33617   0.34614   0.35137   0.37816
 Alpha virt. eigenvalues --    0.39057   0.39558   0.44967   0.46707   0.50717
 Alpha virt. eigenvalues --    0.53268   0.59644   0.63141   0.70953   0.73837
 Alpha virt. eigenvalues --    0.74954   0.75586   0.76728   0.78707   0.80812
 Alpha virt. eigenvalues --    0.81938   0.82826   0.84515   0.85376   0.90035
 Alpha virt. eigenvalues --    0.92306   0.94967   0.96503   0.98352   0.98508
 Alpha virt. eigenvalues --    1.02178   1.03616   1.04816   1.06999   1.10105
 Alpha virt. eigenvalues --    1.12492   1.13951   1.14052   1.14261   1.15889
 Alpha virt. eigenvalues --    1.16886   1.17712   1.19613   1.19879   1.20112
 Alpha virt. eigenvalues --    1.21579   1.22767   1.23205   1.24053   1.27113
 Alpha virt. eigenvalues --    1.28320   1.32348   1.33376   1.39822   1.44655
 Alpha virt. eigenvalues --    1.46949   1.52029   1.52976   1.56485   1.61042
 Alpha virt. eigenvalues --    1.62409   1.66517   1.72892   1.73272   1.76004
 Alpha virt. eigenvalues --    1.79387   1.85569   1.88302   1.92075   2.00138
 Alpha virt. eigenvalues --    2.00973   2.03604   2.08534   2.11349   2.12736
 Alpha virt. eigenvalues --    2.14666   2.16125   2.19798   2.23237   2.24213
 Alpha virt. eigenvalues --    2.27402   2.28592   2.31318   2.35898   2.36873
 Alpha virt. eigenvalues --    2.38835   2.41469   2.42706   2.45020   2.49584
 Alpha virt. eigenvalues --    2.54364   2.55563   2.56336   2.61024   2.64591
 Alpha virt. eigenvalues --    2.66633   2.69690   2.73307   2.77496   2.77872
 Alpha virt. eigenvalues --    2.81720   2.85191   2.86848   2.91813   2.97256
 Alpha virt. eigenvalues --    3.03197   3.07429   3.08373   3.10974   3.25460
 Alpha virt. eigenvalues --    3.34606   3.38207   3.41362   3.54161   3.56133
 Alpha virt. eigenvalues --    4.37669   4.42110   4.49701   4.59535   4.64484
 Alpha virt. eigenvalues --    4.68602   4.77918   4.78984   4.91652   5.13870
          Condensed to atoms (all electrons):
              1          2          3          4          5          6
     1  H    0.461772   0.382702  -0.020606  -0.016757  -0.031945   0.003922
     2  C    0.382702   5.284553   0.375341   0.374110   0.368985  -0.071263
     3  H   -0.020606   0.375341   0.522436  -0.025313  -0.035488   0.001693
     4  H   -0.016757   0.374110  -0.025313   0.493642  -0.027541   0.000394
     5  C   -0.031945   0.368985  -0.035488  -0.027541   4.134233   0.612610
     6  O    0.003922  -0.071263   0.001693   0.000394   0.612610   8.134504
     7  N    0.004433  -0.123565   0.004467   0.000932   0.259265  -0.098989
     8  H    0.000096   0.000992  -0.000151  -0.000071  -0.024091   0.002960
     9  C   -0.000093   0.004019   0.000149  -0.000217  -0.024635   0.001692
    10  H   -0.000002  -0.000017  -0.000008   0.000036   0.001650   0.000256
    11  C    0.000004  -0.000198  -0.000005   0.000003   0.000659  -0.000384
    12  H    0.000000   0.000008  -0.000001   0.000000   0.000341   0.000104
    13  H    0.000000   0.000002   0.000000   0.000000   0.000009   0.000004
    14  H    0.000000  -0.000002   0.000000   0.000000  -0.000051  -0.000007
    15  C    0.000003   0.000011  -0.000005  -0.000010  -0.000502   0.009985
    16  O    0.000002  -0.000279  -0.000001   0.000079   0.005977  -0.007049
    17  N    0.000000  -0.000024   0.000000   0.000001   0.000112  -0.002473
    18  H    0.000000   0.000002   0.000000   0.000000  -0.000081   0.000231
    19  C    0.000000   0.000000   0.000000   0.000000  -0.000013  -0.000244
    20  H    0.000000   0.000000   0.000000   0.000000  -0.000002   0.000007
    21  H    0.000000   0.000000   0.000000   0.000000   0.000000  -0.000002
    22  H    0.000000   0.000001   0.000000   0.000000   0.000004   0.000483
              7          8          9         10         11         12
     1  H    0.004433   0.000096  -0.000093  -0.000002   0.000004   0.000000
     2  C   -0.123565   0.000992   0.004019  -0.000017  -0.000198   0.000008
     3  H    0.004467  -0.000151   0.000149  -0.000008  -0.000005  -0.000001
     4  H    0.000932  -0.000071  -0.000217   0.000036   0.000003   0.000000
     5  C    0.259265  -0.024091  -0.024635   0.001650   0.000659   0.000341
     6  O   -0.098989   0.002960   0.001692   0.000256  -0.000384   0.000104
     7  N    7.383937   0.325672   0.189026  -0.044243  -0.075260   0.000406
     8  H    0.325672   0.348952  -0.027546  -0.004446   0.000053  -0.000037
     9  C    0.189026  -0.027546   5.015261   0.418188   0.318149  -0.033423
    10  H   -0.044243  -0.004446   0.418188   0.504200  -0.050276   0.004158
    11  C   -0.075260   0.000053   0.318149  -0.050276   5.188026   0.382248
    12  H    0.000406  -0.000037  -0.033423   0.004158   0.382248   0.525644
    13  H    0.004723  -0.000133  -0.037911   0.000172   0.385363  -0.024461
    14  H   -0.002115   0.001241  -0.029166  -0.003890   0.389071  -0.025814
    15  C   -0.030684   0.003161   0.397642  -0.038263  -0.048425  -0.002557
    16  O   -0.000141  -0.000279  -0.072941   0.002110   0.003165  -0.000036
    17  N    0.001634  -0.000127  -0.100667   0.002014   0.000426  -0.000840
    18  H   -0.000043  -0.000002  -0.001775   0.000205  -0.000837   0.002861
    19  C   -0.000062   0.000003   0.004615  -0.000157  -0.000137  -0.000073
    20  H   -0.000004   0.000000   0.000036   0.000022  -0.000024   0.000001
    21  H    0.000000   0.000000   0.000023   0.000004  -0.000030   0.000010
    22  H    0.000012   0.000000  -0.000228  -0.000010   0.000016  -0.000006
             13         14         15         16         17         18
     1  H    0.000000   0.000000   0.000003   0.000002   0.000000   0.000000
     2  C    0.000002  -0.000002   0.000011  -0.000279  -0.000024   0.000002
     3  H    0.000000   0.000000  -0.000005  -0.000001   0.000000   0.000000
     4  H    0.000000   0.000000  -0.000010   0.000079   0.000001   0.000000
     5  C    0.000009  -0.000051  -0.000502   0.005977   0.000112  -0.000081
     6  O    0.000004  -0.000007   0.009985  -0.007049  -0.002473   0.000231
     7  N    0.004723  -0.002115  -0.030684  -0.000141   0.001634  -0.000043
     8  H   -0.000133   0.001241   0.003161  -0.000279  -0.000127  -0.000002
     9  C   -0.037911  -0.029166   0.397642  -0.072941  -0.100667  -0.001775
    10  H    0.000172  -0.003890  -0.038263   0.002110   0.002014   0.000205
    11  C    0.385363   0.389071  -0.048425   0.003165   0.000426  -0.000837
    12  H   -0.024461  -0.025814  -0.002557  -0.000036  -0.000840   0.002861
    13  H    0.517194  -0.023943  -0.001127  -0.000062   0.001099  -0.001199
    14  H   -0.023943   0.519960   0.003198  -0.000060   0.000143   0.000046
    15  C   -0.001127   0.003198   4.112287   0.564842   0.299505  -0.017331
    16  O   -0.000062  -0.000060   0.564842   8.201124  -0.097108   0.002693
    17  N    0.001099   0.000143   0.299505  -0.097108   7.283894   0.320229
    18  H   -0.001199   0.000046  -0.017331   0.002693   0.320229   0.335543
    19  C   -0.000064   0.000005  -0.033407   0.007383   0.209046  -0.025424
    20  H   -0.000012   0.000000  -0.004005   0.003959  -0.038047   0.003228
    21  H   -0.000001   0.000000   0.004674   0.000418  -0.039475  -0.003885
    22  H    0.000006   0.000000  -0.002531   0.001326  -0.046359   0.000229
             19         20         21         22
     1  H    0.000000   0.000000   0.000000   0.000000
     2  C    0.000000   0.000000   0.000000   0.000001
     3  H    0.000000   0.000000   0.000000   0.000000
     4  H    0.000000   0.000000   0.000000   0.000000
     5  C   -0.000013  -0.000002   0.000000   0.000004
     6  O   -0.000244   0.000007  -0.000002   0.000483
     7  N   -0.000062  -0.000004   0.000000   0.000012
     8  H    0.000003   0.000000   0.000000   0.000000
     9  C    0.004615   0.000036   0.000023  -0.000228
    10  H   -0.000157   0.000022   0.000004  -0.000010
    11  C   -0.000137  -0.000024  -0.000030   0.000016
    12  H   -0.000073   0.000001   0.000010  -0.000006
    13  H   -0.000064  -0.000012  -0.000001   0.000006
    14  H    0.000005   0.000000   0.000000   0.000000
    15  C   -0.033407  -0.004005   0.004674  -0.002531
    16  O    0.007383   0.003959   0.000418   0.001326
    17  N    0.209046  -0.038047  -0.039475  -0.046359
    18  H   -0.025424   0.003228  -0.003885   0.000229
    19  C    4.915700   0.402617   0.396688   0.405609
    20  H    0.402617   0.486650  -0.025511  -0.030742
    21  H    0.396688  -0.025511   0.535440  -0.031683
    22  H    0.405609  -0.030742  -0.031683   0.513087
 Mulliken atomic charges:
              1
     1  H    0.216469
     2  C   -0.595377
     3  H    0.177490
     4  H    0.200714
     5  C    0.760504
     6  O   -0.588435
     7  N   -0.799400
     8  H    0.373752
     9  C   -0.020200
    10  H    0.208297
    11  C   -0.491609
    12  H    0.171466
    13  H    0.180342
    14  H    0.171385
    15  C    0.783541
    16  O   -0.615121
    17  N   -0.792985
    18  H    0.385309
    19  C   -0.282085
    20  H    0.201827
    21  H    0.163330
    22  H    0.190787
 Sum of Mulliken atomic charges =   0.00000
 Mulliken charges with hydrogens summed into heavy atoms:
              1
     2  C   -0.000705
     5  C    0.760504
     6  O   -0.588435
     7  N   -0.425648
     9  C    0.188097
    11  C    0.031583
    15  C    0.783541
    16  O   -0.615121
    17  N   -0.407676
    19  C    0.273860
 Sum of Mulliken charges with hydrogens summed into heavy atoms =   0.00000
 Electronic spatial extent (au):  <R**2>=           1649.9301
 Charge=              0.0000 electrons
 Dipole moment (field-independent basis, Debye):
    X=              0.9438    Y=              4.2384    Z=             -0.8005  Tot=              4.4154
 Quadrupole moment (field-independent basis, Debye-Ang):
   XX=            -47.5792   YY=            -61.7170   ZZ=            -63.2477
   XY=              2.1419   XZ=              6.8855   YZ=              2.0710
 Traceless Quadrupole moment (field-independent basis, Debye-Ang):
   XX=              9.9354   YY=             -4.2024   ZZ=             -5.7330
   XY=              2.1419   XZ=              6.8855   YZ=              2.0710
 Octapole moment (field-independent basis, Debye-Ang**2):
  XXX=             11.7321  YYY=              2.7825  ZZZ=             -4.2392  XYY=             -0.3969
  XXY=             -8.1855  XXZ=             -3.1956  XZZ=             -1.2651  YZZ=              5.8512
  YYZ=              3.0968  XYZ=             -0.9391
 Hexadecapole moment (field-independent basis, Debye-Ang**3):
 XXXX=          -1260.7568 YYYY=           -591.7123 ZZZZ=           -205.9010 XXXY=             19.4619
 XXXZ=             14.9343 YYYX=             13.1393 YYYZ=              7.0853 ZZZX=              9.7774
 ZZZY=              4.0327 XXYY=           -306.1556 XXZZ=           -250.5073 YYZZ=           -136.9147
 XXYZ=              3.2944 YYXZ=              8.0089 ZZXY=             -3.7385
 N-N= 5.692360844503D+02 E-N=-2.294152381304D+03  KE= 4.921129697529D+02
 1\1\GINC-RODAN\FOpt\RHF\6-31G(d)\C6H12N2O2\STEBOSS\09-Feb-2017\0\\# HF
 /6-31G* Opt=(ModRedundant) geom=nocrowd\\Phi Psi fixed scan\\0,1\H,0.1
 937129636,4.3131668594,-0.2295656251\C,1.1054742254,3.8515567,0.119118
 6258\H,1.1436140634,2.8205826328,-0.2167806579\H,1.1091881652,3.855152
 6778,1.2049700238\C,2.2860720451,4.6511820918,-0.3865744341\O,2.167980
 5139,5.7511031811,-0.839575893\N,3.4867520739,3.9893879777,-0.34673772
 63\H,3.4418312791,3.1009319774,0.1023962847\C,4.800407154,4.6154224608
 ,-0.1844878076\H,5.1805662741,4.3234999511,0.7874808924\C,5.7520371179
 ,4.0845722637,-1.2565579414\H,5.3902567422,4.3159762789,-2.2529844935\
 H,6.7513101141,4.4874904416,-1.134882526\H,5.8154796196,3.0040598303,-
 1.1835334089\C,4.718469762,6.1477244286,-0.0564936511\O,4.2530600346,6
 .6194363683,0.9417993912\N,5.3653628846,6.889877394,-0.9833819505\H,5.
 4974235717,6.4873106577,-1.8821498186\C,5.2587855276,8.3354081261,-0.9
 332013736\H,5.5588511822,8.683485075,0.0436047673\H,5.9231945991,8.755
 7008973,-1.6770473875\H,4.2456700868,8.6716717287,-1.12301529\\Version
 =EM64L-G09RevA.02\State=1-A\HF=-492.8391764\RMSD=2.985e-09\RMSF=3.120e
 -03\Dipole=0.7384543,-1.4696087,-0.5591441\Quadrupole=-0.1895608,3.613
 6514,-3.4240905,4.5255862,-3.4695869,-5.2374828\PG=C01 [X(C6H12N2O2)]\
 \@


 WHEN A MATHEMATICIAN ENGAGED IN INVESTIGATING
 PHYSICAL ACTIONS AND RESULTS HAS ARRIVED AT HIS
 CONCLUSIONS, MAY THEY NOT BE EXPRESSED IN COMMON
 LANGUAGE AS FULLY, CLEARLY, AND DEFINITELY AS IN
 MATHEMATICAL FORMULAE?
           - LETTER FROM M. FARADAY TO J.C. MAXWELL, 1857.
 Job cpu time:  0 days  0 hours 24 minutes 21.1 seconds.
 File lengths (MBytes):  RWF=     25 Int=      0 D2E=      0 Chk=      3 Scr=      1
 Normal termination of Gaussian 09 at Thu Feb  9 13:16:30 2017.
