 Entering Gaussian System, Link 0=g09
 Initial command:
 /home/steboss/Software/g09/l1.exe /tmp/Gau-17881.inp -scrdir=/tmp/
 Entering Link 1 = /home/steboss/Software/g09/l1.exe PID=     17883.
  
 Copyright (c) 1988,1990,1992,1993,1995,1998,2003,2009, Gaussian, Inc.
                  All Rights Reserved.
  
 This is part of the Gaussian(R) 09 program.  It is based on
 the Gaussian(R) 03 system (copyright 2003, Gaussian, Inc.),
 the Gaussian(R) 98 system (copyright 1998, Gaussian, Inc.),
 the Gaussian(R) 94 system (copyright 1995, Gaussian, Inc.),
 the Gaussian 92(TM) system (copyright 1992, Gaussian, Inc.),
 the Gaussian 90(TM) system (copyright 1990, Gaussian, Inc.),
 the Gaussian 88(TM) system (copyright 1988, Gaussian, Inc.),
 the Gaussian 86(TM) system (copyright 1986, Carnegie Mellon
 University), and the Gaussian 82(TM) system (copyright 1983,
 Carnegie Mellon University). Gaussian is a federally registered
 trademark of Gaussian, Inc.
  
 This software contains proprietary and confidential information,
 including trade secrets, belonging to Gaussian, Inc.
  
 This software is provided under written license and may be
 used, copied, transmitted, or stored only in accord with that
 written license.
  
 The following legend is applicable only to US Government
 contracts under FAR:
  
                    RESTRICTED RIGHTS LEGEND
  
 Use, reproduction and disclosure by the US Government is
 subject to restrictions as set forth in subparagraphs (a)
 and (c) of the Commercial Computer Software - Restricted
 Rights clause in FAR 52.227-19.
  
 Gaussian, Inc.
 340 Quinnipiac St., Bldg. 40, Wallingford CT 06492
  
  
 ---------------------------------------------------------------
 Warning -- This program may not be used in any manner that
 competes with the business of Gaussian, Inc. or will provide
 assistance to any competitor of Gaussian, Inc.  The licensee
 of this program is prohibited from giving any competitor of
 Gaussian, Inc. access to this program.  By using this program,
 the user acknowledges that Gaussian, Inc. is engaged in the
 business of creating and licensing software in the field of
 computational chemistry and represents and warrants to the
 licensee that it is not a competitor of Gaussian, Inc. and that
 it will not use this program in any manner prohibited above.
 ---------------------------------------------------------------
  

 Cite this work as:
 Gaussian 09, Revision A.02,
 M. J. Frisch, G. W. Trucks, H. B. Schlegel, G. E. Scuseria, 
 M. A. Robb, J. R. Cheeseman, G. Scalmani, V. Barone, B. Mennucci, 
 G. A. Petersson, H. Nakatsuji, M. Caricato, X. Li, H. P. Hratchian, 
 A. F. Izmaylov, J. Bloino, G. Zheng, J. L. Sonnenberg, M. Hada, 
 M. Ehara, K. Toyota, R. Fukuda, J. Hasegawa, M. Ishida, T. Nakajima, 
 Y. Honda, O. Kitao, H. Nakai, T. Vreven, J. A. Montgomery, Jr., 
 J. E. Peralta, F. Ogliaro, M. Bearpark, J. J. Heyd, E. Brothers, 
 K. N. Kudin, V. N. Staroverov, R. Kobayashi, J. Normand, 
 K. Raghavachari, A. Rendell, J. C. Burant, S. S. Iyengar, J. Tomasi, 
 M. Cossi, N. Rega, J. M. Millam, M. Klene, J. E. Knox, J. B. Cross, 
 V. Bakken, C. Adamo, J. Jaramillo, R. Gomperts, R. E. Stratmann, 
 O. Yazyev, A. J. Austin, R. Cammi, C. Pomelli, J. W. Ochterski, 
 R. L. Martin, K. Morokuma, V. G. Zakrzewski, G. A. Voth, 
 P. Salvador, J. J. Dannenberg, S. Dapprich, A. D. Daniels, 
 O. Farkas, J. B. Foresman, J. V. Ortiz, J. Cioslowski, 
 and D. J. Fox, Gaussian, Inc., Wallingford CT, 2009.
 
 ******************************************
 Gaussian 09:  EM64L-G09RevA.02 11-Jun-2009
                 9-Feb-2017 
 ******************************************
 %chk=structure_165.chk
 %NProcShared=8
 Will use up to    8 processors via shared memory.
 -------------------------------------------
 # HF/6-31G* Opt=(ModRedundant) geom=nocrowd
 -------------------------------------------
 1/18=120,19=15,38=1/1,3;
 2/9=110,12=1,17=6,18=5,40=1/2;
 3/5=1,6=6,7=1,11=9,16=1,25=1,30=1,71=1/1,2,3;
 4//1;
 5/5=2,38=5/2;
 6/7=2,8=2,9=2,10=2,28=1/1;
 7//1,2,3,16;
 1/18=20,19=15/3(2);
 2/9=110,12=1/2;
 99//99;
 2/9=110,12=1/2;
 3/5=1,6=6,7=1,11=9,16=1,25=1,30=1,71=1/1,2,3;
 4/5=5,16=3/1;
 5/5=2,38=5/2;
 7//1,2,3,16;
 1/18=20,19=15/3(-5);
 2/9=110,12=1/2;
 6/7=2,8=2,9=2,10=2,19=2,28=1/1;
 99/9=1/99;
 ------------------
 Phi Psi fixed scan
 ------------------
 Symbolic Z-matrix:
 Charge =  0 Multiplicity = 1
 H                     0.2496    4.5262    0. 
 C                     1.1178    3.8672    0. 
 H                     1.097     3.238    -0.8898 
 H                     1.097     3.238     0.8898 
 C                     2.4195    4.6711    0. 
 O                     2.3938    5.8999    0. 
 N                     3.5554    3.9697    0. 
 H                     3.5254    2.9601    0. 
 C                     4.8533    4.6139    0. 
 H                     5.4076    4.3155    0.8898 
 C                     5.6613    4.2208   -1.2322 
 H                     5.1233    4.5214   -2.1312 
 H                     6.6305    4.7189   -1.2058 
 H                     5.8085    3.1409   -1.2414 
 C                     4.7127    6.1294    0. 
 O                     3.6366    6.656    -0.2741 
 N                     5.8056    6.8311    0.309 
 H                     6.6679    6.3528    0.5272 
 C                     5.801     8.2797    0.3436 
 H                     4.8071    8.6467    0.0875 
 H                     6.0669    8.6206    1.3442 
 H                     6.5256    8.6631   -0.3748 
 
 The following ModRedundant input section has been read:
 D    5    7    9   15 F                                                       
 D    7    9   15   17 F                                                       

 GradGradGradGradGradGradGradGradGradGradGradGradGradGradGradGradGradGrad
 Berny optimization.
 Initialization pass.
                           ----------------------------
                           !    Initial Parameters    !
                           ! (Angstroms and Degrees)  !
 --------------------------                            --------------------------
 ! Name  Definition              Value          Derivative Info.                !
 --------------------------------------------------------------------------------
 ! R1    R(1,2)                  1.09           estimate D2E/DX2                !
 ! R2    R(2,3)                  1.09           estimate D2E/DX2                !
 ! R3    R(2,4)                  1.09           estimate D2E/DX2                !
 ! R4    R(2,5)                  1.5299         estimate D2E/DX2                !
 ! R5    R(5,6)                  1.2291         estimate D2E/DX2                !
 ! R6    R(5,7)                  1.335          estimate D2E/DX2                !
 ! R7    R(6,16)                 1.4803         estimate D2E/DX2                !
 ! R8    R(7,8)                  1.01           estimate D2E/DX2                !
 ! R9    R(7,9)                  1.449          estimate D2E/DX2                !
 ! R10   R(9,10)                 1.09           estimate D2E/DX2                !
 ! R11   R(9,11)                 1.525          estimate D2E/DX2                !
 ! R12   R(9,15)                 1.522          estimate D2E/DX2                !
 ! R13   R(11,12)                1.09           estimate D2E/DX2                !
 ! R14   R(11,13)                1.09           estimate D2E/DX2                !
 ! R15   R(11,14)                1.0899         estimate D2E/DX2                !
 ! R16   R(15,16)                1.229          estimate D2E/DX2                !
 ! R17   R(15,17)                1.335          estimate D2E/DX2                !
 ! R18   R(17,18)                1.0099         estimate D2E/DX2                !
 ! R19   R(17,19)                1.449          estimate D2E/DX2                !
 ! R20   R(19,20)                1.09           estimate D2E/DX2                !
 ! R21   R(19,21)                1.09           estimate D2E/DX2                !
 ! R22   R(19,22)                1.09           estimate D2E/DX2                !
 ! A1    A(1,2,3)              109.5001         estimate D2E/DX2                !
 ! A2    A(1,2,4)              109.5001         estimate D2E/DX2                !
 ! A3    A(1,2,5)              111.1015         estimate D2E/DX2                !
 ! A4    A(3,2,4)              109.4403         estimate D2E/DX2                !
 ! A5    A(3,2,5)              108.636          estimate D2E/DX2                !
 ! A6    A(4,2,5)              108.636          estimate D2E/DX2                !
 ! A7    A(2,5,6)              120.5004         estimate D2E/DX2                !
 ! A8    A(2,5,7)              116.6068         estimate D2E/DX2                !
 ! A9    A(6,5,7)              122.8928         estimate D2E/DX2                !
 ! A10   A(5,6,16)             119.5445         estimate D2E/DX2                !
 ! A11   A(5,7,8)              119.9926         estimate D2E/DX2                !
 ! A12   A(5,7,9)              121.9083         estimate D2E/DX2                !
 ! A13   A(8,7,9)              118.0991         estimate D2E/DX2                !
 ! A14   A(7,9,10)             109.5            estimate D2E/DX2                !
 ! A15   A(7,9,11)             111.0992         estimate D2E/DX2                !
 ! A16   A(7,9,15)             111.0966         estimate D2E/DX2                !
 ! A17   A(10,9,11)            108.6382         estimate D2E/DX2                !
 ! A18   A(10,9,15)            108.6373         estimate D2E/DX2                !
 ! A19   A(11,9,15)            107.7947         estimate D2E/DX2                !
 ! A20   A(9,11,12)            109.5007         estimate D2E/DX2                !
 ! A21   A(9,11,13)            109.4959         estimate D2E/DX2                !
 ! A22   A(9,11,14)            109.4978         estimate D2E/DX2                !
 ! A23   A(12,11,13)           109.441          estimate D2E/DX2                !
 ! A24   A(12,11,14)           109.4482         estimate D2E/DX2                !
 ! A25   A(13,11,14)           109.4436         estimate D2E/DX2                !
 ! A26   A(9,15,16)            120.4997         estimate D2E/DX2                !
 ! A27   A(9,15,17)            116.5985         estimate D2E/DX2                !
 ! A28   A(16,15,17)           122.9018         estimate D2E/DX2                !
 ! A29   A(6,16,15)            118.3561         estimate D2E/DX2                !
 ! A30   A(15,17,18)           120.0035         estimate D2E/DX2                !
 ! A31   A(15,17,19)           121.8963         estimate D2E/DX2                !
 ! A32   A(18,17,19)           118.1002         estimate D2E/DX2                !
 ! A33   A(17,19,20)           109.5046         estimate D2E/DX2                !
 ! A34   A(17,19,21)           109.4999         estimate D2E/DX2                !
 ! A35   A(17,19,22)           109.4988         estimate D2E/DX2                !
 ! A36   A(20,19,21)           109.4397         estimate D2E/DX2                !
 ! A37   A(20,19,22)           109.443          estimate D2E/DX2                !
 ! A38   A(21,19,22)           109.4414         estimate D2E/DX2                !
 ! D1    D(1,2,5,6)              0.0            estimate D2E/DX2                !
 ! D2    D(1,2,5,7)            180.0            estimate D2E/DX2                !
 ! D3    D(3,2,5,6)            120.5133         estimate D2E/DX2                !
 ! D4    D(3,2,5,7)            -59.4867         estimate D2E/DX2                !
 ! D5    D(4,2,5,6)           -120.5133         estimate D2E/DX2                !
 ! D6    D(4,2,5,7)             59.4867         estimate D2E/DX2                !
 ! D7    D(2,5,6,16)          -167.7114         estimate D2E/DX2                !
 ! D8    D(7,5,6,16)            12.2886         estimate D2E/DX2                !
 ! D9    D(2,5,7,8)              0.0            estimate D2E/DX2                !
 ! D10   D(2,5,7,9)            180.0            estimate D2E/DX2                !
 ! D11   D(6,5,7,8)            180.0            estimate D2E/DX2                !
 ! D12   D(6,5,7,9)              0.0            estimate D2E/DX2                !
 ! D13   D(5,6,16,15)          -27.2055         estimate D2E/DX2                !
 ! D14   D(5,7,9,10)           119.9998         estimate D2E/DX2                !
 ! D15   D(5,7,9,11)          -119.9976         estimate D2E/DX2                !
 ! D16   D(5,7,9,15)             0.0            Frozen                          !
 ! D17   D(8,7,9,10)           -60.0002         estimate D2E/DX2                !
 ! D18   D(8,7,9,11)            60.0024         estimate D2E/DX2                !
 ! D19   D(8,7,9,15)           180.0            estimate D2E/DX2                !
 ! D20   D(7,9,11,12)           60.0024         estimate D2E/DX2                !
 ! D21   D(7,9,11,13)          179.9986         estimate D2E/DX2                !
 ! D22   D(7,9,11,14)          -60.0038         estimate D2E/DX2                !
 ! D23   D(10,9,11,12)        -179.4843         estimate D2E/DX2                !
 ! D24   D(10,9,11,13)         -59.4881         estimate D2E/DX2                !
 ! D25   D(10,9,11,14)          60.5095         estimate D2E/DX2                !
 ! D26   D(15,9,11,12)         -61.938          estimate D2E/DX2                !
 ! D27   D(15,9,11,13)          58.0582         estimate D2E/DX2                !
 ! D28   D(15,9,11,14)         178.0558         estimate D2E/DX2                !
 ! D29   D(7,9,15,16)          -15.0014         estimate D2E/DX2                !
 ! D30   D(7,9,15,17)          164.9981         Frozen                          !
 ! D31   D(10,9,15,16)        -135.5125         estimate D2E/DX2                !
 ! D32   D(10,9,15,17)          44.487          estimate D2E/DX2                !
 ! D33   D(11,9,15,16)         106.9406         estimate D2E/DX2                !
 ! D34   D(11,9,15,17)         -73.0599         estimate D2E/DX2                !
 ! D35   D(9,15,16,6)           27.5808         estimate D2E/DX2                !
 ! D36   D(17,15,16,6)        -152.4186         estimate D2E/DX2                !
 ! D37   D(9,15,17,18)           0.0035         estimate D2E/DX2                !
 ! D38   D(9,15,17,19)         179.9985         estimate D2E/DX2                !
 ! D39   D(16,15,17,18)       -179.997          estimate D2E/DX2                !
 ! D40   D(16,15,17,19)         -0.002          estimate D2E/DX2                !
 ! D41   D(15,17,19,20)          0.0027         estimate D2E/DX2                !
 ! D42   D(15,17,19,21)        120.002          estimate D2E/DX2                !
 ! D43   D(15,17,19,22)       -120.0001         estimate D2E/DX2                !
 ! D44   D(18,17,19,20)        179.9978         estimate D2E/DX2                !
 ! D45   D(18,17,19,21)        -60.0029         estimate D2E/DX2                !
 ! D46   D(18,17,19,22)         59.995          estimate D2E/DX2                !
 --------------------------------------------------------------------------------
 Trust Radius=3.00D-01 FncErr=1.00D-07 GrdErr=1.00D-07
 Number of steps in this run= 116 maximum allowed number of steps= 132.
 GradGradGradGradGradGradGradGradGradGradGradGradGradGradGradGradGradGrad

                          Input orientation:                          
 ---------------------------------------------------------------------
 Center     Atomic      Atomic             Coordinates (Angstroms)
 Number     Number       Type             X           Y           Z
 ---------------------------------------------------------------------
      1          1           0        0.249600    4.526200    0.000000
      2          6           0        1.117800    3.867200    0.000000
      3          1           0        1.097000    3.238000   -0.889800
      4          1           0        1.097000    3.238000    0.889800
      5          6           0        2.419500    4.671100    0.000000
      6          8           0        2.393800    5.899900    0.000000
      7          7           0        3.555400    3.969700    0.000000
      8          1           0        3.525400    2.960100    0.000000
      9          6           0        4.853300    4.613900    0.000000
     10          1           0        5.407600    4.315500    0.889800
     11          6           0        5.661300    4.220800   -1.232200
     12          1           0        5.123300    4.521400   -2.131200
     13          1           0        6.630500    4.718900   -1.205800
     14          1           0        5.808500    3.140900   -1.241400
     15          6           0        4.712700    6.129400    0.000000
     16          8           0        3.636600    6.656000   -0.274100
     17          7           0        5.805600    6.831100    0.309000
     18          1           0        6.667900    6.352800    0.527200
     19          6           0        5.801000    8.279700    0.343600
     20          1           0        4.807100    8.646700    0.087500
     21          1           0        6.066900    8.620600    1.344200
     22          1           0        6.525600    8.663100   -0.374800
 ---------------------------------------------------------------------
                    Distance matrix (angstroms):
                    1          2          3          4          5
     1  H    0.000000
     2  C    1.089978   0.000000
     3  H    1.780250   1.089986   0.000000
     4  H    1.780250   1.089986   1.779600   0.000000
     5  C    2.174733   1.529927   2.143485   2.143485   0.000000
     6  O    2.546497   2.400009   3.091787   3.091787   1.229069
     7  N    3.352314   2.439754   2.714933   2.714933   1.335002
     8  H    3.630914   2.572813   2.601173   2.601173   2.037286
     9  C    4.604535   3.809399   4.098126   4.098126   2.434472
    10  H    5.238426   4.403987   4.786361   4.443228   3.137983
    11  C    5.558604   4.720884   4.681449   5.128510   3.497192
    12  H    5.319303   4.584105   4.404462   5.194675   3.446006
    13  H    6.496689   5.706944   5.736945   6.099527   4.380498
    14  H    5.861868   4.906246   4.725599   5.172009   3.920192
    15  C    4.742311   4.247453   4.714364   4.714364   2.717610
    16  O    4.010355   3.767876   4.302485   4.414403   2.344417
    17  N    6.023054   5.554786   6.043046   5.951354   4.028245
    18  H    6.693951   6.104077   6.537950   6.392839   4.599452
    19  C    6.710057   6.443646   7.004829   6.916986   4.957277
    20  H    6.144671   6.038395   6.631289   6.607765   4.638285
    21  H    7.239611   6.992516   7.659180   7.340216   5.541566
    22  H    7.526127   7.237778   7.691985   7.778215   5.739041
                    6          7          8          9         10
     6  O    0.000000
     7  N    2.252773   0.000000
     8  H    3.150070   1.010046   0.000000
     9  C    2.775416   1.448978   2.120937   0.000000
    10  H    3.519241   2.083739   2.484256   1.089970   0.000000
    11  C    3.874823   2.452791   2.769431   1.525027   2.139209
    12  H    3.727257   2.702720   3.087548   2.150225   3.041326
    13  H    4.560520   3.386959   3.766826   2.150214   2.459625
    14  H    4.562163   2.702673   2.605054   2.150165   2.466256
    15  C    2.330229   2.450234   3.384397   1.522008   2.136554
    16  O    1.480328   2.701468   3.707718   2.392836   3.157379
    17  N    3.550070   3.653285   4.503269   2.432762   2.612274
    18  H    4.330241   3.955346   4.654424   2.567973   2.422896
    19  C    4.170194   4.872051   5.796081   3.801879   4.020943
    20  H    3.657401   4.842390   5.829908   4.034014   4.445625
    21  H    4.764530   5.453932   6.348807   4.396970   4.378932
    22  H    4.984729   5.566917   6.454912   4.396940   4.663771
                   11         12         13         14         15
    11  C    0.000000
    12  H    1.089957   0.000000
    13  H    1.090023   1.779613   0.000000
    14  H    1.089925   1.779613   1.779617   0.000000
    15  C    2.461892   2.701161   2.668599   3.416575   0.000000
    16  O    3.308710   3.196187   3.685629   4.243671   1.228995
    17  N    3.034763   3.428531   2.726989   4.002665   1.335026
    18  H    2.941795   3.578674   2.382082   3.766008   2.037315
    19  C    4.356298   4.550685   3.970895   5.377690   2.434389
    20  H    4.696792   4.694754   4.519405   5.751749   2.520589
    21  H    5.114742   5.456393   4.695041   6.064587   3.137963
    22  H    4.606102   4.712225   4.032156   5.635594   3.137948
                   16         17         18         19         20
    16  O    0.000000
    17  N    2.252826   0.000000
    18  H    3.150046   1.009922   0.000000
    19  C    2.775353   1.449020   2.120889   0.000000
    20  H    2.337458   2.083859   2.986284   1.090006   0.000000
    21  H    3.519220   2.083801   2.484272   1.090007   1.779627
    22  H    3.519220   2.083796   2.484218   1.090018   1.779672
                   21         22
    21  H    0.000000
    22  H    1.779655   0.000000
 Stoichiometry    C6H12N2O2
 Framework group  C1[X(C6H12N2O2)]
 Deg. of freedom    60
 Full point group                 C1      NOp   1
 Largest Abelian subgroup         C1      NOp   1
 Largest concise Abelian subgroup C1      NOp   1
                         Standard orientation:                         
 ---------------------------------------------------------------------
 Center     Atomic      Atomic             Coordinates (Angstroms)
 Number     Number       Type             X           Y           Z
 ---------------------------------------------------------------------
      1          1           0       -3.528313   -1.661681    0.198716
      2          6           0       -3.281601   -0.632212   -0.060855
      3          1           0       -3.732620    0.044174    0.665198
      4          1           0       -3.665968   -0.405614   -1.055332
      5          6           0       -1.767663   -0.411601   -0.059879
      6          8           0       -1.002911   -1.334821    0.211099
      7          7           0       -1.342222    0.816590   -0.364476
      8          1           0       -2.009849    1.543153   -0.580281
      9          6           0        0.066837    1.152721   -0.397763
     10          1           0        0.335780    1.494775   -1.397114
     11          6           0        0.390879    2.259679    0.599909
     12          1           0        0.135526    1.928519    1.606455
     13          1           0        1.454958    2.491426    0.553240
     14          1           0       -0.185750    3.151286    0.353999
     15          6           0        0.926297   -0.054011   -0.048999
     16          8           0        0.424963   -1.046480    0.474546
     17          7           0        2.226042    0.033366   -0.341098
     18          1           0        2.591756    0.870597   -0.771495
     19          6           0        3.148638   -1.047668   -0.058537
     20          1           0        2.609277   -1.875456    0.401865
     21          1           0        3.608171   -1.385939   -0.987255
     22          1           0        3.923554   -0.695972    0.622605
 ---------------------------------------------------------------------
 Rotational constants (GHZ):      2.4064495      0.9654349      0.7356152
 Standard basis: 6-31G(d) (6D, 7F)
 There are   174 symmetry adapted basis functions of A   symmetry.
 Integral buffers will be    131072 words long.
 Raffenetti 1 integral format.
 Two-electron integral symmetry is turned on.
   174 basis functions,   328 primitive gaussians,   174 cartesian basis functions
    39 alpha electrons       39 beta electrons
       nuclear repulsion energy       585.5961559873 Hartrees.
 NAtoms=   22 NActive=   22 NUniq=   22 SFac= 7.50D-01 NAtFMM=   80 NAOKFM=F Big=F
 One-electron integrals computed using PRISM.
 NBasis=   174 RedAO= T  NBF=   174
 NBsUse=   174 1.00D-06 NBFU=   174
 Harris functional with IExCor=  205 diagonalized for initial guess.
 ExpMin= 1.61D-01 ExpMax= 5.48D+03 ExpMxC= 8.25D+02 IAcc=1 IRadAn=         1 AccDes= 0.00D+00
 HarFok:  IExCor=  205 AccDes= 0.00D+00 IRadAn=         1 IDoV= 1
 ScaDFX=  1.000000  1.000000  1.000000  1.000000
 FoFCou: FMM=F IPFlag=           0 FMFlag=      100000 FMFlg1=           0
         NFxFlg=           0 DoJE=T BraDBF=F KetDBF=T FulRan=T
         Omega=  0.000000  0.000000  1.000000  0.000000  0.000000 ICntrl=     500 IOpCl=  0
         NMat0=    1 NMatS0=    1 NMatT0=    0 NMatD0=    1 NMtDS0=    0 NMtDT0=    0
         I1Cent=           4 NGrid=           0.
 Petite list used in FoFCou.
 Initial guess orbital symmetries:
       Occupied  (A) (A) (A) (A) (A) (A) (A) (A) (A) (A) (A) (A)
                 (A) (A) (A) (A) (A) (A) (A) (A) (A) (A) (A) (A)
                 (A) (A) (A) (A) (A) (A) (A) (A) (A) (A) (A) (A)
                 (A) (A) (A)
       Virtual   (A) (A) (A) (A) (A) (A) (A) (A) (A) (A) (A) (A)
                 (A) (A) (A) (A) (A) (A) (A) (A) (A) (A) (A) (A)
                 (A) (A) (A) (A) (A) (A) (A) (A) (A) (A) (A) (A)
                 (A) (A) (A) (A) (A) (A) (A) (A) (A) (A) (A) (A)
                 (A) (A) (A) (A) (A) (A) (A) (A) (A) (A) (A) (A)
                 (A) (A) (A) (A) (A) (A) (A) (A) (A) (A) (A) (A)
                 (A) (A) (A) (A) (A) (A) (A) (A) (A) (A) (A) (A)
                 (A) (A) (A) (A) (A) (A) (A) (A) (A) (A) (A) (A)
                 (A) (A) (A) (A) (A) (A) (A) (A) (A) (A) (A) (A)
                 (A) (A) (A) (A) (A) (A) (A) (A) (A) (A) (A) (A)
                 (A) (A) (A) (A) (A) (A) (A) (A) (A) (A) (A) (A)
                 (A) (A) (A)
 The electronic state of the initial guess is 1-A.
 Requested convergence on RMS density matrix=1.00D-08 within 128 cycles.
 Requested convergence on MAX density matrix=1.00D-06.
 Requested convergence on             energy=1.00D-06.
 No special actions if energy rises.
 Integral accuracy reduced to 1.0D-05 until final iterations.
 Initial convergence to 1.0D-05 achieved.  Increase integral accuracy.
 SCF Done:  E(RHF) =  -492.518920711     A.U. after   21 cycles
             Convg  =    0.3720D-08             -V/T =  1.9991

 **********************************************************************

            Population analysis using the SCF density.

 **********************************************************************

 Orbital symmetries:
       Occupied  (A) (A) (A) (A) (A) (A) (A) (A) (A) (A) (A) (A)
                 (A) (A) (A) (A) (A) (A) (A) (A) (A) (A) (A) (A)
                 (A) (A) (A) (A) (A) (A) (A) (A) (A) (A) (A) (A)
                 (A) (A) (A)
       Virtual   (A) (A) (A) (A) (A) (A) (A) (A) (A) (A) (A) (A)
                 (A) (A) (A) (A) (A) (A) (A) (A) (A) (A) (A) (A)
                 (A) (A) (A) (A) (A) (A) (A) (A) (A) (A) (A) (A)
                 (A) (A) (A) (A) (A) (A) (A) (A) (A) (A) (A) (A)
                 (A) (A) (A) (A) (A) (A) (A) (A) (A) (A) (A) (A)
                 (A) (A) (A) (A) (A) (A) (A) (A) (A) (A) (A) (A)
                 (A) (A) (A) (A) (A) (A) (A) (A) (A) (A) (A) (A)
                 (A) (A) (A) (A) (A) (A) (A) (A) (A) (A) (A) (A)
                 (A) (A) (A) (A) (A) (A) (A) (A) (A) (A) (A) (A)
                 (A) (A) (A) (A) (A) (A) (A) (A) (A) (A) (A) (A)
                 (A) (A) (A) (A) (A) (A) (A) (A) (A) (A) (A) (A)
                 (A) (A) (A)
 The electronic state is 1-A.
 Alpha  occ. eigenvalues --  -20.51536 -20.50259 -15.58621 -15.55396 -11.32358
 Alpha  occ. eigenvalues --  -11.28825 -11.27722 -11.23988 -11.22650 -11.22260
 Alpha  occ. eigenvalues --   -1.45264  -1.31926  -1.24898  -1.19956  -1.04905
 Alpha  occ. eigenvalues --   -0.98130  -0.93882  -0.86920  -0.83780  -0.77526
 Alpha  occ. eigenvalues --   -0.71714  -0.68802  -0.67252  -0.64137  -0.60225
 Alpha  occ. eigenvalues --   -0.59534  -0.59252  -0.56940  -0.56333  -0.54958
 Alpha  occ. eigenvalues --   -0.53738  -0.53282  -0.52665  -0.49819  -0.48755
 Alpha  occ. eigenvalues --   -0.45677  -0.39521  -0.35657  -0.15940
 Alpha virt. eigenvalues --    0.20102   0.21552   0.22161   0.23855   0.27452
 Alpha virt. eigenvalues --    0.28284   0.28616   0.30494   0.31769   0.32490
 Alpha virt. eigenvalues --    0.33141   0.33855   0.34347   0.34557   0.38313
 Alpha virt. eigenvalues --    0.39039   0.40972   0.44129   0.47096   0.50797
 Alpha virt. eigenvalues --    0.57833   0.60591   0.64284   0.73350   0.73903
 Alpha virt. eigenvalues --    0.74977   0.76269   0.77424   0.77799   0.78709
 Alpha virt. eigenvalues --    0.82038   0.84392   0.84909   0.86666   0.88651
 Alpha virt. eigenvalues --    0.92551   0.95097   0.97966   1.00365   1.01281
 Alpha virt. eigenvalues --    1.03215   1.04506   1.06273   1.08592   1.09334
 Alpha virt. eigenvalues --    1.12126   1.14616   1.15115   1.15816   1.16402
 Alpha virt. eigenvalues --    1.17758   1.18907   1.19796   1.20535   1.22215
 Alpha virt. eigenvalues --    1.22470   1.23673   1.24059   1.25617   1.29813
 Alpha virt. eigenvalues --    1.31680   1.37927   1.42830   1.45495   1.50985
 Alpha virt. eigenvalues --    1.54232   1.57299   1.61520   1.63685   1.66128
 Alpha virt. eigenvalues --    1.66979   1.71818   1.75957   1.76276   1.79372
 Alpha virt. eigenvalues --    1.81286   1.82693   1.92308   1.96906   1.99981
 Alpha virt. eigenvalues --    2.01585   2.04722   2.08797   2.10029   2.12933
 Alpha virt. eigenvalues --    2.17839   2.20058   2.21951   2.24198   2.26243
 Alpha virt. eigenvalues --    2.27775   2.29881   2.32555   2.37505   2.42482
 Alpha virt. eigenvalues --    2.44232   2.48211   2.50399   2.53540   2.55612
 Alpha virt. eigenvalues --    2.58901   2.60438   2.62245   2.65789   2.67139
 Alpha virt. eigenvalues --    2.68598   2.68909   2.73441   2.77808   2.79758
 Alpha virt. eigenvalues --    2.83890   2.91973   2.96293   2.99330   3.01246
 Alpha virt. eigenvalues --    3.06466   3.07690   3.16508   3.23325   3.26303
 Alpha virt. eigenvalues --    3.32653   3.46662   3.47988   3.69098   3.83405
 Alpha virt. eigenvalues --    4.42324   4.45987   4.48460   4.60456   4.67848
 Alpha virt. eigenvalues --    4.69914   4.82092   4.91997   4.99124   5.14105
          Condensed to atoms (all electrons):
              1          2          3          4          5          6
     1  H    0.460235   0.387195  -0.017797  -0.019655  -0.029720   0.003427
     2  C    0.387195   5.256023   0.350948   0.379873   0.360519  -0.049278
     3  H   -0.017797   0.350948   0.567022  -0.026557  -0.047694   0.001342
     4  H   -0.019655   0.379873  -0.026557   0.523874  -0.035511   0.000431
     5  C   -0.029720   0.360519  -0.047694  -0.035511   4.376802   0.463875
     6  O    0.003427  -0.049278   0.001342   0.000431   0.463875   8.987325
     7  N    0.003779  -0.130722   0.012142   0.002275   0.220228  -0.130670
     8  H   -0.000041   0.000656  -0.000530   0.000699  -0.015120   0.003221
     9  C   -0.000079   0.004860  -0.000447  -0.000079  -0.017804   0.036692
    10  H    0.000002   0.000016  -0.000009  -0.000002   0.002105   0.001097
    11  C    0.000003  -0.000378   0.000112   0.000002  -0.004110  -0.001746
    12  H    0.000000  -0.000034   0.000009   0.000000   0.000415  -0.000115
    13  H    0.000000   0.000000   0.000001   0.000000  -0.000146  -0.000078
    14  H    0.000000   0.000034  -0.000025  -0.000001   0.000722   0.000078
    15  C    0.000005  -0.000469   0.000028   0.000005  -0.003172  -0.002162
    16  O    0.000117  -0.005204   0.000426  -0.000006   0.033786  -0.842960
    17  N    0.000000  -0.000008   0.000001   0.000000  -0.000185  -0.003416
    18  H    0.000000   0.000001   0.000000   0.000000   0.000011   0.000310
    19  C    0.000000   0.000000   0.000000   0.000000   0.000026  -0.000227
    20  H    0.000000   0.000001   0.000000   0.000000  -0.000036   0.000877
    21  H    0.000000   0.000000   0.000000   0.000000  -0.000001  -0.000005
    22  H    0.000000   0.000000   0.000000   0.000000   0.000000   0.000016
              7          8          9         10         11         12
     1  H    0.003779  -0.000041  -0.000079   0.000002   0.000003   0.000000
     2  C   -0.130722   0.000656   0.004860   0.000016  -0.000378  -0.000034
     3  H    0.012142  -0.000530  -0.000447  -0.000009   0.000112   0.000009
     4  H    0.002275   0.000699  -0.000079  -0.000002   0.000002   0.000000
     5  C    0.220228  -0.015120  -0.017804   0.002105  -0.004110   0.000415
     6  O   -0.130670   0.003221   0.036692   0.001097  -0.001746  -0.000115
     7  N    7.465739   0.321155   0.158583  -0.046005  -0.061452   0.001128
     8  H    0.321155   0.325205  -0.021185  -0.001138  -0.002146  -0.000081
     9  C    0.158583  -0.021185   5.013333   0.421195   0.335078  -0.035605
    10  H   -0.046005  -0.001138   0.421195   0.541212  -0.055509   0.004466
    11  C   -0.061452  -0.002146   0.335078  -0.055509   5.156125   0.389455
    12  H    0.001128  -0.000081  -0.035605   0.004466   0.389455   0.499627
    13  H    0.005294  -0.000123  -0.038984   0.000359   0.385902  -0.019950
    14  H   -0.004239   0.002947  -0.039082  -0.003000   0.379136  -0.025619
    15  C   -0.020170   0.001963   0.394362  -0.049844  -0.056935  -0.005758
    16  O    0.033619  -0.000607  -0.110719   0.000051   0.003204   0.001475
    17  N    0.003185  -0.000104  -0.116903   0.002191   0.001631   0.000410
    18  H    0.000009   0.000007   0.004453   0.002355  -0.000529  -0.000007
    19  C   -0.000060   0.000002   0.004010  -0.000095  -0.000230  -0.000007
    20  H   -0.000016   0.000000   0.000752  -0.000004  -0.000046  -0.000002
    21  H    0.000002   0.000000  -0.000118  -0.000006  -0.000005   0.000000
    22  H   -0.000001   0.000000   0.000042   0.000004   0.000032   0.000000
             13         14         15         16         17         18
     1  H    0.000000   0.000000   0.000005   0.000117   0.000000   0.000000
     2  C    0.000000   0.000034  -0.000469  -0.005204  -0.000008   0.000001
     3  H    0.000001  -0.000025   0.000028   0.000426   0.000001   0.000000
     4  H    0.000000  -0.000001   0.000005  -0.000006   0.000000   0.000000
     5  C   -0.000146   0.000722  -0.003172   0.033786  -0.000185   0.000011
     6  O   -0.000078   0.000078  -0.002162  -0.842960  -0.003416   0.000310
     7  N    0.005294  -0.004239  -0.020170   0.033619   0.003185   0.000009
     8  H   -0.000123   0.002947   0.001963  -0.000607  -0.000104   0.000007
     9  C   -0.038984  -0.039082   0.394362  -0.110719  -0.116903   0.004453
    10  H    0.000359  -0.003000  -0.049844   0.000051   0.002191   0.002355
    11  C    0.385902   0.379136  -0.056935   0.003204   0.001631  -0.000529
    12  H   -0.019950  -0.025619  -0.005758   0.001475   0.000410  -0.000007
    13  H    0.535016  -0.027217  -0.010206   0.000224   0.007099  -0.000927
    14  H   -0.027217   0.560828   0.006097  -0.000231  -0.000367   0.000157
    15  C   -0.010206   0.006097   4.496665   0.457342   0.187377  -0.021047
    16  O    0.000224  -0.000231   0.457342   8.950196  -0.075272   0.002163
    17  N    0.007099  -0.000367   0.187377  -0.075272   7.427675   0.308932
    18  H   -0.000927   0.000157  -0.021047   0.002163   0.308932   0.367999
    19  C   -0.000085   0.000008  -0.029111  -0.005987   0.208453  -0.022950
    20  H   -0.000014   0.000001   0.002094   0.009452  -0.034946   0.003140
    21  H    0.000008   0.000000  -0.000199   0.000296  -0.048453  -0.002047
    22  H   -0.000063   0.000000   0.004353   0.000676  -0.056356   0.000836
             19         20         21         22
     1  H    0.000000   0.000000   0.000000   0.000000
     2  C    0.000000   0.000001   0.000000   0.000000
     3  H    0.000000   0.000000   0.000000   0.000000
     4  H    0.000000   0.000000   0.000000   0.000000
     5  C    0.000026  -0.000036  -0.000001   0.000000
     6  O   -0.000227   0.000877  -0.000005   0.000016
     7  N   -0.000060  -0.000016   0.000002  -0.000001
     8  H    0.000002   0.000000   0.000000   0.000000
     9  C    0.004010   0.000752  -0.000118   0.000042
    10  H   -0.000095  -0.000004  -0.000006   0.000004
    11  C   -0.000230  -0.000046  -0.000005   0.000032
    12  H   -0.000007  -0.000002   0.000000   0.000000
    13  H   -0.000085  -0.000014   0.000008  -0.000063
    14  H    0.000008   0.000001   0.000000   0.000000
    15  C   -0.029111   0.002094  -0.000199   0.004353
    16  O   -0.005987   0.009452   0.000296   0.000676
    17  N    0.208453  -0.034946  -0.048453  -0.056356
    18  H   -0.022950   0.003140  -0.002047   0.000836
    19  C    4.922473   0.393871   0.405896   0.399108
    20  H    0.393871   0.446983  -0.025090  -0.021195
    21  H    0.405896  -0.025090   0.552340  -0.040053
    22  H    0.399108  -0.021195  -0.040053   0.559093
 Mulliken atomic charges:
              1
     1  H    0.212529
     2  C   -0.554032
     3  H    0.161029
     4  H    0.174651
     5  C    0.695011
     6  O   -0.468036
     7  N   -0.833802
     8  H    0.385220
     9  C    0.007645
    10  H    0.180559
    11  C   -0.467593
    12  H    0.190191
    13  H    0.163892
    14  H    0.149772
    15  C    0.648785
    16  O   -0.452041
    17  N   -0.810944
    18  H    0.357132
    19  C   -0.275093
    20  H    0.224180
    21  H    0.157436
    22  H    0.153508
 Sum of Mulliken atomic charges =   0.00000
 Mulliken charges with hydrogens summed into heavy atoms:
              1
     2  C   -0.005822
     5  C    0.695011
     6  O   -0.468036
     7  N   -0.448583
     9  C    0.188204
    11  C    0.036263
    15  C    0.648785
    16  O   -0.452041
    17  N   -0.453812
    19  C    0.260031
 Sum of Mulliken charges with hydrogens summed into heavy atoms =   0.00000
 Electronic spatial extent (au):  <R**2>=           1628.4388
 Charge=              0.0000 electrons
 Dipole moment (field-independent basis, Debye):
    X=             -0.2699    Y=              4.3511    Z=             -1.9325  Tot=              4.7686
 Quadrupole moment (field-independent basis, Debye-Ang):
   XX=            -49.6363   YY=            -60.9647   ZZ=            -60.8664
   XY=             -2.0523   XZ=             -0.2833   YZ=             -0.7212
 Traceless Quadrupole moment (field-independent basis, Debye-Ang):
   XX=              7.5195   YY=             -3.8089   ZZ=             -3.7106
   XY=             -2.0523   XZ=             -0.2833   YZ=             -0.7212
 Octapole moment (field-independent basis, Debye-Ang**2):
  XXX=              0.8484  YYY=              1.3630  ZZZ=              0.6114  XYY=              1.4975
  XXY=              0.6493  XXZ=             -6.1552  XZZ=             -1.0330  YZZ=             -0.4399
  YYZ=             -4.5909  XYZ=             -0.6379
 Hexadecapole moment (field-independent basis, Debye-Ang**3):
 XXXX=          -1384.3249 YYYY=           -574.9077 ZZZZ=           -127.6717 XXXY=              1.8246
 XXXZ=             -0.0154 YYYX=            -13.8159 YYYZ=            -13.7333 ZZZX=             -1.2909
 ZZZY=             -4.7452 XXYY=           -310.5483 XXZZ=           -259.9999 YYZZ=           -116.9048
 XXYZ=            -11.2779 YYXZ=              0.5419 ZZXY=              0.3243
 N-N= 5.855961559873D+02 E-N=-2.328108156267D+03  KE= 4.929780528835D+02
 Calling FoFJK, ICntrl=      2127 FMM=F ISym2X=0 I1Cent= 0 IOpClX= 0 NMat=1 NMatS=1 NMatT=0.
 ***** Axes restored to original set *****
 -------------------------------------------------------------------
 Center     Atomic                   Forces (Hartrees/Bohr)
 Number     Number              X              Y              Z
 -------------------------------------------------------------------
      1        1           0.009646331   -0.002151153    0.000030148
      2        6           0.009202850   -0.005104730   -0.019524340
      3        1          -0.007244650   -0.005564464    0.003289618
      4        1          -0.000592502    0.001046534   -0.003511533
      5        6          -0.062854171    0.053964210    0.003328074
      6        8          -0.341121036   -0.244116417    0.134506214
      7        7           0.024448766   -0.014902890    0.009405997
      8        1          -0.000264706    0.015794847    0.001105140
      9        6           0.011240914    0.004478527   -0.017708784
     10        1          -0.002931025    0.001347442    0.000055009
     11        6           0.001165099   -0.007279240   -0.000862581
     12        1           0.003929391   -0.002160184    0.003193564
     13        1          -0.003043142   -0.005140955   -0.003349158
     14        1           0.003332016    0.001718057   -0.004320162
     15        6          -0.056911184    0.017892607   -0.026932499
     16        8           0.370302979    0.170445864   -0.117460884
     17        7           0.045895113    0.013570995    0.033298112
     18        1          -0.013566590    0.008815831    0.005998620
     19        6           0.004131141   -0.003753351   -0.001092050
     20        1           0.008735302   -0.005029986    0.001889118
     21        1          -0.001694674    0.003111697   -0.004485517
     22        1          -0.001806220    0.003016758    0.003147894
 -------------------------------------------------------------------
 Cartesian Forces:  Max     0.370302979 RMS     0.077024339

 GradGradGradGradGradGradGradGradGradGradGradGradGradGradGradGradGradGrad
 Berny optimization.
 Internal  Forces:  Max     0.404155737 RMS     0.041968984
 Search for a local minimum.
 Step number   1 out of a maximum of  116
 All quantities printed in internal units (Hartrees-Bohrs-Radians)
 Mixed Optimization -- RFO/linear search
 Second derivative matrix not updated -- first step.
     Eigenvalues ---    0.00370   0.00435   0.01043   0.01544   0.01660
     Eigenvalues ---    0.01689   0.02075   0.02551   0.02947   0.03695
     Eigenvalues ---    0.05234   0.05844   0.05844   0.06513   0.07165
     Eigenvalues ---    0.07464   0.07685   0.07685   0.15005   0.16000
     Eigenvalues ---    0.16000   0.16000   0.16000   0.16000   0.16000
     Eigenvalues ---    0.16000   0.16000   0.16000   0.16000   0.16000
     Eigenvalues ---    0.18491   0.22000   0.22901   0.24147   0.25000
     Eigenvalues ---    0.25000   0.29430   0.29611   0.29887   0.33187
     Eigenvalues ---    0.34810   0.34811   0.34812   0.34812   0.34814
     Eigenvalues ---    0.34814   0.34815   0.34816   0.34818   0.34821
     Eigenvalues ---    0.37511   0.38374   0.45965   0.45986   0.56065
     Eigenvalues ---    0.58334   0.85883   0.891041000.000001000.00000
     Eigenvalues --- 1000.000001000.000001000.000001000.000001000.00000
     Eigenvalues --- 1000.000001000.000001000.000001000.000001000.00000
     Eigenvalues --- 1000.000001000.000001000.000001000.000001000.00000
     Eigenvalues --- 1000.000001000.000001000.000001000.000001000.00000
     Eigenvalues --- 1000.000001000.000001000.000001000.000001000.00000
     Eigenvalues --- 1000.000001000.000001000.000001000.000001000.00000
     Eigenvalues --- 1000.000001000.000001000.000001000.000001000.00000
     Eigenvalues --- 1000.000001000.000001000.000001000.000001000.00000
     Eigenvalues --- 1000.000001000.000001000.000001000.000001000.00000
     Eigenvalues --- 1000.00000
 RFO step:  Lambda=-2.92003325D-01 EMin= 3.70064225D-03
 Linear search not attempted -- first point.
 Maximum step size (   0.300) exceeded in Quadratic search.
    -- Step size scaled by   0.437
 Iteration  1 RMS(Cart)=  0.04841653 RMS(Int)=  0.00732500
 Iteration  2 RMS(Cart)=  0.01180320 RMS(Int)=  0.00012614
 Iteration  3 RMS(Cart)=  0.00004254 RMS(Int)=  0.00012395
 Iteration  4 RMS(Cart)=  0.00000000 RMS(Int)=  0.00012395
 Iteration  1 RMS(Cart)=  0.00002164 RMS(Int)=  0.00002302
 Iteration  2 RMS(Cart)=  0.00001799 RMS(Int)=  0.00002457
 Iteration  3 RMS(Cart)=  0.00001496 RMS(Int)=  0.00002789
 Iteration  4 RMS(Cart)=  0.00001245 RMS(Int)=  0.00003163
 Iteration  5 RMS(Cart)=  0.00001036 RMS(Int)=  0.00003522
 Iteration  6 RMS(Cart)=  0.00000862 RMS(Int)=  0.00003844
 Iteration  7 RMS(Cart)=  0.00000718 RMS(Int)=  0.00004125
 Iteration  8 RMS(Cart)=  0.00000597 RMS(Int)=  0.00004365
 Iteration  9 RMS(Cart)=  0.00000497 RMS(Int)=  0.00004570
 Iteration 10 RMS(Cart)=  0.00000414 RMS(Int)=  0.00004742
 Iteration 11 RMS(Cart)=  0.00000345 RMS(Int)=  0.00004887
 Iteration 12 RMS(Cart)=  0.00000287 RMS(Int)=  0.00005009
 Iteration 13 RMS(Cart)=  0.00000239 RMS(Int)=  0.00005111
 Iteration 14 RMS(Cart)=  0.00000199 RMS(Int)=  0.00005196
 Iteration 15 RMS(Cart)=  0.00000166 RMS(Int)=  0.00005268
 Iteration 16 RMS(Cart)=  0.00000138 RMS(Int)=  0.00005327
 Iteration 17 RMS(Cart)=  0.00000115 RMS(Int)=  0.00005377
 Iteration 18 RMS(Cart)=  0.00000096 RMS(Int)=  0.00005419
 Variable       Old X    -DE/DX   Delta X   Delta X   Delta X     New X
                                 (Linear)    (Quad)   (Total)
    R1        2.05976  -0.00898   0.00000  -0.00613  -0.00613   2.05363
    R2        2.05977   0.00066   0.00000   0.00045   0.00045   2.06023
    R3        2.05977  -0.00346   0.00000  -0.00236  -0.00236   2.05741
    R4        2.89114  -0.00318   0.00000  -0.00237  -0.00237   2.88877
    R5        2.32260  -0.05134   0.00000  -0.01782  -0.01765   2.30495
    R6        2.52279   0.03924   0.00000   0.01973   0.01991   2.54270
    R7        2.79741   0.40416   0.00000   0.27793   0.27783   3.07524
    R8        1.90871  -0.01578   0.00000  -0.00917  -0.00917   1.89954
    R9        2.73817   0.02839   0.00000   0.01716   0.01720   2.75537
   R10        2.05975  -0.00181   0.00000  -0.00124  -0.00124   2.05851
   R11        2.88188   0.01048   0.00000   0.00775   0.00775   2.88964
   R12        2.87618   0.01396   0.00000   0.00876   0.00860   2.88477
   R13        2.05972  -0.00517   0.00000  -0.00353  -0.00353   2.05619
   R14        2.05984  -0.00514   0.00000  -0.00351  -0.00351   2.05634
   R15        2.05966  -0.00122   0.00000  -0.00083  -0.00083   2.05883
   R16        2.32246  -0.03205   0.00000  -0.01130  -0.01138   2.31109
   R17        2.52283   0.05347   0.00000   0.02669   0.02669   2.54953
   R18        1.90848  -0.01446   0.00000  -0.00841  -0.00841   1.90007
   R19        2.73825  -0.00270   0.00000  -0.00174  -0.00174   2.73651
   R20        2.05981  -0.01010   0.00000  -0.00690  -0.00690   2.05292
   R21        2.05982  -0.00356   0.00000  -0.00243  -0.00243   2.05739
   R22        2.05984  -0.00221   0.00000  -0.00151  -0.00151   2.05832
    A1        1.91114  -0.00197   0.00000  -0.00160  -0.00157   1.90956
    A2        1.91114   0.00134   0.00000   0.00075   0.00074   1.91187
    A3        1.93909  -0.00880   0.00000  -0.00862  -0.00862   1.93047
    A4        1.91009  -0.00603   0.00000  -0.00558  -0.00560   1.90449
    A5        1.89606   0.01539   0.00000   0.01516   0.01516   1.91121
    A6        1.89606   0.00013   0.00000  -0.00004  -0.00006   1.89600
    A7        2.10313   0.02082   0.00000   0.01725   0.01713   2.12026
    A8        2.03517  -0.00724   0.00000  -0.00538  -0.00550   2.02967
    A9        2.14488  -0.01358   0.00000  -0.01187  -0.01163   2.13325
   A10        2.08644  -0.04558   0.00000  -0.03618  -0.03605   2.05039
   A11        2.09427  -0.02779   0.00000  -0.02161  -0.02167   2.07259
   A12        2.12770   0.05417   0.00000   0.04187   0.04198   2.16968
   A13        2.06122  -0.02639   0.00000  -0.02026  -0.02032   2.04090
   A14        1.91114  -0.01266   0.00000  -0.00689  -0.00688   1.90425
   A15        1.93905  -0.00373   0.00000  -0.00889  -0.00885   1.93019
   A16        1.93900   0.02304   0.00000   0.01884   0.01872   1.95772
   A17        1.89609   0.00483   0.00000   0.00213   0.00206   1.89815
   A18        1.89608  -0.00212   0.00000  -0.00567  -0.00557   1.89051
   A19        1.88137  -0.00951   0.00000   0.00035   0.00036   1.88173
   A20        1.91115   0.00065   0.00000   0.00062   0.00062   1.91177
   A21        1.91106   0.00475   0.00000   0.00458   0.00457   1.91564
   A22        1.91110   0.00675   0.00000   0.00655   0.00653   1.91763
   A23        1.91011  -0.00287   0.00000  -0.00281  -0.00281   1.90729
   A24        1.91023  -0.00361   0.00000  -0.00347  -0.00348   1.90675
   A25        1.91015  -0.00568   0.00000  -0.00548  -0.00549   1.90466
   A26        2.10312  -0.00633   0.00000  -0.00952  -0.00997   2.09314
   A27        2.03503  -0.01213   0.00000  -0.00757  -0.00737   2.02766
   A28        2.14504   0.01846   0.00000   0.01709   0.01728   2.16232
   A29        2.06570  -0.02036   0.00000  -0.01225  -0.01256   2.05314
   A30        2.09446  -0.00096   0.00000  -0.00055  -0.00055   2.09391
   A31        2.12749   0.00665   0.00000   0.00567   0.00567   2.13316
   A32        2.06124  -0.00569   0.00000  -0.00512  -0.00513   2.05611
   A33        1.91122  -0.00491   0.00000  -0.00489  -0.00489   1.90633
   A34        1.91113   0.00623   0.00000   0.00609   0.00608   1.91721
   A35        1.91111   0.00566   0.00000   0.00555   0.00554   1.91666
   A36        1.91008  -0.00155   0.00000  -0.00165  -0.00164   1.90844
   A37        1.91014  -0.00112   0.00000  -0.00121  -0.00120   1.90894
   A38        1.91011  -0.00432   0.00000  -0.00390  -0.00392   1.90620
    D1        0.00000  -0.00194   0.00000  -0.00085  -0.00079  -0.00079
    D2        3.14159  -0.00080   0.00000  -0.00214  -0.00217   3.13943
    D3        2.10335   0.00012   0.00000   0.00164   0.00167   2.10502
    D4       -1.03824   0.00126   0.00000   0.00035   0.00029  -1.03795
    D5       -2.10335   0.00176   0.00000   0.00359   0.00363  -2.09972
    D6        1.03824   0.00290   0.00000   0.00230   0.00225   1.04049
    D7       -2.92712   0.01158   0.00000   0.01987   0.01947  -2.90764
    D8        0.21448   0.01037   0.00000   0.02125   0.02094   0.23541
    D9        0.00000  -0.01380   0.00000  -0.01266  -0.01285  -0.01285
   D10        3.14159  -0.01000   0.00000  -0.01914  -0.01950   3.12210
   D11        3.14159  -0.01263   0.00000  -0.01398  -0.01424   3.12735
   D12        0.00000  -0.00883   0.00000  -0.02046  -0.02089  -0.02089
   D13       -0.47483  -0.02105   0.00000  -0.02450  -0.02478  -0.49961
   D14        2.09439  -0.00932   0.00000   0.00036   0.00035   2.09475
   D15       -2.09435  -0.01390   0.00000  -0.00708  -0.00701  -2.10136
   D16        0.00000  -0.01300   0.00000   0.00000  -0.00001  -0.00001
   D17       -1.04720  -0.00560   0.00000  -0.00600  -0.00618  -1.05338
   D18        1.04724  -0.01018   0.00000  -0.01344  -0.01354   1.03370
   D19        3.14159  -0.00928   0.00000  -0.00636  -0.00654   3.13505
   D20        1.04724   0.01179   0.00000   0.01047   0.01041   1.05765
   D21        3.14157   0.01159   0.00000   0.01022   0.01015  -3.13147
   D22       -1.04726   0.01168   0.00000   0.01033   0.01027  -1.03699
   D23       -3.13259  -0.00307   0.00000  -0.00218  -0.00220  -3.13479
   D24       -1.03826  -0.00327   0.00000  -0.00244  -0.00246  -1.04072
   D25        1.05609  -0.00318   0.00000  -0.00232  -0.00233   1.05376
   D26       -1.08102  -0.00819   0.00000  -0.00757  -0.00749  -1.08851
   D27        1.01331  -0.00839   0.00000  -0.00782  -0.00775   1.00556
   D28        3.10766  -0.00830   0.00000  -0.00771  -0.00763   3.10003
   D29       -0.26182  -0.01085   0.00000  -0.01148  -0.01160  -0.27342
   D30        2.87976  -0.01644   0.00000   0.00000  -0.00001   2.87975
   D31       -2.36514  -0.00806   0.00000  -0.01094  -0.01102  -2.37616
   D32        0.77644  -0.01365   0.00000   0.00054   0.00057   0.77702
   D33        1.86647  -0.00743   0.00000  -0.01060  -0.01066   1.85580
   D34       -1.27514  -0.01302   0.00000   0.00088   0.00093  -1.27420
   D35        0.48138   0.00799   0.00000   0.01076   0.01053   0.49191
   D36       -2.66021   0.01394   0.00000  -0.00146  -0.00200  -2.66221
   D37        0.00006  -0.00403   0.00000  -0.01542  -0.01558  -0.01552
   D38        3.14157  -0.00211   0.00000  -0.01270  -0.01286   3.12871
   D39       -3.14154  -0.00977   0.00000  -0.00364  -0.00348   3.13816
   D40       -0.00004  -0.00784   0.00000  -0.00092  -0.00075  -0.00079
   D41        0.00005  -0.00142   0.00000  -0.00204  -0.00204  -0.00199
   D42        2.09443  -0.00251   0.00000  -0.00333  -0.00334   2.09109
   D43       -2.09440  -0.00051   0.00000  -0.00096  -0.00095  -2.09535
   D44        3.14155   0.00047   0.00000   0.00064   0.00064  -3.14100
   D45       -1.04725  -0.00062   0.00000  -0.00065  -0.00066  -1.04791
   D46        1.04711   0.00138   0.00000   0.00171   0.00172   1.04883
         Item               Value     Threshold  Converged?
 Maximum Force            0.400598     0.000450     NO 
 RMS     Force            0.042073     0.000300     NO 
 Maximum Displacement     0.217878     0.001800     NO 
 RMS     Displacement     0.059810     0.001200     NO 
 Predicted change in Energy=-1.128324D-01
 GradGradGradGradGradGradGradGradGradGradGradGradGradGradGradGradGradGrad

                          Input orientation:                          
 ---------------------------------------------------------------------
 Center     Atomic      Atomic             Coordinates (Angstroms)
 Number     Number       Type             X           Y           Z
 ---------------------------------------------------------------------
      1          1           0        0.201964    4.410904   -0.013179
      2          6           0        1.093500    3.789499   -0.016221
      3          1           0        1.097697    3.166281   -0.910745
      4          1           0        1.094220    3.149321    0.864414
      5          6           0        2.353003    4.655456    0.008431
      6          8           0        2.288405    5.873328    0.027302
      7          7           0        3.527605    3.999115    0.009735
      8          1           0        3.519812    2.993960    0.006099
      9          6           0        4.832592    4.649502    0.008138
     10          1           0        5.381516    4.349611    0.899964
     11          6           0        5.636876    4.238394   -1.225699
     12          1           0        5.102660    4.538490   -2.124862
     13          1           0        6.611062    4.722910   -1.207998
     14          1           0        5.775668    3.157818   -1.234159
     15          6           0        4.717547    6.171714    0.004783
     16          8           0        3.653912    6.702597   -0.282468
     17          7           0        5.838922    6.854009    0.316559
     18          1           0        6.681891    6.356628    0.546761
     19          6           0        5.881403    8.301330    0.337593
     20          1           0        4.903604    8.691819    0.070012
     21          1           0        6.148140    8.648870    1.334279
     22          1           0        6.621401    8.659443   -0.376938
 ---------------------------------------------------------------------
                    Distance matrix (angstroms):
                    1          2          3          4          5
     1  H    0.000000
     2  C    1.086733   0.000000
     3  H    1.776808   1.090226   0.000000
     4  H    1.777043   1.088736   1.775244   0.000000
     5  C    2.165004   1.528672   2.153677   2.141421   0.000000
     6  O    2.548246   2.402505   3.102551   3.089829   1.219729
     7  N    3.351116   2.443252   2.728617   2.715509   1.345539
     8  H    3.607800   2.553502   2.595562   2.577662   2.030276
     9  C    4.636820   3.836797   4.122346   4.118153   2.479596
    10  H    5.259786   4.420431   4.798963   4.452288   3.171792
    11  C    5.571197   4.722988   4.674695   5.117654   3.532823
    12  H    5.337818   4.591375   4.404177   5.189717   3.482131
    13  H    6.526981   5.721458   5.736606   6.099723   4.428918
    14  H    5.841848   4.879047   4.689145   5.130306   3.937205
    15  C    4.846779   4.336947   4.793134   4.796074   2.808935
    16  O    4.152147   3.887511   4.408459   4.526935   2.442903
    17  N    6.152461   5.658709   6.130646   6.044588   4.132820
    18  H    6.788876   6.175534   6.594382   6.450565   4.682206
    19  C    6.893075   6.588309   7.128178   7.052507   5.084324
    20  H    6.359133   6.209434   6.780737   6.772132   4.775100
    21  H    7.425160   7.140498   7.784978   7.483843   5.666417
    22  H    7.706593   7.375918   7.808399   7.902666   5.865121
                    6          7          8          9         10
     6  O    0.000000
     7  N    2.246909   0.000000
     8  H    3.131704   1.005191   0.000000
     9  C    2.823297   1.458081   2.112869   0.000000
    10  H    3.556767   2.086227   2.470369   1.089315   0.000000
    11  C    3.931320   2.456130   2.747344   1.529129   2.143833
    12  H    3.785979   2.707070   3.071152   2.152893   3.043519
    13  H    4.640560   3.393297   3.744212   2.155767   2.468732
    14  H    4.596334   2.703487   2.579530   2.158197   2.475926
    15  C    2.447504   2.477131   3.395982   1.526557   2.135947
    16  O    1.627347   2.722160   3.722263   2.385149   3.149493
    17  N    3.694804   3.686020   4.513826   2.442882   2.611817
    18  H    4.450409   3.974392   4.647428   2.573771   2.417405
    19  C    4.347541   4.914968   5.818520   3.813711   4.022715
    20  H    3.845125   4.890653   5.863835   4.043414   4.446571
    21  H    4.930454   5.499258   6.375748   4.414097   4.388618
    22  H    5.167273   5.607116   6.470260   4.407692   4.662880
                   11         12         13         14         15
    11  C    0.000000
    12  H    1.088089   0.000000
    13  H    1.088167   1.774804   0.000000
    14  H    1.089486   1.775541   1.774283   0.000000
    15  C    2.469206   2.711295   2.674934   3.426101   0.000000
    16  O    3.300625   3.190086   3.677023   4.239460   1.222975
    17  N    3.043160   3.444451   2.731676   4.008809   1.349152
    18  H    2.953064   3.596827   2.398589   3.771644   2.046114
    19  C    4.360175   4.563890   3.965645   5.379340   2.449609
    20  H    4.695695   4.701834   4.505659   5.752089   2.527805
    21  H    5.125151   5.473016   4.700067   6.073488   3.154434
    22  H    4.608184   4.726951   4.023315   5.631871   3.155815
                   16         17         18         19         20
    16  O    0.000000
    17  N    2.270688   0.000000
    18  H    3.158476   1.005474   0.000000
    19  C    2.811074   1.448098   2.113386   0.000000
    20  H    2.375495   2.076813   2.973670   1.086357   0.000000
    21  H    3.552888   2.086360   2.481824   1.088722   1.774566
    22  H    3.555863   2.086338   2.481902   1.089218   1.775285
                   21         22
    21  H    0.000000
    22  H    1.775486   0.000000
 Stoichiometry    C6H12N2O2
 Framework group  C1[X(C6H12N2O2)]
 Deg. of freedom    60
 Full point group                 C1      NOp   1
 Largest Abelian subgroup         C1      NOp   1
 Largest concise Abelian subgroup C1      NOp   1
                         Standard orientation:                         
 ---------------------------------------------------------------------
 Center     Atomic      Atomic             Coordinates (Angstroms)
 Number     Number       Type             X           Y           Z
 ---------------------------------------------------------------------
      1          1           0       -3.642192   -1.575019    0.191932
      2          6           0       -3.349382   -0.559157   -0.059612
      3          1           0       -3.774928    0.131450    0.668788
      4          1           0       -3.723210   -0.307204   -1.050631
      5          6           0       -1.826766   -0.423256   -0.062847
      6          8           0       -1.102168   -1.370483    0.193002
      7          7           0       -1.337642    0.793519   -0.363999
      8          1           0       -1.982378    1.534258   -0.578544
      9          6           0        0.082141    1.124065   -0.394919
     10          1           0        0.347786    1.462186   -1.395775
     11          6           0        0.396063    2.241189    0.600933
     12          1           0        0.141624    1.913925    1.606964
     13          1           0        1.456000    2.483911    0.559367
     14          1           0       -0.183695    3.130232    0.355042
     15          6           0        0.960362   -0.074399   -0.044508
     16          8           0        0.466631   -1.056847    0.490929
     17          7           0        2.270286    0.038990   -0.346920
     18          1           0        2.612991    0.873749   -0.790440
     19          6           0        3.223336   -1.012145   -0.057444
     20          1           0        2.707344   -1.842150    0.416913
     21          1           0        3.686482   -1.355780   -0.980876
     22          1           0        3.995436   -0.636264    0.612609
 ---------------------------------------------------------------------
 Rotational constants (GHZ):      2.4413168      0.9222729      0.7136635
 Standard basis: 6-31G(d) (6D, 7F)
 There are   174 symmetry adapted basis functions of A   symmetry.
 Integral buffers will be    131072 words long.
 Raffenetti 1 integral format.
 Two-electron integral symmetry is turned on.
   174 basis functions,   328 primitive gaussians,   174 cartesian basis functions
    39 alpha electrons       39 beta electrons
       nuclear repulsion energy       579.2414555545 Hartrees.
 NAtoms=   22 NActive=   22 NUniq=   22 SFac= 7.50D-01 NAtFMM=   80 NAOKFM=F Big=F
 One-electron integrals computed using PRISM.
 NBasis=   174 RedAO= T  NBF=   174
 NBsUse=   174 1.00D-06 NBFU=   174
 Initial guess read from the read-write file.
 B after Tr=     0.000000    0.000000    0.000000
         Rot=    1.000000    0.000000    0.000000    0.000000 Ang=   0.00 deg.
 Initial guess orbital symmetries:
       Occupied  (A) (A) (A) (A) (A) (A) (A) (A) (A) (A) (A) (A)
                 (A) (A) (A) (A) (A) (A) (A) (A) (A) (A) (A) (A)
                 (A) (A) (A) (A) (A) (A) (A) (A) (A) (A) (A) (A)
                 (A) (A) (A)
       Virtual   (A) (A) (A) (A) (A) (A) (A) (A) (A) (A) (A) (A)
                 (A) (A) (A) (A) (A) (A) (A) (A) (A) (A) (A) (A)
                 (A) (A) (A) (A) (A) (A) (A) (A) (A) (A) (A) (A)
                 (A) (A) (A) (A) (A) (A) (A) (A) (A) (A) (A) (A)
                 (A) (A) (A) (A) (A) (A) (A) (A) (A) (A) (A) (A)
                 (A) (A) (A) (A) (A) (A) (A) (A) (A) (A) (A) (A)
                 (A) (A) (A) (A) (A) (A) (A) (A) (A) (A) (A) (A)
                 (A) (A) (A) (A) (A) (A) (A) (A) (A) (A) (A) (A)
                 (A) (A) (A) (A) (A) (A) (A) (A) (A) (A) (A) (A)
                 (A) (A) (A) (A) (A) (A) (A) (A) (A) (A) (A) (A)
                 (A) (A) (A) (A) (A) (A) (A) (A) (A) (A) (A) (A)
                 (A) (A) (A)
 Harris functional with IExCor=  205 diagonalized for initial guess.
 ExpMin= 1.61D-01 ExpMax= 5.48D+03 ExpMxC= 8.25D+02 IAcc=1 IRadAn=         1 AccDes= 0.00D+00
 HarFok:  IExCor=  205 AccDes= 0.00D+00 IRadAn=         1 IDoV= 1
 ScaDFX=  1.000000  1.000000  1.000000  1.000000
 FoFCou: FMM=F IPFlag=           0 FMFlag=      100000 FMFlg1=           0
         NFxFlg=           0 DoJE=T BraDBF=F KetDBF=T FulRan=T
         Omega=  0.000000  0.000000  1.000000  0.000000  0.000000 ICntrl=     500 IOpCl=  0
         NMat0=    1 NMatS0=    1 NMatT0=    0 NMatD0=    1 NMtDS0=    0 NMtDT0=    0
         I1Cent=           4 NGrid=           0.
 Petite list used in FoFCou.
 Requested convergence on RMS density matrix=1.00D-08 within 128 cycles.
 Requested convergence on MAX density matrix=1.00D-06.
 Requested convergence on             energy=1.00D-06.
 No special actions if energy rises.
 Integral accuracy reduced to 1.0D-05 until final iterations.
 Initial convergence to 1.0D-05 achieved.  Increase integral accuracy.
 SCF Done:  E(RHF) =  -492.634155170     A.U. after   17 cycles
             Convg  =    0.8337D-08             -V/T =  1.9999
 Calling FoFJK, ICntrl=      2127 FMM=F ISym2X=0 I1Cent= 0 IOpClX= 0 NMat=1 NMatS=1 NMatT=0.
 ***** Axes restored to original set *****
 -------------------------------------------------------------------
 Center     Atomic                   Forces (Hartrees/Bohr)
 Number     Number              X              Y              Z
 -------------------------------------------------------------------
      1        1           0.007723628   -0.000478335    0.000210282
      2        6           0.009662289   -0.006117708   -0.009114351
      3        1          -0.003828974   -0.002729307    0.003459039
      4        1          -0.002218617   -0.000876633   -0.002640693
      5        6          -0.047818776    0.065997735    0.002517854
      6        8          -0.261516165   -0.210014545    0.083774458
      7        7           0.020133649   -0.010457630    0.004611833
      8        1           0.001080923    0.010458058    0.000253329
      9        6           0.006298366   -0.001443784   -0.007530736
     10        1          -0.001528937    0.000234921   -0.000258253
     11        6           0.001017844   -0.004347171    0.000315341
     12        1           0.002898823   -0.001531086    0.002153121
     13        1          -0.001664224   -0.004344816   -0.003051907
     14        1           0.001695796    0.002487837   -0.002832694
     15        6          -0.062365002    0.035690276   -0.022548198
     16        8           0.314489423    0.126089028   -0.067028765
     17        7           0.020783354   -0.002662660    0.015728506
     18        1          -0.009727234    0.005978025    0.002136418
     19        6           0.002187648   -0.000956040   -0.000791416
     20        1           0.005724826   -0.004413292    0.001383632
     21        1          -0.001013077    0.001721350   -0.003383830
     22        1          -0.002015563    0.001715777    0.002637033
 -------------------------------------------------------------------
 Cartesian Forces:  Max     0.314489423 RMS     0.061937518

 GradGradGradGradGradGradGradGradGradGradGradGradGradGradGradGradGradGrad
 Berny optimization.
 Using GEDIIS/GDIIS optimizer.
 Internal  Forces:  Max     0.309961145 RMS     0.032339529
 Search for a local minimum.
 Step number   2 out of a maximum of  116
 All quantities printed in internal units (Hartrees-Bohrs-Radians)
 Mixed Optimization -- RFO/linear search
 Update second derivatives using D2CorX and points    1    2
 DE= -1.15D-01 DEPred=-1.13D-01 R= 1.02D+00
 SS=  1.41D+00  RLast= 3.00D-01 DXNew= 5.0454D-01 8.9997D-01
 Trust test= 1.02D+00 RLast= 3.00D-01 DXMaxT set to 5.05D-01
 Use linear search instead of GDIIS.
     Eigenvalues ---    0.00370   0.00435   0.01043   0.01539   0.01662
     Eigenvalues ---    0.01681   0.02053   0.02557   0.03016   0.03631
     Eigenvalues ---    0.05297   0.05790   0.05816   0.06484   0.07182
     Eigenvalues ---    0.07403   0.07629   0.07692   0.15278   0.15882
     Eigenvalues ---    0.16000   0.16000   0.16000   0.16000   0.16000
     Eigenvalues ---    0.16000   0.16000   0.16000   0.16000   0.16055
     Eigenvalues ---    0.18399   0.21821   0.22421   0.24057   0.24854
     Eigenvalues ---    0.25017   0.29387   0.29662   0.29846   0.31022
     Eigenvalues ---    0.34809   0.34811   0.34811   0.34812   0.34814
     Eigenvalues ---    0.34815   0.34816   0.34817   0.34820   0.34936
     Eigenvalues ---    0.37927   0.38376   0.45978   0.45982   0.55878
     Eigenvalues ---    0.61873   0.86076   0.945521000.000001000.00000
     Eigenvalues --- 1000.000001000.000001000.000001000.000001000.00000
     Eigenvalues --- 1000.000001000.000001000.000001000.000001000.00000
     Eigenvalues --- 1000.000001000.000001000.000001000.000001000.00000
     Eigenvalues --- 1000.000001000.000001000.000001000.000001000.00000
     Eigenvalues --- 1000.000001000.000001000.000001000.000001000.00000
     Eigenvalues --- 1000.000001000.000001000.000001000.000001000.00000
     Eigenvalues --- 1000.000001000.000001000.000001000.000001000.00000
     Eigenvalues --- 1000.000001000.000001000.000001000.000001000.00000
     Eigenvalues --- 1000.000001000.000001000.000001000.000001000.00000
     Eigenvalues --- 1000.00000
 RFO step:  Lambda=-4.80838709D-02 EMin= 3.70080274D-03
 Quartic linear search produced a step of  1.12538.
 Maximum step size (   0.505) exceeded in Quadratic search.
    -- Step size scaled by   0.756
 Iteration  1 RMS(Cart)=  0.06047416 RMS(Int)=  0.02389040
 Iteration  2 RMS(Cart)=  0.03162767 RMS(Int)=  0.00383788
 Iteration  3 RMS(Cart)=  0.00545817 RMS(Int)=  0.00180997
 Iteration  4 RMS(Cart)=  0.00001353 RMS(Int)=  0.00180996
 Iteration  5 RMS(Cart)=  0.00000004 RMS(Int)=  0.00180996
 Iteration  1 RMS(Cart)=  0.00033462 RMS(Int)=  0.00049354
 Iteration  2 RMS(Cart)=  0.00027980 RMS(Int)=  0.00053048
 Iteration  3 RMS(Cart)=  0.00024394 RMS(Int)=  0.00060293
 Iteration  4 RMS(Cart)=  0.00021339 RMS(Int)=  0.00067992
 Iteration  5 RMS(Cart)=  0.00018506 RMS(Int)=  0.00075103
 Iteration  6 RMS(Cart)=  0.00015888 RMS(Int)=  0.00081350
 Iteration  7 RMS(Cart)=  0.00013523 RMS(Int)=  0.00086720
 Iteration  8 RMS(Cart)=  0.00011433 RMS(Int)=  0.00091284
 Iteration  9 RMS(Cart)=  0.00009617 RMS(Int)=  0.00095137
 Iteration 10 RMS(Cart)=  0.00008060 RMS(Int)=  0.00098375
 Iteration 11 RMS(Cart)=  0.00006737 RMS(Int)=  0.00101090
 Iteration 12 RMS(Cart)=  0.00005620 RMS(Int)=  0.00103361
 Iteration 13 RMS(Cart)=  0.00004682 RMS(Int)=  0.00105258
 Iteration 14 RMS(Cart)=  0.00003897 RMS(Int)=  0.00106840
 Iteration 15 RMS(Cart)=  0.00003241 RMS(Int)=  0.00108158
 Iteration 16 RMS(Cart)=  0.00002694 RMS(Int)=  0.00109257
 Iteration 17 RMS(Cart)=  0.00002238 RMS(Int)=  0.00110170
 Iteration 18 RMS(Cart)=  0.00001859 RMS(Int)=  0.00110931
 Iteration 19 RMS(Cart)=  0.00001544 RMS(Int)=  0.00111563
 Iteration 20 RMS(Cart)=  0.00001282 RMS(Int)=  0.00112089
 Iteration 21 RMS(Cart)=  0.00001065 RMS(Int)=  0.00112526
 Iteration 22 RMS(Cart)=  0.00000884 RMS(Int)=  0.00112888
 Iteration 23 RMS(Cart)=  0.00000734 RMS(Int)=  0.00113190
 Iteration 24 RMS(Cart)=  0.00000609 RMS(Int)=  0.00113441
 Iteration 25 RMS(Cart)=  0.00000506 RMS(Int)=  0.00113649
 Iteration 26 RMS(Cart)=  0.00000420 RMS(Int)=  0.00113821
 Iteration 27 RMS(Cart)=  0.00000348 RMS(Int)=  0.00113965
 Iteration 28 RMS(Cart)=  0.00000289 RMS(Int)=  0.00114084
 Iteration 29 RMS(Cart)=  0.00000240 RMS(Int)=  0.00114183
 Iteration 30 RMS(Cart)=  0.00000199 RMS(Int)=  0.00114265
 Iteration 31 RMS(Cart)=  0.00000165 RMS(Int)=  0.00114333
 Iteration 32 RMS(Cart)=  0.00000137 RMS(Int)=  0.00114390
 Iteration 33 RMS(Cart)=  0.00000114 RMS(Int)=  0.00114437
 Iteration 34 RMS(Cart)=  0.00000095 RMS(Int)=  0.00114476
 Variable       Old X    -DE/DX   Delta X   Delta X   Delta X     New X
                                 (Linear)    (Quad)   (Total)
    R1        2.05363  -0.00661  -0.00690  -0.00244  -0.00934   2.04429
    R2        2.06023  -0.00129   0.00051  -0.00693  -0.00642   2.05381
    R3        2.05741  -0.00162  -0.00266   0.00274   0.00008   2.05750
    R4        2.88877  -0.00343  -0.00267  -0.00565  -0.00832   2.88045
    R5        2.30495  -0.05810  -0.01986  -0.05161  -0.07153   2.23342
    R6        2.54270   0.03008   0.02241   0.01779   0.04057   2.58327
    R7        3.07524   0.30996   0.31266   0.15435   0.46703   3.54227
    R8        1.89954  -0.01047  -0.01032  -0.00189  -0.01222   1.88732
    R9        2.75537   0.01436   0.01936  -0.01116   0.00889   2.76427
   R10        2.05851  -0.00105  -0.00139   0.00066  -0.00074   2.05777
   R11        2.88964   0.00691   0.00872  -0.00153   0.00719   2.89683
   R12        2.88477   0.01108   0.00967   0.01119   0.02123   2.90600
   R13        2.05619  -0.00362  -0.00397  -0.00069  -0.00466   2.05153
   R14        2.05634  -0.00347  -0.00395  -0.00018  -0.00413   2.05221
   R15        2.05883  -0.00223  -0.00093  -0.00566  -0.00659   2.05224
   R16        2.31109  -0.05673  -0.01280  -0.06517  -0.07972   2.23136
   R17        2.54953   0.01804   0.03004  -0.03383  -0.00378   2.54574
   R18        1.90007  -0.01062  -0.00946  -0.00494  -0.01440   1.88567
   R19        2.73651  -0.00179  -0.00196  -0.00011  -0.00208   2.73443
   R20        2.05292  -0.00708  -0.00776  -0.00134  -0.00910   2.04382
   R21        2.05739  -0.00280  -0.00273  -0.00168  -0.00441   2.05297
   R22        2.05832  -0.00254  -0.00170  -0.00422  -0.00592   2.05241
    A1        1.90956  -0.00016  -0.00177   0.00382   0.00183   1.91139
    A2        1.91187   0.00047   0.00083   0.00276   0.00366   1.91553
    A3        1.93047  -0.00812  -0.00970  -0.00890  -0.01867   1.91179
    A4        1.90449  -0.00490  -0.00630  -0.00147  -0.00773   1.89676
    A5        1.91121   0.00865   0.01706  -0.03001  -0.01304   1.89817
    A6        1.89600   0.00411  -0.00007   0.03398   0.03397   1.92997
    A7        2.12026   0.01716   0.01928   0.00571   0.02595   2.14621
    A8        2.02967  -0.01035  -0.00619  -0.03307  -0.03839   1.99128
    A9        2.13325  -0.00681  -0.01309   0.02735   0.01239   2.14564
   A10        2.05039  -0.03312  -0.04057   0.00247  -0.04251   2.00788
   A11        2.07259  -0.01732  -0.02439   0.00818  -0.01592   2.05667
   A12        2.16968   0.03669   0.04724   0.00751   0.05404   2.22372
   A13        2.04090  -0.01935  -0.02287  -0.01553  -0.03822   2.00268
   A14        1.90425  -0.00846  -0.00775   0.00697   0.00062   1.90487
   A15        1.93019  -0.00232  -0.00996  -0.00109  -0.01287   1.91733
   A16        1.95772   0.01510   0.02106  -0.00272   0.01809   1.97581
   A17        1.89815   0.00284   0.00231   0.00743   0.00963   1.90778
   A18        1.89051  -0.00041  -0.00627   0.00826   0.00109   1.89161
   A19        1.88173  -0.00688   0.00041  -0.01851  -0.01651   1.86523
   A20        1.91177   0.00054   0.00070   0.00032   0.00098   1.91275
   A21        1.91564   0.00507   0.00515   0.01138   0.01650   1.93214
   A22        1.91763   0.00371   0.00735  -0.01334  -0.00599   1.91164
   A23        1.90729  -0.00258  -0.00317   0.00007  -0.00315   1.90414
   A24        1.90675  -0.00245  -0.00391   0.00079  -0.00314   1.90362
   A25        1.90466  -0.00438  -0.00618   0.00079  -0.00539   1.89927
   A26        2.09314   0.00019  -0.01122   0.04845   0.03640   2.12955
   A27        2.02766  -0.01208  -0.00829  -0.02917  -0.03716   1.99050
   A28        2.16232   0.01191   0.01945  -0.01887   0.00066   2.16298
   A29        2.05314  -0.01612  -0.01414   0.00183  -0.02061   2.03254
   A30        2.09391  -0.00004  -0.00062   0.00152   0.00085   2.09476
   A31        2.13316   0.00169   0.00638  -0.01898  -0.01265   2.12052
   A32        2.05611  -0.00166  -0.00577   0.01751   0.01169   2.06780
   A33        1.90633  -0.00452  -0.00550  -0.00438  -0.00987   1.89646
   A34        1.91721   0.00405   0.00684  -0.00675   0.00008   1.91730
   A35        1.91666   0.00402   0.00624  -0.00365   0.00258   1.91924
   A36        1.90844  -0.00046  -0.00185   0.00645   0.00460   1.91304
   A37        1.90894  -0.00035  -0.00135   0.00447   0.00312   1.91206
   A38        1.90620  -0.00274  -0.00441   0.00395  -0.00048   1.90571
    D1       -0.00079  -0.00025  -0.00089   0.00957   0.00727   0.00648
    D2        3.13943  -0.00056  -0.00244  -0.00069  -0.00195   3.13748
    D3        2.10502  -0.00001   0.00187  -0.01076  -0.01008   2.09494
    D4       -1.03795  -0.00033   0.00032  -0.02102  -0.01929  -1.05725
    D5       -2.09972   0.00152   0.00409  -0.00988  -0.00709  -2.10681
    D6        1.04049   0.00121   0.00254  -0.02014  -0.01630   1.02419
    D7       -2.90764   0.00161   0.02192  -0.19696  -0.17005  -3.07769
    D8        0.23541   0.00194   0.02356  -0.18604  -0.15999   0.07542
    D9       -0.01285  -0.00903  -0.01446   0.06131   0.04980   0.03695
   D10        3.12210  -0.00647  -0.02194   0.08961   0.07406  -3.08703
   D11        3.12735  -0.00932  -0.01603   0.05095   0.04060  -3.11523
   D12       -0.02089  -0.00676  -0.02351   0.07925   0.06486   0.04397
   D13       -0.49961  -0.00906  -0.02789   0.23677   0.20496  -0.29465
   D14        2.09475  -0.00637   0.00040   0.01330   0.01353   2.10828
   D15       -2.10136  -0.00961  -0.00788   0.02616   0.01791  -2.08345
   D16       -0.00001  -0.00978  -0.00001   0.00000   0.00001   0.00001
   D17       -1.05338  -0.00385  -0.00696   0.04121   0.03722  -1.01616
   D18        1.03370  -0.00709  -0.01524   0.05407   0.04159   1.07529
   D19        3.13505  -0.00726  -0.00736   0.02791   0.02370  -3.12444
   D20        1.05765   0.00758   0.01171  -0.00996   0.00149   1.05913
   D21       -3.13147   0.00788   0.01142  -0.00265   0.00853  -3.12294
   D22       -1.03699   0.00796   0.01156  -0.00289   0.00841  -1.02858
   D23       -3.13479  -0.00244  -0.00247   0.00260   0.00042  -3.13437
   D24       -1.04072  -0.00214  -0.00276   0.00991   0.00746  -1.03326
   D25        1.05376  -0.00206  -0.00263   0.00967   0.00734   1.06110
   D26       -1.08851  -0.00516  -0.00843   0.00624  -0.00225  -1.09076
   D27        1.00556  -0.00486  -0.00872   0.01354   0.00479   1.01035
   D28        3.10003  -0.00478  -0.00858   0.01331   0.00467   3.10471
   D29       -0.27342  -0.00808  -0.01305   0.03765   0.03011  -0.24331
   D30        2.87975  -0.01013  -0.00001   0.00000   0.00001   2.87977
   D31       -2.37616  -0.00668  -0.01240   0.02514   0.01708  -2.35908
   D32        0.77702  -0.00873   0.00065  -0.01250  -0.01302   0.76399
   D33        1.85580  -0.00610  -0.01200   0.02195   0.01403   1.86984
   D34       -1.27420  -0.00815   0.00105  -0.01569  -0.01607  -1.29027
   D35        0.49191   0.00040   0.01185  -0.14872  -0.13503   0.35688
   D36       -2.66221   0.00244  -0.00226  -0.10804  -0.10212  -2.76433
   D37       -0.01552  -0.00240  -0.01754   0.09030   0.07515   0.05963
   D38        3.12871  -0.00139  -0.01447   0.06900   0.05699  -3.09748
   D39        3.13816  -0.00445  -0.00392   0.05051   0.04414  -3.10089
   D40       -0.00079  -0.00343  -0.00085   0.02921   0.02597   0.02519
   D41       -0.00199  -0.00070  -0.00229   0.01799   0.01572   0.01373
   D42        2.09109  -0.00159  -0.00376   0.01908   0.01533   2.10642
   D43       -2.09535   0.00008  -0.00107   0.01744   0.01641  -2.07894
   D44       -3.14100   0.00029   0.00072  -0.00285  -0.00216   3.14003
   D45       -1.04791  -0.00060  -0.00075  -0.00176  -0.00254  -1.05046
   D46        1.04883   0.00107   0.00194  -0.00340  -0.00147   1.04737
         Item               Value     Threshold  Converged?
 Maximum Force            0.307508     0.000450     NO 
 RMS     Force            0.032475     0.000300     NO 
 Maximum Displacement     0.309294     0.001800     NO 
 RMS     Displacement     0.088126     0.001200     NO 
 Predicted change in Energy=-1.296107D-01
 GradGradGradGradGradGradGradGradGradGradGradGradGradGradGradGradGradGrad

                          Input orientation:                          
 ---------------------------------------------------------------------
 Center     Atomic      Atomic             Coordinates (Angstroms)
 Number     Number       Type             X           Y           Z
 ---------------------------------------------------------------------
      1          1           0        0.158963    4.256537   -0.031418
      2          6           0        1.085921    3.700271    0.008406
      3          1           0        1.139775    3.023222   -0.840066
      4          1           0        1.124205    3.114134    0.925151
      5          6           0        2.263273    4.665991   -0.059631
      6          8           0        2.130288    5.837852   -0.136369
      7          7           0        3.486878    4.058437   -0.010905
      8          1           0        3.510954    3.060856    0.030405
      9          6           0        4.799398    4.703922    0.008740
     10          1           0        5.327708    4.411243    0.914823
     11          6           0        5.612490    4.267716   -1.215391
     12          1           0        5.093285    4.563845   -2.121650
     13          1           0        6.597553    4.724769   -1.204736
[...]
    13  H    6.384334   5.411292   5.194313   5.626356   4.539193
    14  H    5.527993   4.467418   4.319902   4.389592   3.915990
    15  C    5.015568   4.351242   4.394979   4.959941   3.042875
    16  O    4.540015   4.047708   3.987870   4.866036   2.888001
    17  N    6.373938   5.701040   5.723668   6.255170   4.369547
    18  H    6.852423   6.128818   6.248147   6.545317   4.758960
    19  C    7.211419   6.674874   6.644413   7.366082   5.358785
    20  H    7.198509   6.795619   6.891034   7.532089   5.416853
    21  H    8.226534   7.638175   7.591323   8.270131   6.315108
    22  H    7.113499   6.608936   6.425770   7.386123   5.441062
                    6          7          8          9         10
     6  O    0.000000
     7  N    2.276709   0.000000
     8  H    3.075590   0.996335   0.000000
     9  C    3.095775   1.460866   2.022961   0.000000
    10  H    3.631862   2.074180   2.595245   1.087251   0.000000
    11  C    4.357849   2.436564   2.375942   1.536561   2.140204
    12  H    4.379739   2.726776   2.583966   2.163963   3.042526
    13  H    5.159135   3.384513   3.423861   2.176177   2.467195
    14  H    4.837175   2.641826   2.215288   2.165759   2.488583
    15  C    3.074971   2.546098   3.302318   1.532331   2.130069
    16  O    2.728411   2.919216   3.675537   2.408789   3.195083
    17  N    4.321171   3.720159   4.406996   2.416440   2.547483
    18  H    4.764044   3.913684   4.553002   2.544248   2.251203
    19  C    5.079069   4.964603   5.705894   3.783723   3.961085
    20  H    4.906889   5.219387   6.073035   4.216330   4.320724
    21  H    6.088478   5.778595   6.460973   4.475244   4.491019
    22  H    5.202064   5.179878   5.858298   4.100860   4.525671
                   11         12         13         14         15
    11  C    0.000000
    12  H    1.084496   0.000000
    13  H    1.081815   1.759028   0.000000
    14  H    1.085968   1.763899   1.753397   0.000000
    15  C    2.475481   2.716423   2.709004   3.432363   0.000000
    16  O    3.222987   3.076797   3.587944   4.187738   1.193340
    17  N    3.002938   3.416347   2.712680   3.965251   1.364099
    18  H    3.123368   3.801169   2.701032   3.910961   2.026755
    19  C    4.313727   4.523480   3.937721   5.331055   2.434471
    20  H    5.036297   5.269657   4.799256   6.024899   2.818131
    21  H    4.817597   5.116828   4.219894   5.779239   3.311711
    22  H    4.435112   4.383425   4.115785   5.509781   2.676119
                   16         17         18         19         20
    16  O    0.000000
    17  N    2.237089   0.000000
    18  H    3.089823   0.995167   0.000000
    19  C    2.735632   1.449923   2.093069   0.000000
    20  H    2.939175   2.115187   2.635252   1.084878   0.000000
    21  H    3.767761   2.066815   2.320737   1.082240   1.766341
    22  H    2.589937   2.074825   2.923784   1.079434   1.755079
                   21         22
    21  H    0.000000
    22  H    1.759978   0.000000
 Stoichiometry    C6H12N2O2
 Framework group  C1[X(C6H12N2O2)]
 Deg. of freedom    60
 Full point group                 C1      NOp   1
 Largest Abelian subgroup         C1      NOp   1
 Largest concise Abelian subgroup C1      NOp   1
                         Standard orientation:                         
 ---------------------------------------------------------------------
 Center     Atomic      Atomic             Coordinates (Angstroms)
 Number     Number       Type             X           Y           Z
 ---------------------------------------------------------------------
      1          1           0       -3.838334   -1.169472    0.553298
      2          6           0       -3.277084   -0.247503    0.527442
      3          1           0       -3.066713    0.071574    1.543836
      4          1           0       -3.873630    0.523869    0.049538
      5          6           0       -1.976695   -0.484696   -0.214802
      6          8           0       -1.630356   -1.571318   -0.551306
      7          7           0       -1.304563    0.681959   -0.548845
      8          1           0       -1.818956    1.484547   -0.259130
      9          6           0        0.125045    0.978088   -0.497308
     10          1           0        0.449343    1.251496   -1.498404
     11          6           0        0.345310    2.188826    0.422810
     12          1           0        0.072796    1.937050    1.441867
     13          1           0        1.379192    2.507061    0.411044
     14          1           0       -0.266078    3.024275    0.094854
     15          6           0        1.040261   -0.148189   -0.005456
     16          8           0        0.693825   -0.997718    0.757659
     17          7           0        2.356313    0.074591   -0.286780
     18          1           0        2.569685    0.609640   -1.098293
     19          6           0        3.355439   -0.887647    0.135264
     20          1           0        3.267039   -1.831583   -0.392117
     21          1           0        4.336187   -0.468343   -0.047937
     22          1           0        3.245801   -1.076945    1.192299
 ---------------------------------------------------------------------
 Rotational constants (GHZ):      2.3794656      0.8311635      0.6800553

 **********************************************************************

            Population analysis using the SCF density.

 **********************************************************************

 Orbital symmetries:
       Occupied  (A) (A) (A) (A) (A) (A) (A) (A) (A) (A) (A) (A)
                 (A) (A) (A) (A) (A) (A) (A) (A) (A) (A) (A) (A)
                 (A) (A) (A) (A) (A) (A) (A) (A) (A) (A) (A) (A)
                 (A) (A) (A)
       Virtual   (A) (A) (A) (A) (A) (A) (A) (A) (A) (A) (A) (A)
                 (A) (A) (A) (A) (A) (A) (A) (A) (A) (A) (A) (A)
                 (A) (A) (A) (A) (A) (A) (A) (A) (A) (A) (A) (A)
                 (A) (A) (A) (A) (A) (A) (A) (A) (A) (A) (A) (A)
                 (A) (A) (A) (A) (A) (A) (A) (A) (A) (A) (A) (A)
                 (A) (A) (A) (A) (A) (A) (A) (A) (A) (A) (A) (A)
                 (A) (A) (A) (A) (A) (A) (A) (A) (A) (A) (A) (A)
                 (A) (A) (A) (A) (A) (A) (A) (A) (A) (A) (A) (A)
                 (A) (A) (A) (A) (A) (A) (A) (A) (A) (A) (A) (A)
                 (A) (A) (A) (A) (A) (A) (A) (A) (A) (A) (A) (A)
                 (A) (A) (A) (A) (A) (A) (A) (A) (A) (A) (A) (A)
                 (A) (A) (A)
 The electronic state is 1-A.
 Alpha  occ. eigenvalues --  -20.52547 -20.51466 -15.58460 -15.57663 -11.34680
 Alpha  occ. eigenvalues --  -11.33906 -11.29055 -11.25522 -11.23979 -11.22515
 Alpha  occ. eigenvalues --   -1.39859  -1.37953  -1.23542  -1.22747  -1.05824
 Alpha  occ. eigenvalues --   -0.98799  -0.95670  -0.88261  -0.80112  -0.77330
 Alpha  occ. eigenvalues --   -0.69469  -0.68202  -0.66552  -0.63934  -0.62793
 Alpha  occ. eigenvalues --   -0.61099  -0.59484  -0.57984  -0.57500  -0.55742
 Alpha  occ. eigenvalues --   -0.55210  -0.55127  -0.53900  -0.51947  -0.48889
 Alpha  occ. eigenvalues --   -0.42633  -0.40533  -0.39210  -0.37831
 Alpha virt. eigenvalues --    0.19084   0.20536   0.20659   0.22918   0.26989
 Alpha virt. eigenvalues --    0.27134   0.27895   0.29917   0.31296   0.31626
 Alpha virt. eigenvalues --    0.32006   0.33021   0.33737   0.34747   0.37656
 Alpha virt. eigenvalues --    0.38711   0.41517   0.44166   0.46449   0.50298
 Alpha virt. eigenvalues --    0.55062   0.59705   0.60626   0.72224   0.73503
 Alpha virt. eigenvalues --    0.73762   0.74854   0.76044   0.77605   0.78493
 Alpha virt. eigenvalues --    0.81765   0.82760   0.84379   0.85918   0.87942
 Alpha virt. eigenvalues --    0.90949   0.94585   0.96649   0.98020   1.01102
 Alpha virt. eigenvalues --    1.02562   1.02993   1.05746   1.08004   1.10386
 Alpha virt. eigenvalues --    1.12612   1.13145   1.13816   1.14510   1.15220
 Alpha virt. eigenvalues --    1.15768   1.17610   1.19109   1.20522   1.21805
 Alpha virt. eigenvalues --    1.21993   1.22924   1.23983   1.25093   1.27959
 Alpha virt. eigenvalues --    1.29827   1.30904   1.33153   1.38703   1.40917
 Alpha virt. eigenvalues --    1.42998   1.50538   1.54776   1.55861   1.58656
 Alpha virt. eigenvalues --    1.64682   1.65564   1.68702   1.73011   1.76700
 Alpha virt. eigenvalues --    1.81400   1.88183   1.90073   1.96013   1.98190
 Alpha virt. eigenvalues --    1.99471   2.03693   2.06922   2.12447   2.13545
 Alpha virt. eigenvalues --    2.14260   2.16693   2.17556   2.20434   2.22659
 Alpha virt. eigenvalues --    2.23871   2.26237   2.30415   2.34215   2.34898
 Alpha virt. eigenvalues --    2.37278   2.39690   2.39760   2.44943   2.49753
 Alpha virt. eigenvalues --    2.53533   2.55259   2.56341   2.62249   2.64048
 Alpha virt. eigenvalues --    2.65278   2.68541   2.72358   2.75015   2.76992
 Alpha virt. eigenvalues --    2.79715   2.84549   2.86431   2.93053   2.99742
 Alpha virt. eigenvalues --    3.00839   3.04702   3.08583   3.15202   3.24763
 Alpha virt. eigenvalues --    3.33699   3.39371   3.40881   3.53189   3.57011
 Alpha virt. eigenvalues --    4.35202   4.42271   4.51046   4.56412   4.63457
 Alpha virt. eigenvalues --    4.69276   4.74790   4.82270   4.89182   5.05447
          Condensed to atoms (all electrons):
              1          2          3          4          5          6
     1  H    0.462958   0.381517  -0.016798  -0.020351  -0.032066   0.004681
     2  C    0.381517   5.301624   0.371122   0.374839   0.367542  -0.074010
     3  H   -0.016798   0.371122   0.508089  -0.026920  -0.027879   0.000755
     4  H   -0.020351   0.374839  -0.026920   0.526479  -0.034627   0.001349
     5  C   -0.032066   0.367542  -0.027879  -0.034627   4.133139   0.625844
     6  O    0.004681  -0.074010   0.000755   0.001349   0.625844   8.090549
     7  N    0.004631  -0.128756   0.001717   0.003826   0.243514  -0.094058
     8  H    0.000133   0.001319  -0.000361   0.000323  -0.027758   0.003040
     9  C   -0.000127   0.004067  -0.000290   0.000332  -0.019298   0.001514
    10  H    0.000004  -0.000196   0.000006  -0.000002   0.000292  -0.000121
    11  C    0.000001  -0.000053   0.000053  -0.000037   0.001901   0.000115
    12  H    0.000002  -0.000108   0.000121  -0.000002   0.000114  -0.000015
    13  H    0.000000   0.000004  -0.000001   0.000000  -0.000027   0.000000
    14  H    0.000000  -0.000010  -0.000004  -0.000001  -0.000017  -0.000001
    15  C   -0.000002   0.000356  -0.000037  -0.000014  -0.000419   0.006288
    16  O    0.000005  -0.000706   0.000164   0.000000   0.007408  -0.011727
    17  N    0.000000  -0.000003   0.000000   0.000000   0.000181  -0.000054
    18  H    0.000000   0.000000   0.000000   0.000000  -0.000002   0.000003
    19  C    0.000000   0.000000   0.000000   0.000000  -0.000007   0.000004
    20  H    0.000000   0.000000   0.000000   0.000000  -0.000002  -0.000001
    21  H    0.000000   0.000000   0.000000   0.000000   0.000000   0.000000
    22  H    0.000000   0.000000   0.000000   0.000000   0.000001   0.000001
              7          8          9         10         11         12
     1  H    0.004631   0.000133  -0.000127   0.000004   0.000001   0.000002
     2  C   -0.128756   0.001319   0.004067  -0.000196  -0.000053  -0.000108
     3  H    0.001717  -0.000361  -0.000290   0.000006   0.000053   0.000121
     4  H    0.003826   0.000323   0.000332  -0.000002  -0.000037  -0.000002
     5  C    0.243514  -0.027758  -0.019298   0.000292   0.001901   0.000114
     6  O   -0.094058   0.003040   0.001514  -0.000121   0.000115  -0.000015
     7  N    7.375669   0.333104   0.217757  -0.044730  -0.061569   0.001277
     8  H    0.333104   0.359300  -0.043122   0.001075  -0.003070   0.000251
     9  C    0.217757  -0.043122   4.983479   0.401627   0.348772  -0.037796
    10  H   -0.044730   0.001075   0.401627   0.553344  -0.051122   0.004662
    11  C   -0.061569  -0.003070   0.348772  -0.051122   5.172070   0.385289
    12  H    0.001277   0.000251  -0.037796   0.004662   0.385289   0.502698
    13  H    0.004793   0.000277  -0.032386   0.001177   0.384554  -0.019325
    14  H   -0.004847   0.003116  -0.037012  -0.004521   0.389920  -0.027480
    15  C   -0.038927   0.002821   0.382880  -0.050376  -0.045240  -0.005536
    16  O    0.001463  -0.000209  -0.067095   0.002538  -0.002430   0.002543
    17  N    0.002492  -0.000101  -0.117355   0.005494  -0.004471   0.000623
    18  H   -0.000030  -0.000002  -0.000057   0.002470   0.000126   0.000031
    19  C   -0.000051   0.000002   0.004544  -0.000263  -0.000116  -0.000033
    20  H    0.000006   0.000000  -0.000069  -0.000002  -0.000012   0.000000
    21  H    0.000000   0.000000  -0.000007  -0.000013   0.000004  -0.000001
    22  H   -0.000004   0.000000   0.000076  -0.000005   0.000016   0.000003
             13         14         15         16         17         18
     1  H    0.000000   0.000000  -0.000002   0.000005   0.000000   0.000000
     2  C    0.000004  -0.000010   0.000356  -0.000706  -0.000003   0.000000
     3  H   -0.000001  -0.000004  -0.000037   0.000164   0.000000   0.000000
     4  H    0.000000  -0.000001  -0.000014   0.000000   0.000000   0.000000
     5  C   -0.000027  -0.000017  -0.000419   0.007408   0.000181  -0.000002
     6  O    0.000000  -0.000001   0.006288  -0.011727  -0.000054   0.000003
     7  N    0.004793  -0.004847  -0.038927   0.001463   0.002492  -0.000030
     8  H    0.000277   0.003116   0.002821  -0.000209  -0.000101  -0.000002
     9  C   -0.032386  -0.037012   0.382880  -0.067095  -0.117355  -0.000057
    10  H    0.001177  -0.004521  -0.050376   0.002538   0.005494   0.002470
    11  C    0.384554   0.389920  -0.045240  -0.002430  -0.004471   0.000126
    12  H   -0.019325  -0.027480  -0.005536   0.002543   0.000623   0.000031
    13  H    0.496394  -0.023999  -0.006869  -0.000036   0.004884   0.000036
    14  H   -0.023999   0.529359   0.005178  -0.000074   0.000024  -0.000051
    15  C   -0.006869   0.005178   4.214284   0.587727   0.257970  -0.020566
    16  O   -0.000036  -0.000074   0.587727   8.141197  -0.100681   0.002752
    17  N    0.004884   0.000024   0.257970  -0.100681   7.330869   0.322434
    18  H    0.000036  -0.000051  -0.020566   0.002752   0.322434   0.344426
    19  C   -0.000032   0.000005  -0.030509   0.006521   0.208333  -0.025025
    20  H    0.000008   0.000000  -0.004311   0.001082  -0.046226   0.000351
    21  H   -0.000016   0.000000   0.004744   0.000403  -0.039152  -0.004135
    22  H   -0.000028  -0.000001  -0.002903   0.004360  -0.039247   0.003204
             19         20         21         22
     1  H    0.000000   0.000000   0.000000   0.000000
     2  C    0.000000   0.000000   0.000000   0.000000
     3  H    0.000000   0.000000   0.000000   0.000000
     4  H    0.000000   0.000000   0.000000   0.000000
     5  C   -0.000007  -0.000002   0.000000   0.000001
     6  O    0.000004  -0.000001   0.000000   0.000001
     7  N   -0.000051   0.000006   0.000000  -0.000004
     8  H    0.000002   0.000000   0.000000   0.000000
     9  C    0.004544  -0.000069  -0.000007   0.000076
    10  H   -0.000263  -0.000002  -0.000013  -0.000005
    11  C   -0.000116  -0.000012   0.000004   0.000016
    12  H   -0.000033   0.000000  -0.000001   0.000003
    13  H   -0.000032   0.000008  -0.000016  -0.000028
    14  H    0.000005   0.000000   0.000000  -0.000001
    15  C   -0.030509  -0.004311   0.004744  -0.002903
    16  O    0.006521   0.001082   0.000403   0.004360
    17  N    0.208333  -0.046226  -0.039152  -0.039247
    18  H   -0.025025   0.000351  -0.004135   0.003204
    19  C    4.908180   0.406696   0.396956   0.403002
    20  H    0.406696   0.527009  -0.032863  -0.031894
    21  H    0.396956  -0.032863   0.531994  -0.024488
    22  H    0.403002  -0.031894  -0.024488   0.482519
 Mulliken atomic charges:
              1
     1  H    0.215411
     2  C   -0.598546
     3  H    0.190261
     4  H    0.174806
     5  C    0.762168
     6  O   -0.554157
     7  N   -0.817277
     8  H    0.369860
     9  C    0.009568
    10  H    0.178662
    11  C   -0.514701
    12  H    0.192681
    13  H    0.190593
    14  H    0.170416
    15  C    0.743462
    16  O   -0.575206
    17  N   -0.786015
    18  H    0.374033
    19  C   -0.278207
    20  H    0.180227
    21  H    0.166574
    22  H    0.205387
 Sum of Mulliken atomic charges =   0.00000
 Mulliken charges with hydrogens summed into heavy atoms:
              1
     2  C   -0.018068
     5  C    0.762168
     6  O   -0.554157
     7  N   -0.447417
     9  C    0.188230
    11  C    0.038989
    15  C    0.743462
    16  O   -0.575206
    17  N   -0.411982
    19  C    0.273981
 Sum of Mulliken charges with hydrogens summed into heavy atoms =   0.00000
 Electronic spatial extent (au):  <R**2>=           1757.0770
 Charge=              0.0000 electrons
 Dipole moment (field-independent basis, Debye):
    X=              1.5123    Y=              5.3774    Z=             -0.5741  Tot=              5.6154
 Quadrupole moment (field-independent basis, Debye-Ang):
   XX=            -47.1450   YY=            -64.2345   ZZ=            -61.3008
   XY=             -4.8298   XZ=             -6.3148   YZ=             -0.9236
 Traceless Quadrupole moment (field-independent basis, Debye-Ang):
   XX=             10.4151   YY=             -6.6744   ZZ=             -3.7407
   XY=             -4.8298   XZ=             -6.3148   YZ=             -0.9236
 Octapole moment (field-independent basis, Debye-Ang**2):
  XXX=              9.1993  YYY=              9.4603  ZZZ=              0.1545  XYY=              5.6551
  XXY=             -0.0336  XXZ=             -1.1905  XZZ=              5.4387  YZZ=              0.4878
  YYZ=              0.0340  XYZ=              0.8723
 Hexadecapole moment (field-independent basis, Debye-Ang**3):
 XXXX=          -1446.4325 YYYY=           -532.9117 ZZZZ=           -160.0050 XXXY=            -14.5984
 XXXZ=            -17.6375 YYYX=            -18.8254 YYYZ=             -6.5241 ZZZX=             -6.1305
 ZZZY=             -1.0419 XXYY=           -348.3645 XXZZ=           -289.7008 YYZZ=           -118.4706
 XXYZ=            -16.4124 YYXZ=             -7.6295 ZZXY=              4.0588
 N-N= 5.631281052250D+02 E-N=-2.281843293520D+03  KE= 4.920917622992D+02
 1\1\GINC-RODAN\FOpt\RHF\6-31G(d)\C6H12N2O2\STEBOSS\09-Feb-2017\0\\# HF
 /6-31G* Opt=(ModRedundant) geom=nocrowd\\Phi Psi fixed scan\\0,1\H,0.1
 951890686,4.1106889808,-0.3487276063\C,1.2017214097,3.7491828474,-0.49
 67275796\H,1.4456889799,3.7935916505,-1.5539073497\H,1.2617713418,2.71
 18602002,-0.1810850374\C,2.1586248249,4.6254107329,0.2873372905\O,1.80
 27341914,5.6219977229,0.8296381215\N,3.4368809774,4.0973882861,0.39543
 08885\H,3.4927299912,3.2066767116,-0.0475108558\C,4.7308286747,4.76857
 78511,0.2988255224\H,5.2661785989,4.6051670542,1.2309258569\C,5.539425
 4278,4.1204262536,-0.83567442\H,5.055785448,4.3022894455,-1.7891676765
 \H,6.5445131784,4.518389852,-0.8774818133\H,5.6099838931,3.0480464493,
 -0.6796282464\C,4.7012304544,6.2786644372,0.0403647896\O,3.8229954233,
 6.8330598753,-0.5473513519\N,5.8994056939,6.8836146843,0.2836299389\H,
 6.4865197358,6.4799805798,0.9784208895\C,6.0438552951,8.3093070386,0.0
 626955886\H,5.4569609047,8.8960677816,0.7614281558\H,7.088809405,8.570
 0162501,0.1692118315\H,5.721567082,8.550595315,-0.9388469369\\Version=
 EM64L-G09RevA.02\State=1-A\HF=-492.8269577\RMSD=9.995e-09\RMSF=4.505e-
 03\Dipole=1.7865339,-1.2869367,-0.1815359\Quadrupole=0.3380441,2.70136
 56,-3.0394096,6.5739527,4.8513812,2.5474928\PG=C01 [X(C6H12N2O2)]\\@


 QUHEN THE CAUSS IS TAKEN AWAY THE EFFECT WANISHETH.
 -- PROVERBS AND REASONS OF THE YEAR 1585
           AS REPRINTED IN PAISLEY MAGAZINE 1828.
 Job cpu time:  0 days  0 hours 34 minutes 14.1 seconds.
 File lengths (MBytes):  RWF=     25 Int=      0 D2E=      0 Chk=      3 Scr=      1
 Normal termination of Gaussian 09 at Thu Feb  9 12:59:56 2017.
