 Entering Gaussian System, Link 0=g09
 Initial command:
 /home/steboss/Software/g09/l1.exe /tmp/Gau-16190.inp -scrdir=/tmp/
 Entering Link 1 = /home/steboss/Software/g09/l1.exe PID=     16192.
  
 Copyright (c) 1988,1990,1992,1993,1995,1998,2003,2009, Gaussian, Inc.
                  All Rights Reserved.
  
 This is part of the Gaussian(R) 09 program.  It is based on
 the Gaussian(R) 03 system (copyright 2003, Gaussian, Inc.),
 the Gaussian(R) 98 system (copyright 1998, Gaussian, Inc.),
 the Gaussian(R) 94 system (copyright 1995, Gaussian, Inc.),
 the Gaussian 92(TM) system (copyright 1992, Gaussian, Inc.),
 the Gaussian 90(TM) system (copyright 1990, Gaussian, Inc.),
 the Gaussian 88(TM) system (copyright 1988, Gaussian, Inc.),
 the Gaussian 86(TM) system (copyright 1986, Carnegie Mellon
 University), and the Gaussian 82(TM) system (copyright 1983,
 Carnegie Mellon University). Gaussian is a federally registered
 trademark of Gaussian, Inc.
  
 This software contains proprietary and confidential information,
 including trade secrets, belonging to Gaussian, Inc.
  
 This software is provided under written license and may be
 used, copied, transmitted, or stored only in accord with that
 written license.
  
 The following legend is applicable only to US Government
 contracts under FAR:
  
                    RESTRICTED RIGHTS LEGEND
  
 Use, reproduction and disclosure by the US Government is
 subject to restrictions as set forth in subparagraphs (a)
 and (c) of the Commercial Computer Software - Restricted
 Rights clause in FAR 52.227-19.
  
 Gaussian, Inc.
 340 Quinnipiac St., Bldg. 40, Wallingford CT 06492
  
  
 ---------------------------------------------------------------
 Warning -- This program may not be used in any manner that
 competes with the business of Gaussian, Inc. or will provide
 assistance to any competitor of Gaussian, Inc.  The licensee
 of this program is prohibited from giving any competitor of
 Gaussian, Inc. access to this program.  By using this program,
 the user acknowledges that Gaussian, Inc. is engaged in the
 business of creating and licensing software in the field of
 computational chemistry and represents and warrants to the
 licensee that it is not a competitor of Gaussian, Inc. and that
 it will not use this program in any manner prohibited above.
 ---------------------------------------------------------------
  

 Cite this work as:
 Gaussian 09, Revision A.02,
 M. J. Frisch, G. W. Trucks, H. B. Schlegel, G. E. Scuseria, 
 M. A. Robb, J. R. Cheeseman, G. Scalmani, V. Barone, B. Mennucci, 
 G. A. Petersson, H. Nakatsuji, M. Caricato, X. Li, H. P. Hratchian, 
 A. F. Izmaylov, J. Bloino, G. Zheng, J. L. Sonnenberg, M. Hada, 
 M. Ehara, K. Toyota, R. Fukuda, J. Hasegawa, M. Ishida, T. Nakajima, 
 Y. Honda, O. Kitao, H. Nakai, T. Vreven, J. A. Montgomery, Jr., 
 J. E. Peralta, F. Ogliaro, M. Bearpark, J. J. Heyd, E. Brothers, 
 K. N. Kudin, V. N. Staroverov, R. Kobayashi, J. Normand, 
 K. Raghavachari, A. Rendell, J. C. Burant, S. S. Iyengar, J. Tomasi, 
 M. Cossi, N. Rega, J. M. Millam, M. Klene, J. E. Knox, J. B. Cross, 
 V. Bakken, C. Adamo, J. Jaramillo, R. Gomperts, R. E. Stratmann, 
 O. Yazyev, A. J. Austin, R. Cammi, C. Pomelli, J. W. Ochterski, 
 R. L. Martin, K. Morokuma, V. G. Zakrzewski, G. A. Voth, 
 P. Salvador, J. J. Dannenberg, S. Dapprich, A. D. Daniels, 
 O. Farkas, J. B. Foresman, J. V. Ortiz, J. Cioslowski, 
 and D. J. Fox, Gaussian, Inc., Wallingford CT, 2009.
 
 ******************************************
 Gaussian 09:  EM64L-G09RevA.02 11-Jun-2009
                 9-Feb-2017 
 ******************************************
 %chk=structure_150.chk
 %NProcShared=8
 Will use up to    8 processors via shared memory.
 -------------------------------------------
 # HF/6-31G* Opt=(ModRedundant) geom=nocrowd
 -------------------------------------------
 1/18=120,19=15,38=1/1,3;
 2/9=110,12=1,17=6,18=5,40=1/2;
 3/5=1,6=6,7=1,11=9,16=1,25=1,30=1,71=1/1,2,3;
 4//1;
 5/5=2,38=5/2;
 6/7=2,8=2,9=2,10=2,28=1/1;
 7//1,2,3,16;
 1/18=20,19=15/3(2);
 2/9=110,12=1/2;
 99//99;
 2/9=110,12=1/2;
 3/5=1,6=6,7=1,11=9,16=1,25=1,30=1,71=1/1,2,3;
 4/5=5,16=3/1;
 5/5=2,38=5/2;
 7//1,2,3,16;
 1/18=20,19=15/3(-5);
 2/9=110,12=1/2;
 6/7=2,8=2,9=2,10=2,19=2,28=1/1;
 99/9=1/99;
 ------------------
 Phi Psi fixed scan
 ------------------
 Symbolic Z-matrix:
 Charge =  0 Multiplicity = 1
 H                     0.2496    4.5262    0. 
 C                     1.1178    3.8672    0. 
 H                     1.097     3.238    -0.8898 
 H                     1.097     3.238     0.8898 
 C                     2.4195    4.6711    0. 
 O                     2.3938    5.8999    0. 
 N                     3.5554    3.9697    0. 
 H                     3.5254    2.9601    0. 
 C                     4.8533    4.6139    0. 
 H                     5.4076    4.3155    0.8898 
 C                     5.6613    4.2208   -1.2322 
 H                     5.1233    4.5214   -2.1312 
 H                     6.6305    4.7189   -1.2058 
 H                     5.8085    3.1409   -1.2414 
 C                     4.7127    6.1294    0. 
 O                     3.7419    6.6658   -0.5295 
 N                     5.6868    6.8201    0.5968 
 H                     6.4653    6.3339    1.0185 
 C                     5.669     8.2675    0.6638 
 H                     4.7735    8.6435    0.169 
 H                     5.667     8.5835    1.707 
 H                     6.553     8.6656    0.1657 
 
 The following ModRedundant input section has been read:
 D    5    7    9   15 F                                                       
 D    7    9   15   17 F                                                       

 GradGradGradGradGradGradGradGradGradGradGradGradGradGradGradGradGradGrad
 Berny optimization.
 Initialization pass.
                           ----------------------------
                           !    Initial Parameters    !
                           ! (Angstroms and Degrees)  !
 --------------------------                            --------------------------
 ! Name  Definition              Value          Derivative Info.                !
 --------------------------------------------------------------------------------
 ! R1    R(1,2)                  1.09           estimate D2E/DX2                !
 ! R2    R(2,3)                  1.09           estimate D2E/DX2                !
 ! R3    R(2,4)                  1.09           estimate D2E/DX2                !
 ! R4    R(2,5)                  1.5299         estimate D2E/DX2                !
 ! R5    R(5,6)                  1.2291         estimate D2E/DX2                !
 ! R6    R(5,7)                  1.335          estimate D2E/DX2                !
 ! R7    R(6,16)                 1.6384         estimate D2E/DX2                !
 ! R8    R(7,8)                  1.01           estimate D2E/DX2                !
 ! R9    R(7,9)                  1.449          estimate D2E/DX2                !
 ! R10   R(9,10)                 1.09           estimate D2E/DX2                !
 ! R11   R(9,11)                 1.525          estimate D2E/DX2                !
 ! R12   R(9,15)                 1.522          estimate D2E/DX2                !
 ! R13   R(11,12)                1.09           estimate D2E/DX2                !
 ! R14   R(11,13)                1.09           estimate D2E/DX2                !
 ! R15   R(11,14)                1.0899         estimate D2E/DX2                !
 ! R16   R(15,16)                1.229          estimate D2E/DX2                !
 ! R17   R(15,17)                1.335          estimate D2E/DX2                !
 ! R18   R(17,18)                1.0101         estimate D2E/DX2                !
 ! R19   R(17,19)                1.4491         estimate D2E/DX2                !
 ! R20   R(19,20)                1.09           estimate D2E/DX2                !
 ! R21   R(19,21)                1.09           estimate D2E/DX2                !
 ! R22   R(19,22)                1.09           estimate D2E/DX2                !
 ! A1    A(1,2,3)              109.5001         estimate D2E/DX2                !
 ! A2    A(1,2,4)              109.5001         estimate D2E/DX2                !
 ! A3    A(1,2,5)              111.1015         estimate D2E/DX2                !
 ! A4    A(3,2,4)              109.4403         estimate D2E/DX2                !
 ! A5    A(3,2,5)              108.636          estimate D2E/DX2                !
 ! A6    A(4,2,5)              108.636          estimate D2E/DX2                !
 ! A7    A(2,5,6)              120.5004         estimate D2E/DX2                !
 ! A8    A(2,5,7)              116.6068         estimate D2E/DX2                !
 ! A9    A(6,5,7)              122.8928         estimate D2E/DX2                !
 ! A10   A(5,6,16)             116.754          estimate D2E/DX2                !
 ! A11   A(5,7,8)              119.9926         estimate D2E/DX2                !
 ! A12   A(5,7,9)              121.9083         estimate D2E/DX2                !
 ! A13   A(8,7,9)              118.0991         estimate D2E/DX2                !
 ! A14   A(7,9,10)             109.5            estimate D2E/DX2                !
 ! A15   A(7,9,11)             111.0992         estimate D2E/DX2                !
 ! A16   A(7,9,15)             111.0966         estimate D2E/DX2                !
 ! A17   A(10,9,11)            108.6382         estimate D2E/DX2                !
 ! A18   A(10,9,15)            108.6373         estimate D2E/DX2                !
 ! A19   A(11,9,15)            107.7947         estimate D2E/DX2                !
 ! A20   A(9,11,12)            109.5007         estimate D2E/DX2                !
 ! A21   A(9,11,13)            109.4959         estimate D2E/DX2                !
 ! A22   A(9,11,14)            109.4978         estimate D2E/DX2                !
 ! A23   A(12,11,13)           109.441          estimate D2E/DX2                !
 ! A24   A(12,11,14)           109.4482         estimate D2E/DX2                !
 ! A25   A(13,11,14)           109.4436         estimate D2E/DX2                !
 ! A26   A(9,15,16)            120.5            estimate D2E/DX2                !
 ! A27   A(9,15,17)            116.6011         estimate D2E/DX2                !
 ! A28   A(16,15,17)           122.8989         estimate D2E/DX2                !
 ! A29   A(6,16,15)            107.8589         estimate D2E/DX2                !
 ! A30   A(15,17,18)           119.9988         estimate D2E/DX2                !
 ! A31   A(15,17,19)           121.9048         estimate D2E/DX2                !
 ! A32   A(18,17,19)           118.0964         estimate D2E/DX2                !
 ! A33   A(17,19,20)           109.491          estimate D2E/DX2                !
 ! A34   A(17,19,21)           109.5024         estimate D2E/DX2                !
 ! A35   A(17,19,22)           109.4952         estimate D2E/DX2                !
 ! A36   A(20,19,21)           109.447          estimate D2E/DX2                !
 ! A37   A(20,19,22)           109.443          estimate D2E/DX2                !
 ! A38   A(21,19,22)           109.4486         estimate D2E/DX2                !
 ! D1    D(1,2,5,6)              0.0            estimate D2E/DX2                !
 ! D2    D(1,2,5,7)            180.0            estimate D2E/DX2                !
 ! D3    D(3,2,5,6)            120.5133         estimate D2E/DX2                !
 ! D4    D(3,2,5,7)            -59.4867         estimate D2E/DX2                !
 ! D5    D(4,2,5,6)           -120.5133         estimate D2E/DX2                !
 ! D6    D(4,2,5,7)             59.4867         estimate D2E/DX2                !
 ! D7    D(2,5,6,16)          -158.7814         estimate D2E/DX2                !
 ! D8    D(7,5,6,16)            21.2186         estimate D2E/DX2                !
 ! D9    D(2,5,7,8)              0.0            estimate D2E/DX2                !
 ! D10   D(2,5,7,9)            180.0            estimate D2E/DX2                !
 ! D11   D(6,5,7,8)            180.0            estimate D2E/DX2                !
 ! D12   D(6,5,7,9)              0.0            estimate D2E/DX2                !
 ! D13   D(5,6,16,15)          -45.9525         estimate D2E/DX2                !
 ! D14   D(5,7,9,10)           119.9998         estimate D2E/DX2                !
 ! D15   D(5,7,9,11)          -119.9976         estimate D2E/DX2                !
 ! D16   D(5,7,9,15)             0.0            Frozen                          !
 ! D17   D(8,7,9,10)           -60.0002         estimate D2E/DX2                !
 ! D18   D(8,7,9,11)            60.0024         estimate D2E/DX2                !
 ! D19   D(8,7,9,15)           180.0            estimate D2E/DX2                !
 ! D20   D(7,9,11,12)           60.0024         estimate D2E/DX2                !
 ! D21   D(7,9,11,13)          179.9986         estimate D2E/DX2                !
 ! D22   D(7,9,11,14)          -60.0038         estimate D2E/DX2                !
 ! D23   D(10,9,11,12)        -179.4843         estimate D2E/DX2                !
 ! D24   D(10,9,11,13)         -59.4881         estimate D2E/DX2                !
 ! D25   D(10,9,11,14)          60.5095         estimate D2E/DX2                !
 ! D26   D(15,9,11,12)         -61.938          estimate D2E/DX2                !
 ! D27   D(15,9,11,13)          58.0582         estimate D2E/DX2                !
 ! D28   D(15,9,11,14)         178.0558         estimate D2E/DX2                !
 ! D29   D(7,9,15,16)          -30.0006         estimate D2E/DX2                !
 ! D30   D(7,9,15,17)          150.0013         Frozen                          !
 ! D31   D(10,9,15,16)        -150.5117         estimate D2E/DX2                !
 ! D32   D(10,9,15,17)          29.4902         estimate D2E/DX2                !
 ! D33   D(11,9,15,16)          91.9414         estimate D2E/DX2                !
 ! D34   D(11,9,15,17)         -88.0567         estimate D2E/DX2                !
 ! D35   D(9,15,16,6)           48.3425         estimate D2E/DX2                !
 ! D36   D(17,15,16,6)        -131.6595         estimate D2E/DX2                !
 ! D37   D(9,15,17,18)          -0.0061         estimate D2E/DX2                !
 ! D38   D(9,15,17,19)        -179.9984         estimate D2E/DX2                !
 ! D39   D(16,15,17,18)        179.9959         estimate D2E/DX2                !
 ! D40   D(16,15,17,19)          0.0036         estimate D2E/DX2                !
 ! D41   D(15,17,19,20)         -0.0048         estimate D2E/DX2                !
 ! D42   D(15,17,19,21)        119.9968         estimate D2E/DX2                !
 ! D43   D(15,17,19,22)       -119.9971         estimate D2E/DX2                !
 ! D44   D(18,17,19,20)       -179.9973         estimate D2E/DX2                !
 ! D45   D(18,17,19,21)        -59.9957         estimate D2E/DX2                !
 ! D46   D(18,17,19,22)         60.0105         estimate D2E/DX2                !
 --------------------------------------------------------------------------------
 Trust Radius=3.00D-01 FncErr=1.00D-07 GrdErr=1.00D-07
 Number of steps in this run= 116 maximum allowed number of steps= 132.
 GradGradGradGradGradGradGradGradGradGradGradGradGradGradGradGradGradGrad

                          Input orientation:                          
 ---------------------------------------------------------------------
 Center     Atomic      Atomic             Coordinates (Angstroms)
 Number     Number       Type             X           Y           Z
 ---------------------------------------------------------------------
      1          1           0        0.249600    4.526200    0.000000
      2          6           0        1.117800    3.867200    0.000000
      3          1           0        1.097000    3.238000   -0.889800
      4          1           0        1.097000    3.238000    0.889800
      5          6           0        2.419500    4.671100    0.000000
      6          8           0        2.393800    5.899900    0.000000
      7          7           0        3.555400    3.969700    0.000000
      8          1           0        3.525400    2.960100    0.000000
      9          6           0        4.853300    4.613900    0.000000
     10          1           0        5.407600    4.315500    0.889800
     11          6           0        5.661300    4.220800   -1.232200
     12          1           0        5.123300    4.521400   -2.131200
     13          1           0        6.630500    4.718900   -1.205800
     14          1           0        5.808500    3.140900   -1.241400
     15          6           0        4.712700    6.129400    0.000000
     16          8           0        3.741900    6.665800   -0.529500
     17          7           0        5.686800    6.820100    0.596800
     18          1           0        6.465300    6.333900    1.018500
     19          6           0        5.669000    8.267500    0.663800
     20          1           0        4.773500    8.643500    0.169000
     21          1           0        5.667000    8.583500    1.707000
     22          1           0        6.553000    8.665600    0.165700
 ---------------------------------------------------------------------
                    Distance matrix (angstroms):
                    1          2          3          4          5
     1  H    0.000000
     2  C    1.089978   0.000000
     3  H    1.780250   1.089986   0.000000
     4  H    1.780250   1.089986   1.779600   0.000000
     5  C    2.174733   1.529927   2.143485   2.143485   0.000000
     6  O    2.546497   2.400009   3.091787   3.091787   1.229069
     7  N    3.352314   2.439754   2.714933   2.714933   1.335002
     8  H    3.630914   2.572813   2.601173   2.601173   2.037286
     9  C    4.604535   3.809399   4.098126   4.098126   2.434472
    10  H    5.238426   4.403987   4.786361   4.443228   3.137983
    11  C    5.558604   4.720884   4.681449   5.128510   3.497192
    12  H    5.319303   4.584105   4.404462   5.194675   3.446006
    13  H    6.496689   5.706944   5.736945   6.099527   4.380498
    14  H    5.861868   4.906246   4.725599   5.172009   3.920192
    15  C    4.742311   4.247453   4.714364   4.714364   2.717610
    16  O    4.129699   3.872781   4.344551   4.556284   2.451110
    17  N    5.931382   5.472801   6.008967   5.829541   3.955960
    18  H    6.552866   5.976429   6.484200   6.198371   4.491185
    19  C    6.618750   6.365272   6.972283   6.800745   4.892236
    20  H    6.119346   6.017121   6.622472   6.576902   4.620589
    21  H    6.980240   6.771451   7.496842   7.080048   5.363486
    22  H    7.542873   7.252137   7.767938   7.729883   5.750592
                    6          7          8          9         10
     6  O    0.000000
     7  N    2.252773   0.000000
     8  H    3.150070   1.010046   0.000000
     9  C    2.775416   1.448978   2.120937   0.000000
    10  H    3.519241   2.083739   2.484256   1.089970   0.000000
    11  C    3.874823   2.452791   2.769431   1.525027   2.139209
    12  H    3.727257   2.702720   3.087548   2.150225   3.041326
    13  H    4.560520   3.386959   3.766826   2.150214   2.459625
    14  H    4.562163   2.702673   2.605054   2.150165   2.466256
    15  C    2.330229   2.450234   3.384397   1.522008   2.136554
    16  O    1.638398   2.753926   3.749594   2.392880   3.211367
    17  N    3.470848   3.608852   4.464014   2.432737   2.537089
    18  H    4.219338   3.885139   4.589431   2.567934   2.282374
    19  C    4.095497   4.835186   5.762304   3.801946   3.967078
    20  H    3.635777   4.832881   5.821284   4.033932   4.433195
    21  H    4.563923   5.353490   6.254832   4.397008   4.353266
    22  H    4.997549   5.573557   6.461157   4.396898   4.556274
                   11         12         13         14         15
    11  C    0.000000
    12  H    1.089957   0.000000
    13  H    1.090023   1.779613   0.000000
    14  H    1.089925   1.779613   1.779617   0.000000
    15  C    2.461892   2.701161   2.668599   3.416575   0.000000
    16  O    3.186834   3.012003   3.548494   4.147597   1.229043
    17  N    3.178404   3.611584   2.924889   4.114645   1.334956
    18  H    3.190182   3.873852   2.753730   3.966583   2.037344
    19  C    4.468854   4.705643   4.124615   5.470948   2.434463
    20  H    4.723540   4.733391   4.554230   5.773999   2.520507
    21  H    5.260426   5.614984   4.934356   6.191525   3.138016
    22  H    4.743996   4.949160   4.178930   5.749480   3.137909
                   16         17         18         19         20
    16  O    0.000000
    17  N    2.252775   0.000000
    18  H    3.150138   1.010091   0.000000
    19  C    2.775450   1.449059   2.121017   0.000000
    20  H    2.337391   2.083727   2.986317   1.090011   0.000000
    21  H    3.519306   2.083870   2.484354   1.090012   1.779715
    22  H    3.519203   2.083751   2.484308   1.089974   1.779640
                   21         22
    21  H    0.000000
    22  H    1.779703   0.000000
 Stoichiometry    C6H12N2O2
 Framework group  C1[X(C6H12N2O2)]
 Deg. of freedom    60
 Full point group                 C1      NOp   1
 Largest Abelian subgroup         C1      NOp   1
 Largest concise Abelian subgroup C1      NOp   1
                         Standard orientation:                         
 ---------------------------------------------------------------------
 Center     Atomic      Atomic             Coordinates (Angstroms)
 Number     Number       Type             X           Y           Z
 ---------------------------------------------------------------------
      1          1           0       -3.459161   -1.767603    0.124427
      2          6           0       -3.239286   -0.735931   -0.150092
      3          1           0       -3.747376   -0.060178    0.537857
      4          1           0       -3.586489   -0.547858   -1.166039
      5          6           0       -1.736149   -0.457769   -0.087775
      6          8           0       -0.950738   -1.344444    0.240166
      7          7           0       -1.343180    0.778170   -0.404413
      8          1           0       -2.026839    1.473404   -0.667952
      9          6           0        0.052524    1.166920   -0.383892
     10          1           0        0.353460    1.495139   -1.378752
     11          6           0        0.289959    2.308830    0.598643
     12          1           0        0.001862    1.992186    1.601011
     13          1           0        1.345744    2.579824    0.593198
     14          1           0       -0.307612    3.171697    0.304862
     15          6           0        0.939473    0.002481    0.033136
     16          8           0        0.514459   -0.864074    0.794051
     17          7           0        2.176629   -0.016001   -0.468074
     18          1           0        2.480484    0.719385   -1.090298
     19          6           0        3.117178   -1.070656   -0.147384
     20          1           0        2.646761   -1.784150    0.529194
     21          1           0        3.416926   -1.581552   -1.062404
     22          1           0        3.996132   -0.640590    0.332750
 ---------------------------------------------------------------------
 Rotational constants (GHZ):      2.2920747      0.9720114      0.7489439
 Standard basis: 6-31G(d) (6D, 7F)
 There are   174 symmetry adapted basis functions of A   symmetry.
 Integral buffers will be    131072 words long.
 Raffenetti 1 integral format.
 Two-electron integral symmetry is turned on.
   174 basis functions,   328 primitive gaussians,   174 cartesian basis functions
    39 alpha electrons       39 beta electrons
       nuclear repulsion energy       582.9620385135 Hartrees.
 NAtoms=   22 NActive=   22 NUniq=   22 SFac= 7.50D-01 NAtFMM=   80 NAOKFM=F Big=F
 One-electron integrals computed using PRISM.
 NBasis=   174 RedAO= T  NBF=   174
 NBsUse=   174 1.00D-06 NBFU=   174
 Harris functional with IExCor=  205 diagonalized for initial guess.
 ExpMin= 1.61D-01 ExpMax= 5.48D+03 ExpMxC= 8.25D+02 IAcc=1 IRadAn=         1 AccDes= 0.00D+00
 HarFok:  IExCor=  205 AccDes= 0.00D+00 IRadAn=         1 IDoV= 1
 ScaDFX=  1.000000  1.000000  1.000000  1.000000
 FoFCou: FMM=F IPFlag=           0 FMFlag=      100000 FMFlg1=           0
         NFxFlg=           0 DoJE=T BraDBF=F KetDBF=T FulRan=T
         Omega=  0.000000  0.000000  1.000000  0.000000  0.000000 ICntrl=     500 IOpCl=  0
         NMat0=    1 NMatS0=    1 NMatT0=    0 NMatD0=    1 NMtDS0=    0 NMtDT0=    0
         I1Cent=           4 NGrid=           0.
 Petite list used in FoFCou.
 Initial guess orbital symmetries:
       Occupied  (A) (A) (A) (A) (A) (A) (A) (A) (A) (A) (A) (A)
                 (A) (A) (A) (A) (A) (A) (A) (A) (A) (A) (A) (A)
                 (A) (A) (A) (A) (A) (A) (A) (A) (A) (A) (A) (A)
                 (A) (A) (A)
       Virtual   (A) (A) (A) (A) (A) (A) (A) (A) (A) (A) (A) (A)
                 (A) (A) (A) (A) (A) (A) (A) (A) (A) (A) (A) (A)
                 (A) (A) (A) (A) (A) (A) (A) (A) (A) (A) (A) (A)
                 (A) (A) (A) (A) (A) (A) (A) (A) (A) (A) (A) (A)
                 (A) (A) (A) (A) (A) (A) (A) (A) (A) (A) (A) (A)
                 (A) (A) (A) (A) (A) (A) (A) (A) (A) (A) (A) (A)
                 (A) (A) (A) (A) (A) (A) (A) (A) (A) (A) (A) (A)
                 (A) (A) (A) (A) (A) (A) (A) (A) (A) (A) (A) (A)
                 (A) (A) (A) (A) (A) (A) (A) (A) (A) (A) (A) (A)
                 (A) (A) (A) (A) (A) (A) (A) (A) (A) (A) (A) (A)
                 (A) (A) (A) (A) (A) (A) (A) (A) (A) (A) (A) (A)
                 (A) (A) (A)
 The electronic state of the initial guess is 1-A.
 Requested convergence on RMS density matrix=1.00D-08 within 128 cycles.
 Requested convergence on MAX density matrix=1.00D-06.
 Requested convergence on             energy=1.00D-06.
 No special actions if energy rises.
 Integral accuracy reduced to 1.0D-05 until final iterations.
 Initial convergence to 1.0D-05 achieved.  Increase integral accuracy.
 SCF Done:  E(RHF) =  -492.647610089     A.U. after   18 cycles
             Convg  =    0.2307D-08             -V/T =  2.0001

 **********************************************************************

            Population analysis using the SCF density.

 **********************************************************************

 Orbital symmetries:
       Occupied  (A) (A) (A) (A) (A) (A) (A) (A) (A) (A) (A) (A)
                 (A) (A) (A) (A) (A) (A) (A) (A) (A) (A) (A) (A)
                 (A) (A) (A) (A) (A) (A) (A) (A) (A) (A) (A) (A)
                 (A) (A) (A)
       Virtual   (A) (A) (A) (A) (A) (A) (A) (A) (A) (A) (A) (A)
                 (A) (A) (A) (A) (A) (A) (A) (A) (A) (A) (A) (A)
                 (A) (A) (A) (A) (A) (A) (A) (A) (A) (A) (A) (A)
                 (A) (A) (A) (A) (A) (A) (A) (A) (A) (A) (A) (A)
                 (A) (A) (A) (A) (A) (A) (A) (A) (A) (A) (A) (A)
                 (A) (A) (A) (A) (A) (A) (A) (A) (A) (A) (A) (A)
                 (A) (A) (A) (A) (A) (A) (A) (A) (A) (A) (A) (A)
                 (A) (A) (A) (A) (A) (A) (A) (A) (A) (A) (A) (A)
                 (A) (A) (A) (A) (A) (A) (A) (A) (A) (A) (A) (A)
                 (A) (A) (A) (A) (A) (A) (A) (A) (A) (A) (A) (A)
                 (A) (A) (A) (A) (A) (A) (A) (A) (A) (A) (A) (A)
                 (A) (A) (A)
 The electronic state is 1-A.
 Alpha  occ. eigenvalues --  -20.49627 -20.47915 -15.58564 -15.56577 -11.32321
 Alpha  occ. eigenvalues --  -11.30564 -11.28075 -11.24414 -11.22910 -11.22098
 Alpha  occ. eigenvalues --   -1.40931  -1.31903  -1.24257  -1.20626  -1.05137
 Alpha  occ. eigenvalues --   -0.97875  -0.94511  -0.86987  -0.81659  -0.76932
 Alpha  occ. eigenvalues --   -0.69824  -0.68975  -0.67346  -0.63179  -0.60572
 Alpha  occ. eigenvalues --   -0.60243  -0.58698  -0.57216  -0.55976  -0.54738
 Alpha  occ. eigenvalues --   -0.53353  -0.53026  -0.52454  -0.49994  -0.47684
 Alpha  occ. eigenvalues --   -0.44282  -0.39053  -0.36100  -0.23157
 Alpha virt. eigenvalues --    0.19885   0.21174   0.22891   0.23702   0.27343
 Alpha virt. eigenvalues --    0.28017   0.28355   0.30638   0.31703   0.32198
 Alpha virt. eigenvalues --    0.33031   0.33733   0.34018   0.34583   0.37694
 Alpha virt. eigenvalues --    0.38949   0.40574   0.44365   0.46710   0.51186
 Alpha virt. eigenvalues --    0.57551   0.60726   0.63722   0.73173   0.73382
 Alpha virt. eigenvalues --    0.75019   0.75995   0.77412   0.78035   0.79812
 Alpha virt. eigenvalues --    0.81617   0.84158   0.84901   0.86916   0.88356
 Alpha virt. eigenvalues --    0.94366   0.95622   0.97840   0.99242   1.00560
 Alpha virt. eigenvalues --    1.02888   1.04918   1.05354   1.08451   1.09000
 Alpha virt. eigenvalues --    1.11911   1.14282   1.14786   1.15844   1.16097
 Alpha virt. eigenvalues --    1.17503   1.18894   1.19380   1.20350   1.21988
 Alpha virt. eigenvalues --    1.22416   1.23282   1.23574   1.24347   1.29259
 Alpha virt. eigenvalues --    1.30036   1.36262   1.41910   1.45756   1.49639
 Alpha virt. eigenvalues --    1.54925   1.57932   1.60484   1.64839   1.67108
 Alpha virt. eigenvalues --    1.67993   1.70842   1.74416   1.76811   1.78475
 Alpha virt. eigenvalues --    1.79335   1.83204   1.91348   1.96662   1.98050
 Alpha virt. eigenvalues --    2.03361   2.04987   2.08551   2.11670   2.12267
 Alpha virt. eigenvalues --    2.15682   2.20440   2.21604   2.24732   2.25367
 Alpha virt. eigenvalues --    2.28763   2.30722   2.32425   2.34595   2.40599
 Alpha virt. eigenvalues --    2.42101   2.47543   2.50441   2.53093   2.55782
 Alpha virt. eigenvalues --    2.58125   2.60320   2.61671   2.62435   2.65770
 Alpha virt. eigenvalues --    2.66458   2.69951   2.72529   2.77705   2.78513
 Alpha virt. eigenvalues --    2.83417   2.90996   2.96154   2.99442   3.02313
 Alpha virt. eigenvalues --    3.05575   3.11359   3.14938   3.24250   3.26281
 Alpha virt. eigenvalues --    3.36588   3.39245   3.49222   3.62930   3.67175
 Alpha virt. eigenvalues --    4.43154   4.44276   4.51279   4.61104   4.67076
 Alpha virt. eigenvalues --    4.69854   4.79470   4.86472   4.92684   5.13528
          Condensed to atoms (all electrons):
              1          2          3          4          5          6
     1  H    0.457340   0.386055  -0.017857  -0.019304  -0.029250   0.004031
     2  C    0.386055   5.251176   0.363828   0.375676   0.372199  -0.057475
     3  H   -0.017857   0.363828   0.547929  -0.026532  -0.043160   0.001088
     4  H   -0.019304   0.375676  -0.026532   0.530747  -0.036605   0.000751
     5  C   -0.029250   0.372199  -0.043160  -0.036605   4.280714   0.538987
     6  O    0.004031  -0.057475   0.001088   0.000751   0.538987   8.697142
     7  N    0.003815  -0.128229   0.008318   0.003797   0.222572  -0.117664
     8  H   -0.000045  -0.000354   0.000136   0.000720  -0.016995   0.002824
     9  C   -0.000069   0.003862  -0.000244  -0.000082  -0.026506   0.016863
    10  H    0.000002  -0.000074   0.000000   0.000003   0.001708   0.000091
    11  C    0.000002  -0.000208   0.000047  -0.000001  -0.000513  -0.000293
    12  H    0.000000  -0.000040   0.000013   0.000000   0.000328  -0.000217
    13  H    0.000000   0.000001   0.000000   0.000000  -0.000068  -0.000043
    14  H    0.000000   0.000015  -0.000012  -0.000001   0.000294   0.000041
    15  C    0.000001  -0.000285   0.000030  -0.000004  -0.006392  -0.005717
    16  O    0.000077  -0.002693   0.000224   0.000000   0.018468  -0.546820
    17  N    0.000000  -0.000004   0.000000   0.000000   0.000668  -0.002052
    18  H    0.000000   0.000001   0.000000   0.000000  -0.000025   0.000140
    19  C    0.000000   0.000000   0.000000   0.000000   0.000015  -0.000115
    20  H    0.000000   0.000001   0.000000   0.000000  -0.000017   0.000446
    21  H    0.000000   0.000000   0.000000   0.000000  -0.000001   0.000000
    22  H    0.000000   0.000000   0.000000   0.000000   0.000000   0.000007
              7          8          9         10         11         12
     1  H    0.003815  -0.000045  -0.000069   0.000002   0.000002   0.000000
     2  C   -0.128229  -0.000354   0.003862  -0.000074  -0.000208  -0.000040
     3  H    0.008318   0.000136  -0.000244   0.000000   0.000047   0.000013
     4  H    0.003797   0.000720  -0.000082   0.000003  -0.000001   0.000000
     5  C    0.222572  -0.016995  -0.026506   0.001708  -0.000513   0.000328
     6  O   -0.117664   0.002824   0.016863   0.000091  -0.000293  -0.000217
     7  N    7.439518   0.324674   0.183170  -0.046136  -0.068482   0.001173
     8  H    0.324674   0.326560  -0.023320  -0.001735  -0.000863  -0.000111
     9  C    0.183170  -0.023320   5.004239   0.414368   0.348400  -0.036278
    10  H   -0.046136  -0.001735   0.414368   0.546765  -0.049830   0.004471
    11  C   -0.068482  -0.000863   0.348400  -0.049830   5.138266   0.388995
    12  H    0.001173  -0.000111  -0.036278   0.004471   0.388995   0.490087
    13  H    0.005164  -0.000086  -0.037588   0.000987   0.382554  -0.019250
    14  H   -0.002720   0.002324  -0.040564  -0.004070   0.386870  -0.025245
    15  C   -0.020621   0.002471   0.374457  -0.051420  -0.047841  -0.005891
    16  O    0.018070  -0.000328  -0.090906   0.002015   0.000278   0.003025
    17  N    0.001885  -0.000105  -0.104611   0.006667  -0.003108   0.000611
    18  H    0.000081   0.000001   0.001496   0.001311   0.000207  -0.000032
    19  C   -0.000065   0.000002   0.004304  -0.000048  -0.000262   0.000002
    20  H   -0.000009   0.000000   0.000624  -0.000022  -0.000023  -0.000004
    21  H    0.000004   0.000000  -0.000080  -0.000013  -0.000006   0.000000
    22  H   -0.000001   0.000000  -0.000074  -0.000004   0.000050  -0.000001
             13         14         15         16         17         18
     1  H    0.000000   0.000000   0.000001   0.000077   0.000000   0.000000
     2  C    0.000001   0.000015  -0.000285  -0.002693  -0.000004   0.000001
     3  H    0.000000  -0.000012   0.000030   0.000224   0.000000   0.000000
     4  H    0.000000  -0.000001  -0.000004   0.000000   0.000000   0.000000
     5  C   -0.000068   0.000294  -0.006392   0.018468   0.000668  -0.000025
     6  O   -0.000043   0.000041  -0.005717  -0.546820  -0.002052   0.000140
     7  N    0.005164  -0.002720  -0.020621   0.018070   0.001885   0.000081
     8  H   -0.000086   0.002324   0.002471  -0.000328  -0.000105   0.000001
     9  C   -0.037588  -0.040564   0.374457  -0.090906  -0.104611   0.001496
    10  H    0.000987  -0.004070  -0.051420   0.002015   0.006667   0.001311
    11  C    0.382554   0.386870  -0.047841   0.000278  -0.003108   0.000207
    12  H   -0.019250  -0.025245  -0.005891   0.003025   0.000611  -0.000032
    13  H    0.528722  -0.025244  -0.007858   0.000096   0.004621   0.000070
    14  H   -0.025244   0.547555   0.005800  -0.000159  -0.000190   0.000012
    15  C   -0.007858   0.005800   4.361745   0.518800   0.218725  -0.021509
    16  O    0.000096  -0.000159   0.518800   8.663555  -0.085338   0.002129
    17  N    0.004621  -0.000190   0.218725  -0.085338   7.384509   0.324744
    18  H    0.000070   0.000012  -0.021509   0.002129   0.324744   0.345126
    19  C   -0.000093   0.000006  -0.026232  -0.005064   0.197224  -0.023021
    20  H   -0.000006   0.000000  -0.000434   0.010045  -0.032235   0.002584
    21  H    0.000005   0.000000   0.000217   0.000409  -0.048236  -0.001261
    22  H   -0.000034   0.000000   0.002717   0.000450  -0.052126  -0.000740
             19         20         21         22
     1  H    0.000000   0.000000   0.000000   0.000000
     2  C    0.000000   0.000001   0.000000   0.000000
     3  H    0.000000   0.000000   0.000000   0.000000
     4  H    0.000000   0.000000   0.000000   0.000000
     5  C    0.000015  -0.000017  -0.000001   0.000000
     6  O   -0.000115   0.000446   0.000000   0.000007
     7  N   -0.000065  -0.000009   0.000004  -0.000001
     8  H    0.000002   0.000000   0.000000   0.000000
     9  C    0.004304   0.000624  -0.000080  -0.000074
    10  H   -0.000048  -0.000022  -0.000013  -0.000004
    11  C   -0.000262  -0.000023  -0.000006   0.000050
    12  H    0.000002  -0.000004   0.000000  -0.000001
    13  H   -0.000093  -0.000006   0.000005  -0.000034
    14  H    0.000006   0.000000   0.000000   0.000000
    15  C   -0.026232  -0.000434   0.000217   0.002717
    16  O   -0.005064   0.010045   0.000409   0.000450
    17  N    0.197224  -0.032235  -0.048236  -0.052126
    18  H   -0.023021   0.002584  -0.001261  -0.000740
    19  C    4.932273   0.395962   0.404101   0.401625
    20  H    0.395962   0.434065  -0.023328  -0.022220
    21  H    0.404101  -0.023328   0.545601  -0.038995
    22  H    0.401625  -0.022220  -0.038995   0.552048
 Mulliken atomic charges:
              1
     1  H    0.215202
     2  C   -0.563452
     3  H    0.166191
     4  H    0.170835
     5  C    0.723582
     6  O   -0.532015
     7  N   -0.828314
     8  H    0.384229
     9  C    0.008540
    10  H    0.174963
    11  C   -0.474240
    12  H    0.198365
    13  H    0.168051
    14  H    0.155287
    15  C    0.709241
    16  O   -0.506334
    17  N   -0.811649
    18  H    0.368687
    19  C   -0.280616
    20  H    0.234570
    21  H    0.161584
    22  H    0.157297
 Sum of Mulliken atomic charges =   0.00000
 Mulliken charges with hydrogens summed into heavy atoms:
              1
     2  C   -0.011225
     5  C    0.723582
     6  O   -0.532015
     7  N   -0.444086
     9  C    0.183502
    11  C    0.047463
    15  C    0.709241
    16  O   -0.506334
    17  N   -0.442961
    19  C    0.272834
 Sum of Mulliken charges with hydrogens summed into heavy atoms =   0.00000
 Electronic spatial extent (au):  <R**2>=           1621.6531
 Charge=              0.0000 electrons
 Dipole moment (field-independent basis, Debye):
    X=             -0.0330    Y=              4.5530    Z=             -2.7896  Tot=              5.3397
 Quadrupole moment (field-independent basis, Debye-Ang):
   XX=            -48.2333   YY=            -60.8137   ZZ=            -60.9175
   XY=             -2.3590   XZ=             -1.1357   YZ=             -0.1893
 Traceless Quadrupole moment (field-independent basis, Debye-Ang):
   XX=              8.4215   YY=             -4.1588   ZZ=             -4.2627
   XY=             -2.3590   XZ=             -1.1357   YZ=             -0.1893
 Octapole moment (field-independent basis, Debye-Ang**2):
  XXX=              2.1510  YYY=              2.2543  ZZZ=             -0.7912  XYY=              1.6678
  XXY=             -1.2842  XXZ=             -7.4755  XZZ=              0.3493  YZZ=              1.3037
  YYZ=             -4.3102  XYZ=             -0.7570
 Hexadecapole moment (field-independent basis, Debye-Ang**3):
 XXXX=          -1335.6174 YYYY=           -580.8323 ZZZZ=           -148.1174 XXXY=             -4.9009
 XXXZ=             -7.0078 YYYX=            -14.8178 YYYZ=            -12.9706 ZZZX=             -5.0840
 ZZZY=             -5.4890 XXYY=           -305.5688 XXZZ=           -251.7573 YYZZ=           -120.3513
 XXYZ=            -12.1625 YYXZ=              1.3857 ZZXY=              1.3475
 N-N= 5.829620385135D+02 E-N=-2.322839434678D+03  KE= 4.926151368461D+02
 Calling FoFJK, ICntrl=      2127 FMM=F ISym2X=0 I1Cent= 0 IOpClX= 0 NMat=1 NMatS=1 NMatT=0.
 ***** Axes restored to original set *****
 -------------------------------------------------------------------
 Center     Atomic                   Forces (Hartrees/Bohr)
 Number     Number              X              Y              Z
 -------------------------------------------------------------------
      1        1           0.009879407   -0.001843220   -0.000004857
      2        6           0.009915405   -0.004558819   -0.009923847
      3        1          -0.005184955   -0.003459597    0.003720587
      4        1          -0.001988425   -0.000377627   -0.003702695
      5        6          -0.059329675    0.072680508    0.003729042
      6        8          -0.231323126   -0.183695896    0.109678219
      7        7           0.023043234   -0.015499099    0.005301792
      8        1           0.000411198    0.015761934   -0.000211679
      9        6           0.009136651    0.001244684   -0.003882680
     10        1          -0.002707771   -0.000562851   -0.000563599
     11        6           0.000910999   -0.003300410   -0.002008940
     12        1           0.003839648   -0.001967974    0.003523302
     13        1          -0.002323462   -0.004415390   -0.002739951
     14        1           0.002446422    0.002628856   -0.003365192
     15        6          -0.060181408    0.034885355   -0.055866668
     16        8           0.278682339    0.079494569   -0.071867175
     17        7           0.031337342    0.006335350    0.029389065
     18        1          -0.014222202    0.008394209   -0.002675107
     19        6           0.003110771   -0.000984401   -0.000644728
     20        1           0.007881071   -0.005468980    0.004124691
     21        1          -0.000089751    0.002261806   -0.004611463
     22        1          -0.003243712    0.002446993    0.002601884
 -------------------------------------------------------------------
 Cartesian Forces:  Max     0.278682339 RMS     0.056299029

 GradGradGradGradGradGradGradGradGradGradGradGradGradGradGradGradGradGrad
 Berny optimization.
 Internal  Forces:  Max     0.277494001 RMS     0.030021151
 Search for a local minimum.
 Step number   1 out of a maximum of  116
 All quantities printed in internal units (Hartrees-Bohrs-Radians)
 Mixed Optimization -- RFO/linear search
 Second derivative matrix not updated -- first step.
     Eigenvalues ---    0.00370   0.00435   0.01043   0.01555   0.01660
     Eigenvalues ---    0.01720   0.02335   0.02552   0.03227   0.03959
     Eigenvalues ---    0.05244   0.05844   0.05844   0.06499   0.07165
     Eigenvalues ---    0.07464   0.07685   0.07686   0.14922   0.16000
     Eigenvalues ---    0.16000   0.16000   0.16000   0.16000   0.16000
     Eigenvalues ---    0.16000   0.16000   0.16000   0.16000   0.16000
     Eigenvalues ---    0.17750   0.19895   0.21823   0.22000   0.23540
     Eigenvalues ---    0.25000   0.25000   0.29430   0.29482   0.29887
     Eigenvalues ---    0.34810   0.34811   0.34811   0.34814   0.34814
     Eigenvalues ---    0.34815   0.34816   0.34816   0.34818   0.34821
     Eigenvalues ---    0.37158   0.38368   0.45957   0.45965   0.55853
     Eigenvalues ---    0.58350   0.85167   0.887661000.000001000.00000
     Eigenvalues --- 1000.000001000.000001000.000001000.000001000.00000
     Eigenvalues --- 1000.000001000.000001000.000001000.000001000.00000
     Eigenvalues --- 1000.000001000.000001000.000001000.000001000.00000
     Eigenvalues --- 1000.000001000.000001000.000001000.000001000.00000
     Eigenvalues --- 1000.000001000.000001000.000001000.000001000.00000
     Eigenvalues --- 1000.000001000.000001000.000001000.000001000.00000
     Eigenvalues --- 1000.000001000.000001000.000001000.000001000.00000
     Eigenvalues --- 1000.000001000.000001000.000001000.000001000.00000
     Eigenvalues --- 1000.000001000.000001000.000001000.000001000.00000
     Eigenvalues --- 1000.00000
 RFO step:  Lambda=-2.09398987D-01 EMin= 3.70064225D-03
 Linear search not attempted -- first point.
 Maximum step size (   0.300) exceeded in Quadratic search.
    -- Step size scaled by   0.431
 Iteration  1 RMS(Cart)=  0.04644643 RMS(Int)=  0.00739555
 Iteration  2 RMS(Cart)=  0.01150326 RMS(Int)=  0.00013124
 Iteration  3 RMS(Cart)=  0.00004082 RMS(Int)=  0.00012885
 Iteration  4 RMS(Cart)=  0.00000000 RMS(Int)=  0.00012885
 Iteration  1 RMS(Cart)=  0.00002052 RMS(Int)=  0.00001626
 Iteration  2 RMS(Cart)=  0.00001179 RMS(Int)=  0.00001795
 Iteration  3 RMS(Cart)=  0.00000696 RMS(Int)=  0.00002047
 Iteration  4 RMS(Cart)=  0.00000443 RMS(Int)=  0.00002252
 Iteration  5 RMS(Cart)=  0.00000317 RMS(Int)=  0.00002404
 Iteration  6 RMS(Cart)=  0.00000253 RMS(Int)=  0.00002515
 Iteration  7 RMS(Cart)=  0.00000213 RMS(Int)=  0.00002597
 Iteration  8 RMS(Cart)=  0.00000182 RMS(Int)=  0.00002659
 Iteration  9 RMS(Cart)=  0.00000156 RMS(Int)=  0.00002707
 Iteration 10 RMS(Cart)=  0.00000132 RMS(Int)=  0.00002745
 Iteration 11 RMS(Cart)=  0.00000111 RMS(Int)=  0.00002775
 Iteration 12 RMS(Cart)=  0.00000092 RMS(Int)=  0.00002799
 Variable       Old X    -DE/DX   Delta X   Delta X   Delta X     New X
                                 (Linear)    (Quad)   (Total)
    R1        2.05976  -0.00898   0.00000  -0.00694  -0.00694   2.05282
    R2        2.05977  -0.00094   0.00000  -0.00073  -0.00073   2.05905
    R3        2.05977  -0.00277   0.00000  -0.00214  -0.00214   2.05764
    R4        2.89114  -0.00536   0.00000  -0.00458  -0.00458   2.88656
    R5        2.32260  -0.06401   0.00000  -0.02491  -0.02467   2.29793
    R6        2.52279   0.03654   0.00000   0.02136   0.02159   2.54438
    R7        3.09612   0.27749   0.00000   0.27894   0.27896   3.37509
    R8        1.90871  -0.01577   0.00000  -0.01015  -0.01015   1.89856
    R9        2.73817   0.01886   0.00000   0.01662   0.01664   2.75481
   R10        2.05975  -0.00168   0.00000  -0.00130  -0.00130   2.05845
   R11        2.88188   0.00811   0.00000   0.00687   0.00687   2.88876
   R12        2.87618   0.00675   0.00000   0.00631   0.00607   2.88225
   R13        2.05972  -0.00534   0.00000  -0.00413  -0.00413   2.05559
   R14        2.05984  -0.00415   0.00000  -0.00321  -0.00321   2.05664
   R15        2.05966  -0.00225   0.00000  -0.00173  -0.00173   2.05793
   R16        2.32256  -0.06025   0.00000  -0.02407  -0.02432   2.29823
   R17        2.52270   0.03740   0.00000   0.02031   0.02031   2.54301
   R18        1.90880  -0.01612   0.00000  -0.01038  -0.01038   1.89842
   R19        2.73833  -0.00177   0.00000  -0.00128  -0.00128   2.73704
   R20        2.05982  -0.01023   0.00000  -0.00791  -0.00791   2.05192
   R21        2.05982  -0.00376   0.00000  -0.00290  -0.00290   2.05692
   R22        2.05975  -0.00293   0.00000  -0.00226  -0.00226   2.05749
    A1        1.91114  -0.00072   0.00000  -0.00071  -0.00067   1.91046
    A2        1.91114   0.00089   0.00000   0.00053   0.00053   1.91167
    A3        1.93909  -0.00920   0.00000  -0.01091  -0.01089   1.92820
    A4        1.91009  -0.00574   0.00000  -0.00631  -0.00635   1.90374
    A5        1.89606   0.01108   0.00000   0.01317   0.01317   1.90922
    A6        1.89606   0.00376   0.00000   0.00430   0.00428   1.90034
    A7        2.10313   0.01968   0.00000   0.01824   0.01801   2.12114
    A8        2.03517  -0.00702   0.00000  -0.00679  -0.00702   2.02815
    A9        2.14488  -0.01266   0.00000  -0.01146  -0.01099   2.13389
   A10        2.03774  -0.03411   0.00000  -0.03968  -0.03946   1.99829
   A11        2.09427  -0.01863   0.00000  -0.02147  -0.02159   2.07268
   A12        2.12770   0.03716   0.00000   0.04280   0.04302   2.17072
   A13        2.06122  -0.01853   0.00000  -0.02134  -0.02146   2.03976
   A14        1.91114  -0.00813   0.00000  -0.00727  -0.00719   1.90395
   A15        1.93905   0.00046   0.00000  -0.00589  -0.00593   1.93312
   A16        1.93900   0.01189   0.00000   0.01742   0.01727   1.95628
   A17        1.89609   0.00227   0.00000   0.00159   0.00152   1.89761
   A18        1.89608   0.00276   0.00000  -0.00263  -0.00260   1.89348
   A19        1.88137  -0.00930   0.00000  -0.00335  -0.00324   1.87813
   A20        1.91115   0.00061   0.00000   0.00072   0.00071   1.91186
   A21        1.91106   0.00412   0.00000   0.00479   0.00478   1.91585
   A22        1.91110   0.00517   0.00000   0.00604   0.00603   1.91713
   A23        1.91011  -0.00240   0.00000  -0.00282  -0.00282   1.90729
   A24        1.91023  -0.00283   0.00000  -0.00328  -0.00328   1.90695
   A25        1.91015  -0.00467   0.00000  -0.00546  -0.00547   1.90468
   A26        2.10312  -0.01005   0.00000  -0.01245  -0.01274   2.09038
   A27        2.03507  -0.00704   0.00000  -0.00509  -0.00496   2.03011
   A28        2.14499   0.01710   0.00000   0.01754   0.01767   2.16266
   A29        1.88249   0.00276   0.00000  -0.00043  -0.00104   1.88146
   A30        2.09437  -0.00170   0.00000  -0.00156  -0.00156   2.09282
   A31        2.12764   0.00522   0.00000   0.00524   0.00524   2.13288
   A32        2.06117  -0.00352   0.00000  -0.00368  -0.00368   2.05749
   A33        1.91098  -0.00511   0.00000  -0.00616  -0.00615   1.90483
   A34        1.91118   0.00494   0.00000   0.00584   0.00583   1.91701
   A35        1.91105   0.00555   0.00000   0.00659   0.00658   1.91764
   A36        1.91021  -0.00084   0.00000  -0.00122  -0.00122   1.90899
   A37        1.91014  -0.00083   0.00000  -0.00114  -0.00113   1.90901
   A38        1.91024  -0.00371   0.00000  -0.00391  -0.00394   1.90630
    D1        0.00000  -0.00075   0.00000  -0.00016  -0.00019  -0.00019
    D2        3.14159  -0.00054   0.00000  -0.00156  -0.00151   3.14009
    D3        2.10335  -0.00018   0.00000   0.00074   0.00066   2.10402
    D4       -1.03824   0.00004   0.00000  -0.00067  -0.00065  -1.03889
    D5       -2.10335   0.00141   0.00000   0.00315   0.00313  -2.10022
    D6        1.03824   0.00163   0.00000   0.00175   0.00181   1.04005
    D7       -2.77126  -0.00438   0.00000   0.00215   0.00220  -2.76906
    D8        0.37033  -0.00462   0.00000   0.00365   0.00359   0.37393
    D9        0.00000  -0.01212   0.00000  -0.01241  -0.01237  -0.01237
   D10        3.14159  -0.01126   0.00000  -0.02219  -0.02207   3.11953
   D11        3.14159  -0.01189   0.00000  -0.01385  -0.01370   3.12790
   D12        0.00000  -0.01104   0.00000  -0.02363  -0.02340  -0.02340
   D13       -0.80202  -0.01124   0.00000  -0.00694  -0.00746  -0.80948
   D14        2.09439  -0.00650   0.00000   0.00300   0.00297   2.09736
   D15       -2.09435  -0.00867   0.00000  -0.00347  -0.00346  -2.09781
   D16        0.00000  -0.01216   0.00000   0.00000   0.00001   0.00001
   D17       -1.04720  -0.00566   0.00000  -0.00660  -0.00656  -1.05376
   D18        1.04724  -0.00783   0.00000  -0.01307  -0.01299   1.03425
   D19        3.14159  -0.01132   0.00000  -0.00961  -0.00953   3.13207
   D20        1.04724   0.00592   0.00000   0.00946   0.00938   1.05662
   D21        3.14157   0.00588   0.00000   0.00938   0.00931  -3.13231
   D22       -1.04726   0.00585   0.00000   0.00934   0.00926  -1.03800
   D23       -3.13259  -0.00239   0.00000  -0.00216  -0.00215  -3.13475
   D24       -1.03826  -0.00244   0.00000  -0.00224  -0.00223  -1.04050
   D25        1.05609  -0.00247   0.00000  -0.00229  -0.00228   1.05381
   D26       -1.08102  -0.00299   0.00000  -0.00626  -0.00619  -1.08721
   D27        1.01331  -0.00304   0.00000  -0.00633  -0.00627   1.00704
   D28        3.10766  -0.00307   0.00000  -0.00638  -0.00631   3.10135
   D29       -0.52361  -0.00666   0.00000  -0.00910  -0.00887  -0.53248
   D30        2.61802  -0.00931   0.00000   0.00000   0.00001   2.61802
   D31       -2.62693  -0.00574   0.00000  -0.00918  -0.00900  -2.63592
   D32        0.51470  -0.00839   0.00000  -0.00008  -0.00012   0.51458
   D33        1.60468  -0.00482   0.00000  -0.00781  -0.00764   1.59704
   D34       -1.53688  -0.00747   0.00000   0.00129   0.00124  -1.53564
   D35        0.84374  -0.00380   0.00000  -0.00677  -0.00704   0.83670
   D36       -2.29789  -0.00098   0.00000  -0.01646  -0.01663  -2.31452
   D37       -0.00011  -0.00219   0.00000  -0.01120  -0.01117  -0.01128
   D38       -3.14156  -0.00164   0.00000  -0.01015  -0.01012   3.13150
   D39        3.14152  -0.00491   0.00000  -0.00186  -0.00188   3.13964
   D40        0.00006  -0.00436   0.00000  -0.00081  -0.00083  -0.00077
   D41       -0.00008  -0.00037   0.00000  -0.00076  -0.00076  -0.00085
   D42        2.09434  -0.00150   0.00000  -0.00246  -0.00247   2.09186
   D43       -2.09434   0.00038   0.00000   0.00037   0.00038  -2.09396
   D44       -3.14155   0.00017   0.00000   0.00027   0.00027  -3.14128
   D45       -1.04712  -0.00096   0.00000  -0.00143  -0.00145  -1.04857
   D46        1.04738   0.00092   0.00000   0.00140   0.00141   1.04879
         Item               Value     Threshold  Converged?
 Maximum Force            0.273442     0.000450     NO 
 RMS     Force            0.030099     0.000300     NO 
 Maximum Displacement     0.207354     0.001800     NO 
 RMS     Displacement     0.057438     0.001200     NO 
 Predicted change in Energy=-8.018650D-02
 GradGradGradGradGradGradGradGradGradGradGradGradGradGradGradGradGradGrad

                          Input orientation:                          
 ---------------------------------------------------------------------
 Center     Atomic      Atomic             Coordinates (Angstroms)
 Number     Number       Type             X           Y           Z
 ---------------------------------------------------------------------
      1          1           0        0.204627    4.416473   -0.019339
      2          6           0        1.094372    3.793244   -0.019630
      3          1           0        1.101958    3.171729   -0.914556
      4          1           0        1.089231    3.151002    0.859634
      5          6           0        2.352891    4.658492    0.007590
      6          8           0        2.289572    5.872715    0.025923
      7          7           0        3.527234    3.999878    0.011619
      8          1           0        3.517965    2.995253    0.007761
      9          6           0        4.833649    4.646721    0.009657
     10          1           0        5.381712    4.345326    0.901466
     11          6           0        5.639219    4.237093   -1.223256
     12          1           0        5.106535    4.538396   -2.122541
     13          1           0        6.613795    4.721112   -1.203715
     14          1           0        5.777332    3.156919   -1.232469
     15          6           0        4.720483    6.167720    0.002470
     16          8           0        3.769110    6.699916   -0.536723
     17          7           0        5.717495    6.842988    0.603220
     18          1           0        6.474870    6.341396    1.032181
     19          6           0        5.745070    8.289988    0.660085
     20          1           0        4.866388    8.682817    0.157468
     21          1           0        5.744899    8.618929    1.697668
     22          1           0        6.640795    8.662794    0.165988
 ---------------------------------------------------------------------
                    Distance matrix (angstroms):
                    1          2          3          4          5
     1  H    0.000000
     2  C    1.086306   0.000000
     3  H    1.776514   1.089601   0.000000
     4  H    1.776664   1.088855   1.774356   0.000000
     5  C    2.162021   1.527503   2.150733   2.143675   0.000000
     6  O    2.543558   2.398912   3.096814   3.089275   1.216011
     7  N    3.348765   2.441822   2.724994   2.717274   1.346429
     8  H    3.605386   2.551733   2.592084   2.578506   2.030705
     9  C    4.634835   3.835554   4.117680   4.120716   2.480787
    10  H    5.258817   4.419785   4.794952   4.455733   3.173460
    11  C    5.569236   4.722431   4.670871   5.120588   3.534475
    12  H    5.335450   4.590745   4.400414   5.192009   3.483452
    13  H    6.524798   5.720754   5.732761   6.102742   4.430179
    14  H    5.840651   4.879140   4.686194   5.133733   3.939450
    15  C    4.843583   4.334433   4.786504   4.798053   2.807719
    16  O    4.264661   3.983761   4.438982   4.661154   2.543495
    17  N    6.055350   5.573343   6.089743   5.925988   4.055534
    18  H    6.642814   6.045589   6.534888   6.262068   4.568661
    19  C    6.794281   6.504746   7.087635   6.937280   5.012026
    20  H    6.321785   6.177977   6.759605   6.735052   4.747138
    21  H    7.162636   6.918363   7.619225   7.230198   5.481527
    22  H    7.712966   7.383074   7.873886   7.853716   5.869041
                    6          7          8          9         10
     6  O    0.000000
     7  N    2.244891   0.000000
     8  H    3.128749   1.004675   0.000000
     9  C    2.824120   1.457782   2.111486   0.000000
    10  H    3.558206   2.085726   2.468797   1.089282   0.000000
    11  C    3.931392   2.457981   2.749053   1.528664   2.143005
    12  H    3.785708   2.709027   3.072951   2.152317   3.042633
    13  H    4.640809   3.394713   3.745721   2.155626   2.468002
    14  H    4.596038   2.705785   2.582449   2.157064   2.474369
    15  C    2.448858   2.474564   3.392731   1.525220   2.136946
    16  O    1.786019   2.765753   3.752874   2.376422   3.195773
    17  N    3.609066   3.637377   4.471864   2.440715   2.537719
    18  H    4.330005   3.900361   4.581419   2.571203   2.279556
    19  C    4.264486   4.872818   5.780982   3.811449   3.968710
    20  H    3.814965   4.872835   5.847139   4.038934   4.430905
    21  H    4.719714   5.394111   6.280187   4.411144   4.362284
    22  H    5.170812   5.609000   6.472876   4.406706   4.557055
                   11         12         13         14         15
    11  C    0.000000
    12  H    1.087772   0.000000
    13  H    1.088326   1.774672   0.000000
    14  H    1.089007   1.775014   1.774034   0.000000
    15  C    2.464508   2.705439   2.670615   3.421538   0.000000
    16  O    3.167670   2.995945   3.528849   4.131567   1.216171
    17  N    3.183211   3.621352   2.927581   4.118306   1.345705
    18  H    3.195841   3.882708   2.764752   3.969394   2.041652
    19  C    4.470362   4.714359   4.118897   5.470941   2.446684
    20  H    4.718911   4.736278   4.538871   5.770380   2.524089
    21  H    5.267205   5.626033   4.936191   6.198411   3.151436
    22  H    4.745522   4.960038   4.172969   5.745947   3.152734
                   16         17         18         19         20
    16  O    0.000000
    17  N    2.261889   0.000000
    18  H    3.148196   1.004600   0.000000
    19  C    2.804479   1.448380   2.113783   0.000000
    20  H    2.370193   2.075583   2.972304   1.085827   0.000000
    21  H    3.546668   2.086272   2.482516   1.088476   1.774283
    22  H    3.548700   2.086947   2.483286   1.088778   1.774540
                   21         22
    21  H    0.000000
    22  H    1.774992   0.000000
 Stoichiometry    C6H12N2O2
 Framework group  C1[X(C6H12N2O2)]
 Deg. of freedom    60
 Full point group                 C1      NOp   1
 Largest Abelian subgroup         C1      NOp   1
 Largest concise Abelian subgroup C1      NOp   1
                         Standard orientation:                         
 ---------------------------------------------------------------------
 Center     Atomic      Atomic             Coordinates (Angstroms)
 Number     Number       Type             X           Y           Z
 ---------------------------------------------------------------------
      1          1           0       -3.574831   -1.678250    0.120908
      2          6           0       -3.308656   -0.659541   -0.146381
      3          1           0       -3.785955    0.033815    0.545482
      4          1           0       -3.652590   -0.446759   -1.157340
      5          6           0       -1.793957   -0.470546   -0.089511
      6          8           0       -1.050632   -1.381447    0.220989
      7          7           0       -1.335643    0.755999   -0.403211
      8          1           0       -1.996188    1.466733   -0.663807
      9          6           0        0.070618    1.139525   -0.381630
     10          1           0        0.366872    1.463354   -1.378578
     11          6           0        0.303466    2.290133    0.597500
     12          1           0        0.018097    1.978355    1.599802
     13          1           0        1.355340    2.569421    0.593877
     14          1           0       -0.295455    3.151346    0.305022
     15          6           0        0.973543   -0.015101    0.040104
     16          8           0        0.554101   -0.860645    0.807043
     17          7           0        2.217949   -0.017139   -0.472116
     18          1           0        2.501174    0.711572   -1.102976
     19          6           0        3.184616   -1.045736   -0.147543
     20          1           0        2.732636   -1.755093    0.539151
     21          1           0        3.489856   -1.565051   -1.054141
     22          1           0        4.059383   -0.597128    0.320399
 ---------------------------------------------------------------------
 Rotational constants (GHZ):      2.3274428      0.9302858      0.7277992
 Standard basis: 6-31G(d) (6D, 7F)
 There are   174 symmetry adapted basis functions of A   symmetry.
 Integral buffers will be    131072 words long.
 Raffenetti 1 integral format.
 Two-electron integral symmetry is turned on.
   174 basis functions,   328 primitive gaussians,   174 cartesian basis functions
    39 alpha electrons       39 beta electrons
       nuclear repulsion energy       577.6633484029 Hartrees.
 NAtoms=   22 NActive=   22 NUniq=   22 SFac= 7.50D-01 NAtFMM=   80 NAOKFM=F Big=F
 One-electron integrals computed using PRISM.
 NBasis=   174 RedAO= T  NBF=   174
 NBsUse=   174 1.00D-06 NBFU=   174
 Initial guess read from the read-write file.
 B after Tr=     0.000000    0.000000    0.000000
         Rot=    1.000000    0.000000    0.000000    0.000000 Ang=   0.00 deg.
 Initial guess orbital symmetries:
       Occupied  (A) (A) (A) (A) (A) (A) (A) (A) (A) (A) (A) (A)
                 (A) (A) (A) (A) (A) (A) (A) (A) (A) (A) (A) (A)
                 (A) (A) (A) (A) (A) (A) (A) (A) (A) (A) (A) (A)
                 (A) (A) (A)
       Virtual   (A) (A) (A) (A) (A) (A) (A) (A) (A) (A) (A) (A)
                 (A) (A) (A) (A) (A) (A) (A) (A) (A) (A) (A) (A)
                 (A) (A) (A) (A) (A) (A) (A) (A) (A) (A) (A) (A)
                 (A) (A) (A) (A) (A) (A) (A) (A) (A) (A) (A) (A)
                 (A) (A) (A) (A) (A) (A) (A) (A) (A) (A) (A) (A)
                 (A) (A) (A) (A) (A) (A) (A) (A) (A) (A) (A) (A)
                 (A) (A) (A) (A) (A) (A) (A) (A) (A) (A) (A) (A)
                 (A) (A) (A) (A) (A) (A) (A) (A) (A) (A) (A) (A)
                 (A) (A) (A) (A) (A) (A) (A) (A) (A) (A) (A) (A)
                 (A) (A) (A) (A) (A) (A) (A) (A) (A) (A) (A) (A)
                 (A) (A) (A) (A) (A) (A) (A) (A) (A) (A) (A) (A)
                 (A) (A) (A)
 Harris functional with IExCor=  205 diagonalized for initial guess.
 ExpMin= 1.61D-01 ExpMax= 5.48D+03 ExpMxC= 8.25D+02 IAcc=1 IRadAn=         1 AccDes= 0.00D+00
 HarFok:  IExCor=  205 AccDes= 0.00D+00 IRadAn=         1 IDoV= 1
 ScaDFX=  1.000000  1.000000  1.000000  1.000000
 FoFCou: FMM=F IPFlag=           0 FMFlag=      100000 FMFlg1=           0
         NFxFlg=           0 DoJE=T BraDBF=F KetDBF=T FulRan=T
         Omega=  0.000000  0.000000  1.000000  0.000000  0.000000 ICntrl=     500 IOpCl=  0
         NMat0=    1 NMatS0=    1 NMatT0=    0 NMatD0=    1 NMtDS0=    0 NMtDT0=    0
         I1Cent=           4 NGrid=           0.
 Petite list used in FoFCou.
 Requested convergence on RMS density matrix=1.00D-08 within 128 cycles.
 Requested convergence on MAX density matrix=1.00D-06.
 Requested convergence on             energy=1.00D-06.
 No special actions if energy rises.
 Integral accuracy reduced to 1.0D-05 until final iterations.
 Initial convergence to 1.0D-05 achieved.  Increase integral accuracy.
 SCF Done:  E(RHF) =  -492.721463902     A.U. after   15 cycles
             Convg  =    0.6880D-08             -V/T =  2.0006
 Calling FoFJK, ICntrl=      2127 FMM=F ISym2X=0 I1Cent= 0 IOpClX= 0 NMat=1 NMatS=1 NMatT=0.
 ***** Axes restored to original set *****
 -------------------------------------------------------------------
 Center     Atomic                   Forces (Hartrees/Bohr)
 Number     Number              X              Y              Z
 -------------------------------------------------------------------
      1        1           0.007029760   -0.000510990    0.000153596
      2        6           0.009496960   -0.003849680   -0.005676081
      3        1          -0.003183025   -0.001911088    0.003248747
      4        1          -0.002138380   -0.000787096   -0.002806110
      5        6          -0.038139903    0.058316411    0.002492465
      6        8          -0.152086044   -0.126955681    0.068393099
      7        7           0.018729007   -0.010467801    0.003236510
      8        1           0.001123820    0.010146266   -0.000533971
      9        6           0.005068469   -0.001227020   -0.000777128
     10        1          -0.002036538   -0.001290057   -0.000543900
     11        6           0.000097161   -0.002626423   -0.000620135
     12        1           0.002686203   -0.001347177    0.002445288
     13        1          -0.001318625   -0.003413943   -0.002160003
     14        1           0.001700385    0.002266419   -0.002410041
     15        6          -0.050043030    0.025325336   -0.036693601
     16        8           0.191421316    0.054581337   -0.041785775
     17        7           0.016837249   -0.000047898    0.015568530
     18        1          -0.009772106    0.005259148   -0.002177948
     19        6           0.002339766   -0.000759689   -0.000603234
     20        1           0.004910674   -0.003962621    0.002786345
     21        1          -0.000103778    0.001516933   -0.003365883
     22        1          -0.002619340    0.001745312    0.001829231
 -------------------------------------------------------------------
 Cartesian Forces:  Max     0.191421316 RMS     0.038191901

 GradGradGradGradGradGradGradGradGradGradGradGradGradGradGradGradGradGrad
 Berny optimization.
 Using GEDIIS/GDIIS optimizer.
 Internal  Forces:  Max     0.180472030 RMS     0.019715017
 Search for a local minimum.
 Step number   2 out of a maximum of  116
 All quantities printed in internal units (Hartrees-Bohrs-Radians)
 Mixed Optimization -- RFO/linear search
 Update second derivatives using D2CorX and points    1    2
 DE= -7.39D-02 DEPred=-8.02D-02 R= 9.21D-01
 SS=  1.41D+00  RLast= 3.00D-01 DXNew= 5.0454D-01 8.9997D-01
 Trust test= 9.21D-01 RLast= 3.00D-01 DXMaxT set to 5.05D-01
 Use linear search instead of GDIIS.
 Linear search step of   0.594 exceeds DXMaxT=   0.505 but not scaled.
 Quartic linear search produced a step of  2.00000.
 Iteration  1 RMS(Cart)=  0.06432557 RMS(Int)=  0.03351545
 Iteration  2 RMS(Cart)=  0.03263168 RMS(Int)=  0.01238406
 Iteration  3 RMS(Cart)=  0.01911362 RMS(Int)=  0.00070271
 Iteration  4 RMS(Cart)=  0.00011174 RMS(Int)=  0.00069946
 Iteration  5 RMS(Cart)=  0.00000004 RMS(Int)=  0.00069946
 Iteration  1 RMS(Cart)=  0.00011448 RMS(Int)=  0.00007556
 Iteration  2 RMS(Cart)=  0.00006499 RMS(Int)=  0.00008397
 Iteration  3 RMS(Cart)=  0.00003661 RMS(Int)=  0.00009566
 Iteration  4 RMS(Cart)=  0.00002062 RMS(Int)=  0.00010443
 Iteration  5 RMS(Cart)=  0.00001195 RMS(Int)=  0.00011032
 Iteration  6 RMS(Cart)=  0.00000754 RMS(Int)=  0.00011419
 Iteration  7 RMS(Cart)=  0.00000544 RMS(Int)=  0.00011675
 Iteration  8 RMS(Cart)=  0.00000440 RMS(Int)=  0.00011848
 Iteration  9 RMS(Cart)=  0.00000373 RMS(Int)=  0.00011967
 Iteration 10 RMS(Cart)=  0.00000319 RMS(Int)=  0.00012051
 Iteration 11 RMS(Cart)=  0.00000272 RMS(Int)=  0.00012113
 Iteration 12 RMS(Cart)=  0.00000229 RMS(Int)=  0.00012159
 Iteration 13 RMS(Cart)=  0.00000192 RMS(Int)=  0.00012195
 Iteration 14 RMS(Cart)=  0.00000159 RMS(Int)=  0.00012222
 Iteration 15 RMS(Cart)=  0.00000132 RMS(Int)=  0.00012244
 Iteration 16 RMS(Cart)=  0.00000108 RMS(Int)=  0.00012261
 Iteration 17 RMS(Cart)=  0.00000089 RMS(Int)=  0.00012274
 Variable       Old X    -DE/DX   Delta X   Delta X   Delta X     New X
                                 (Linear)    (Quad)   (Total)
    R1        2.05282  -0.00605  -0.01388   0.00000  -0.01388   2.03894
    R2        2.05905  -0.00160  -0.00145   0.00000  -0.00145   2.05759
    R3        2.05764  -0.00179  -0.00427   0.00000  -0.00427   2.05336
    R4        2.88656  -0.00514  -0.00916   0.00000  -0.00916   2.87740
    R5        2.29793  -0.04775  -0.04935   0.00000  -0.04816   2.24977
    R6        2.54438   0.02481   0.04319   0.00000   0.04439   2.58877
    R7        3.37509   0.18047   0.55793   0.00000   0.55780   3.93289
    R8        1.89856  -0.01015  -0.02030   0.00000  -0.02030   1.87826
    R9        2.75481   0.00480   0.03327   0.00000   0.03352   2.78833
   R10        2.05845  -0.00111  -0.00260   0.00000  -0.00260   2.05585
   R11        2.88876   0.00525   0.01374   0.00000   0.01374   2.90250
   R12        2.88225   0.00468   0.01214   0.00000   0.01100   2.89325
   R13        2.05559  -0.00371  -0.00826   0.00000  -0.00826   2.04734
   R14        2.05664  -0.00274  -0.00641   0.00000  -0.00641   2.05023
   R15        2.05793  -0.00201  -0.00347   0.00000  -0.00347   2.05446
   R16        2.29823  -0.04756  -0.04865   0.00000  -0.04984   2.24839
   R17        2.54301   0.01674   0.04062   0.00000   0.04062   2.58364
   R18        1.89842  -0.01092  -0.02075   0.00000  -0.02075   1.87766
   R19        2.73704  -0.00135  -0.00257   0.00000  -0.00257   2.73447
   R20        2.05192  -0.00670  -0.01581   0.00000  -0.01581   2.03611
   R21        2.05692  -0.00275  -0.00581   0.00000  -0.00581   2.05112
   R22        2.05749  -0.00239  -0.00452   0.00000  -0.00452   2.05297
    A1        1.91046  -0.00003  -0.00135   0.00000  -0.00115   1.90931
    A2        1.91167   0.00039   0.00107   0.00000   0.00109   1.91276
    A3        1.92820  -0.00725  -0.02178   0.00000  -0.02167   1.90653
    A4        1.90374  -0.00433  -0.01271   0.00000  -0.01295   1.89079
    A5        1.90922   0.00701   0.02634   0.00000   0.02631   1.93554
    A6        1.90034   0.00425   0.00856   0.00000   0.00845   1.90878
    A7        2.12114   0.01234   0.03602   0.00000   0.03477   2.15591
    A8        2.02815  -0.00907  -0.01404   0.00000  -0.01530   2.01285
    A9        2.13389  -0.00327  -0.02198   0.00000  -0.01947   2.11442
   A10        1.99829  -0.02271  -0.07891   0.00000  -0.07772   1.92057
   A11        2.07268  -0.00986  -0.04318   0.00000  -0.04389   2.02878
   A12        2.17072   0.02185   0.08603   0.00000   0.08723   2.25794
   A13        2.03976  -0.01198  -0.04292   0.00000  -0.04361   1.99614
   A14        1.90395  -0.00543  -0.01437   0.00000  -0.01399   1.88996
   A15        1.93312   0.00123  -0.01186   0.00000  -0.01206   1.92105
   A16        1.95628   0.00551   0.03455   0.00000   0.03390   1.99018
   A17        1.89761   0.00084   0.00303   0.00000   0.00266   1.90027
   A18        1.89348   0.00298  -0.00519   0.00000  -0.00500   1.88848
   A19        1.87813  -0.00512  -0.00648   0.00000  -0.00599   1.87214
   A20        1.91186   0.00033   0.00142   0.00000   0.00141   1.91327
   A21        1.91585   0.00354   0.00956   0.00000   0.00951   1.92535
   A22        1.91713   0.00354   0.01206   0.00000   0.01200   1.92912
   A23        1.90729  -0.00186  -0.00564   0.00000  -0.00565   1.90163
   A24        1.90695  -0.00199  -0.00657   0.00000  -0.00659   1.90036
   A25        1.90468  -0.00363  -0.01095   0.00000  -0.01104   1.89364
   A26        2.09038  -0.00074  -0.02548   0.00000  -0.02707   2.06331
   A27        2.03011  -0.00782  -0.00993   0.00000  -0.00922   2.02089
   A28        2.16266   0.00856   0.03534   0.00000   0.03600   2.19866
   A29        1.88146  -0.00309  -0.00207   0.00000  -0.00552   1.87594
   A30        2.09282  -0.00120  -0.00311   0.00000  -0.00311   2.08971
   A31        2.13288   0.00212   0.01048   0.00000   0.01048   2.14336
   A32        2.05749  -0.00092  -0.00737   0.00000  -0.00737   2.05012
   A33        1.90483  -0.00393  -0.01230   0.00000  -0.01225   1.89258
   A34        1.91701   0.00349   0.01166   0.00000   0.01160   1.92861
   A35        1.91764   0.00407   0.01317   0.00000   0.01312   1.93075
   A36        1.90899  -0.00055  -0.00243   0.00000  -0.00238   1.90661
   A37        1.90901  -0.00053  -0.00226   0.00000  -0.00220   1.90681
   A38        1.90630  -0.00256  -0.00788   0.00000  -0.00803   1.89827
    D1       -0.00019  -0.00009  -0.00037   0.00000  -0.00049  -0.00068
    D2        3.14009  -0.00041  -0.00301   0.00000  -0.00275   3.13733
    D3        2.10402  -0.00019   0.00133   0.00000   0.00097   2.10498
    D4       -1.03889  -0.00051  -0.00131   0.00000  -0.00130  -1.04019
    D5       -2.10022   0.00120   0.00626   0.00000   0.00618  -2.09405
    D6        1.04005   0.00088   0.00362   0.00000   0.00391   1.04396
    D7       -2.76906  -0.00353   0.00439   0.00000   0.00441  -2.76465
    D8        0.37393  -0.00320   0.00719   0.00000   0.00680   0.38073
    D9       -0.01237  -0.00793  -0.02474   0.00000  -0.02462  -0.03698
   D10        3.11953  -0.00699  -0.04413   0.00000  -0.04366   3.07586
   D11        3.12790  -0.00823  -0.02739   0.00000  -0.02678   3.10112
   D12       -0.02340  -0.00729  -0.04679   0.00000  -0.04583  -0.06922
   D13       -0.80948  -0.00486  -0.01492   0.00000  -0.01784  -0.82732
   D14        2.09736  -0.00496   0.00594   0.00000   0.00575   2.10311
   D15       -2.09781  -0.00661  -0.00691   0.00000  -0.00682  -2.10463
   D16        0.00001  -0.00855   0.00001   0.00000   0.00000   0.00001
   D17       -1.05376  -0.00403  -0.01313   0.00000  -0.01302  -1.06679
   D18        1.03425  -0.00568  -0.02598   0.00000  -0.02559   1.00866
   D19        3.13207  -0.00762  -0.01905   0.00000  -0.01878   3.11329
   D20        1.05662   0.00333   0.01877   0.00000   0.01841   1.07504
   D21       -3.13231   0.00343   0.01861   0.00000   0.01823  -3.11408
   D22       -1.03800   0.00338   0.01853   0.00000   0.01819  -1.01981
   D23       -3.13475  -0.00208  -0.00431   0.00000  -0.00428  -3.13903
   D24       -1.04050  -0.00198  -0.00447   0.00000  -0.00446  -1.04496
   D25        1.05381  -0.00203  -0.00455   0.00000  -0.00451   1.04931
   D26       -1.08721  -0.00091  -0.01237   0.00000  -0.01204  -1.09925
   D27        1.00704  -0.00080  -0.01253   0.00000  -0.01222   0.99482
   D28        3.10135  -0.00085  -0.01262   0.00000  -0.01227   3.08909
   D29       -0.53248  -0.00581  -0.01775   0.00000  -0.01663  -0.54911
   D30        2.61802  -0.00646   0.00001   0.00000   0.00000   2.61802
   D31       -2.63592  -0.00448  -0.01799   0.00000  -0.01712  -2.65304
   D32        0.51458  -0.00512  -0.00023   0.00000  -0.00049   0.51409
   D33        1.59704  -0.00428  -0.01527   0.00000  -0.01440   1.58264
   D34       -1.53564  -0.00492   0.00248   0.00000   0.00222  -1.53342
   D35        0.83670  -0.00297  -0.01408   0.00000  -0.01577   0.82093
   D36       -2.31452  -0.00237  -0.03326   0.00000  -0.03455  -2.34908
   D37       -0.01128  -0.00200  -0.02234   0.00000  -0.02230  -0.03357
   D38        3.13150  -0.00165  -0.02024   0.00000  -0.02020   3.11130
   D39        3.13964  -0.00262  -0.00377   0.00000  -0.00381   3.13582
   D40       -0.00077  -0.00226  -0.00167   0.00000  -0.00171  -0.00249
   D41       -0.00085  -0.00016  -0.00152   0.00000  -0.00153  -0.00237
   D42        2.09186  -0.00114  -0.00495   0.00000  -0.00503   2.08684
   D43       -2.09396   0.00044   0.00077   0.00000   0.00085  -2.09311
   D44       -3.14128   0.00019   0.00053   0.00000   0.00053  -3.14075
   D45       -1.04857  -0.00079  -0.00289   0.00000  -0.00297  -1.05154
   D46        1.04879   0.00079   0.00282   0.00000   0.00290   1.05169
         Item               Value     Threshold  Converged?
 Maximum Force            0.177768     0.000450     NO 
 RMS     Force            0.019750     0.000300     NO 
 Maximum Displacement     0.411944     0.001800     NO 
 RMS     Displacement     0.113032     0.001200     NO 
 Predicted change in Energy=-5.379556D-02
 GradGradGradGradGradGradGradGradGradGradGradGradGradGradGradGradGradGrad

                          Input orientation:                          
 ---------------------------------------------------------------------
 Center     Atomic      Atomic             Coordinates (Angstroms)
 Number     Number       Type             X           Y           Z
 ---------------------------------------------------------------------
      1          1           0        0.129359    4.198482   -0.057254
      2          6           0        1.058659    3.650250   -0.058377
      3          1           0        1.121500    3.047001   -0.962643
      4          1           0        1.089866    2.984274    0.799636
      5          6           0        2.220141    4.631589    0.021674
      6          8           0        2.080528    5.812703    0.074874
      7          7           0        3.466982    4.064206    0.033671
      8          1           0        3.497887    3.070818    0.022306
      9          6           0        4.791386    4.714656    0.028543
     10          1           0        5.326100    4.407312    0.924736
     11          6           0        5.591947    4.270452   -1.204699
     12          1           0        5.070903    4.573113   -2.105072
     13          1           0        6.577099    4.724886   -1.197981
     14          1           0        5.710632    3.189813   -1.213280
     15          6           0        4.734531    6.244482    0.006556
     16          8           0        3.821712    6.765581   -0.550968
     17          7           0        5.775902    6.887220    0.616208
     18          1           0        6.489607    6.357617    1.060527
     19          6           0        5.894007    8.328953    0.652630
     20          1           0        5.050559    8.753165    0.133436
     21          1           0        5.898289    8.684227    1.678234
     22          1           0        6.811603    8.650100    0.167743
 ---------------------------------------------------------------------
                    Distance matrix (angstroms):
                    1          2          3          4          5
     1  H    0.000000
     2  C    1.078962   0.000000
     3  H    1.769175   1.088832   0.000000
     4  H    1.769501   1.086593   1.763679   0.000000
     5  C    2.136628   1.522654   2.164904   2.143920   0.000000
     6  O    2.535790   2.395450   3.105686   3.083295   1.190526
     7  N    3.341561   2.445374   2.743836   2.720963   1.369921
     8  H    3.553158   2.508403   2.572530   2.531857   2.017087
     9  C    4.691300   3.882495   4.151095   4.158132   2.572596
    10  H    5.292828   4.444177   4.805341   4.470612   3.242345
    11  C    5.582265   4.716928   4.641155   5.093167   3.606036
    12  H    5.362161   4.597689   4.385425   5.177876   3.557150
    13  H    6.568996   5.736438   5.712639   6.093434   4.525412
    14  H    5.788300   4.815252   4.598190   5.044359   3.973331
    15  C    5.039623   4.499588   4.921100   4.953940   2.987275
    16  O    4.524072   4.193137   4.613942   4.856480   2.728896
    17  N    6.290176   5.760679   6.237268   6.101276   4.252620
    18  H    6.809116   6.170655   6.623441   6.372183   4.720882
    19  C    7.127123   6.765824   7.299653   7.187974   5.250323
    20  H    6.708183   6.481652   7.014214   7.029298   5.001115
    21  H    7.510951   7.195747   7.846672   7.508817   5.718115
    22  H    8.032429   7.625352   8.065343   8.077076   6.103384
                    6          7          8          9         10
     6  O    0.000000
     7  N    2.231859   0.000000
     8  H    3.087005   0.993933   0.000000
     9  C    2.925167   1.475519   2.091741   0.000000
    10  H    3.637461   2.089985   2.437818   1.087906   0.000000
    11  C    4.043008   2.468111   2.707351   1.535937   2.150325
    12  H    3.902703   2.721355   3.042534   2.156497   3.045054
    13  H    4.798193   3.409735   3.702241   2.166388   2.484306
    14  H    4.660102   2.711718   2.537139   2.170780   2.490237
    15  C    2.689764   2.522106   3.406123   1.531040   2.137335
    16  O    2.081196   2.786587   3.752969   2.341451   3.162644
    17  N    3.886311   3.693219   4.484082   2.456553   2.539184
    18  H    4.550650   3.930703   4.564136   2.578423   2.275055
[...]
    12  H    5.104098   4.143216   3.723053   4.477085   3.553483
    13  H    6.397096   5.442314   5.257060   5.681727   4.507602
    14  H    5.601829   4.548491   4.415324   4.494302   3.939185
    15  C    4.959950   4.318387   4.401983   4.930397   2.975583
    16  O    4.574802   4.067050   3.980616   4.880029   2.924592
    17  N    6.248034   5.633707   5.758425   6.192859   4.227708
    18  H    6.634238   5.990324   6.237007   6.414199   4.541488
    19  C    7.067155   6.594418   6.662473   7.292262   5.216335
    20  H    7.126745   6.653643   6.553280   7.425040   5.411093
    21  H    6.897089   6.578136   6.751068   7.335631   5.184760
    22  H    8.076535   7.566338   7.650279   8.202614   6.158655
                    6          7          8          9         10
     6  O    0.000000
     7  N    2.267493   0.000000
     8  H    3.080015   0.996681   0.000000
     9  C    3.027518   1.459605   2.033262   0.000000
    10  H    3.582813   2.072020   2.599974   1.086392   0.000000
    11  C    4.288656   2.445820   2.411490   1.533817   2.138129
    12  H    4.296334   2.726606   2.607054   2.160491   3.039590
    13  H    5.058289   3.388827   3.460592   2.168179   2.465183
    14  H    4.819940   2.671274   2.274554   2.165815   2.480669
    15  C    2.930903   2.531684   3.300721   1.531365   2.138130
    16  O    2.763058   2.948984   3.661882   2.394281   3.226872
    17  N    4.034100   3.668077   4.419970   2.421492   2.491643
    18  H    4.384620   3.814860   4.545854   2.555866   2.184315
    19  C    4.784638   4.917993   5.712632   3.786915   3.929230
    20  H    5.051039   5.187851   5.901348   4.093733   4.468281
    21  H    4.522391   5.131096   6.023080   4.225451   4.361794
    22  H    5.756287   5.724821   6.483958   4.479127   4.422551
                   11         12         13         14         15
    11  C    0.000000
    12  H    1.083626   0.000000
    13  H    1.083170   1.760894   0.000000
    14  H    1.086155   1.766453   1.754342   0.000000
    15  C    2.462249   2.703147   2.681385   3.423296   0.000000
    16  O    3.067765   2.868309   3.393370   4.062900   1.195317
    17  N    3.150113   3.601786   2.901766   4.080790   1.359328
    18  H    3.368353   4.062249   3.065801   4.117692   2.022347
    19  C    4.415601   4.664536   4.063401   5.415344   2.432049
    20  H    4.458301   4.471240   4.093566   5.521730   2.672437
    21  H    5.112461   5.329316   4.925445   6.096404   2.817519
    22  H    4.987687   5.354249   4.440891   5.923316   3.308149
                   16         17         18         19         20
    16  O    0.000000
    17  N    2.239971   0.000000
    18  H    3.092015   0.994659   0.000000
    19  C    2.743155   1.449712   2.095285   0.000000
    20  H    2.596508   2.074696   2.923957   1.079537   0.000000
    21  H    2.947334   2.113048   2.638850   1.084631   1.755366
    22  H    3.774540   2.067128   2.322585   1.082226   1.760331
                   21         22
    21  H    0.000000
    22  H    1.766673   0.000000
 Stoichiometry    C6H12N2O2
 Framework group  C1[X(C6H12N2O2)]
 Deg. of freedom    60
 Full point group                 C1      NOp   1
 Largest Abelian subgroup         C1      NOp   1
 Largest concise Abelian subgroup C1      NOp   1
                         Standard orientation:                         
 ---------------------------------------------------------------------
 Center     Atomic      Atomic             Coordinates (Angstroms)
 Number     Number       Type             X           Y           Z
 ---------------------------------------------------------------------
      1          1           0       -3.752916   -1.368057    0.410162
      2          6           0       -3.271358   -0.401725    0.401493
      3          1           0       -3.167916   -0.046557    1.422387
      4          1           0       -3.890397    0.306144   -0.141033
      5          6           0       -1.901050   -0.541048   -0.228264
      6          8           0       -1.416345   -1.601761   -0.470517
      7          7           0       -1.314958    0.660883   -0.578635
      8          1           0       -1.887873    1.438882   -0.333974
      9          6           0        0.096348    1.020732   -0.482874
     10          1           0        0.442975    1.290934   -1.476397
     11          6           0        0.253475    2.244997    0.427665
     12          1           0       -0.058369    2.000794    1.436310
     13          1           0        1.285232    2.573780    0.452861
     14          1           0       -0.351337    3.068983    0.060265
     15          6           0        1.021301   -0.067052    0.070539
     16          8           0        0.734384   -0.725119    1.026264
     17          7           0        2.288387   -0.006092   -0.417878
     18          1           0        2.411146    0.353869   -1.336956
     19          6           0        3.292316   -0.937230    0.058331
     20          1           0        3.321882   -0.910630    1.137134
     21          1           0        3.086971   -1.955520   -0.253668
     22          1           0        4.256095   -0.633159   -0.328819
 ---------------------------------------------------------------------
 Rotational constants (GHZ):      2.2912335      0.8582124      0.7028140

 **********************************************************************

            Population analysis using the SCF density.

 **********************************************************************

 Orbital symmetries:
       Occupied  (A) (A) (A) (A) (A) (A) (A) (A) (A) (A) (A) (A)
                 (A) (A) (A) (A) (A) (A) (A) (A) (A) (A) (A) (A)
                 (A) (A) (A) (A) (A) (A) (A) (A) (A) (A) (A) (A)
                 (A) (A) (A)
       Virtual   (A) (A) (A) (A) (A) (A) (A) (A) (A) (A) (A) (A)
                 (A) (A) (A) (A) (A) (A) (A) (A) (A) (A) (A) (A)
                 (A) (A) (A) (A) (A) (A) (A) (A) (A) (A) (A) (A)
                 (A) (A) (A) (A) (A) (A) (A) (A) (A) (A) (A) (A)
                 (A) (A) (A) (A) (A) (A) (A) (A) (A) (A) (A) (A)
                 (A) (A) (A) (A) (A) (A) (A) (A) (A) (A) (A) (A)
                 (A) (A) (A) (A) (A) (A) (A) (A) (A) (A) (A) (A)
                 (A) (A) (A) (A) (A) (A) (A) (A) (A) (A) (A) (A)
                 (A) (A) (A) (A) (A) (A) (A) (A) (A) (A) (A) (A)
                 (A) (A) (A) (A) (A) (A) (A) (A) (A) (A) (A) (A)
                 (A) (A) (A) (A) (A) (A) (A) (A) (A) (A) (A) (A)
                 (A) (A) (A)
 The electronic state is 1-A.
 Alpha  occ. eigenvalues --  -20.52146 -20.51683 -15.58465 -15.57883 -11.34466
 Alpha  occ. eigenvalues --  -11.34091 -11.28795 -11.25381 -11.23687 -11.22647
 Alpha  occ. eigenvalues --   -1.39639  -1.38074  -1.23562  -1.22821  -1.05739
 Alpha  occ. eigenvalues --   -0.98921  -0.95733  -0.87924  -0.80183  -0.77393
 Alpha  occ. eigenvalues --   -0.69561  -0.68461  -0.66588  -0.63741  -0.62606
 Alpha  occ. eigenvalues --   -0.61206  -0.59554  -0.57905  -0.57680  -0.55349
 Alpha  occ. eigenvalues --   -0.55069  -0.54983  -0.53717  -0.51950  -0.48939
 Alpha  occ. eigenvalues --   -0.42273  -0.40823  -0.39086  -0.38182
 Alpha virt. eigenvalues --    0.19400   0.20631   0.20699   0.22955   0.26922
 Alpha virt. eigenvalues --    0.27064   0.28340   0.30561   0.31016   0.31623
 Alpha virt. eigenvalues --    0.32147   0.33355   0.34017   0.34675   0.37775
 Alpha virt. eigenvalues --    0.38997   0.41365   0.44288   0.46060   0.50092
 Alpha virt. eigenvalues --    0.54659   0.60243   0.61298   0.72072   0.73442
 Alpha virt. eigenvalues --    0.73648   0.75283   0.76050   0.78020   0.79147
 Alpha virt. eigenvalues --    0.81812   0.83246   0.84589   0.86092   0.87922
 Alpha virt. eigenvalues --    0.91337   0.94814   0.96652   0.97819   1.00309
 Alpha virt. eigenvalues --    1.02300   1.03510   1.05484   1.08457   1.09838
 Alpha virt. eigenvalues --    1.12901   1.13222   1.14058   1.14133   1.15250
 Alpha virt. eigenvalues --    1.16292   1.17753   1.19348   1.20532   1.21718
 Alpha virt. eigenvalues --    1.22254   1.23222   1.23765   1.23906   1.28225
 Alpha virt. eigenvalues --    1.28956   1.31958   1.32347   1.40401   1.41715
 Alpha virt. eigenvalues --    1.45598   1.49853   1.52265   1.55020   1.56790
 Alpha virt. eigenvalues --    1.64932   1.66596   1.68762   1.73408   1.76351
 Alpha virt. eigenvalues --    1.80690   1.87077   1.89536   1.97781   1.98352
 Alpha virt. eigenvalues --    1.99220   2.02777   2.07772   2.11693   2.13904
 Alpha virt. eigenvalues --    2.14185   2.16826   2.20311   2.20724   2.24033
 Alpha virt. eigenvalues --    2.24994   2.30082   2.31699   2.34077   2.34940
 Alpha virt. eigenvalues --    2.38418   2.38565   2.41600   2.45260   2.52300
 Alpha virt. eigenvalues --    2.53672   2.55383   2.56472   2.62517   2.63403
 Alpha virt. eigenvalues --    2.65732   2.68609   2.72433   2.74923   2.77631
 Alpha virt. eigenvalues --    2.81639   2.84311   2.87261   2.92717   2.99695
 Alpha virt. eigenvalues --    3.02946   3.05136   3.08549   3.13420   3.25259
 Alpha virt. eigenvalues --    3.33577   3.39262   3.41079   3.53580   3.56044
 Alpha virt. eigenvalues --    4.35832   4.41072   4.50410   4.61279   4.62641
 Alpha virt. eigenvalues --    4.70433   4.76580   4.83863   4.89891   5.07872
          Condensed to atoms (all electrons):
              1          2          3          4          5          6
     1  H    0.462805   0.381635  -0.016724  -0.020455  -0.031846   0.004474
     2  C    0.381635   5.298171   0.371947   0.375037   0.366294  -0.073265
     3  H   -0.016724   0.371947   0.502815  -0.026383  -0.027530   0.000613
     4  H   -0.020455   0.375037  -0.026383   0.525278  -0.035008   0.001468
     5  C   -0.031846   0.366294  -0.027530  -0.035008   4.133511   0.622078
     6  O    0.004474  -0.073265   0.000613   0.001468   0.622078   8.105890
     7  N    0.004544  -0.126876   0.001421   0.004025   0.251022  -0.096084
     8  H    0.000121   0.001218  -0.000265   0.000148  -0.026507   0.003079
     9  C   -0.000129   0.004389  -0.000283   0.000295  -0.021693   0.002013
    10  H    0.000004  -0.000187   0.000005  -0.000003   0.000433  -0.000077
    11  C    0.000001  -0.000079   0.000053  -0.000031   0.002014   0.000163
    12  H    0.000002  -0.000095   0.000091  -0.000002   0.000231  -0.000018
    13  H    0.000000   0.000004  -0.000001   0.000000  -0.000024   0.000000
    14  H    0.000000  -0.000011  -0.000003  -0.000001  -0.000037  -0.000001
    15  C    0.000001   0.000195  -0.000024  -0.000011  -0.001288   0.006577
    16  O    0.000005  -0.000635   0.000168   0.000000   0.007826  -0.009930
    17  N    0.000000  -0.000008   0.000001   0.000000   0.000222  -0.000389
    18  H    0.000000   0.000000   0.000000   0.000000  -0.000013   0.000008
    19  C    0.000000   0.000000   0.000000   0.000000  -0.000013   0.000002
    20  H    0.000000   0.000000   0.000000   0.000000   0.000000   0.000002
    21  H    0.000000   0.000000   0.000000   0.000000  -0.000003   0.000002
    22  H    0.000000   0.000000   0.000000   0.000000   0.000000   0.000000
              7          8          9         10         11         12
     1  H    0.004544   0.000121  -0.000129   0.000004   0.000001   0.000002
     2  C   -0.126876   0.001218   0.004389  -0.000187  -0.000079  -0.000095
     3  H    0.001421  -0.000265  -0.000283   0.000005   0.000053   0.000091
     4  H    0.004025   0.000148   0.000295  -0.000003  -0.000031  -0.000002
     5  C    0.251022  -0.026507  -0.021693   0.000433   0.002014   0.000231
     6  O   -0.096084   0.003079   0.002013  -0.000077   0.000163  -0.000018
     7  N    7.369104   0.331787   0.209957  -0.046098  -0.060886   0.001069
     8  H    0.331787   0.356992  -0.041109   0.000985  -0.002699   0.000254
     9  C    0.209957  -0.041109   4.988199   0.406114   0.347771  -0.037668
    10  H   -0.046098   0.000985   0.406114   0.553969  -0.048883   0.004534
    11  C   -0.060886  -0.002699   0.347771  -0.048883   5.165939   0.386250
    12  H    0.001069   0.000254  -0.037668   0.004534   0.386250   0.494121
    13  H    0.004746   0.000212  -0.032947   0.001160   0.384300  -0.018994
    14  H   -0.004259   0.002930  -0.037910  -0.004288   0.390192  -0.026728
    15  C   -0.036427   0.002839   0.375514  -0.056024  -0.040513  -0.006605
    16  O    0.000355  -0.000274  -0.071097   0.002927  -0.001735   0.004351
    17  N    0.002371  -0.000115  -0.105426   0.007421  -0.005896   0.000737
    18  H   -0.000079  -0.000001  -0.000898   0.002691   0.000336   0.000001
    19  C   -0.000047   0.000002   0.004828  -0.000113  -0.000246  -0.000017
    20  H   -0.000005   0.000000  -0.000037  -0.000009   0.000067  -0.000001
    21  H    0.000010   0.000000  -0.000049  -0.000001  -0.000015   0.000000
    22  H    0.000000   0.000000  -0.000018  -0.000021   0.000008   0.000000
             13         14         15         16         17         18
     1  H    0.000000   0.000000   0.000001   0.000005   0.000000   0.000000
     2  C    0.000004  -0.000011   0.000195  -0.000635  -0.000008   0.000000
     3  H   -0.000001  -0.000003  -0.000024   0.000168   0.000001   0.000000
     4  H    0.000000  -0.000001  -0.000011   0.000000   0.000000   0.000000
     5  C   -0.000024  -0.000037  -0.001288   0.007826   0.000222  -0.000013
     6  O    0.000000  -0.000001   0.006577  -0.009930  -0.000389   0.000008
     7  N    0.004746  -0.004259  -0.036427   0.000355   0.002371  -0.000079
     8  H    0.000212   0.002930   0.002839  -0.000274  -0.000115  -0.000001
     9  C   -0.032947  -0.037910   0.375514  -0.071097  -0.105426  -0.000898
    10  H    0.001160  -0.004288  -0.056024   0.002927   0.007421   0.002691
    11  C    0.384300   0.390192  -0.040513  -0.001735  -0.005896   0.000336
    12  H   -0.018994  -0.026728  -0.006605   0.004351   0.000737   0.000001
    13  H    0.497813  -0.024105  -0.006908  -0.000163   0.004964  -0.000038
    14  H   -0.024105   0.529884   0.005463  -0.000032  -0.000102  -0.000023
    15  C   -0.006908   0.005463   4.215939   0.570046   0.262947  -0.018857
    16  O   -0.000163  -0.000032   0.570046   8.173328  -0.097192   0.002710
    17  N    0.004964  -0.000102   0.262947  -0.097192   7.315119   0.322172
    18  H   -0.000038  -0.000023  -0.018857   0.002710   0.322172   0.339610
    19  C   -0.000075   0.000005  -0.032200   0.006624   0.207229  -0.024498
    20  H   -0.000033   0.000000  -0.002782   0.004377  -0.039265   0.003135
    21  H    0.000007   0.000000  -0.004034   0.001082  -0.045802   0.000442
    22  H   -0.000010   0.000000   0.004775   0.000392  -0.039089  -0.004145
             19         20         21         22
     1  H    0.000000   0.000000   0.000000   0.000000
     2  C    0.000000   0.000000   0.000000   0.000000
     3  H    0.000000   0.000000   0.000000   0.000000
     4  H    0.000000   0.000000   0.000000   0.000000
     5  C   -0.000013   0.000000  -0.000003   0.000000
     6  O    0.000002   0.000002   0.000002   0.000000
     7  N   -0.000047  -0.000005   0.000010   0.000000
     8  H    0.000002   0.000000   0.000000   0.000000
     9  C    0.004828  -0.000037  -0.000049  -0.000018
    10  H   -0.000113  -0.000009  -0.000001  -0.000021
    11  C   -0.000246   0.000067  -0.000015   0.000008
    12  H   -0.000017  -0.000001   0.000000   0.000000
    13  H   -0.000075  -0.000033   0.000007  -0.000010
    14  H    0.000005   0.000000   0.000000   0.000000
    15  C   -0.032200  -0.002782  -0.004034   0.004775
    16  O    0.006624   0.004377   0.001082   0.000392
    17  N    0.207229  -0.039265  -0.045802  -0.039089
    18  H   -0.024498   0.003135   0.000442  -0.004145
    19  C    4.912073   0.402827   0.406665   0.396655
    20  H    0.402827   0.483273  -0.031441  -0.024634
    21  H    0.406665  -0.031441   0.521895  -0.032553
    22  H    0.396655  -0.024634  -0.032553   0.532247
 Mulliken atomic charges:
              1
     1  H    0.215563
     2  C   -0.597734
     3  H    0.194101
     4  H    0.175643
     5  C    0.760329
     6  O   -0.566605
     7  N   -0.809650
     8  H    0.370403
     9  C    0.010186
    10  H    0.175462
    11  C   -0.516109
    12  H    0.198488
    13  H    0.190092
    14  H    0.169025
    15  C    0.761379
    16  O   -0.593134
    17  N   -0.789899
    18  H    0.377446
    19  C   -0.279701
    20  H    0.204526
    21  H    0.183797
    22  H    0.166394
 Sum of Mulliken atomic charges =   0.00000
 Mulliken charges with hydrogens summed into heavy atoms:
              1
     2  C   -0.012427
     5  C    0.760329
     6  O   -0.566605
     7  N   -0.439247
     9  C    0.185648
    11  C    0.041496
    15  C    0.761379
    16  O   -0.593134
    17  N   -0.412454
    19  C    0.275015
 Sum of Mulliken charges with hydrogens summed into heavy atoms =   0.00000
 Electronic spatial extent (au):  <R**2>=           1723.6065
 Charge=              0.0000 electrons
 Dipole moment (field-independent basis, Debye):
    X=              0.8151    Y=              4.7845    Z=             -1.3619  Tot=              5.0409
 Quadrupole moment (field-independent basis, Debye-Ang):
   XX=            -46.5569   YY=            -63.4234   ZZ=            -61.8275
   XY=             -4.8557   XZ=             -6.0380   YZ=             -0.2603
 Traceless Quadrupole moment (field-independent basis, Debye-Ang):
   XX=             10.7124   YY=             -6.1541   ZZ=             -4.5582
   XY=             -4.8557   XZ=             -6.0380   YZ=             -0.2603
 Octapole moment (field-independent basis, Debye-Ang**2):
  XXX=              3.8410  YYY=              8.3950  ZZZ=             -2.3762  XYY=              4.0978
  XXY=             -4.4765  XXZ=             -2.7614  XZZ=              5.6608  YZZ=              1.4218
  YYZ=              0.8417  XYZ=              1.5531
 Hexadecapole moment (field-independent basis, Debye-Ang**3):
 XXXX=          -1394.4770 YYYY=           -541.1159 ZZZZ=           -172.4684 XXXY=            -18.1438
 XXXZ=            -14.7805 YYYX=            -19.1217 YYYZ=             -6.9155 ZZZX=            -11.6745
 ZZZY=              0.3526 XXYY=           -336.9103 XXZZ=           -275.5073 YYZZ=           -122.4344
 XXYZ=            -10.4393 YYXZ=             -3.7721 ZZXY=              4.9178
 N-N= 5.652598432767D+02 E-N=-2.286151406919D+03  KE= 4.921030537475D+02
 1\1\GINC-RODAN\FOpt\RHF\6-31G(d)\C6H12N2O2\STEBOSS\09-Feb-2017\0\\# HF
 /6-31G* Opt=(ModRedundant) geom=nocrowd\\Phi Psi fixed scan\\0,1\H,0.2
 151279617,4.1178837504,0.1071515238\C,1.1758455723,3.7532324482,-0.224
 2425412\H,1.2470321757,3.8665412167,-1.3018142812\H,1.2624508796,2.696
 8148699,0.0104963082\C,2.2665507642,4.5640662503,0.4440830501\O,2.0346
 4079,5.5534754145,1.0653930072\N,3.5267774641,4.0041591233,0.347985431
 3\H,3.517518463,3.1557993132,-0.1750569845\C,4.7952190729,4.7014938539
 ,0.1602975446\H,5.4432629507,4.4521121714,0.9958180502\C,5.4659090476,
 4.2094756446,-1.1283787157\H,4.856842781,4.4677296959,-1.9866258995\H,
 6.4435344717,4.6603370793,-1.2476671514\H,5.596005769,3.1315519277,-1.
 0985813904\C,4.7041266173,6.2268607449,0.0601133216\O,3.871096737,6.77
 5925318,-0.5981975253\N,5.8086442253,6.8708063419,0.5217924496\H,6.325
 9858197,6.4338430894,1.2503304265\C,5.8907257882,8.3157957194,0.438527
 6201\H,5.6911320067,8.6276300157,-0.5755341604\H,5.1779778497,8.804729
 1463,1.0937823042\H,6.8927927925,8.6206368652,0.710827612\\Version=EM6
 4L-G09RevA.02\State=1-A\HF=-492.8334156\RMSD=5.229e-09\RMSF=4.344e-03\
 Dipole=1.5187684,-1.2631657,-0.1760852\Quadrupole=0.8604122,2.5603469,
 -3.4207591,6.1902893,4.6837746,3.3751483\PG=C01 [X(C6H12N2O2)]\\@


 Everything starts as somebody's daydream.
                           -- Larry Niven
 Job cpu time:  0 days  0 hours 23 minutes 47.2 seconds.
 File lengths (MBytes):  RWF=     25 Int=      0 D2E=      0 Chk=      3 Scr=      1
 Normal termination of Gaussian 09 at Thu Feb  9 12:55:34 2017.
