 Entering Gaussian System, Link 0=g09
 Initial command:
 /home/steboss/Software/g09/l1.exe /tmp/Gau-26378.inp -scrdir=/tmp/
 Entering Link 1 = /home/steboss/Software/g09/l1.exe PID=     26380.
  
 Copyright (c) 1988,1990,1992,1993,1995,1998,2003,2009, Gaussian, Inc.
                  All Rights Reserved.
  
 This is part of the Gaussian(R) 09 program.  It is based on
 the Gaussian(R) 03 system (copyright 2003, Gaussian, Inc.),
 the Gaussian(R) 98 system (copyright 1998, Gaussian, Inc.),
 the Gaussian(R) 94 system (copyright 1995, Gaussian, Inc.),
 the Gaussian 92(TM) system (copyright 1992, Gaussian, Inc.),
 the Gaussian 90(TM) system (copyright 1990, Gaussian, Inc.),
 the Gaussian 88(TM) system (copyright 1988, Gaussian, Inc.),
 the Gaussian 86(TM) system (copyright 1986, Carnegie Mellon
 University), and the Gaussian 82(TM) system (copyright 1983,
 Carnegie Mellon University). Gaussian is a federally registered
 trademark of Gaussian, Inc.
  
 This software contains proprietary and confidential information,
 including trade secrets, belonging to Gaussian, Inc.
  
 This software is provided under written license and may be
 used, copied, transmitted, or stored only in accord with that
 written license.
  
 The following legend is applicable only to US Government
 contracts under FAR:
  
                    RESTRICTED RIGHTS LEGEND
  
 Use, reproduction and disclosure by the US Government is
 subject to restrictions as set forth in subparagraphs (a)
 and (c) of the Commercial Computer Software - Restricted
 Rights clause in FAR 52.227-19.
  
 Gaussian, Inc.
 340 Quinnipiac St., Bldg. 40, Wallingford CT 06492
  
  
 ---------------------------------------------------------------
 Warning -- This program may not be used in any manner that
 competes with the business of Gaussian, Inc. or will provide
 assistance to any competitor of Gaussian, Inc.  The licensee
 of this program is prohibited from giving any competitor of
 Gaussian, Inc. access to this program.  By using this program,
 the user acknowledges that Gaussian, Inc. is engaged in the
 business of creating and licensing software in the field of
 computational chemistry and represents and warrants to the
 licensee that it is not a competitor of Gaussian, Inc. and that
 it will not use this program in any manner prohibited above.
 ---------------------------------------------------------------
  

 Cite this work as:
 Gaussian 09, Revision A.02,
 M. J. Frisch, G. W. Trucks, H. B. Schlegel, G. E. Scuseria, 
 M. A. Robb, J. R. Cheeseman, G. Scalmani, V. Barone, B. Mennucci, 
 G. A. Petersson, H. Nakatsuji, M. Caricato, X. Li, H. P. Hratchian, 
 A. F. Izmaylov, J. Bloino, G. Zheng, J. L. Sonnenberg, M. Hada, 
 M. Ehara, K. Toyota, R. Fukuda, J. Hasegawa, M. Ishida, T. Nakajima, 
 Y. Honda, O. Kitao, H. Nakai, T. Vreven, J. A. Montgomery, Jr., 
 J. E. Peralta, F. Ogliaro, M. Bearpark, J. J. Heyd, E. Brothers, 
 K. N. Kudin, V. N. Staroverov, R. Kobayashi, J. Normand, 
 K. Raghavachari, A. Rendell, J. C. Burant, S. S. Iyengar, J. Tomasi, 
 M. Cossi, N. Rega, J. M. Millam, M. Klene, J. E. Knox, J. B. Cross, 
 V. Bakken, C. Adamo, J. Jaramillo, R. Gomperts, R. E. Stratmann, 
 O. Yazyev, A. J. Austin, R. Cammi, C. Pomelli, J. W. Ochterski, 
 R. L. Martin, K. Morokuma, V. G. Zakrzewski, G. A. Voth, 
 P. Salvador, J. J. Dannenberg, S. Dapprich, A. D. Daniels, 
 O. Farkas, J. B. Foresman, J. V. Ortiz, J. Cioslowski, 
 and D. J. Fox, Gaussian, Inc., Wallingford CT, 2009.
 
 ******************************************
 Gaussian 09:  EM64L-G09RevA.02 11-Jun-2009
                 9-Feb-2017 
 ******************************************
 %chk=structure_225.chk
 %NProcShared=8
 Will use up to    8 processors via shared memory.
 -------------------------------------------
 # HF/6-31G* Opt=(ModRedundant) geom=nocrowd
 -------------------------------------------
 1/18=120,19=15,38=1/1,3;
 2/9=110,12=1,17=6,18=5,40=1/2;
 3/5=1,6=6,7=1,11=9,16=1,25=1,30=1,71=1/1,2,3;
 4//1;
 5/5=2,38=5/2;
 6/7=2,8=2,9=2,10=2,28=1/1;
 7//1,2,3,16;
 1/18=20,19=15/3(2);
 2/9=110,12=1/2;
 99//99;
 2/9=110,12=1/2;
 3/5=1,6=6,7=1,11=9,16=1,25=1,30=1,71=1/1,2,3;
 4/5=5,16=3/1;
 5/5=2,38=5/2;
 7//1,2,3,16;
 1/18=20,19=15/3(-5);
 2/9=110,12=1/2;
 6/7=2,8=2,9=2,10=2,19=2,28=1/1;
 99/9=1/99;
 ------------------
 Phi Psi fixed scan
 ------------------
 Symbolic Z-matrix:
 Charge =  0 Multiplicity = 1
 H                     0.2496    4.5262    0. 
 C                     1.1178    3.8672    0. 
 H                     1.097     3.238    -0.8898 
 H                     1.097     3.238     0.8898 
 C                     2.4195    4.6711    0. 
 O                     2.3938    5.8999    0. 
 N                     3.5554    3.9697    0. 
 H                     3.5254    2.9601    0. 
 C                     4.8533    4.6139    0. 
 H                     5.4076    4.3155    0.8898 
 C                     5.6613    4.2208   -1.2322 
 H                     5.1233    4.5214   -2.1312 
 H                     6.6305    4.7189   -1.2058 
 H                     5.8085    3.1409   -1.2414 
 C                     4.7127    6.1294    0. 
 O                     3.9095    6.6814    0.7488 
 N                     5.4979    6.8026   -0.8441 
 H                     6.143     6.3041   -1.4403 
 C                     5.4589    8.248    -0.9387 
 H                     4.72      8.6386   -0.239 
 H                     6.4402    8.6552   -0.695 
 H                     5.1871    8.539    -1.9534 
 
 The following ModRedundant input section has been read:
 D    5    7    9   15 F                                                       
 D    7    9   15   17 F                                                       

 GradGradGradGradGradGradGradGradGradGradGradGradGradGradGradGradGradGrad
 Berny optimization.
 Initialization pass.
                           ----------------------------
                           !    Initial Parameters    !
                           ! (Angstroms and Degrees)  !
 --------------------------                            --------------------------
 ! Name  Definition              Value          Derivative Info.                !
 --------------------------------------------------------------------------------
 ! R1    R(1,2)                  1.09           estimate D2E/DX2                !
 ! R2    R(2,3)                  1.09           estimate D2E/DX2                !
 ! R3    R(2,4)                  1.09           estimate D2E/DX2                !
 ! R4    R(2,5)                  1.5299         estimate D2E/DX2                !
 ! R5    R(5,6)                  1.2291         estimate D2E/DX2                !
 ! R6    R(5,7)                  1.335          estimate D2E/DX2                !
 ! R7    R(7,8)                  1.01           estimate D2E/DX2                !
 ! R8    R(7,9)                  1.449          estimate D2E/DX2                !
 ! R9    R(9,10)                 1.09           estimate D2E/DX2                !
 ! R10   R(9,11)                 1.525          estimate D2E/DX2                !
 ! R11   R(9,15)                 1.522          estimate D2E/DX2                !
 ! R12   R(11,12)                1.09           estimate D2E/DX2                !
 ! R13   R(11,13)                1.09           estimate D2E/DX2                !
 ! R14   R(11,14)                1.0899         estimate D2E/DX2                !
 ! R15   R(15,16)                1.229          estimate D2E/DX2                !
 ! R16   R(15,17)                1.335          estimate D2E/DX2                !
 ! R17   R(17,18)                1.01           estimate D2E/DX2                !
 ! R18   R(17,19)                1.449          estimate D2E/DX2                !
 ! R19   R(19,20)                1.09           estimate D2E/DX2                !
 ! R20   R(19,21)                1.09           estimate D2E/DX2                !
 ! R21   R(19,22)                1.09           estimate D2E/DX2                !
 ! A1    A(1,2,3)              109.5001         estimate D2E/DX2                !
 ! A2    A(1,2,4)              109.5001         estimate D2E/DX2                !
 ! A3    A(1,2,5)              111.1015         estimate D2E/DX2                !
 ! A4    A(3,2,4)              109.4403         estimate D2E/DX2                !
 ! A5    A(3,2,5)              108.636          estimate D2E/DX2                !
 ! A6    A(4,2,5)              108.636          estimate D2E/DX2                !
 ! A7    A(2,5,6)              120.5004         estimate D2E/DX2                !
 ! A8    A(2,5,7)              116.6068         estimate D2E/DX2                !
 ! A9    A(6,5,7)              122.8928         estimate D2E/DX2                !
 ! A10   A(5,7,8)              119.9926         estimate D2E/DX2                !
 ! A11   A(5,7,9)              121.9083         estimate D2E/DX2                !
 ! A12   A(8,7,9)              118.0991         estimate D2E/DX2                !
 ! A13   A(7,9,10)             109.5            estimate D2E/DX2                !
 ! A14   A(7,9,11)             111.0992         estimate D2E/DX2                !
 ! A15   A(7,9,15)             111.0966         estimate D2E/DX2                !
 ! A16   A(10,9,11)            108.6382         estimate D2E/DX2                !
 ! A17   A(10,9,15)            108.6373         estimate D2E/DX2                !
 ! A18   A(11,9,15)            107.7947         estimate D2E/DX2                !
 ! A19   A(9,11,12)            109.5007         estimate D2E/DX2                !
 ! A20   A(9,11,13)            109.4959         estimate D2E/DX2                !
 ! A21   A(9,11,14)            109.4978         estimate D2E/DX2                !
 ! A22   A(12,11,13)           109.441          estimate D2E/DX2                !
 ! A23   A(12,11,14)           109.4482         estimate D2E/DX2                !
 ! A24   A(13,11,14)           109.4436         estimate D2E/DX2                !
 ! A25   A(9,15,16)            120.5029         estimate D2E/DX2                !
 ! A26   A(9,15,17)            116.6012         estimate D2E/DX2                !
 ! A27   A(16,15,17)           122.8959         estimate D2E/DX2                !
 ! A28   A(15,17,18)           120.0006         estimate D2E/DX2                !
 ! A29   A(15,17,19)           121.9013         estimate D2E/DX2                !
 ! A30   A(18,17,19)           118.0981         estimate D2E/DX2                !
 ! A31   A(17,19,20)           109.4988         estimate D2E/DX2                !
 ! A32   A(17,19,21)           109.5003         estimate D2E/DX2                !
 ! A33   A(17,19,22)           109.4985         estimate D2E/DX2                !
 ! A34   A(20,19,21)           109.444          estimate D2E/DX2                !
 ! A35   A(20,19,22)           109.4425         estimate D2E/DX2                !
 ! A36   A(21,19,22)           109.4431         estimate D2E/DX2                !
 ! D1    D(1,2,5,6)              0.0            estimate D2E/DX2                !
 ! D2    D(1,2,5,7)            180.0            estimate D2E/DX2                !
 ! D3    D(3,2,5,6)            120.5133         estimate D2E/DX2                !
 ! D4    D(3,2,5,7)            -59.4867         estimate D2E/DX2                !
 ! D5    D(4,2,5,6)           -120.5133         estimate D2E/DX2                !
 ! D6    D(4,2,5,7)             59.4867         estimate D2E/DX2                !
 ! D7    D(2,5,7,8)              0.0            estimate D2E/DX2                !
 ! D8    D(2,5,7,9)            180.0            estimate D2E/DX2                !
 ! D9    D(6,5,7,8)            180.0            estimate D2E/DX2                !
 ! D10   D(6,5,7,9)              0.0            estimate D2E/DX2                !
 ! D11   D(5,7,9,10)           119.9998         estimate D2E/DX2                !
 ! D12   D(5,7,9,11)          -119.9976         estimate D2E/DX2                !
 ! D13   D(5,7,9,15)             0.0            Frozen                          !
 ! D14   D(8,7,9,10)           -60.0002         estimate D2E/DX2                !
 ! D15   D(8,7,9,11)            60.0024         estimate D2E/DX2                !
 ! D16   D(8,7,9,15)           180.0            estimate D2E/DX2                !
 ! D17   D(7,9,11,12)           60.0024         estimate D2E/DX2                !
 ! D18   D(7,9,11,13)          179.9986         estimate D2E/DX2                !
 ! D19   D(7,9,11,14)          -60.0038         estimate D2E/DX2                !
 ! D20   D(10,9,11,12)        -179.4843         estimate D2E/DX2                !
 ! D21   D(10,9,11,13)         -59.4881         estimate D2E/DX2                !
 ! D22   D(10,9,11,14)          60.5095         estimate D2E/DX2                !
 ! D23   D(15,9,11,12)         -61.938          estimate D2E/DX2                !
 ! D24   D(15,9,11,13)          58.0582         estimate D2E/DX2                !
 ! D25   D(15,9,11,14)         178.0558         estimate D2E/DX2                !
 ! D26   D(7,9,15,16)           45.001          estimate D2E/DX2                !
 ! D27   D(7,9,15,17)         -134.9977         Frozen                          !
 ! D28   D(10,9,15,16)         -75.5101         estimate D2E/DX2                !
 ! D29   D(10,9,15,17)         104.4912         estimate D2E/DX2                !
 ! D30   D(11,9,15,16)         166.9431         estimate D2E/DX2                !
 ! D31   D(11,9,15,17)         -13.0557         estimate D2E/DX2                !
 ! D32   D(9,15,17,18)          -0.0065         estimate D2E/DX2                !
 ! D33   D(9,15,17,19)        -179.9968         estimate D2E/DX2                !
 ! D34   D(16,15,17,18)        179.9949         estimate D2E/DX2                !
 ! D35   D(16,15,17,19)          0.0045         estimate D2E/DX2                !
 ! D36   D(15,17,19,20)         -0.0032         estimate D2E/DX2                !
 ! D37   D(15,17,19,21)        119.9981         estimate D2E/DX2                !
 ! D38   D(15,17,19,22)       -120.0017         estimate D2E/DX2                !
 ! D39   D(18,17,19,20)       -179.9937         estimate D2E/DX2                !
 ! D40   D(18,17,19,21)        -59.9924         estimate D2E/DX2                !
 ! D41   D(18,17,19,22)         60.0078         estimate D2E/DX2                !
 --------------------------------------------------------------------------------
 Trust Radius=3.00D-01 FncErr=1.00D-07 GrdErr=1.00D-07
 Number of steps in this run= 108 maximum allowed number of steps= 132.
 GradGradGradGradGradGradGradGradGradGradGradGradGradGradGradGradGradGrad

                          Input orientation:                          
 ---------------------------------------------------------------------
 Center     Atomic      Atomic             Coordinates (Angstroms)
 Number     Number       Type             X           Y           Z
 ---------------------------------------------------------------------
      1          1           0        0.249600    4.526200    0.000000
      2          6           0        1.117800    3.867200    0.000000
      3          1           0        1.097000    3.238000   -0.889800
      4          1           0        1.097000    3.238000    0.889800
      5          6           0        2.419500    4.671100    0.000000
      6          8           0        2.393800    5.899900    0.000000
      7          7           0        3.555400    3.969700    0.000000
      8          1           0        3.525400    2.960100    0.000000
      9          6           0        4.853300    4.613900    0.000000
     10          1           0        5.407600    4.315500    0.889800
     11          6           0        5.661300    4.220800   -1.232200
     12          1           0        5.123300    4.521400   -2.131200
     13          1           0        6.630500    4.718900   -1.205800
     14          1           0        5.808500    3.140900   -1.241400
     15          6           0        4.712700    6.129400    0.000000
     16          8           0        3.909500    6.681400    0.748800
     17          7           0        5.497900    6.802600   -0.844100
     18          1           0        6.143000    6.304100   -1.440300
     19          6           0        5.458900    8.248000   -0.938700
     20          1           0        4.720000    8.638600   -0.239000
     21          1           0        6.440200    8.655200   -0.695000
     22          1           0        5.187100    8.539000   -1.953400
 ---------------------------------------------------------------------
                    Distance matrix (angstroms):
                    1          2          3          4          5
     1  H    0.000000
     2  C    1.089978   0.000000
     3  H    1.780250   1.089986   0.000000
     4  H    1.780250   1.089986   1.779600   0.000000
     5  C    2.174733   1.529927   2.143485   2.143485   0.000000
     6  O    2.546497   2.400009   3.091787   3.091787   1.229069
     7  N    3.352314   2.439754   2.714933   2.714933   1.335002
     8  H    3.630914   2.572813   2.601173   2.601173   2.037286
     9  C    4.604535   3.809399   4.098126   4.098126   2.434472
    10  H    5.238426   4.403987   4.786361   4.443228   3.137983
    11  C    5.558604   4.720884   4.681449   5.128510   3.497192
    12  H    5.319303   4.584105   4.404462   5.194675   3.446006
    13  H    6.496689   5.706944   5.736945   6.099527   4.380498
    14  H    5.861868   4.906246   4.725599   5.172009   3.920192
    15  C    4.742311   4.247453   4.714364   4.714364   2.717610
    16  O    4.312825   4.034106   4.738372   4.448263   2.611916
    17  N    5.782660   5.339883   5.663602   5.922897   3.838274
    18  H    6.321990   5.767632   5.930104   6.347634   4.313422
    19  C    6.470685   6.238406   6.642941   6.889825   4.786786
    20  H    6.078933   5.983245   6.535759   6.600515   4.592437
    21  H    7.473633   7.192768   7.611425   7.772222   5.702816
    22  H    6.655617   6.496206   6.779437   7.274153   5.141598
                    6          7          8          9         10
     6  O    0.000000
     7  N    2.252773   0.000000
     8  H    3.150070   1.010046   0.000000
     9  C    2.775416   1.448978   2.120937   0.000000
    10  H    3.519241   2.083739   2.484256   1.089970   0.000000
    11  C    3.874823   2.452791   2.769431   1.525027   2.139209
    12  H    3.727257   2.702720   3.087548   2.150225   3.041326
    13  H    4.560520   3.386959   3.766826   2.150214   2.459625
    14  H    4.562163   2.702673   2.605054   2.150165   2.466256
    15  C    2.330229   2.450234   3.384397   1.522008   2.136554
    16  O    1.862469   2.835384   3.815273   2.392910   2.803867
    17  N    3.341079   3.537108   4.400917   2.432781   3.033188
    18  H    4.036625   3.770883   4.484265   2.567989   3.150351
    19  C    3.973609   4.775806   5.708018   3.801919   4.337119
    20  H    3.601223   4.817888   5.807715   4.033993   4.520639
    21  H    4.944498   5.546080   6.435313   4.396974   4.734010
    22  H    4.310817   5.230365   6.140126   4.396999   5.096112
                   11         12         13         14         15
    11  C    0.000000
    12  H    1.089957   0.000000
    13  H    1.090023   1.779613   0.000000
    14  H    1.089925   1.779613   1.779617   0.000000
    15  C    2.461892   2.701161   2.668599   3.416575   0.000000
    16  O    3.612162   3.799120   3.882745   4.483552   1.229039
    17  N    2.615915   2.645907   2.399045   3.696264   1.335006
    18  H    2.148367   2.166830   1.674964   3.187050   2.037337
    19  C    4.042950   3.927115   3.728074   5.127994   2.434428
    20  H    4.624873   4.549111   4.466404   5.693360   2.520567
    21  H    4.534222   4.570033   3.973863   5.577195   3.137985
    22  H    4.403617   4.022038   4.151563   5.480198   3.137993
                   16         17         18         19         20
    16  O    0.000000
    17  N    2.252784   0.000000
    18  H    3.150085   1.010005   0.000000
    19  C    2.775344   1.449017   2.120930   0.000000
    20  H    2.337368   2.083788   2.986292   1.090010   0.000000
    21  H    3.519217   2.083815   2.484245   1.090023   1.779691
    22  H    3.519208   2.083801   2.484310   1.090033   1.779683
                   21         22
    21  H    0.000000
    22  H    1.779700   0.000000
 Stoichiometry    C6H12N2O2
 Framework group  C1[X(C6H12N2O2)]
 Deg. of freedom    60
 Full point group                 C1      NOp   1
 Largest Abelian subgroup         C1      NOp   1
 Largest concise Abelian subgroup C1      NOp   1
                         Standard orientation:                         
 ---------------------------------------------------------------------
 Center     Atomic      Atomic             Coordinates (Angstroms)
 Number     Number       Type             X           Y           Z
 ---------------------------------------------------------------------
      1          1           0        3.460990   -1.573742   -0.708909
      2          6           0        3.237382   -0.547461   -0.417704
      3          1           0        3.509842    0.128346   -1.228333
      4          1           0        3.806583   -0.290495    0.475631
      5          6           0        1.747829   -0.372803   -0.115371
      6          8           0        0.975473   -1.323713   -0.214604
      7          7           0        1.351695    0.847520    0.253575
      8          1           0        2.024431    1.597913    0.320869
      9          6           0       -0.032149    1.141447    0.566817
     10          1           0       -0.105345    1.494128    1.595550
     11          6           0       -0.587564    2.218949   -0.358500
     12          1           0       -0.529487    1.876609   -1.391668
     13          1           0       -1.627521    2.419248   -0.100588
     14          1           0       -0.003357    3.132100   -0.245391
     15          6           0       -0.903412   -0.097135    0.414097
     16          8           0       -0.534541   -1.178922    0.865989
     17          7           0       -2.063958    0.063565   -0.225865
     18          1           0       -2.323824    0.973174   -0.579688
     19          6           0       -2.981683   -1.037996   -0.435612
     20          1           0       -2.565033   -1.946512   -0.000729
     21          1           0       -3.935885   -0.812334    0.040546
     22          1           0       -3.135433   -1.184938   -1.504697
 ---------------------------------------------------------------------
 Rotational constants (GHZ):      2.2705251      0.9954695      0.7672940
 Standard basis: 6-31G(d) (6D, 7F)
 There are   174 symmetry adapted basis functions of A   symmetry.
 Integral buffers will be    131072 words long.
 Raffenetti 1 integral format.
 Two-electron integral symmetry is turned on.
   174 basis functions,   328 primitive gaussians,   174 cartesian basis functions
    39 alpha electrons       39 beta electrons
       nuclear repulsion energy       583.0360154748 Hartrees.
 NAtoms=   22 NActive=   22 NUniq=   22 SFac= 7.50D-01 NAtFMM=   80 NAOKFM=F Big=F
 One-electron integrals computed using PRISM.
 NBasis=   174 RedAO= T  NBF=   174
 NBsUse=   174 1.00D-06 NBFU=   174
 Harris functional with IExCor=  205 diagonalized for initial guess.
 ExpMin= 1.61D-01 ExpMax= 5.48D+03 ExpMxC= 8.25D+02 IAcc=1 IRadAn=         1 AccDes= 0.00D+00
 HarFok:  IExCor=  205 AccDes= 0.00D+00 IRadAn=         1 IDoV= 1
 ScaDFX=  1.000000  1.000000  1.000000  1.000000
 FoFCou: FMM=F IPFlag=           0 FMFlag=      100000 FMFlg1=           0
         NFxFlg=           0 DoJE=T BraDBF=F KetDBF=T FulRan=T
         Omega=  0.000000  0.000000  1.000000  0.000000  0.000000 ICntrl=     500 IOpCl=  0
         NMat0=    1 NMatS0=    1 NMatT0=    0 NMatD0=    1 NMtDS0=    0 NMtDT0=    0
         I1Cent=           4 NGrid=           0.
 Petite list used in FoFCou.
 Initial guess orbital symmetries:
       Occupied  (A) (A) (A) (A) (A) (A) (A) (A) (A) (A) (A) (A)
                 (A) (A) (A) (A) (A) (A) (A) (A) (A) (A) (A) (A)
                 (A) (A) (A) (A) (A) (A) (A) (A) (A) (A) (A) (A)
                 (A) (A) (A)
       Virtual   (A) (A) (A) (A) (A) (A) (A) (A) (A) (A) (A) (A)
                 (A) (A) (A) (A) (A) (A) (A) (A) (A) (A) (A) (A)
                 (A) (A) (A) (A) (A) (A) (A) (A) (A) (A) (A) (A)
                 (A) (A) (A) (A) (A) (A) (A) (A) (A) (A) (A) (A)
                 (A) (A) (A) (A) (A) (A) (A) (A) (A) (A) (A) (A)
                 (A) (A) (A) (A) (A) (A) (A) (A) (A) (A) (A) (A)
                 (A) (A) (A) (A) (A) (A) (A) (A) (A) (A) (A) (A)
                 (A) (A) (A) (A) (A) (A) (A) (A) (A) (A) (A) (A)
                 (A) (A) (A) (A) (A) (A) (A) (A) (A) (A) (A) (A)
                 (A) (A) (A) (A) (A) (A) (A) (A) (A) (A) (A) (A)
                 (A) (A) (A) (A) (A) (A) (A) (A) (A) (A) (A) (A)
                 (A) (A) (A)
 The electronic state of the initial guess is 1-A.
 Requested convergence on RMS density matrix=1.00D-08 within 128 cycles.
 Requested convergence on MAX density matrix=1.00D-06.
 Requested convergence on             energy=1.00D-06.
 No special actions if energy rises.
 Integral accuracy reduced to 1.0D-05 until final iterations.
 Initial convergence to 1.0D-05 achieved.  Increase integral accuracy.
 SCF Done:  E(RHF) =  -492.728774763     A.U. after   17 cycles
             Convg  =    0.6366D-08             -V/T =  2.0008

 **********************************************************************

            Population analysis using the SCF density.

 **********************************************************************

 Orbital symmetries:
       Occupied  (A) (A) (A) (A) (A) (A) (A) (A) (A) (A) (A) (A)
                 (A) (A) (A) (A) (A) (A) (A) (A) (A) (A) (A) (A)
                 (A) (A) (A) (A) (A) (A) (A) (A) (A) (A) (A) (A)
                 (A) (A) (A)
       Virtual   (A) (A) (A) (A) (A) (A) (A) (A) (A) (A) (A) (A)
                 (A) (A) (A) (A) (A) (A) (A) (A) (A) (A) (A) (A)
                 (A) (A) (A) (A) (A) (A) (A) (A) (A) (A) (A) (A)
                 (A) (A) (A) (A) (A) (A) (A) (A) (A) (A) (A) (A)
                 (A) (A) (A) (A) (A) (A) (A) (A) (A) (A) (A) (A)
                 (A) (A) (A) (A) (A) (A) (A) (A) (A) (A) (A) (A)
                 (A) (A) (A) (A) (A) (A) (A) (A) (A) (A) (A) (A)
                 (A) (A) (A) (A) (A) (A) (A) (A) (A) (A) (A) (A)
                 (A) (A) (A) (A) (A) (A) (A) (A) (A) (A) (A) (A)
                 (A) (A) (A) (A) (A) (A) (A) (A) (A) (A) (A) (A)
                 (A) (A) (A) (A) (A) (A) (A) (A) (A) (A) (A) (A)
                 (A) (A) (A)
 The electronic state is 1-A.
 Alpha  occ. eigenvalues --  -20.48156 -20.48146 -15.58938 -15.57360 -11.32866
 Alpha  occ. eigenvalues --  -11.31991 -11.28445 -11.24607 -11.23910 -11.22394
 Alpha  occ. eigenvalues --   -1.38436  -1.32495  -1.24134  -1.21383  -1.06108
 Alpha  occ. eigenvalues --   -0.98267  -0.94214  -0.88678  -0.80830  -0.77335
 Alpha  occ. eigenvalues --   -0.70523  -0.69229  -0.65202  -0.62615  -0.61254
 Alpha  occ. eigenvalues --   -0.60613  -0.59230  -0.57336  -0.55765  -0.55276
 Alpha  occ. eigenvalues --   -0.54473  -0.52938  -0.52524  -0.51115  -0.47703
 Alpha  occ. eigenvalues --   -0.42091  -0.38755  -0.36951  -0.28986
 Alpha virt. eigenvalues --    0.18728   0.22022   0.22995   0.24250   0.26434
 Alpha virt. eigenvalues --    0.27927   0.28346   0.28813   0.30632   0.32153
 Alpha virt. eigenvalues --    0.33171   0.33859   0.33872   0.35277   0.37833
 Alpha virt. eigenvalues --    0.38930   0.39501   0.45838   0.46591   0.51450
 Alpha virt. eigenvalues --    0.57316   0.60194   0.62780   0.72433   0.73400
 Alpha virt. eigenvalues --    0.74805   0.75937   0.76397   0.78844   0.81125
 Alpha virt. eigenvalues --    0.81345   0.84118   0.85352   0.86944   0.92195
 Alpha virt. eigenvalues --    0.93722   0.96002   0.97612   0.98060   1.00244
 Alpha virt. eigenvalues --    1.01254   1.03827   1.04699   1.07413   1.09902
 Alpha virt. eigenvalues --    1.12048   1.12959   1.14933   1.15694   1.16101
 Alpha virt. eigenvalues --    1.17276   1.17864   1.18408   1.20917   1.21474
 Alpha virt. eigenvalues --    1.22031   1.23122   1.23363   1.25969   1.28933
 Alpha virt. eigenvalues --    1.31684   1.35860   1.43758   1.45533   1.50069
 Alpha virt. eigenvalues --    1.53089   1.56940   1.58503   1.64456   1.66063
 Alpha virt. eigenvalues --    1.68290   1.70279   1.73439   1.75746   1.78702
 Alpha virt. eigenvalues --    1.79872   1.83028   1.88808   1.92163   1.96265
 Alpha virt. eigenvalues --    2.03794   2.04508   2.07935   2.13079   2.14790
 Alpha virt. eigenvalues --    2.17945   2.21383   2.21773   2.25964   2.25996
 Alpha virt. eigenvalues --    2.27421   2.31008   2.31887   2.37779   2.38552
 Alpha virt. eigenvalues --    2.43095   2.45673   2.46892   2.50333   2.54747
 Alpha virt. eigenvalues --    2.56272   2.58457   2.61073   2.64694   2.65760
 Alpha virt. eigenvalues --    2.66487   2.70123   2.73300   2.76753   2.79028
 Alpha virt. eigenvalues --    2.83193   2.90757   2.92171   2.96339   2.99873
 Alpha virt. eigenvalues --    3.03650   3.07695   3.12167   3.18389   3.24967
 Alpha virt. eigenvalues --    3.33777   3.38881   3.46195   3.58604   3.62677
 Alpha virt. eigenvalues --    4.40678   4.44299   4.54756   4.62993   4.67223
 Alpha virt. eigenvalues --    4.69862   4.71166   4.83626   4.92997   5.18596
          Condensed to atoms (all electrons):
              1          2          3          4          5          6
     1  H    0.454273   0.385738  -0.019132  -0.017779  -0.029094   0.004059
     2  C    0.385738   5.256523   0.373129   0.369747   0.374097  -0.062159
     3  H   -0.019132   0.373129   0.532390  -0.026256  -0.036434   0.000981
     4  H   -0.017779   0.369747  -0.026256   0.533981  -0.040297   0.000984
     5  C   -0.029094   0.374097  -0.036434  -0.040297   4.241959   0.572864
     6  O    0.004059  -0.062159   0.000981   0.000984   0.572864   8.430002
     7  N    0.003787  -0.128077   0.004307   0.006441   0.219223  -0.108398
     8  H   -0.000044  -0.000610   0.000717   0.000366  -0.017582   0.002599
     9  C   -0.000062   0.003276  -0.000120  -0.000095  -0.030222   0.004794
    10  H    0.000001  -0.000078  -0.000002   0.000016   0.001018   0.000150
    11  C    0.000002  -0.000162   0.000017   0.000004   0.001012  -0.000358
    12  H    0.000000  -0.000019   0.000000   0.000000   0.000687   0.000098
    13  H    0.000000   0.000002   0.000000   0.000000  -0.000047  -0.000006
    14  H    0.000000  -0.000002   0.000001  -0.000001  -0.000041   0.000000
    15  C   -0.000006  -0.000026  -0.000009   0.000016  -0.006816   0.002958
    16  O    0.000037  -0.001222   0.000000   0.000098   0.009483  -0.277083
    17  N    0.000000  -0.000003   0.000000   0.000000   0.001221  -0.001705
    18  H    0.000000   0.000000   0.000000   0.000000  -0.000075   0.000070
    19  C    0.000000   0.000000   0.000000   0.000000  -0.000001  -0.000020
    20  H    0.000000   0.000000   0.000000   0.000000  -0.000010   0.000192
    21  H    0.000000   0.000000   0.000000   0.000000   0.000000   0.000003
    22  H    0.000000   0.000000   0.000000   0.000000  -0.000001   0.000013
              7          8          9         10         11         12
     1  H    0.003787  -0.000044  -0.000062   0.000001   0.000002   0.000000
     2  C   -0.128077  -0.000610   0.003276  -0.000078  -0.000162  -0.000019
     3  H    0.004307   0.000717  -0.000120  -0.000002   0.000017   0.000000
     4  H    0.006441   0.000366  -0.000095   0.000016   0.000004   0.000000
     5  C    0.219223  -0.017582  -0.030222   0.001018   0.001012   0.000687
     6  O   -0.108398   0.002599   0.004794   0.000150  -0.000358   0.000098
     7  N    7.433326   0.325879   0.190722  -0.042223  -0.074567   0.000404
     8  H    0.325879   0.326508  -0.024169  -0.000872  -0.002010   0.000057
     9  C    0.190722  -0.024169   5.009371   0.410085   0.320746  -0.038440
    10  H   -0.042223  -0.000872   0.410085   0.497237  -0.050568   0.004170
    11  C   -0.074567  -0.002010   0.320746  -0.050568   5.254879   0.387455
    12  H    0.000404   0.000057  -0.038440   0.004170   0.387455   0.505907
    13  H    0.005537  -0.000051  -0.039345  -0.000509   0.383781  -0.028609
    14  H   -0.002248   0.001944  -0.030997  -0.002376   0.386374  -0.020799
    15  C   -0.024882   0.002538   0.391161  -0.025063  -0.064690  -0.001976
    16  O    0.008338  -0.000207  -0.080212  -0.000146   0.003087  -0.000074
    17  N    0.000863  -0.000110  -0.104137   0.000155  -0.013928  -0.000678
    18  H    0.000265   0.000004  -0.001370   0.000132  -0.004489  -0.000731
    19  C   -0.000066   0.000002   0.004434  -0.000151   0.000211  -0.000211
    20  H   -0.000007   0.000000   0.000577  -0.000011  -0.000064  -0.000009
    21  H   -0.000001   0.000000  -0.000139   0.000019   0.000041   0.000011
    22  H    0.000006   0.000000  -0.000030  -0.000002  -0.000064  -0.000001
             13         14         15         16         17         18
     1  H    0.000000   0.000000  -0.000006   0.000037   0.000000   0.000000
     2  C    0.000002  -0.000002  -0.000026  -0.001222  -0.000003   0.000000
     3  H    0.000000   0.000001  -0.000009   0.000000   0.000000   0.000000
     4  H    0.000000  -0.000001   0.000016   0.000098   0.000000   0.000000
     5  C   -0.000047  -0.000041  -0.006816   0.009483   0.001221  -0.000075
     6  O   -0.000006   0.000000   0.002958  -0.277083  -0.001705   0.000070
     7  N    0.005537  -0.002248  -0.024882   0.008338   0.000863   0.000265
     8  H   -0.000051   0.001944   0.002538  -0.000207  -0.000110   0.000004
     9  C   -0.039345  -0.030997   0.391161  -0.080212  -0.104137  -0.001370
    10  H   -0.000509  -0.002376  -0.025063  -0.000146   0.000155   0.000132
    11  C    0.383781   0.386374  -0.064690   0.003087  -0.013928  -0.004489
    12  H   -0.028609  -0.020799  -0.001976  -0.000074  -0.000678  -0.000731
    13  H    0.549875  -0.021793  -0.003741  -0.000058  -0.007483   0.001220
    14  H   -0.021793   0.512769   0.003476  -0.000063   0.000638   0.000525
    15  C   -0.003741   0.003476   4.192882   0.538661   0.270521  -0.016960
    16  O   -0.000058  -0.000063   0.538661   8.444595  -0.086846   0.002420
    17  N   -0.007483   0.000638   0.270521  -0.086846   7.383324   0.319885
    18  H    0.001220   0.000525  -0.016960   0.002420   0.319885   0.328330
    19  C    0.000275   0.000003  -0.025360  -0.004876   0.190864  -0.022457
    20  H   -0.000018   0.000001  -0.001467   0.011342  -0.031388   0.002390
    21  H   -0.000062   0.000000   0.001460   0.000331  -0.049842  -0.000911
    22  H    0.000046  -0.000001   0.000958   0.000462  -0.048334  -0.001074
             19         20         21         22
     1  H    0.000000   0.000000   0.000000   0.000000
     2  C    0.000000   0.000000   0.000000   0.000000
     3  H    0.000000   0.000000   0.000000   0.000000
     4  H    0.000000   0.000000   0.000000   0.000000
     5  C   -0.000001  -0.000010   0.000000  -0.000001
     6  O   -0.000020   0.000192   0.000003   0.000013
     7  N   -0.000066  -0.000007  -0.000001   0.000006
     8  H    0.000002   0.000000   0.000000   0.000000
     9  C    0.004434   0.000577  -0.000139  -0.000030
    10  H   -0.000151  -0.000011   0.000019  -0.000002
    11  C    0.000211  -0.000064   0.000041  -0.000064
    12  H   -0.000211  -0.000009   0.000011  -0.000001
    13  H    0.000275  -0.000018  -0.000062   0.000046
    14  H    0.000003   0.000001   0.000000  -0.000001
    15  C   -0.025360  -0.001467   0.001460   0.000958
    16  O   -0.004876   0.011342   0.000331   0.000462
    17  N    0.190864  -0.031388  -0.049842  -0.048334
    18  H   -0.022457   0.002390  -0.000911  -0.001074
    19  C    4.937607   0.396000   0.401892   0.403406
    20  H    0.396000   0.426468  -0.022510  -0.022164
    21  H    0.401892  -0.022510   0.549303  -0.038498
    22  H    0.403406  -0.022164  -0.038498   0.540902
 Mulliken atomic charges:
              1
     1  H    0.218220
     2  C   -0.570156
     3  H    0.170410
     4  H    0.172776
     5  C    0.739060
     6  O   -0.570040
     7  N   -0.818627
     8  H    0.385040
     9  C    0.014173
    10  H    0.209017
    11  C   -0.526710
    12  H    0.192759
    13  H    0.160985
    14  H    0.172587
    15  C    0.766364
    16  O   -0.568070
    17  N   -0.823017
    18  H    0.392826
    19  C   -0.281553
    20  H    0.240678
    21  H    0.158902
    22  H    0.164376
 Sum of Mulliken atomic charges =   0.00000
 Mulliken charges with hydrogens summed into heavy atoms:
              1
     2  C   -0.008750
     5  C    0.739060
     6  O   -0.570040
     7  N   -0.433587
     9  C    0.223190
    11  C   -0.000379
    15  C    0.766364
    16  O   -0.568070
    17  N   -0.430190
    19  C    0.282403
 Sum of Mulliken charges with hydrogens summed into heavy atoms =   0.00000
 Electronic spatial extent (au):  <R**2>=           1590.6426
 Charge=              0.0000 electrons
 Dipole moment (field-independent basis, Debye):
    X=              0.0304    Y=              5.7979    Z=             -1.1569  Tot=              5.9122
 Quadrupole moment (field-independent basis, Debye-Ang):
   XX=            -47.3789   YY=            -61.6055   ZZ=            -61.7345
   XY=              2.1924   XZ=              2.4933   YZ=              2.6611
 Traceless Quadrupole moment (field-independent basis, Debye-Ang):
   XX=              9.5274   YY=             -4.6992   ZZ=             -4.8282
   XY=              2.1924   XZ=              2.4933   YZ=              2.6611
 Octapole moment (field-independent basis, Debye-Ang**2):
  XXX=              1.5100  YYY=              5.8607  ZZZ=              0.0526  XYY=             -0.6570
  XXY=              0.0278  XXZ=             -4.2362  XZZ=              0.8147  YZZ=              1.7817
  YYZ=              0.5334  XYZ=              0.0270
 Hexadecapole moment (field-independent basis, Debye-Ang**3):
 XXXX=          -1285.6539 YYYY=           -563.2726 ZZZZ=           -156.1817 XXXY=              4.9385
 XXXZ=             10.7543 YYYX=             18.9479 YYYZ=              6.8987 ZZZX=              2.6114
 ZZZY=              3.1866 XXYY=           -293.7471 XXZZ=           -251.7638 YYZZ=           -123.6969
 XXYZ=              2.1151 YYXZ=              5.0451 ZZXY=             -1.3733
 N-N= 5.830360154748D+02 E-N=-2.322622940842D+03  KE= 4.923187807431D+02
 Calling FoFJK, ICntrl=      2127 FMM=F ISym2X=0 I1Cent= 0 IOpClX= 0 NMat=1 NMatS=1 NMatT=0.
 ***** Axes restored to original set *****
 -------------------------------------------------------------------
 Center     Atomic                   Forces (Hartrees/Bohr)
 Number     Number              X              Y              Z
 -------------------------------------------------------------------
      1        1           0.009878028   -0.001757143    0.000010489
      2        6           0.010318185   -0.003389406    0.005169354
      3        1          -0.002568828   -0.000938087    0.003810459
      4        1          -0.004080928   -0.002201416   -0.003965180
      5        6          -0.053102487    0.074191123   -0.000381193
      6        8          -0.119736659   -0.120471701   -0.066532928
      7        7           0.021226694   -0.016081018   -0.000993243
      8        1           0.000679313    0.015654622    0.001180161
      9        6           0.011004614   -0.000946346   -0.013276141
     10        1          -0.003029297    0.004756367   -0.000590541
     11        6          -0.000619328   -0.018373197   -0.000275781
     12        1           0.004156584   -0.004483336    0.002156434
     13        1          -0.001078839   -0.015354351   -0.001295431
     14        1           0.002767733    0.003687528   -0.004201755
     15        6          -0.043638285    0.040245379    0.076557977
     16        8           0.161020614    0.019243150    0.016862636
     17        7           0.019099720    0.007291184   -0.022520726
     18        1          -0.016423223    0.020026713    0.010844009
     19        6           0.000422448    0.001194376    0.000814766
     20        1           0.006364789   -0.005564522   -0.006072573
     21        1          -0.003973639    0.001565002   -0.001681725
     22        1           0.001312791    0.001705078    0.004380933
 -------------------------------------------------------------------
 Cartesian Forces:  Max     0.161020614 RMS     0.035180772

 GradGradGradGradGradGradGradGradGradGradGradGradGradGradGradGradGradGrad
 Berny optimization.
 Internal  Forces:  Max     0.424079636 RMS     0.077678044
 Search for a local minimum.
 Step number   1 out of a maximum of  108
 All quantities printed in internal units (Hartrees-Bohrs-Radians)
 Mixed Optimization -- RFO/linear search
 Second derivative matrix not updated -- first step.
     Eigenvalues ---    0.00370   0.00435   0.00999   0.01043   0.01270
     Eigenvalues ---    0.01422   0.01660   0.02552   0.02552   0.03503
     Eigenvalues ---    0.05232   0.05841   0.05844   0.05844   0.07165
     Eigenvalues ---    0.07464   0.07685   0.07686   0.15421   0.16000
     Eigenvalues ---    0.16000   0.16000   0.16000   0.16000   0.16000
     Eigenvalues ---    0.16000   0.16000   0.16000   0.16000   0.16000
     Eigenvalues ---    0.16180   0.22000   0.22000   0.25000   0.25000
     Eigenvalues ---    0.25000   0.25000   0.29430   0.29887   0.30174
     Eigenvalues ---    0.34809   0.34810   0.34810   0.34811   0.34814
     Eigenvalues ---    0.34814   0.34815   0.34816   0.34818   0.34821
     Eigenvalues ---    0.38374   0.38379   0.45965   0.45972   0.58339
     Eigenvalues ---    0.58340   0.91475   0.914881000.000001000.00000
     Eigenvalues --- 1000.000001000.000001000.000001000.000001000.00000
     Eigenvalues --- 1000.000001000.000001000.000001000.000001000.00000
     Eigenvalues --- 1000.000001000.000001000.000001000.000001000.00000
     Eigenvalues --- 1000.000001000.000001000.000001000.000001000.00000
     Eigenvalues --- 1000.000001000.000001000.000001000.000001000.00000
     Eigenvalues --- 1000.000001000.000001000.000001000.000001000.00000
     Eigenvalues --- 1000.000001000.000001000.000001000.000001000.00000
     Eigenvalues --- 1000.000001000.000001000.00000
 RFO step:  Lambda=-6.51886386D-01 EMin= 3.70064225D-03
 Linear search not attempted -- first point.
 Maximum step size (   0.300) exceeded in Quadratic search.
    -- Step size scaled by   0.343
 Iteration  1 RMS(Cart)=  0.22989803 RMS(Int)=  0.01031972
 Iteration  2 RMS(Cart)=  0.03347886 RMS(Int)=  0.00034958
 Iteration  3 RMS(Cart)=  0.00059085 RMS(Int)=  0.00026480
 Iteration  4 RMS(Cart)=  0.00000017 RMS(Int)=  0.00026480
 Iteration  1 RMS(Cart)=  0.00015825 RMS(Int)=  0.00007529
 Iteration  2 RMS(Cart)=  0.00010818 RMS(Int)=  0.00008304
 Iteration  3 RMS(Cart)=  0.00007418 RMS(Int)=  0.00009555
 Iteration  4 RMS(Cart)=  0.00005093 RMS(Int)=  0.00010632
 Iteration  5 RMS(Cart)=  0.00003498 RMS(Int)=  0.00011443
 Iteration  6 RMS(Cart)=  0.00002403 RMS(Int)=  0.00012025
 Iteration  7 RMS(Cart)=  0.00001650 RMS(Int)=  0.00012435
 Iteration  8 RMS(Cart)=  0.00001133 RMS(Int)=  0.00012721
 Iteration  9 RMS(Cart)=  0.00000778 RMS(Int)=  0.00012918
 Iteration 10 RMS(Cart)=  0.00000534 RMS(Int)=  0.00013055
 Iteration 11 RMS(Cart)=  0.00000366 RMS(Int)=  0.00013149
 Iteration 12 RMS(Cart)=  0.00000251 RMS(Int)=  0.00013213
 Iteration 13 RMS(Cart)=  0.00000172 RMS(Int)=  0.00013258
 Iteration 14 RMS(Cart)=  0.00000118 RMS(Int)=  0.00013288
 Iteration 15 RMS(Cart)=  0.00000081 RMS(Int)=  0.00013309
 Variable       Old X    -DE/DX   Delta X   Delta X   Delta X     New X
                                 (Linear)    (Quad)   (Total)
    R1        2.05976  -0.00893   0.00000  -0.00307  -0.00307   2.05669
    R2        2.05977  -0.00252   0.00000  -0.00087  -0.00086   2.05891
    R3        2.05977  -0.00189   0.00000  -0.00065  -0.00065   2.05913
    R4        2.89114  -0.00717   0.00000  -0.00260  -0.00260   2.88854
    R5        2.32260  -0.11794   0.00000  -0.02584  -0.02584   2.29676
    R6        2.52279   0.10687   0.00000   0.02970   0.02970   2.55248
    R7        1.90871  -0.01567   0.00000  -0.00484  -0.00484   1.90387
    R8        2.73817   0.14751   0.00000   0.04889   0.04889   2.78706
    R9        2.05975  -0.00332   0.00000  -0.00114  -0.00114   2.05860
   R10        2.88188   0.01459   0.00000   0.00527   0.00527   2.88715
   R11        2.87618   0.07387   0.00000   0.02659   0.02659   2.90277
   R12        2.05972  -0.00507   0.00000  -0.00174  -0.00174   2.05798
   R13        2.05984  -0.00801   0.00000  -0.00275  -0.00275   2.05710
   R14        2.05966  -0.00324   0.00000  -0.00111  -0.00111   2.05855
   R15        2.32255  -0.08631   0.00000  -0.01891  -0.01891   2.30364
   R16        2.52280   0.02622   0.00000   0.00729   0.00729   2.53008
   R17        1.90863  -0.02678   0.00000  -0.00827  -0.00827   1.90037
   R18        2.73825  -0.00104   0.00000  -0.00035  -0.00035   2.73790
   R19        2.05982  -0.01021   0.00000  -0.00350  -0.00350   2.05632
   R20        2.05985  -0.00337   0.00000  -0.00116  -0.00116   2.05869
   R21        2.05986  -0.00395   0.00000  -0.00136  -0.00136   2.05851
    A1        1.91114   0.00066   0.00000   0.00023   0.00023   1.91137
    A2        1.91114  -0.00012   0.00000  -0.00006  -0.00005   1.91108
    A3        1.93909  -0.00915   0.00000  -0.00389  -0.00389   1.93520
    A4        1.91009  -0.00541   0.00000  -0.00223  -0.00224   1.90786
    A5        1.89606   0.00534   0.00000   0.00226   0.00226   1.89831
    A6        1.89606   0.00873   0.00000   0.00372   0.00371   1.89977
    A7        2.10313  -0.08671   0.00000  -0.03300  -0.03302   2.07011
    A8        2.03517  -0.11047   0.00000  -0.04204  -0.04207   1.99310
    A9        2.14488   0.19718   0.00000   0.07505   0.07502   2.21990
   A10        2.09427  -0.21184   0.00000  -0.08339  -0.08340   2.01087
   A11        2.12770   0.42408   0.00000   0.16696   0.16695   2.29465
   A12        2.06122  -0.21224   0.00000  -0.08357  -0.08357   1.97764
   A13        1.91114  -0.00988   0.00000  -0.01410  -0.01420   1.89694
   A14        1.93905  -0.16363   0.00000  -0.05424  -0.05440   1.88464
   A15        1.93900   0.23587   0.00000   0.10189   0.10201   2.04101
   A16        1.89609   0.04703   0.00000   0.01577   0.01485   1.91094
   A17        1.89608  -0.09848   0.00000  -0.03164  -0.03217   1.86391
   A18        1.88137  -0.01350   0.00000  -0.01890  -0.01747   1.86390
   A19        1.91115   0.00371   0.00000   0.00165   0.00164   1.91279
   A20        1.91106   0.00955   0.00000   0.00407   0.00406   1.91513
   A21        1.91110   0.00356   0.00000   0.00140   0.00140   1.91249
   A22        1.91011  -0.00215   0.00000  -0.00069  -0.00070   1.90941
   A23        1.91023  -0.00488   0.00000  -0.00213  -0.00213   1.90811
   A24        1.91015  -0.00980   0.00000  -0.00430  -0.00430   1.90585
   A25        2.10317   0.06943   0.00000   0.02643   0.02612   2.12929
   A26        2.03507  -0.00921   0.00000  -0.00351  -0.00378   2.03129
   A27        2.14494  -0.06022   0.00000  -0.02292  -0.02317   2.12177
   A28        2.09441   0.00921   0.00000   0.00385   0.00385   2.09825
   A29        2.12758  -0.00305   0.00000  -0.00120  -0.00120   2.12638
   A30        2.06120  -0.00616   0.00000  -0.00265  -0.00265   2.05855
   A31        1.91112  -0.00465   0.00000  -0.00199  -0.00199   1.90912
   A32        1.91114   0.00459   0.00000   0.00196   0.00196   1.91310
   A33        1.91111   0.00408   0.00000   0.00173   0.00173   1.91284
   A34        1.91016  -0.00039   0.00000  -0.00018  -0.00018   1.90998
   A35        1.91013  -0.00053   0.00000  -0.00026  -0.00026   1.90988
   A36        1.91014  -0.00310   0.00000  -0.00126  -0.00126   1.90888
    D1        0.00000  -0.01170   0.00000  -0.00606  -0.00587  -0.00587
    D2        3.14159   0.01231   0.00000   0.00634   0.00615  -3.13545
    D3        2.10335  -0.01310   0.00000  -0.00672  -0.00653   2.09682
    D4       -1.03824   0.01091   0.00000   0.00568   0.00548  -1.03276
    D5       -2.10335  -0.01154   0.00000  -0.00598  -0.00579  -2.10914
    D6        1.03824   0.01247   0.00000   0.00641   0.00623   1.04447
    D7        0.00000   0.03546   0.00000   0.00754   0.00752   0.00752
    D8        3.14159   0.00963   0.00000   0.01506   0.01457  -3.12702
    D9        3.14159   0.06010   0.00000   0.02027   0.02076  -3.12083
   D10        0.00000   0.03426   0.00000   0.02778   0.02781   0.02781
   D11        2.09439   0.08225   0.00000   0.01583   0.01629   2.11068
   D12       -2.09435   0.03097   0.00000  -0.00797  -0.00664  -2.10100
   D13        0.00000   0.06220   0.00000   0.00000   0.00000   0.00000
   D14       -1.04720   0.05688   0.00000   0.02321   0.02323  -1.02397
   D15        1.04724   0.00560   0.00000  -0.00059   0.00030   1.04754
   D16        3.14159   0.03683   0.00000   0.00738   0.00694  -3.13465
   D17        1.04724   0.08775   0.00000   0.04013   0.04021   1.08746
   D18        3.14157   0.09325   0.00000   0.04279   0.04287  -3.09874
   D19       -1.04726   0.08928   0.00000   0.04087   0.04095  -1.00631
   D20       -3.13259   0.00467   0.00000  -0.00069  -0.00058  -3.13317
   D21       -1.03826   0.01016   0.00000   0.00197   0.00208  -1.03618
   D22        1.05609   0.00619   0.00000   0.00005   0.00016   1.05625
   D23       -1.08102  -0.09409   0.00000  -0.04004  -0.04024  -1.12126
   D24        1.01331  -0.08859   0.00000  -0.03738  -0.03758   0.97573
   D25        3.10766  -0.09256   0.00000  -0.03930  -0.03950   3.06816
   D26        0.78542   0.11364   0.00000   0.04299   0.04317   0.82859
   D27       -2.35615   0.06517   0.00000   0.00000   0.00000  -2.35616
   D28       -1.31790   0.04357   0.00000   0.01784   0.01851  -1.29939
   D29        1.82372  -0.00489   0.00000  -0.02515  -0.02466   1.79906
   D30        2.91371   0.04824   0.00000   0.02654   0.02682   2.94052
   D31       -0.22786  -0.00022   0.00000  -0.01646  -0.01635  -0.24422
   D32       -0.00011   0.02670   0.00000   0.02299   0.02242   0.02230
   D33       -3.14154   0.02618   0.00000   0.02272   0.02215  -3.11939
   D34        3.14150  -0.02303   0.00000  -0.02113  -0.02056   3.12095
   D35        0.00008  -0.02356   0.00000  -0.02140  -0.02082  -0.02074
   D36       -0.00006   0.00014   0.00000   0.00008   0.00008   0.00002
   D37        2.09436  -0.00037   0.00000  -0.00016  -0.00016   2.09420
   D38       -2.09443   0.00115   0.00000   0.00055   0.00055  -2.09387
   D39       -3.14148  -0.00037   0.00000  -0.00018  -0.00018   3.14152
   D40       -1.04706  -0.00089   0.00000  -0.00043  -0.00043  -1.04749
   D41        1.04733   0.00063   0.00000   0.00029   0.00029   1.04762
         Item               Value     Threshold  Converged?
 Maximum Force            0.424080     0.000450     NO 
 RMS     Force            0.076797     0.000300     NO 
 Maximum Displacement     0.988644     0.001800     NO 
 RMS     Displacement     0.256668     0.001200     NO 
 Predicted change in Energy=-2.148997D-01
 GradGradGradGradGradGradGradGradGradGradGradGradGradGradGradGradGradGrad

                          Input orientation:                          
 ---------------------------------------------------------------------
 Center     Atomic      Atomic             Coordinates (Angstroms)
 Number     Number       Type             X           Y           Z
 ---------------------------------------------------------------------
      1          1           0        0.096072    4.028718    0.010067
      2          6           0        1.078270    3.560089    0.023921
      3          1           0        1.186929    2.916819   -0.848700
      4          1           0        1.182806    2.961308    0.928275
      5          6           0        2.185108    4.614008   -0.001222
      6          8           0        1.870632    5.787428   -0.038287
      7          7           0        3.435706    4.103736    0.006618
      8          1           0        3.488704    3.097749    0.021072
      9          6           0        4.757565    4.757853    0.005575
     10          1           0        5.302913    4.444158    0.894906
     11          6           0        5.510090    4.298615   -1.242233
     12          1           0        4.970746    4.618785   -2.132514
     13          1           0        6.508804    4.731631   -1.249219
     14          1           0        5.590689    3.212266   -1.240743
     15          6           0        4.774016    6.293796   -0.006384
     16          8           0        4.079862    6.953140    0.748239
     17          7           0        5.631016    6.873031   -0.856437
     18          1           0        6.206819    6.308830   -1.457619
     19          6           0        5.763376    8.313066   -0.945334
     20          1           0        5.081249    8.782715   -0.239490
     21          1           0        6.786558    8.601617   -0.707312
     22          1           0        5.521371    8.640544   -1.955681
 ---------------------------------------------------------------------
                    Distance matrix (angstroms):
                    1          2          3          4          5
     1  H    0.000000
     2  C    1.088356   0.000000
     3  H    1.778699   1.089528   0.000000
     4  H    1.778613   1.089643   1.777537   0.000000
     5  C    2.169508   1.528551   2.143603   2.144759   0.000000
     6  O    2.498892   2.364899   3.060166   3.065012   1.215394
     7  N    3.340479   2.419371   2.682786   2.688894   1.350717
     8  H    3.518065   2.454376   2.467268   2.481693   1.999725
     9  C    4.718175   3.869391   4.107145   4.105831   2.576485
    10  H    5.297805   4.403158   4.723797   4.378955   3.248478
    11  C    5.563514   4.667933   4.555650   5.022438   3.563017
    12  H    5.357358   4.574103   4.343057   5.144332   3.507451
    13  H    6.572900   5.699482   5.637048   6.020114   4.501742
    14  H    5.694027   4.699179   4.431038   4.919050   3.885779
    15  C    5.197501   4.597022   4.998066   4.987570   3.086124
    16  O    4.996772   4.587700   5.216432   4.935592   3.102148
    17  N    6.283037   5.698957   5.949923   6.186546   4.208190
    18  H    6.685376   6.004378   6.088992   6.491464   4.600834
    19  C    7.168457   6.743921   7.076206   7.289263   5.232436
    20  H    6.893095   6.585518   7.067220   7.102838   5.081586
    21  H    8.135641   7.650899   7.980775   8.117282   6.129676
    22  H    7.386946   7.033562   7.264560   7.706755   5.582433
                    6          7          8          9         10
     6  O    0.000000
     7  N    2.299194   0.000000
     8  H    3.139435   1.007485   0.000000
     9  C    3.065343   1.474850   2.089543   0.000000
    10  H    3.802076   2.095568   2.422345   1.089366   0.000000
    11  C    4.112384   2.429131   2.669085   1.527815   2.152085
    12  H    3.919467   2.682818   3.024555   2.153186   3.050590
    13  H    4.908533   3.378655   3.661175   2.154537   2.476708
    14  H    4.681472   2.644727   2.454309   2.153194   2.482210
    15  C    2.947383   2.566634   3.444923   1.536078   2.124434
    16  O    2.618818   3.013975   3.967654   2.414563   2.795059
    17  N    3.998549   3.637753   4.428575   2.445396   3.012355
    18  H    4.592263   3.832166   4.459340   2.578140   3.135031
    19  C    4.728112   4.903338   5.771274   3.815157   4.308940
    20  H    4.395485   4.966007   5.909562   4.045286   4.489885
    21  H    5.703822   5.654099   6.457472   4.404491   4.696037
    22  H    5.014436   5.365002   6.225902   4.416471   5.077719
                   11         12         13         14         15
    11  C    0.000000
    12  H    1.089036   0.000000
    13  H    1.088568   1.777235   0.000000
    14  H    1.089336   1.777043   1.775239   0.000000
    15  C    2.459650   2.713815   2.644710   3.418542   0.000000
    16  O    3.613036   3.813348   3.850285   4.498087   1.219032
    17  N    2.605970   2.673192   2.347421   3.681103   1.338862
    18  H    2.138408   2.199912   1.619316   3.164705   2.039420
    19  C    4.033376   3.960476   3.670789   5.112264   2.436783
    20  H    4.614818   4.575375   4.412340   5.682599   2.518619
    21  H    4.520103   4.603403   3.917602   5.546147   3.141283
    22  H    4.400168   4.063127   4.093130   5.475595   3.140943
                   16         17         18         19         20
    16  O    0.000000
    17  N    2.233267   0.000000
    18  H    3.131276   1.005630   0.000000
    19  C    2.748055   1.448835   2.115665   0.000000
    20  H    2.307754   2.080807   2.978397   1.088156   0.000000
    21  H    3.487450   2.084592   2.481114   1.089412   1.777564
    22  H    3.498066   2.084337   2.480886   1.089316   1.777423
                   21         22
    21  H    0.000000
    22  H    1.777819   0.000000
 Stoichiometry    C6H12N2O2
 Framework group  C1[X(C6H12N2O2)]
 Deg. of freedom    60
 Full point group                 C1      NOp   1
 Largest Abelian subgroup         C1      NOp   1
 Largest concise Abelian subgroup C1      NOp   1
                         Standard orientation:                         
 ---------------------------------------------------------------------
 Center     Atomic      Atomic             Coordinates (Angstroms)
 Number     Number       Type             X           Y           Z
 ---------------------------------------------------------------------
      1          1           0        3.911553   -1.200655   -0.637594
      2          6           0        3.470977   -0.267688   -0.291208
      3          1           0        3.674001    0.521317   -1.014619
      4          1           0        3.905195    0.004604    0.670371
      5          6           0        1.957627   -0.407505   -0.127837
      6          8           0        1.439993   -1.475075   -0.391528
      7          7           0        1.340019    0.717390    0.293596
      8          1           0        1.944938    1.509274    0.441984
      9          6           0       -0.076808    1.001974    0.588202
     10          1           0       -0.159977    1.322259    1.626094
     11          6           0       -0.531991    2.133177   -0.332346
     12          1           0       -0.457634    1.811778   -1.370215
     13          1           0       -1.564245    2.396369   -0.108379
     14          1           0        0.101560    3.005950   -0.178941
     15          6           0       -1.072503   -0.152254    0.398770
     16          8           0       -0.860490   -1.267665    0.842557
     17          7           0       -2.212833    0.144008   -0.237178
     18          1           0       -2.374083    1.075672   -0.579659
     19          6           0       -3.245914   -0.848019   -0.455695
     20          1           0       -2.928803   -1.798980   -0.032378
     21          1           0       -4.168967   -0.526828    0.025582
     22          1           0       -3.418198   -0.966744   -1.524728
 ---------------------------------------------------------------------
 Rotational constants (GHZ):      2.3854695      0.8370472      0.6799615
 Standard basis: 6-31G(d) (6D, 7F)
 There are   174 symmetry adapted basis functions of A   symmetry.
 Integral buffers will be    131072 words long.
 Raffenetti 1 integral format.
 Two-electron integral symmetry is turned on.
   174 basis functions,   328 primitive gaussians,   174 cartesian basis functions
    39 alpha electrons       39 beta electrons
       nuclear repulsion energy       563.4451223041 Hartrees.
 NAtoms=   22 NActive=   22 NUniq=   22 SFac= 7.50D-01 NAtFMM=   80 NAOKFM=F Big=F
 One-electron integrals computed using PRISM.
 NBasis=   174 RedAO= T  NBF=   174
 NBsUse=   174 1.00D-06 NBFU=   174
 Initial guess read from the read-write file.
 B after Tr=     0.000000    0.000000    0.000000
         Rot=    1.000000    0.000000    0.000000    0.000000 Ang=   0.00 deg.
 Initial guess orbital symmetries:
       Occupied  (A) (A) (A) (A) (A) (A) (A) (A) (A) (A) (A) (A)
                 (A) (A) (A) (A) (A) (A) (A) (A) (A) (A) (A) (A)
                 (A) (A) (A) (A) (A) (A) (A) (A) (A) (A) (A) (A)
                 (A) (A) (A)
       Virtual   (A) (A) (A) (A) (A) (A) (A) (A) (A) (A) (A) (A)
                 (A) (A) (A) (A) (A) (A) (A) (A) (A) (A) (A) (A)
                 (A) (A) (A) (A) (A) (A) (A) (A) (A) (A) (A) (A)
                 (A) (A) (A) (A) (A) (A) (A) (A) (A) (A) (A) (A)
                 (A) (A) (A) (A) (A) (A) (A) (A) (A) (A) (A) (A)
                 (A) (A) (A) (A) (A) (A) (A) (A) (A) (A) (A) (A)
                 (A) (A) (A) (A) (A) (A) (A) (A) (A) (A) (A) (A)
                 (A) (A) (A) (A) (A) (A) (A) (A) (A) (A) (A) (A)
                 (A) (A) (A) (A) (A) (A) (A) (A) (A) (A) (A) (A)
                 (A) (A) (A) (A) (A) (A) (A) (A) (A) (A) (A) (A)
                 (A) (A) (A) (A) (A) (A) (A) (A) (A) (A) (A) (A)
                 (A) (A) (A)
 Harris functional with IExCor=  205 diagonalized for initial guess.
 ExpMin= 1.61D-01 ExpMax= 5.48D+03 ExpMxC= 8.25D+02 IAcc=1 IRadAn=         1 AccDes= 0.00D+00
 HarFok:  IExCor=  205 AccDes= 0.00D+00 IRadAn=         1 IDoV= 1
 ScaDFX=  1.000000  1.000000  1.000000  1.000000
 FoFCou: FMM=F IPFlag=           0 FMFlag=      100000 FMFlg1=           0
         NFxFlg=           0 DoJE=T BraDBF=F KetDBF=T FulRan=T
         Omega=  0.000000  0.000000  1.000000  0.000000  0.000000 ICntrl=     500 IOpCl=  0
         NMat0=    1 NMatS0=    1 NMatT0=    0 NMatD0=    1 NMtDS0=    0 NMtDT0=    0
         I1Cent=           4 NGrid=           0.
 Petite list used in FoFCou.
 Requested convergence on RMS density matrix=1.00D-08 within 128 cycles.
 Requested convergence on MAX density matrix=1.00D-06.
 Requested convergence on             energy=1.00D-06.
 No special actions if energy rises.
 Integral accuracy reduced to 1.0D-05 until final iterations.
 Initial convergence to 1.0D-05 achieved.  Increase integral accuracy.
 SCF Done:  E(RHF) =  -492.810073766     A.U. after   15 cycles
             Convg  =    0.6804D-08             -V/T =  2.0019
 Calling FoFJK, ICntrl=      2127 FMM=F ISym2X=0 I1Cent= 0 IOpClX= 0 NMat=1 NMatS=1 NMatT=0.
 ***** Axes restored to original set *****
 -------------------------------------------------------------------
 Center     Atomic                   Forces (Hartrees/Bohr)
 Number     Number              X              Y              Z
 -------------------------------------------------------------------
      1        1           0.008876734    0.000413476   -0.000039757
      2        6           0.009268307   -0.003463577    0.001125277
      3        1          -0.002956418   -0.001914409    0.003584421
      4        1          -0.002971030   -0.001971824   -0.003733990
      5        6          -0.040285110    0.043552551   -0.000219371
      6        8           0.013949920   -0.038322440   -0.005823568
      7        7           0.018579639   -0.003000466    0.004326148
      8        1           0.000991259    0.012293918    0.001203693
      9        6          -0.000451130    0.001602797   -0.018875040
     10        1          -0.003313702    0.002661314   -0.001320318
     11        6           0.001120194   -0.018320010    0.001888279
     12        1           0.003204040   -0.003916031    0.002361480
     13        1          -0.001425834   -0.017098924   -0.001161573
     14        1           0.002583710    0.003297368   -0.004054446
     15        6          -0.045157821    0.026237768    0.044146136
     16        8           0.031564732   -0.023243689   -0.015912977
     17        7           0.015402805    0.001087738   -0.014158616
     18        1          -0.012172514    0.020264405    0.009180309
     19        6           0.000304688    0.002499253    0.000628865
     20        1           0.005087675   -0.005176532   -0.005627480
     21        1          -0.003588483    0.001517181   -0.001418271
     22        1           0.001388340    0.001000135    0.003900799
 -------------------------------------------------------------------
 Cartesian Forces:  Max     0.045157821 RMS     0.014938458

 GradGradGradGradGradGradGradGradGradGradGradGradGradGradGradGradGradGrad
 Berny optimization.
 Using GEDIIS/GDIIS optimizer.
 Internal  Forces:  Max     0.053662891 RMS     0.012627644
 Search for a local minimum.
 Step number   2 out of a maximum of  108
 All quantities printed in internal units (Hartrees-Bohrs-Radians)
 Mixed Optimization -- RFO/linear search
 Update second derivatives using D2CorX and points    1    2
 DE= -8.13D-02 DEPred=-2.15D-01 R= 3.78D-01
 Trust test= 3.78D-01 RLast= 3.00D-01 DXMaxT set to 3.00D-01
 Use linear search instead of GDIIS.
     Eigenvalues ---    0.00370   0.00435   0.01017   0.01043   0.01352
     Eigenvalues ---    0.01426   0.01663   0.02551   0.02582   0.03193
     Eigenvalues ---    0.05568   0.05809   0.05828   0.06024   0.07179
     Eigenvalues ---    0.07438   0.07668   0.07690   0.15971   0.16000
     Eigenvalues ---    0.16000   0.16000   0.16000   0.16000   0.16000
     Eigenvalues ---    0.16000   0.16000   0.16000   0.16000   0.16574
     Eigenvalues ---    0.17131   0.21999   0.24374   0.24896   0.24981
     Eigenvalues ---    0.25000   0.29428   0.29866   0.30045   0.34785
     Eigenvalues ---    0.34809   0.34810   0.34811   0.34814   0.34814
     Eigenvalues ---    0.34814   0.34816   0.34817   0.34821   0.37296
     Eigenvalues ---    0.38374   0.45869   0.45966   0.57111   0.58310
     Eigenvalues ---    0.88009   0.91463   2.454041000.000001000.00000
     Eigenvalues --- 1000.000001000.000001000.000001000.000001000.00000
     Eigenvalues --- 1000.000001000.000001000.000001000.000001000.00000
     Eigenvalues --- 1000.000001000.000001000.000001000.000001000.00000
     Eigenvalues --- 1000.000001000.000001000.000001000.000001000.00000
     Eigenvalues --- 1000.000001000.000001000.000001000.000001000.00000
     Eigenvalues --- 1000.000001000.000001000.000001000.000001000.00000
     Eigenvalues --- 1000.000001000.000001000.000001000.000001000.00000
     Eigenvalues --- 1000.000001000.000001000.00000
 RFO step:  Lambda=-1.19795385D-01 EMin= 3.70064298D-03
 Quartic linear search produced a step of  0.79897.
 Maximum step size (   0.300) exceeded in Quadratic search.
    -- Step size scaled by   0.422
 Iteration  1 RMS(Cart)=  0.20081984 RMS(Int)=  0.00959943
 Iteration  2 RMS(Cart)=  0.01888556 RMS(Int)=  0.00110494
 Iteration  3 RMS(Cart)=  0.00013698 RMS(Int)=  0.00110333
 Iteration  4 RMS(Cart)=  0.00000029 RMS(Int)=  0.00110333
 Iteration  1 RMS(Cart)=  0.00063041 RMS(Int)=  0.00029992
 Iteration  2 RMS(Cart)=  0.00042062 RMS(Int)=  0.00033065
 Iteration  3 RMS(Cart)=  0.00028463 RMS(Int)=  0.00038019
 Iteration  4 RMS(Cart)=  0.00019427 RMS(Int)=  0.00042298
 Iteration  5 RMS(Cart)=  0.00013330 RMS(Int)=  0.00045538
 Iteration  6 RMS(Cart)=  0.00009176 RMS(Int)=  0.00047883
 Iteration  7 RMS(Cart)=  0.00006329 RMS(Int)=  0.00049547
 Iteration  8 RMS(Cart)=  0.00004370 RMS(Int)=  0.00050716
 Iteration  9 RMS(Cart)=  0.00003020 RMS(Int)=  0.00051533
 Iteration 10 RMS(Cart)=  0.00002089 RMS(Int)=  0.00052102
 Iteration 11 RMS(Cart)=  0.00001445 RMS(Int)=  0.00052498
 Iteration 12 RMS(Cart)=  0.00001000 RMS(Int)=  0.00052772
 Iteration 13 RMS(Cart)=  0.00000692 RMS(Int)=  0.00052963
 Iteration 14 RMS(Cart)=  0.00000479 RMS(Int)=  0.00053095
 Iteration 15 RMS(Cart)=  0.00000331 RMS(Int)=  0.00053186
 Iteration 16 RMS(Cart)=  0.00000229 RMS(Int)=  0.00053249
 Iteration 17 RMS(Cart)=  0.00000159 RMS(Int)=  0.00053293
 Iteration 18 RMS(Cart)=  0.00000110 RMS(Int)=  0.00053324
 Iteration 19 RMS(Cart)=  0.00000076 RMS(Int)=  0.00053345
 Variable       Old X    -DE/DX   Delta X   Delta X   Delta X     New X
                                 (Linear)    (Quad)   (Total)
    R1        2.05669  -0.00783  -0.00245  -0.01120  -0.01365   2.04305
    R2        2.05891  -0.00204  -0.00069  -0.00288  -0.00357   2.05534
    R3        2.05913  -0.00230  -0.00052  -0.00340  -0.00392   2.05521
    R4        2.88854  -0.00405  -0.00208  -0.00636  -0.00844   2.88011
    R5        2.29676  -0.04043  -0.02065  -0.01043  -0.03108   2.26569
    R6        2.55248   0.01246   0.02373  -0.00512   0.01860   2.57109
    R7        1.90387  -0.01221  -0.00387  -0.01317  -0.01704   1.88684
    R8        2.78706  -0.00825   0.03906  -0.03589   0.00317   2.79023
    R9        2.05860  -0.00350  -0.00091  -0.00511  -0.00602   2.05258
   R10        2.88715   0.01432   0.00421   0.02365   0.02786   2.91501
   R11        2.90277   0.02395   0.02124   0.03232   0.05357   2.95633
   R12        2.05798  -0.00467  -0.00139  -0.00671  -0.00810   2.04988
   R13        2.05710  -0.00810  -0.00220  -0.01177  -0.01397   2.04313
   R14        2.05855  -0.00310  -0.00089  -0.00448  -0.00537   2.05318
   R15        2.30364  -0.04040  -0.01511  -0.01547  -0.03058   2.27306
   R16        2.53008   0.01804   0.00582   0.01473   0.02056   2.55064
   R17        1.90037  -0.02383  -0.00661  -0.02635  -0.03295   1.86741
   R18        2.73790   0.00029  -0.00028   0.00059   0.00032   2.73822
   R19        2.05632  -0.00907  -0.00280  -0.01300  -0.01579   2.04052
   R20        2.05869  -0.00328  -0.00092  -0.00474  -0.00567   2.05302
   R21        2.05851  -0.00363  -0.00108  -0.00521  -0.00629   2.05221
    A1        1.91137   0.00007   0.00019  -0.00067  -0.00037   1.91100
    A2        1.91108   0.00011  -0.00004  -0.00035  -0.00027   1.91082
    A3        1.93520  -0.00854  -0.00311  -0.02330  -0.02629   1.90891
    A4        1.90786  -0.00504  -0.00179  -0.01174  -0.01379   1.89406
    A5        1.89831   0.00669   0.00180   0.01806   0.01978   1.91809
    A6        1.89977   0.00676   0.00297   0.01820   0.02110   1.92087
    A7        2.07011   0.01028  -0.02638   0.03092   0.00437   2.07447
    A8        1.99310  -0.01221  -0.03361  -0.01195  -0.04577   1.94734
    A9        2.21990   0.00191   0.05994  -0.01925   0.04045   2.26035
   A10        2.01087  -0.00956  -0.06663   0.00033  -0.06662   1.94425
   A11        2.29465   0.02232   0.13339   0.00772   0.14075   2.43541
   A12        1.97764  -0.01275  -0.06677  -0.00832  -0.07548   1.90217
   A13        1.89694   0.01008  -0.01135   0.00779  -0.00587   1.89107
   A14        1.88464  -0.02723  -0.04347  -0.04968  -0.09868   1.78596
   A15        2.04101  -0.01220   0.08150  -0.02212   0.06157   2.10258
   A16        1.91094  -0.00832   0.01186  -0.04526  -0.03543   1.87551
   A17        1.86391  -0.01559  -0.02571  -0.01291  -0.03791   1.82599
   A18        1.86390   0.05366  -0.01396   0.12041   0.10936   1.97326
   A19        1.91279   0.00222   0.00131   0.00823   0.00924   1.92203
   A20        1.91513   0.01149   0.00325   0.03157   0.03452   1.94965
   A21        1.91249   0.00274   0.00112   0.00368   0.00481   1.91731
   A22        1.90941  -0.00188  -0.00056   0.00205   0.00093   1.91034
   A23        1.90811  -0.00410  -0.00170  -0.01302  -0.01471   1.89340
   A24        1.90585  -0.01058  -0.00344  -0.03280  -0.03621   1.86964
   A25        2.12929  -0.01905   0.02087  -0.04827  -0.02902   2.10027
   A26        2.03129   0.03434  -0.00302   0.07013   0.06574   2.09703
   A27        2.12177  -0.01545  -0.01851  -0.02415  -0.04381   2.07796
   A28        2.09825   0.00927   0.00307   0.02374   0.02681   2.12507
   A29        2.12638  -0.00284  -0.00096  -0.00597  -0.00694   2.11944
   A30        2.05855  -0.00643  -0.00212  -0.01777  -0.01989   2.03866
   A31        1.90912  -0.00335  -0.00159  -0.00931  -0.01087   1.89825
   A32        1.91310   0.00370   0.00156   0.01011   0.01165   1.92474
   A33        1.91284   0.00307   0.00138   0.00823   0.00959   1.92243
   A34        1.90998  -0.00043  -0.00014  -0.00143  -0.00154   1.90844
   A35        1.90988  -0.00051  -0.00020  -0.00204  -0.00222   1.90766
   A36        1.90888  -0.00250  -0.00101  -0.00559  -0.00667   1.90220
    D1       -0.00587  -0.00110  -0.00469  -0.01152  -0.01582  -0.02169
    D2       -3.13545   0.00117   0.00491   0.01179   0.01631  -3.11914
    D3        2.09682  -0.00200  -0.00522  -0.01516  -0.02015   2.07667
    D4       -1.03276   0.00027   0.00438   0.00815   0.01198  -1.02077
    D5       -2.10914  -0.00028  -0.00463  -0.00833  -0.01241  -2.12155
    D6        1.04447   0.00199   0.00497   0.01498   0.01972   1.06419
    D7        0.00752   0.00336   0.00601  -0.00783  -0.00169   0.00583
    D8       -3.12702   0.00161   0.01164   0.04605   0.05653  -3.07049
    D9       -3.12083   0.00580   0.01659   0.01744   0.03519  -3.08564
   D10        0.02781   0.00405   0.02222   0.07132   0.09341   0.12122
   D11        2.11068   0.00513   0.01301  -0.02634  -0.01199   2.09869
   D12       -2.10100  -0.01453  -0.00531  -0.10397  -0.10550  -2.20650
   D13        0.00000   0.02625   0.00000   0.00000   0.00000   0.00000
   D14       -1.02397   0.00339   0.01856   0.02671   0.04533  -0.97864
   D15        1.04754  -0.01627   0.00024  -0.05092  -0.04818   0.99936
   D16       -3.13465   0.02452   0.00555   0.05304   0.05732  -3.07733
   D17        1.08746   0.00292   0.03213   0.02325   0.05284   1.14029
   D18       -3.09874   0.00911   0.03426   0.05046   0.08248  -3.01627
   D19       -1.00631   0.00490   0.03272   0.03191   0.06223  -0.94408
   D20       -3.13317  -0.00531  -0.00046  -0.02123  -0.02024   3.12977
   D21       -1.03618   0.00089   0.00166   0.00598   0.00939  -1.02679
   D22        1.05625  -0.00333   0.00013  -0.01258  -0.01085   1.04540
   D23       -1.12126   0.00088  -0.03215   0.00523  -0.02627  -1.14753
   D24        0.97573   0.00708  -0.03002   0.03244   0.00337   0.97910
   D25        3.06816   0.00286  -0.03156   0.01389  -0.01688   3.05129
   D26        0.82859   0.00542   0.03449   0.05978   0.09302   0.92161
   D27       -2.35616   0.00098   0.00000   0.00000   0.00000  -2.35616
   D28       -1.29939   0.01271   0.01479   0.07462   0.09044  -1.20894
   D29        1.79906   0.00827  -0.01970   0.01482  -0.00258   1.79648
   D30        2.94052   0.00355   0.02143   0.07388   0.09834   3.03887
   D31       -0.24422  -0.00090  -0.01307   0.01408   0.00532  -0.23889
   D32        0.02230   0.00387   0.01791   0.03919   0.05562   0.07793
   D33       -3.11939   0.00310   0.01770   0.03474   0.05089  -3.06850
   D34        3.12095  -0.00066  -0.01642  -0.02099  -0.03586   3.08508
   D35       -0.02074  -0.00143  -0.01664  -0.02544  -0.04060  -0.06135
   D36        0.00002   0.00020   0.00006   0.00145   0.00149   0.00152
   D37        2.09420  -0.00012  -0.00013   0.00017  -0.00003   2.09417
   D38       -2.09387   0.00099   0.00044   0.00463   0.00509  -2.08878
   D39        3.14152  -0.00056  -0.00015  -0.00290  -0.00302   3.13850
   D40       -1.04749  -0.00087  -0.00034  -0.00418  -0.00454  -1.05203
   D41        1.04762   0.00024   0.00023   0.00028   0.00058   1.04820
         Item               Value     Threshold  Converged?
 Maximum Force            0.041776     0.000450     NO 
 RMS     Force            0.011991     0.000300     NO 
 Maximum Displacement     0.624217     0.001800     NO 
 RMS     Displacement     0.207457     0.001200     NO 
 Predicted change in Energy=-3.849519D-02
 GradGradGradGradGradGradGradGradGradGradGradGradGradGradGradGradGradGrad

                          Input orientation:                          
 ---------------------------------------------------------------------
 Center     Atomic      Atomic             Coordinates (Angstroms)
 Number     Number       Type             X           Y           Z
 ---------------------------------------------------------------------
      1          1           0        0.089504    3.703604    0.015901
      2          6           0        1.120955    3.381972    0.054794
      3          1           0        1.317286    2.692738   -0.763355
      4          1           0        1.304470    2.864822    0.993775
      5          6           0        2.034019    4.596874   -0.059966
      6          8           0        1.540310    5.681197   -0.194031
      7          7           0        3.346692    4.239426   -0.044177
      8          1           0        3.453836    3.249820    0.034190
      9          6           0        4.682433    4.868652   -0.045099
     10          1           0        5.206493    4.559910    0.854804
     11          6           0        5.370562    4.178961   -1.241048
     12          1           0        4.871590    4.449391   -2.165480
     13          1           0        6.417165    4.442189   -1.306422
     14          1           0        5.318767    3.099974   -1.124541
     15          6           0        4.825536    6.426307   -0.070695
     16          8           0        4.250063    7.102686    0.740593
     17          7           0        5.715402    7.011830   -0.899613
     18          1           0        6.244772    6.487403   -1.548665
     19          6           0        5.934963    8.444003   -0.882787
     20          1           0        5.293380    8.884953   -0.134523
     21          1           0        6.971546    8.663244   -0.642531
     22          1           0        5.699556    8.869942   -1.853623
 ---------------------------------------------------------------------
                    Distance matrix (angstroms):
                    1          2          3          4          5
     1  H    0.000000
     2  C    1.081134   0.000000
     3  H    1.771028   1.087639   0.000000
     4  H    1.770857   1.087569   1.765583   0.000000
     5  C    2.141221   1.524087   2.152718   2.154672   0.000000
     6  O    2.461663   2.350363   3.050370   3.065693   1.198949
     7  N    3.301513   2.387242   2.651027   2.671619   1.360561
     8  H    3.394847   2.336712   2.347608   2.385121   1.959413
     9  C    4.738782   3.860612   4.071205   4.062663   2.662364
    10  H    5.255530   4.326566   4.607679   4.256574   3.301933
    11  C    5.449354   4.513707   4.343511   4.822291   3.564003
    12  H    5.308764   4.487345   4.205337   5.021563   3.536488
    13  H    6.506408   5.570171   5.418880   5.823971   4.559555
    14  H    5.386109   4.369436   4.038334   4.545012   3.763455
    15  C    5.463571   4.796628   5.169829   5.120076   3.337590
    16  O    5.421179   4.909719   5.505513   5.167214   3.439598
    17  N    6.590391   5.932596   6.165755   6.343414   4.482142
    18  H    6.934315   6.202279   6.268676   6.632772   4.849820
    19  C    7.579473   7.048254   7.376602   7.489340   5.540289
    20  H    7.345020   6.908528   7.385680   7.309339   5.386707
    21  H    8.508470   7.912490   8.223879   8.271332   6.422921
    22  H    7.852315   7.397530   7.651851   7.967805   5.908679
                    6          7          8          9         10
     6  O    0.000000
     7  N    2.316068   0.000000
     8  H    3.102461   0.998470   0.000000
     9  C    3.248899   1.476527   2.033803   0.000000
    10  H    3.974699   2.090392   2.336996   1.086179   0.000000
    11  C    4.245442   2.352064   2.482613   1.542559   2.136501
    12  H    4.062189   2.620940   2.878809   2.169695   3.040804
    13  H    5.153277   3.325986   3.464145   2.186801   2.480017
    14  H    4.669614   2.520837   2.200699   2.167566   2.462078
    15  C    3.370921   2.640101   3.461594   1.564424   2.117809
    16  O    3.199517   3.103256   3.997194   2.407314   2.719101
    17  N    4.438447   3.745501   4.487693   2.527930   3.057594
    18  H    4.961547   3.964309   4.558145   2.705913   3.251140
    19  C    5.236454   5.008082   5.828926   3.879908   4.316951
    20  H    4.934888   5.037725   5.930186   4.063486   4.437602
    21  H    6.212252   5.750457   6.491332   4.471676   4.711132
    22  H    5.497424   5.500159   6.339785   4.507285   5.114202
[...]
    15  C    4.891941   4.269097   4.886222   4.380500   2.903585
    16  O    4.605538   4.074766   4.876137   3.963000   2.946222
    17  N    6.036727   5.492655   6.075121   5.697149   4.040932
    18  H    6.347542   5.795837   6.248133   6.141900   4.300965
    19  C    6.759007   6.374982   7.104329   6.520339   4.974095
    20  H    6.992364   6.578672   7.367691   6.546717   5.295356
    21  H    7.732905   7.339138   8.010985   7.532969   5.893949
    22  H    6.392609   6.177061   6.978612   6.400707   4.815931
                    6          7          8          9         10
     6  O    0.000000
     7  N    2.260059   0.000000
     8  H    3.082543   0.996821   0.000000
     9  C    2.984316   1.463897   2.041501   0.000000
    10  H    3.771389   2.066222   2.202186   1.085162   0.000000
    11  C    3.984645   2.438387   2.861467   1.529393   2.135117
    12  H    3.789008   2.733582   3.341602   2.169407   3.046029
    13  H    4.820270   3.391495   3.777477   2.178090   2.467793
    14  H    4.536654   2.626999   2.690345   2.149415   2.474332
    15  C    2.798470   2.509536   3.290034   1.538537   2.058633
    16  O    2.798148   2.950424   3.624354   2.367788   2.560841
    17  N    3.701214   3.610529   4.427457   2.469741   3.019713
    18  H    3.980038   3.735674   4.553566   2.626730   3.330570
    19  C    4.380753   4.832127   5.684081   3.819689   4.274423
    20  H    4.801731   5.169522   5.929126   4.126519   4.335176
    21  H    5.294456   5.642604   6.487594   4.532914   4.988023
    22  H    4.003103   4.960699   5.884269   4.223612   4.820818
                   11         12         13         14         15
    11  C    0.000000
    12  H    1.085173   0.000000
    13  H    1.084639   1.772634   0.000000
    14  H    1.084293   1.746229   1.751496   0.000000
    15  C    2.602597   2.913893   2.867597   3.516262   0.000000
    16  O    3.696051   4.050614   3.980499   4.499437   1.197844
    17  N    2.838462   2.919662   2.724695   3.905538   1.353237
    18  H    2.445398   2.279891   2.278660   3.521362   2.020798
    19  C    4.283105   4.264449   4.087397   5.354366   2.421302
    20  H    4.810780   4.993913   4.561142   5.832037   2.674732
    21  H    4.683611   4.585533   4.298537   5.755871   3.300124
    22  H    4.789504   4.597862   4.794566   5.851258   2.789627
                   16         17         18         19         20
    16  O    0.000000
    17  N    2.235618   0.000000
    18  H    3.091524   0.993102   0.000000
    19  C    2.727441   1.450302   2.093673   0.000000
    20  H    2.598569   2.076276   2.918563   1.079573   0.000000
    21  H    3.764162   2.066720   2.312100   1.082239   1.760686
    22  H    2.905016   2.110851   2.646210   1.084233   1.755533
                   21         22
    21  H    0.000000
    22  H    1.767729   0.000000
 Stoichiometry    C6H12N2O2
 Framework group  C1[X(C6H12N2O2)]
 Deg. of freedom    60
 Full point group                 C1      NOp   1
 Largest Abelian subgroup         C1      NOp   1
 Largest concise Abelian subgroup C1      NOp   1
                         Standard orientation:                         
 ---------------------------------------------------------------------
 Center     Atomic      Atomic             Coordinates (Angstroms)
 Number     Number       Type             X           Y           Z
 ---------------------------------------------------------------------
      1          1           0        3.669113   -1.475927   -0.416514
      2          6           0        3.266947   -0.645476    0.144291
      3          1           0        3.893775    0.228600   -0.000856
      4          1           0        3.273082   -0.895074    1.201070
      5          6           0        1.843418   -0.392634   -0.301799
      6          8           0        1.241126   -1.161266   -0.987258
      7          7           0        1.333458    0.831234    0.075420
      8          1           0        1.964211    1.350980    0.646093
      9          6           0       -0.053663    1.110814    0.450557
     10          1           0       -0.061587    1.347061    1.509661
     11          6           0       -0.541849    2.339001   -0.319035
     12          1           0       -0.566694    2.144649   -1.386373
     13          1           0       -1.523151    2.658352    0.014888
     14          1           0        0.145224    3.162396   -0.158903
     15          6           0       -0.963441   -0.128571    0.392907
     16          8           0       -0.681839   -1.093563    1.044307
     17          7           0       -2.174797    0.020793   -0.191523
     18          1           0       -2.270535    0.709924   -0.900172
     19          6           0       -3.078217   -1.111811   -0.257989
     20          1           0       -3.227867   -1.510686    0.733969
     21          1           0       -4.028100   -0.771198   -0.649071
     22          1           0       -2.691566   -1.902562   -0.891057
 ---------------------------------------------------------------------
 Rotational constants (GHZ):      2.1221177      0.9086371      0.7278408

 **********************************************************************

            Population analysis using the SCF density.

 **********************************************************************

 Orbital symmetries:
       Occupied  (A) (A) (A) (A) (A) (A) (A) (A) (A) (A) (A) (A)
                 (A) (A) (A) (A) (A) (A) (A) (A) (A) (A) (A) (A)
                 (A) (A) (A) (A) (A) (A) (A) (A) (A) (A) (A) (A)
                 (A) (A) (A)
       Virtual   (A) (A) (A) (A) (A) (A) (A) (A) (A) (A) (A) (A)
                 (A) (A) (A) (A) (A) (A) (A) (A) (A) (A) (A) (A)
                 (A) (A) (A) (A) (A) (A) (A) (A) (A) (A) (A) (A)
                 (A) (A) (A) (A) (A) (A) (A) (A) (A) (A) (A) (A)
                 (A) (A) (A) (A) (A) (A) (A) (A) (A) (A) (A) (A)
                 (A) (A) (A) (A) (A) (A) (A) (A) (A) (A) (A) (A)
                 (A) (A) (A) (A) (A) (A) (A) (A) (A) (A) (A) (A)
                 (A) (A) (A) (A) (A) (A) (A) (A) (A) (A) (A) (A)
                 (A) (A) (A) (A) (A) (A) (A) (A) (A) (A) (A) (A)
                 (A) (A) (A) (A) (A) (A) (A) (A) (A) (A) (A) (A)
                 (A) (A) (A) (A) (A) (A) (A) (A) (A) (A) (A) (A)
                 (A) (A) (A)
 The electronic state is 1-A.
 Alpha  occ. eigenvalues --  -20.52056 -20.51438 -15.58203 -15.58178 -11.34412
 Alpha  occ. eigenvalues --  -11.34304 -11.28742 -11.25040 -11.23171 -11.22850
 Alpha  occ. eigenvalues --   -1.39508  -1.38073  -1.23519  -1.22712  -1.05621
 Alpha  occ. eigenvalues --   -0.99084  -0.94950  -0.88605  -0.79970  -0.77442
 Alpha  occ. eigenvalues --   -0.70606  -0.68718  -0.65188  -0.63987  -0.61979
 Alpha  occ. eigenvalues --   -0.61190  -0.59874  -0.57634  -0.57030  -0.56317
 Alpha  occ. eigenvalues --   -0.54992  -0.54363  -0.53564  -0.52072  -0.49017
 Alpha  occ. eigenvalues --   -0.41633  -0.40968  -0.39077  -0.38417
 Alpha virt. eigenvalues --    0.18345   0.19777   0.22746   0.23815   0.26238
 Alpha virt. eigenvalues --    0.28045   0.29464   0.30253   0.30543   0.31636
 Alpha virt. eigenvalues --    0.31903   0.33216   0.34719   0.34953   0.37514
 Alpha virt. eigenvalues --    0.38838   0.39428   0.45489   0.46746   0.50358
 Alpha virt. eigenvalues --    0.53869   0.59468   0.62667   0.70973   0.73743
 Alpha virt. eigenvalues --    0.75036   0.75902   0.76258   0.79176   0.80676
 Alpha virt. eigenvalues --    0.82215   0.83606   0.84679   0.85838   0.89529
 Alpha virt. eigenvalues --    0.92327   0.95302   0.95576   0.98339   0.99089
 Alpha virt. eigenvalues --    1.01650   1.03741   1.04679   1.07015   1.10739
 Alpha virt. eigenvalues --    1.12477   1.13556   1.14088   1.14174   1.15943
 Alpha virt. eigenvalues --    1.16935   1.17159   1.19422   1.19787   1.20322
 Alpha virt. eigenvalues --    1.21432   1.22640   1.23392   1.23997   1.27165
 Alpha virt. eigenvalues --    1.28056   1.31859   1.33232   1.39818   1.45835
 Alpha virt. eigenvalues --    1.47192   1.50907   1.52941   1.55964   1.58738
 Alpha virt. eigenvalues --    1.63469   1.66529   1.72121   1.73840   1.76305
 Alpha virt. eigenvalues --    1.78461   1.84085   1.88066   1.93115   1.99206
 Alpha virt. eigenvalues --    2.00779   2.05411   2.08431   2.10983   2.12463
 Alpha virt. eigenvalues --    2.13884   2.16219   2.20130   2.22519   2.23973
 Alpha virt. eigenvalues --    2.27370   2.29436   2.33956   2.35633   2.36266
 Alpha virt. eigenvalues --    2.38119   2.40801   2.41577   2.44828   2.48143
 Alpha virt. eigenvalues --    2.53830   2.54533   2.55943   2.61007   2.64135
 Alpha virt. eigenvalues --    2.67062   2.70278   2.73661   2.77023   2.78171
 Alpha virt. eigenvalues --    2.80996   2.85941   2.86499   2.92623   2.96510
 Alpha virt. eigenvalues --    3.02568   3.05905   3.08676   3.11020   3.24769
 Alpha virt. eigenvalues --    3.35191   3.38753   3.41327   3.54256   3.55557
 Alpha virt. eigenvalues --    4.38581   4.40840   4.49244   4.58814   4.62859
 Alpha virt. eigenvalues --    4.68429   4.75194   4.80908   4.90190   5.12464
          Condensed to atoms (all electrons):
              1          2          3          4          5          6
     1  H    0.462650   0.382200  -0.020586  -0.016679  -0.031995   0.004185
     2  C    0.382200   5.290625   0.374826   0.373179   0.368024  -0.071956
     3  H   -0.020586   0.374826   0.524756  -0.025811  -0.034964   0.001582
     4  H   -0.016679   0.373179  -0.025811   0.496491  -0.027582   0.000451
     5  C   -0.031995   0.368024  -0.034964  -0.027582   4.131328   0.616386
     6  O    0.004185  -0.071956   0.001582   0.000451   0.616386   8.121211
     7  N    0.004519  -0.124529   0.004161   0.001102   0.254244  -0.098021
     8  H    0.000109   0.001282  -0.000187  -0.000151  -0.025710   0.003085
     9  C   -0.000098   0.004253   0.000154  -0.000239  -0.022905   0.002959
    10  H   -0.000002  -0.000003  -0.000008   0.000042   0.001599   0.000176
    11  C    0.000003  -0.000211  -0.000004   0.000005   0.000617  -0.000409
    12  H    0.000000   0.000012  -0.000001   0.000000   0.000326   0.000151
    13  H    0.000000   0.000002   0.000000   0.000000   0.000001   0.000002
    14  H    0.000000  -0.000001   0.000000   0.000000  -0.000018  -0.000006
    15  C    0.000003  -0.000019  -0.000002  -0.000021  -0.001170   0.008255
    16  O    0.000004  -0.000574   0.000000   0.000185   0.007884  -0.009011
    17  N    0.000000  -0.000017   0.000000   0.000001   0.000106  -0.001336
    18  H    0.000000   0.000000   0.000000   0.000000  -0.000043   0.000037
    19  C    0.000000   0.000000   0.000000   0.000000  -0.000017  -0.000051
    20  H    0.000000   0.000000   0.000000   0.000000  -0.000001   0.000004
    21  H    0.000000   0.000000   0.000000   0.000000   0.000000   0.000000
    22  H    0.000000   0.000000   0.000000   0.000000   0.000002   0.000078
              7          8          9         10         11         12
     1  H    0.004519   0.000109  -0.000098  -0.000002   0.000003   0.000000
     2  C   -0.124529   0.001282   0.004253  -0.000003  -0.000211   0.000012
     3  H    0.004161  -0.000187   0.000154  -0.000008  -0.000004  -0.000001
     4  H    0.001102  -0.000151  -0.000239   0.000042   0.000005   0.000000
     5  C    0.254244  -0.025710  -0.022905   0.001599   0.000617   0.000326
     6  O   -0.098021   0.003085   0.002959   0.000176  -0.000409   0.000151
     7  N    7.382671   0.326109   0.196596  -0.045067  -0.076810   0.000575
     8  H    0.326109   0.355974  -0.029342  -0.004966   0.000293  -0.000069
     9  C    0.196596  -0.029342   5.004700   0.417284   0.316636  -0.035192
    10  H   -0.045067  -0.004966   0.417284   0.508130  -0.050797   0.004143
    11  C   -0.076810   0.000293   0.316636  -0.050797   5.200026   0.384258
    12  H    0.000575  -0.000069  -0.035192   0.004143   0.384258   0.516757
    13  H    0.004941  -0.000138  -0.036467  -0.000128   0.381576  -0.025360
    14  H   -0.002652   0.001136  -0.028192  -0.003096   0.390159  -0.024100
    15  C   -0.031657   0.003099   0.398610  -0.034546  -0.048420  -0.001776
    16  O   -0.000296  -0.000286  -0.072055   0.000136   0.003173  -0.000030
    17  N    0.001820  -0.000111  -0.098231   0.000490  -0.000446  -0.000650
    18  H   -0.000034  -0.000003  -0.003113   0.000266   0.000093   0.001943
    19  C   -0.000046   0.000002   0.004642  -0.000183  -0.000124  -0.000092
    20  H   -0.000005   0.000000  -0.000048   0.000027  -0.000009   0.000001
    21  H    0.000000   0.000000   0.000019   0.000005  -0.000024   0.000008
    22  H    0.000012   0.000000  -0.000137  -0.000010   0.000002  -0.000007
             13         14         15         16         17         18
     1  H    0.000000   0.000000   0.000003   0.000004   0.000000   0.000000
     2  C    0.000002  -0.000001  -0.000019  -0.000574  -0.000017   0.000000
     3  H    0.000000   0.000000  -0.000002   0.000000   0.000000   0.000000
     4  H    0.000000   0.000000  -0.000021   0.000185   0.000001   0.000000
     5  C    0.000001  -0.000018  -0.001170   0.007884   0.000106  -0.000043
     6  O    0.000002  -0.000006   0.008255  -0.009011  -0.001336   0.000037
     7  N    0.004941  -0.002652  -0.031657  -0.000296   0.001820  -0.000034
     8  H   -0.000138   0.001136   0.003099  -0.000286  -0.000111  -0.000003
     9  C   -0.036467  -0.028192   0.398610  -0.072055  -0.098231  -0.003113
    10  H   -0.000128  -0.003096  -0.034546   0.000136   0.000490   0.000266
    11  C    0.381576   0.390159  -0.048420   0.003173  -0.000446   0.000093
    12  H   -0.025360  -0.024100  -0.001776  -0.000030  -0.000650   0.001943
    13  H    0.529720  -0.024401  -0.001898  -0.000075   0.001110  -0.001427
    14  H   -0.024401   0.512010   0.003014  -0.000054   0.000105   0.000114
    15  C   -0.001898   0.003014   4.117843   0.560041   0.297997  -0.014783
    16  O   -0.000075  -0.000054   0.560041   8.202866  -0.097243   0.002688
    17  N    0.001110   0.000105   0.297997  -0.097243   7.295602   0.319012
    18  H   -0.001427   0.000114  -0.014783   0.002688   0.319012   0.332278
    19  C   -0.000017   0.000004  -0.033012   0.007251   0.206689  -0.025059
    20  H   -0.000015   0.000000  -0.003431   0.004006  -0.038739   0.003143
    21  H   -0.000004   0.000000   0.004643   0.000436  -0.039275  -0.003820
    22  H    0.000008   0.000000  -0.003144   0.001348  -0.045772   0.000331
             19         20         21         22
     1  H    0.000000   0.000000   0.000000   0.000000
     2  C    0.000000   0.000000   0.000000   0.000000
     3  H    0.000000   0.000000   0.000000   0.000000
     4  H    0.000000   0.000000   0.000000   0.000000
     5  C   -0.000017  -0.000001   0.000000   0.000002
     6  O   -0.000051   0.000004   0.000000   0.000078
     7  N   -0.000046  -0.000005   0.000000   0.000012
     8  H    0.000002   0.000000   0.000000   0.000000
     9  C    0.004642  -0.000048   0.000019  -0.000137
    10  H   -0.000183   0.000027   0.000005  -0.000010
    11  C   -0.000124  -0.000009  -0.000024   0.000002
    12  H   -0.000092   0.000001   0.000008  -0.000007
    13  H   -0.000017  -0.000015  -0.000004   0.000008
    14  H    0.000004   0.000000   0.000000   0.000000
    15  C   -0.033012  -0.003431   0.004643  -0.003144
    16  O    0.007251   0.004006   0.000436   0.001348
    17  N    0.206689  -0.038739  -0.039275  -0.045772
    18  H   -0.025059   0.003143  -0.003820   0.000331
    19  C    4.914096   0.402970   0.396553   0.406247
    20  H    0.402970   0.485419  -0.025256  -0.031128
    21  H    0.396553  -0.025256   0.534209  -0.031803
    22  H    0.406247  -0.031128  -0.031803   0.515551
 Mulliken atomic charges:
              1
     1  H    0.215686
     2  C   -0.597092
     3  H    0.176085
     4  H    0.199027
     5  C    0.763888
     6  O   -0.577771
     7  N   -0.797634
     8  H    0.369875
     9  C   -0.019834
    10  H    0.206510
    11  C   -0.499585
    12  H    0.179107
    13  H    0.172571
    14  H    0.175977
    15  C    0.780377
    16  O   -0.610393
    17  N   -0.801111
    18  H    0.388377
    19  C   -0.279855
    20  H    0.203062
    21  H    0.164312
    22  H    0.188421
 Sum of Mulliken atomic charges =   0.00000
 Mulliken charges with hydrogens summed into heavy atoms:
              1
     2  C   -0.006294
     5  C    0.763888
     6  O   -0.577771
     7  N   -0.427759
     9  C    0.186676
    11  C    0.028071
    15  C    0.780377
    16  O   -0.610393
    17  N   -0.412734
    19  C    0.275939
 Sum of Mulliken charges with hydrogens summed into heavy atoms =   0.00000
 Electronic spatial extent (au):  <R**2>=           1685.8493
 Charge=              0.0000 electrons
 Dipole moment (field-independent basis, Debye):
    X=             -0.0605    Y=              4.5048    Z=              0.3355  Tot=              4.5177
 Quadrupole moment (field-independent basis, Debye-Ang):
   XX=            -46.6459   YY=            -62.4167   ZZ=            -62.8089
   XY=              1.8797   XZ=              7.2006   YZ=              1.3421
 Traceless Quadrupole moment (field-independent basis, Debye-Ang):
   XX=             10.6446   YY=             -5.1262   ZZ=             -5.5184
   XY=              1.8797   XZ=              7.2006   YZ=              1.3421
 Octapole moment (field-independent basis, Debye-Ang**2):
  XXX=              4.8604  YYY=              2.9578  ZZZ=              0.8522  XYY=             -1.4852
  XXY=             -6.6725  XXZ=             -2.4404  XZZ=             -2.4362  YZZ=              5.4185
  YYZ=              2.2791  XYZ=              0.0014
 Hexadecapole moment (field-independent basis, Debye-Ang**3):
 XXXX=          -1320.8101 YYYY=           -581.2038 ZZZZ=           -181.6835 XXXY=             15.3451
 XXXZ=             20.0898 YYYX=             10.8163 YYYZ=              7.7718 ZZZX=              5.4327
 ZZZY=              1.0366 XXYY=           -317.5123 XXZZ=           -265.1116 YYZZ=           -130.8150
 XXYZ=             -1.5128 YYXZ=             10.3475 ZZXY=              0.1867
 N-N= 5.671774522314D+02 E-N=-2.290041424080D+03  KE= 4.921065402750D+02
 1\1\GINC-RODAN\FOpt\RHF\6-31G(d)\C6H12N2O2\STEBOSS\09-Feb-2017\0\\# HF
 /6-31G* Opt=(ModRedundant) geom=nocrowd\\Phi Psi fixed scan\\0,1\H,0.1
 78471771,4.291607858,-0.1424423152\C,1.1134316713,3.8572100345,0.17855
 13639\H,1.1425130901,2.8091607354,-0.1020478264\H,1.1808038447,3.92025
 70425,1.2604966547\C,2.2556450955,4.6332352094,-0.4399086554\O,2.09560
 21321,5.6815088767,-0.9866395352\N,3.4748931847,3.9916398764,-0.395229
 1799\H,3.4360721992,3.1266467068,0.0986661443\C,4.7808750361,4.6292778
 932,-0.2196589747\H,5.1576380326,4.3334247478,0.7540433753\C,5.7417965
 18,4.1026859403,-1.2866045332\H,5.4139025566,4.3888678658,-2.280679782
 \H,6.7549212037,4.4538721269,-1.1232364133\H,5.7590404362,3.0190155134
 ,-1.2541800026\C,4.6994319729,6.1592321066,-0.079290265\O,4.031902449,
 6.633194547,0.7951207058\N,5.587362149,6.8930094517,-0.7895016759\H,5.
 9320836997,6.5148292765,-1.6406176837\C,5.5647482857,8.3390793407,-0.6
 811166223\H,5.6450999179,8.6228073681,0.3574014938\H,6.4125165341,8.73
 75868379,-1.2230773682\H,4.6505482197,8.7617506445,-1.0825489047\\Vers
 ion=EM64L-G09RevA.02\State=1-A\HF=-492.8350239\RMSD=4.483e-09\RMSF=3.8
 83e-03\Dipole=1.134052,-1.3411785,-0.2725395\Quadrupole=0.1730378,3.36
 86634,-3.5417012,5.4975433,-3.8489538,-4.6480886\PG=C01 [X(C6H12N2O2)]
 \\@


 ABOVE ALL I AM AN OPTIMIST FOR NUMBER THEORY,
 AND I HOLD THE HOPE THAT WE MAY NOT BE FAR FROM
 A TIME WHEN IRREFUTABLE ARITHMETIC WILL CELEBRATE
 ITS TRIUMPHS IN PHYSICS AND CHEMISTRY.
   -- HERMANN MINKOWSKI, 1905
 Job cpu time:  0 days  0 hours 22 minutes 44.0 seconds.
 File lengths (MBytes):  RWF=     25 Int=      0 D2E=      0 Chk=      3 Scr=      1
 Normal termination of Gaussian 09 at Thu Feb  9 13:13:24 2017.
