 Entering Gaussian System, Link 0=g09
 Initial command:
 /home/steboss/Software/g09/l1.exe /home/steboss/projects/phi_psi_scan/alanine/285/4469/Gau-2739.inp -scrdir=/home/steboss/projects/phi_psi_scan/alanine/285/4469/
 Entering Link 1 = /home/steboss/Software/g09/l1.exe PID=      2750.
  
 Copyright (c) 1988,1990,1992,1993,1995,1998,2003,2009, Gaussian, Inc.
                  All Rights Reserved.
  
 This is part of the Gaussian(R) 09 program.  It is based on
 the Gaussian(R) 03 system (copyright 2003, Gaussian, Inc.),
 the Gaussian(R) 98 system (copyright 1998, Gaussian, Inc.),
 the Gaussian(R) 94 system (copyright 1995, Gaussian, Inc.),
 the Gaussian 92(TM) system (copyright 1992, Gaussian, Inc.),
 the Gaussian 90(TM) system (copyright 1990, Gaussian, Inc.),
 the Gaussian 88(TM) system (copyright 1988, Gaussian, Inc.),
 the Gaussian 86(TM) system (copyright 1986, Carnegie Mellon
 University), and the Gaussian 82(TM) system (copyright 1983,
 Carnegie Mellon University). Gaussian is a federally registered
 trademark of Gaussian, Inc.
  
 This software contains proprietary and confidential information,
 including trade secrets, belonging to Gaussian, Inc.
  
 This software is provided under written license and may be
 used, copied, transmitted, or stored only in accord with that
 written license.
  
 The following legend is applicable only to US Government
 contracts under FAR:
  
                    RESTRICTED RIGHTS LEGEND
  
 Use, reproduction and disclosure by the US Government is
 subject to restrictions as set forth in subparagraphs (a)
 and (c) of the Commercial Computer Software - Restricted
 Rights clause in FAR 52.227-19.
  
 Gaussian, Inc.
 340 Quinnipiac St., Bldg. 40, Wallingford CT 06492
  
  
 ---------------------------------------------------------------
 Warning -- This program may not be used in any manner that
 competes with the business of Gaussian, Inc. or will provide
 assistance to any competitor of Gaussian, Inc.  The licensee
 of this program is prohibited from giving any competitor of
 Gaussian, Inc. access to this program.  By using this program,
 the user acknowledges that Gaussian, Inc. is engaged in the
 business of creating and licensing software in the field of
 computational chemistry and represents and warrants to the
 licensee that it is not a competitor of Gaussian, Inc. and that
 it will not use this program in any manner prohibited above.
 ---------------------------------------------------------------
  

 Cite this work as:
 Gaussian 09, Revision A.02,
 M. J. Frisch, G. W. Trucks, H. B. Schlegel, G. E. Scuseria, 
 M. A. Robb, J. R. Cheeseman, G. Scalmani, V. Barone, B. Mennucci, 
 G. A. Petersson, H. Nakatsuji, M. Caricato, X. Li, H. P. Hratchian, 
 A. F. Izmaylov, J. Bloino, G. Zheng, J. L. Sonnenberg, M. Hada, 
 M. Ehara, K. Toyota, R. Fukuda, J. Hasegawa, M. Ishida, T. Nakajima, 
 Y. Honda, O. Kitao, H. Nakai, T. Vreven, J. A. Montgomery, Jr., 
 J. E. Peralta, F. Ogliaro, M. Bearpark, J. J. Heyd, E. Brothers, 
 K. N. Kudin, V. N. Staroverov, R. Kobayashi, J. Normand, 
 K. Raghavachari, A. Rendell, J. C. Burant, S. S. Iyengar, J. Tomasi, 
 M. Cossi, N. Rega, J. M. Millam, M. Klene, J. E. Knox, J. B. Cross, 
 V. Bakken, C. Adamo, J. Jaramillo, R. Gomperts, R. E. Stratmann, 
 O. Yazyev, A. J. Austin, R. Cammi, C. Pomelli, J. W. Ochterski, 
 R. L. Martin, K. Morokuma, V. G. Zakrzewski, G. A. Voth, 
 P. Salvador, J. J. Dannenberg, S. Dapprich, A. D. Daniels, 
 O. Farkas, J. B. Foresman, J. V. Ortiz, J. Cioslowski, 
 and D. J. Fox, Gaussian, Inc., Wallingford CT, 2009.
 
 ******************************************
 Gaussian 09:  EM64L-G09RevA.02 11-Jun-2009
                10-Feb-2017 
 ******************************************
 %chk=structure_165.chk
 %NProcShared=8
 Will use up to    8 processors via shared memory.
 ----------------------------------------------------------------------
 # b3lyp/6-31G* Opt=(ModRedundant, maxcycles=1000, calcfc) geom=nocrowd
 ----------------------------------------------------------------------
 1/6=1000,10=4,14=-1,18=120,19=15,26=3,38=1/1,3;
 2/9=110,12=1,17=6,18=5,40=1/2;
 3/5=1,6=6,7=1,11=2,16=1,25=1,30=1,71=2,74=-5/1,2,3;
 4//1;
 5/5=2,38=5/2;
 8/6=4,10=90,11=11/1;
 11/6=1,8=1,9=11,15=111,16=1/1,2,10;
 10/6=1,7=6,13=1/2;
 6/7=2,8=2,9=2,10=2,28=1/1;
 7/10=1,18=20,25=1/1,2,3,16;
 1/6=1000,10=4,14=-1,18=20,19=15/3(2);
 2/9=110,12=1/2;
 99//99;
 2/9=110,12=1/2;
 3/5=1,6=6,7=1,11=2,16=1,25=1,30=1,71=1,74=-5/1,2,3;
 4/5=5,16=3/1;
 5/5=2,38=5/2;
 7//1,2,3,16;
 1/6=1000,14=-1,18=20,19=15/3(-5);
 2/9=110,12=1/2;
 6/7=2,8=2,9=2,10=2,19=2,28=1/1;
 99/9=1/99;
 ------------------
 Phi Psi fixed scan
 ------------------
 Symbolic Z-matrix:
 Charge =  0 Multiplicity = 1
 H                     0.8983    3.2194    1.9013 
 C                     1.4447    3.2086    0.9582 
 H                     0.8591    3.7173    0.1925 
 H                     1.6234    2.1775    0.6531 
 C                     2.7931    3.9187    1.0948 
 O                     3.1338    4.4092    2.1689 
 N                     3.5554    3.9697    0. 
 H                     3.2318    3.5516   -0.8606 
 C                     4.8533    4.6139    0. 
 H                     5.4076    4.3155    0.8898 
 C                     5.6613    4.2208   -1.2322 
 H                     5.1233    4.5214   -2.1312 
 H                     6.6305    4.7189   -1.2058 
 H                     5.8085    3.1409   -1.2414 
 C                     4.7127    6.1294    0. 
 O                     3.6366    6.656    -0.2741 
 N                     5.8056    6.8311    0.309 
 H                     6.6679    6.3528    0.5272 
 C                     5.801     8.2797    0.3436 
 H                     4.8071    8.6467    0.0875 
 H                     6.0669    8.6206    1.3442 
 H                     6.5256    8.6631   -0.3748 
 
 The following ModRedundant input section has been read:
 D    5    7    9   15 F                                                       
 D    7    9   15   17 F                                                       

 GradGradGradGradGradGradGradGradGradGradGradGradGradGradGradGradGradGrad
 Berny optimization.
 Initialization pass.
                           ----------------------------
                           !    Initial Parameters    !
                           ! (Angstroms and Degrees)  !
 --------------------------                            --------------------------
 ! Name  Definition              Value          Derivative Info.                !
 --------------------------------------------------------------------------------
 ! R1    R(1,2)                  1.09           calculate D2E/DX2 analytically  !
 ! R2    R(2,3)                  1.09           calculate D2E/DX2 analytically  !
 ! R3    R(2,4)                  1.09           calculate D2E/DX2 analytically  !
 ! R4    R(2,5)                  1.5301         calculate D2E/DX2 analytically  !
 ! R5    R(5,6)                  1.229          calculate D2E/DX2 analytically  !
 ! R6    R(5,7)                  1.335          calculate D2E/DX2 analytically  !
 ! R7    R(7,8)                  1.01           calculate D2E/DX2 analytically  !
 ! R8    R(7,9)                  1.449          calculate D2E/DX2 analytically  !
 ! R9    R(9,10)                 1.09           calculate D2E/DX2 analytically  !
 ! R10   R(9,11)                 1.525          calculate D2E/DX2 analytically  !
 ! R11   R(9,15)                 1.522          calculate D2E/DX2 analytically  !
 ! R12   R(11,12)                1.09           calculate D2E/DX2 analytically  !
 ! R13   R(11,13)                1.09           calculate D2E/DX2 analytically  !
 ! R14   R(11,14)                1.0899         calculate D2E/DX2 analytically  !
 ! R15   R(15,16)                1.229          calculate D2E/DX2 analytically  !
 ! R16   R(15,17)                1.335          calculate D2E/DX2 analytically  !
 ! R17   R(17,18)                1.0099         calculate D2E/DX2 analytically  !
 ! R18   R(17,19)                1.449          calculate D2E/DX2 analytically  !
 ! R19   R(19,20)                1.09           calculate D2E/DX2 analytically  !
 ! R20   R(19,21)                1.09           calculate D2E/DX2 analytically  !
 ! R21   R(19,22)                1.09           calculate D2E/DX2 analytically  !
 ! A1    A(1,2,3)              109.5044         calculate D2E/DX2 analytically  !
 ! A2    A(1,2,4)              109.4952         calculate D2E/DX2 analytically  !
 ! A3    A(1,2,5)              111.0955         calculate D2E/DX2 analytically  !
 ! A4    A(3,2,4)              109.4467         calculate D2E/DX2 analytically  !
 ! A5    A(3,2,5)              108.6385         calculate D2E/DX2 analytically  !
 ! A6    A(4,2,5)              108.6338         calculate D2E/DX2 analytically  !
 ! A7    A(2,5,6)              120.5019         calculate D2E/DX2 analytically  !
 ! A8    A(2,5,7)              116.5977         calculate D2E/DX2 analytically  !
 ! A9    A(6,5,7)              122.9003         calculate D2E/DX2 analytically  !
 ! A10   A(5,7,8)              119.9988         calculate D2E/DX2 analytically  !
 ! A11   A(5,7,9)              121.9007         calculate D2E/DX2 analytically  !
 ! A12   A(8,7,9)              118.1005         calculate D2E/DX2 analytically  !
 ! A13   A(7,9,10)             109.5            calculate D2E/DX2 analytically  !
 ! A14   A(7,9,11)             111.0992         calculate D2E/DX2 analytically  !
 ! A15   A(7,9,15)             111.0966         calculate D2E/DX2 analytically  !
 ! A16   A(10,9,11)            108.6382         calculate D2E/DX2 analytically  !
 ! A17   A(10,9,15)            108.6373         calculate D2E/DX2 analytically  !
 ! A18   A(11,9,15)            107.7947         calculate D2E/DX2 analytically  !
 ! A19   A(9,11,12)            109.5007         calculate D2E/DX2 analytically  !
 ! A20   A(9,11,13)            109.4959         calculate D2E/DX2 analytically  !
 ! A21   A(9,11,14)            109.4978         calculate D2E/DX2 analytically  !
 ! A22   A(12,11,13)           109.441          calculate D2E/DX2 analytically  !
 ! A23   A(12,11,14)           109.4482         calculate D2E/DX2 analytically  !
 ! A24   A(13,11,14)           109.4436         calculate D2E/DX2 analytically  !
 ! A25   A(9,15,16)            120.4997         calculate D2E/DX2 analytically  !
 ! A26   A(9,15,17)            116.5985         calculate D2E/DX2 analytically  !
 ! A27   A(16,15,17)           122.9018         calculate D2E/DX2 analytically  !
 ! A28   A(15,17,18)           120.0035         calculate D2E/DX2 analytically  !
 ! A29   A(15,17,19)           121.8963         calculate D2E/DX2 analytically  !
 ! A30   A(18,17,19)           118.1002         calculate D2E/DX2 analytically  !
 ! A31   A(17,19,20)           109.5046         calculate D2E/DX2 analytically  !
 ! A32   A(17,19,21)           109.4999         calculate D2E/DX2 analytically  !
 ! A33   A(17,19,22)           109.4988         calculate D2E/DX2 analytically  !
 ! A34   A(20,19,21)           109.4397         calculate D2E/DX2 analytically  !
 ! A35   A(20,19,22)           109.443          calculate D2E/DX2 analytically  !
 ! A36   A(21,19,22)           109.4414         calculate D2E/DX2 analytically  !
 ! D1    D(1,2,5,6)             -0.0109         calculate D2E/DX2 analytically  !
 ! D2    D(1,2,5,7)           -179.9999         calculate D2E/DX2 analytically  !
 ! D3    D(3,2,5,6)            120.5056         calculate D2E/DX2 analytically  !
 ! D4    D(3,2,5,7)            -59.4834         calculate D2E/DX2 analytically  !
 ! D5    D(4,2,5,6)           -120.513          calculate D2E/DX2 analytically  !
 ! D6    D(4,2,5,7)             59.498          calculate D2E/DX2 analytically  !
 ! D7    D(2,5,7,8)             -0.0091         calculate D2E/DX2 analytically  !
 ! D8    D(2,5,7,9)            179.9996         calculate D2E/DX2 analytically  !
 ! D9    D(6,5,7,8)           -179.9978         calculate D2E/DX2 analytically  !
 ! D10   D(6,5,7,9)              0.0109         calculate D2E/DX2 analytically  !
 ! D11   D(5,7,9,10)            44.9938         calculate D2E/DX2 analytically  !
 ! D12   D(5,7,9,11)           164.9964         calculate D2E/DX2 analytically  !
 ! D13   D(5,7,9,15)           -75.006          frozen, calculate D2E/DX2 analyt!
 ! D14   D(8,7,9,10)          -134.9976         calculate D2E/DX2 analytically  !
 ! D15   D(8,7,9,11)           -14.9951         calculate D2E/DX2 analytically  !
 ! D16   D(8,7,9,15)           105.0025         calculate D2E/DX2 analytically  !
 ! D17   D(7,9,11,12)           60.0024         calculate D2E/DX2 analytically  !
 ! D18   D(7,9,11,13)          179.9986         calculate D2E/DX2 analytically  !
 ! D19   D(7,9,11,14)          -60.0038         calculate D2E/DX2 analytically  !
 ! D20   D(10,9,11,12)        -179.4843         calculate D2E/DX2 analytically  !
 ! D21   D(10,9,11,13)         -59.4881         calculate D2E/DX2 analytically  !
 ! D22   D(10,9,11,14)          60.5095         calculate D2E/DX2 analytically  !
 ! D23   D(15,9,11,12)         -61.938          calculate D2E/DX2 analytically  !
 ! D24   D(15,9,11,13)          58.0582         calculate D2E/DX2 analytically  !
 ! D25   D(15,9,11,14)         178.0558         calculate D2E/DX2 analytically  !
 ! D26   D(7,9,15,16)          -15.0014         calculate D2E/DX2 analytically  !
 ! D27   D(7,9,15,17)          164.9981         frozen, calculate D2E/DX2 analyt!
 ! D28   D(10,9,15,16)        -135.5125         calculate D2E/DX2 analytically  !
 ! D29   D(10,9,15,17)          44.487          calculate D2E/DX2 analytically  !
 ! D30   D(11,9,15,16)         106.9406         calculate D2E/DX2 analytically  !
 ! D31   D(11,9,15,17)         -73.0599         calculate D2E/DX2 analytically  !
 ! D32   D(9,15,17,18)           0.0035         calculate D2E/DX2 analytically  !
 ! D33   D(9,15,17,19)         179.9985         calculate D2E/DX2 analytically  !
 ! D34   D(16,15,17,18)       -179.997          calculate D2E/DX2 analytically  !
 ! D35   D(16,15,17,19)         -0.002          calculate D2E/DX2 analytically  !
 ! D36   D(15,17,19,20)          0.0027         calculate D2E/DX2 analytically  !
 ! D37   D(15,17,19,21)        120.002          calculate D2E/DX2 analytically  !
 ! D38   D(15,17,19,22)       -120.0001         calculate D2E/DX2 analytically  !
 ! D39   D(18,17,19,20)        179.9978         calculate D2E/DX2 analytically  !
 ! D40   D(18,17,19,21)        -60.0029         calculate D2E/DX2 analytically  !
 ! D41   D(18,17,19,22)         59.995          calculate D2E/DX2 analytically  !
 --------------------------------------------------------------------------------
 Trust Radius=3.00D-01 FncErr=1.00D-07 GrdErr=1.00D-06
 Number of steps in this run= 132 maximum allowed number of steps= 132.
 GradGradGradGradGradGradGradGradGradGradGradGradGradGradGradGradGradGrad

                          Input orientation:                          
 ---------------------------------------------------------------------
 Center     Atomic      Atomic             Coordinates (Angstroms)
 Number     Number       Type             X           Y           Z
 ---------------------------------------------------------------------
      1          1           0        0.898300    3.219400    1.901300
      2          6           0        1.444700    3.208600    0.958200
      3          1           0        0.859100    3.717300    0.192500
      4          1           0        1.623400    2.177500    0.653100
      5          6           0        2.793100    3.918700    1.094800
      6          8           0        3.133800    4.409200    2.168900
      7          7           0        3.555400    3.969700    0.000000
      8          1           0        3.231800    3.551600   -0.860600
      9          6           0        4.853300    4.613900    0.000000
     10          1           0        5.407600    4.315500    0.889800
     11          6           0        5.661300    4.220800   -1.232200
     12          1           0        5.123300    4.521400   -2.131200
     13          1           0        6.630500    4.718900   -1.205800
     14          1           0        5.808500    3.140900   -1.241400
     15          6           0        4.712700    6.129400    0.000000
     16          8           0        3.636600    6.656000   -0.274100
     17          7           0        5.805600    6.831100    0.309000
     18          1           0        6.667900    6.352800    0.527200
     19          6           0        5.801000    8.279700    0.343600
     20          1           0        4.807100    8.646700    0.087500
     21          1           0        6.066900    8.620600    1.344200
     22          1           0        6.525600    8.663100   -0.374800
 ---------------------------------------------------------------------
                    Distance matrix (angstroms):
                    1          2          3          4          5
     1  H    0.000000
     2  C    1.090003   0.000000
     3  H    1.780292   1.089954   0.000000
     4  H    1.780261   1.090040   1.779688   0.000000
     5  C    2.174794   1.530060   2.143610   2.143612   0.000000
     6  O    2.546506   2.400061   3.091786   3.091835   1.228966
     7  N    3.352323   2.439769   2.714921   2.714985   1.335024
     8  H    3.630932   2.572821   2.601188   2.601228   2.037353
     9  C    4.604519   3.809405   4.098119   4.098151   2.434402
    10  H    4.749564   4.115153   4.640358   4.352843   2.652374
    11  C    5.788592   4.858201   5.034323   4.902455   3.705775
    12  H    5.983885   4.979953   4.922353   5.049306   4.024942
    13  H    6.690343   5.818627   6.022251   5.914835   4.545186
    14  H    5.830334   4.887287   5.185062   4.693861   3.892999
    15  C    5.160687   4.486540   4.550331   5.058441   3.125803
    16  O    4.903149   4.267031   4.070403   4.996963   3.174617
    17  N    6.297729   5.706261   5.846126   6.266195   4.263181
    18  H    6.707804   6.111757   6.387491   6.549501   4.610975
    19  C    7.215922   6.713504   6.727607   7.401687   5.350709
    20  H    6.929948   6.452657   6.316385   7.232316   5.236872
    21  H    7.496516   7.127655   7.244994   7.857216   5.734791
    22  H    8.153589   7.572582   7.542678   8.194581   6.212939
                    6          7          8          9         10
     6  O    0.000000
     7  N    2.252784   0.000000
     8  H    3.150072   1.010028   0.000000
     9  C    2.775376   1.448978   2.120938   0.000000
    10  H    2.610564   2.083739   2.895091   1.089970   0.000000
    11  C    4.241607   2.452791   2.547231   1.525027   2.139209
    12  H    4.739363   2.702720   2.476431   2.150225   3.041326
    13  H    4.869438   3.386959   3.610113   2.150214   2.459625
    14  H    4.515833   2.702673   2.636867   2.150165   2.466256
    15  C    3.186870   2.450234   3.094956   1.522008   2.136554
    16  O    3.356958   2.701468   3.185144   2.392836   3.157379
    17  N    4.057505   3.653285   4.329842   2.432762   2.612274
    18  H    4.354609   3.955346   4.645373   2.567973   2.422896
    19  C    5.042464   4.872051   5.514147   3.801879   4.020943
    20  H    5.008849   4.842390   5.416688   4.034014   4.445625
    21  H    5.197990   5.453932   6.212382   4.396970   4.378932
    22  H    6.005862   5.566917   6.100209   4.396940   4.663771
                   11         12         13         14         15
    11  C    0.000000
    12  H    1.089957   0.000000
    13  H    1.090023   1.779613   0.000000
    14  H    1.089925   1.779613   1.779617   0.000000
    15  C    2.461892   2.701161   2.668599   3.416575   0.000000
    16  O    3.308710   3.196187   3.685629   4.243671   1.228995
    17  N    3.034763   3.428531   2.726989   4.002665   1.335026
    18  H    2.941795   3.578674   2.382082   3.766008   2.037315
    19  C    4.356298   4.550685   3.970895   5.377690   2.434389
    20  H    4.696792   4.694754   4.519405   5.751749   2.520589
    21  H    5.114742   5.456393   4.695041   6.064587   3.137963
    22  H    4.606102   4.712225   4.032156   5.635594   3.137948
                   16         17         18         19         20
    16  O    0.000000
    17  N    2.252826   0.000000
    18  H    3.150046   1.009922   0.000000
    19  C    2.775353   1.449020   2.120889   0.000000
    20  H    2.337458   2.083859   2.986284   1.090006   0.000000
    21  H    3.519220   2.083801   2.484272   1.090007   1.779627
    22  H    3.519220   2.083796   2.484218   1.090018   1.779672
                   21         22
    21  H    0.000000
    22  H    1.779655   0.000000
 Stoichiometry    C6H12N2O2
 Framework group  C1[X(C6H12N2O2)]
 Deg. of freedom    60
 Full point group                 C1      NOp   1
 Largest Abelian subgroup         C1      NOp   1
 Largest concise Abelian subgroup C1      NOp   1
                         Standard orientation:                         
 ---------------------------------------------------------------------
 Center     Atomic      Atomic             Coordinates (Angstroms)
 Number     Number       Type             X           Y           Z
 ---------------------------------------------------------------------
      1          1           0       -3.916356   -1.385787    0.013540
      2          6           0       -3.387004   -0.521428    0.414510
      3          1           0       -3.256918   -0.641110    1.490035
      4          1           0       -3.963818    0.382167    0.217050
      5          6           0       -2.007953   -0.371971   -0.231219
      6          8           0       -1.628656   -1.171258   -1.084232
      7          7           0       -1.262916    0.656050    0.181553
      8          1           0       -1.618420    1.286706    0.885859
      9          6           0        0.060614    0.905754   -0.352728
     10          1           0        0.039894    0.805087   -1.437842
     11          6           0        0.537777    2.311271   -0.002662
     12          1           0        0.572557    2.424383    1.080851
     13          1           0        1.533569    2.470933   -0.416250
     14          1           0       -0.151128    3.044342   -0.422131
     15          6           0        1.073236   -0.082416    0.208185
     16          8           0        0.801038   -0.761559    1.195658
     17          7           0        2.245589   -0.161444   -0.425564
     18          1           0        2.422905    0.417815   -1.233625
     19          6           0        3.292367   -1.063546    0.010471
     20          1           0        2.954467   -1.616605    0.886863
     21          1           0        3.527227   -1.763188   -0.791687
     22          1           0        4.184032   -0.490432    0.264661
 ---------------------------------------------------------------------
 Rotational constants (GHZ):      2.2836223      0.8016596      0.6886471
 Standard basis: 6-31G(d) (6D, 7F)
 There are   174 symmetry adapted basis functions of A   symmetry.
 Integral buffers will be    131072 words long.
 Raffenetti 2 integral format.
 Two-electron integral symmetry is turned on.
   174 basis functions,   328 primitive gaussians,   174 cartesian basis functions
    39 alpha electrons       39 beta electrons
       nuclear repulsion energy       560.5963541017 Hartrees.
 NAtoms=   22 NActive=   22 NUniq=   22 SFac= 7.50D-01 NAtFMM=   80 NAOKFM=F Big=F
 One-electron integrals computed using PRISM.
 NBasis=   174 RedAO= T  NBF=   174
 NBsUse=   174 1.00D-06 NBFU=   174
 Harris functional with IExCor=  402 diagonalized for initial guess.
 ExpMin= 1.61D-01 ExpMax= 5.48D+03 ExpMxC= 8.25D+02 IAcc=1 IRadAn=         1 AccDes= 0.00D+00
 HarFok:  IExCor=  402 AccDes= 0.00D+00 IRadAn=         1 IDoV= 1
 ScaDFX=  1.000000  1.000000  1.000000  1.000000
 FoFCou: FMM=F IPFlag=           0 FMFlag=      100000 FMFlg1=           0
         NFxFlg=           0 DoJE=T BraDBF=F KetDBF=T FulRan=T
         Omega=  0.000000  0.000000  1.000000  0.000000  0.000000 ICntrl=     500 IOpCl=  0
         NMat0=    1 NMatS0=    1 NMatT0=    0 NMatD0=    1 NMtDS0=    0 NMtDT0=    0
         I1Cent=           4 NGrid=           0.
 Petite list used in FoFCou.
 Initial guess orbital symmetries:
       Occupied  (A) (A) (A) (A) (A) (A) (A) (A) (A) (A) (A) (A)
                 (A) (A) (A) (A) (A) (A) (A) (A) (A) (A) (A) (A)
                 (A) (A) (A) (A) (A) (A) (A) (A) (A) (A) (A) (A)
                 (A) (A) (A)
       Virtual   (A) (A) (A) (A) (A) (A) (A) (A) (A) (A) (A) (A)
                 (A) (A) (A) (A) (A) (A) (A) (A) (A) (A) (A) (A)
                 (A) (A) (A) (A) (A) (A) (A) (A) (A) (A) (A) (A)
                 (A) (A) (A) (A) (A) (A) (A) (A) (A) (A) (A) (A)
                 (A) (A) (A) (A) (A) (A) (A) (A) (A) (A) (A) (A)
                 (A) (A) (A) (A) (A) (A) (A) (A) (A) (A) (A) (A)
                 (A) (A) (A) (A) (A) (A) (A) (A) (A) (A) (A) (A)
                 (A) (A) (A) (A) (A) (A) (A) (A) (A) (A) (A) (A)
                 (A) (A) (A) (A) (A) (A) (A) (A) (A) (A) (A) (A)
                 (A) (A) (A) (A) (A) (A) (A) (A) (A) (A) (A) (A)
                 (A) (A) (A) (A) (A) (A) (A) (A) (A) (A) (A) (A)
                 (A) (A) (A)
 The electronic state of the initial guess is 1-A.
 Requested convergence on RMS density matrix=1.00D-08 within 128 cycles.
 Requested convergence on MAX density matrix=1.00D-06.
 Requested convergence on             energy=1.00D-06.
 No special actions if energy rises.
 Integral accuracy reduced to 1.0D-05 until final iterations.
 Initial convergence to 1.0D-05 achieved.  Increase integral accuracy.
 SCF Done:  E(RB3LYP) =  -495.839345022     A.U. after   15 cycles
             Convg  =    0.6441D-08             -V/T =  2.0088
 Range of M.O.s used for correlation:     1   174
 NBasis=   174 NAE=    39 NBE=    39 NFC=     0 NFV=     0
 NROrb=    174 NOA=    39 NOB=    39 NVA=   135 NVB=   135
 Symmetrizing basis deriv contribution to polar:
 IMax=3 JMax=2 DiffMx= 0.00D+00
 G2DrvN: will do    23 centers at a time, making    1 passes doing MaxLOS=2.
 Calling FoFCou, ICntrl=  3107 FMM=F I1Cent=   0 AccDes= 0.00D+00.
 FoFDir/FoFCou used for L=0 through L=2.
 End of G2Drv Frequency-dependent properties file   721 does not exist.
 End of G2Drv Frequency-dependent properties file   722 does not exist.
          IDoAtm=1111111111111111111111
          Differentiating once with respect to nuclear coordinates.
          There are    69 degrees of freedom in the 1st order CPHF.  IDoFFX=5.
     63 vectors produced by pass  0 Test12= 7.63D-11 1.45D-07 XBig12= 1.65D-01 1.04D-01.
 AX will form    63 AO Fock derivatives at one time.
     63 vectors produced by pass  1 Test12= 7.63D-11 1.45D-07 XBig12= 4.45D-02 7.84D-02.
     63 vectors produced by pass  2 Test12= 7.63D-11 1.45D-07 XBig12= 3.43D-05 1.48D-03.
     63 vectors produced by pass  3 Test12= 7.63D-11 1.45D-07 XBig12= 1.20D-07 5.16D-05.
     26 vectors produced by pass  4 Test12= 7.63D-11 1.45D-07 XBig12= 1.24D-10 1.32D-06.
 Inverted reduced A of dimension   278 with in-core refinement.
 End of Minotr Frequency-dependent properties file   721 does not exist.
 End of Minotr Frequency-dependent properties file   722 does not exist.

 **********************************************************************

            Population analysis using the SCF density.

 **********************************************************************

 Orbital symmetries:
       Occupied  (A) (A) (A) (A) (A) (A) (A) (A) (A) (A) (A) (A)
                 (A) (A) (A) (A) (A) (A) (A) (A) (A) (A) (A) (A)
                 (A) (A) (A) (A) (A) (A) (A) (A) (A) (A) (A) (A)
                 (A) (A) (A)
       Virtual   (A) (A) (A) (A) (A) (A) (A) (A) (A) (A) (A) (A)
                 (A) (A) (A) (A) (A) (A) (A) (A) (A) (A) (A) (A)
                 (A) (A) (A) (A) (A) (A) (A) (A) (A) (A) (A) (A)
                 (A) (A) (A) (A) (A) (A) (A) (A) (A) (A) (A) (A)
                 (A) (A) (A) (A) (A) (A) (A) (A) (A) (A) (A) (A)
                 (A) (A) (A) (A) (A) (A) (A) (A) (A) (A) (A) (A)
                 (A) (A) (A) (A) (A) (A) (A) (A) (A) (A) (A) (A)
                 (A) (A) (A) (A) (A) (A) (A) (A) (A) (A) (A) (A)
                 (A) (A) (A) (A) (A) (A) (A) (A) (A) (A) (A) (A)
                 (A) (A) (A) (A) (A) (A) (A) (A) (A) (A) (A) (A)
                 (A) (A) (A) (A) (A) (A) (A) (A) (A) (A) (A) (A)
                 (A) (A) (A)
 The electronic state is 1-A.
 Alpha  occ. eigenvalues --  -19.09716 -19.09241 -14.36156 -14.35511 -10.27298
 Alpha  occ. eigenvalues --  -10.27213 -10.23438 -10.21462 -10.19946 -10.18002
 Alpha  occ. eigenvalues --   -1.02750  -1.01298  -0.92222  -0.92004  -0.79043
 Alpha  occ. eigenvalues --   -0.72406  -0.71145  -0.64718  -0.59353  -0.58462
 Alpha  occ. eigenvalues --   -0.53113  -0.49587  -0.46920  -0.45423  -0.45041
 Alpha  occ. eigenvalues --   -0.43626  -0.42567  -0.41822  -0.39948  -0.39253
 Alpha  occ. eigenvalues --   -0.38517  -0.38227  -0.37616  -0.35202  -0.33918
 Alpha  occ. eigenvalues --   -0.25139  -0.24705  -0.23701  -0.23039
 Alpha virt. eigenvalues --    0.03668   0.04552   0.06255   0.08182   0.12098
 Alpha virt. eigenvalues --    0.12954   0.14150   0.14493   0.15336   0.16186
 Alpha virt. eigenvalues --    0.16790   0.17198   0.17613   0.18837   0.19314
 Alpha virt. eigenvalues --    0.21905   0.22887   0.25215   0.29422   0.33022
 Alpha virt. eigenvalues --    0.37629   0.39378   0.41554   0.50445   0.50858
 Alpha virt. eigenvalues --    0.51877   0.54252   0.54616   0.55315   0.56605
 Alpha virt. eigenvalues --    0.57296   0.58452   0.61332   0.62752   0.66088
 Alpha virt. eigenvalues --    0.69210   0.69899   0.70905   0.72942   0.75241
 Alpha virt. eigenvalues --    0.77279   0.78262   0.79328   0.81309   0.82962
 Alpha virt. eigenvalues --    0.85142   0.86897   0.87702   0.87826   0.88403
 Alpha virt. eigenvalues --    0.89108   0.89992   0.91191   0.92070   0.93209
 Alpha virt. eigenvalues --    0.94217   0.95902   0.96125   0.97419   0.98060
 Alpha virt. eigenvalues --    1.06080   1.07490   1.10134   1.13146   1.15138
 Alpha virt. eigenvalues --    1.19012   1.24382   1.31754   1.33584   1.36046
 Alpha virt. eigenvalues --    1.37930   1.40011   1.40517   1.47198   1.50611
 Alpha virt. eigenvalues --    1.52774   1.55486   1.63239   1.65798   1.71452
 Alpha virt. eigenvalues --    1.72553   1.76287   1.79727   1.81655   1.83187
 Alpha virt. eigenvalues --    1.84977   1.86184   1.88026   1.90879   1.92427
 Alpha virt. eigenvalues --    1.94448   1.96963   1.98784   2.01501   2.04296
 Alpha virt. eigenvalues --    2.07399   2.07423   2.10133   2.13140   2.14647
 Alpha virt. eigenvalues --    2.20265   2.22258   2.24778   2.28160   2.29095
 Alpha virt. eigenvalues --    2.30368   2.32819   2.35385   2.39866   2.40196
 Alpha virt. eigenvalues --    2.44975   2.48704   2.56951   2.60588   2.65439
 Alpha virt. eigenvalues --    2.67662   2.68104   2.74899   2.79011   2.90109
 Alpha virt. eigenvalues --    2.93610   2.99594   3.02315   3.17094   3.20636
 Alpha virt. eigenvalues --    3.93057   4.02396   4.09029   4.14100   4.22916
 Alpha virt. eigenvalues --    4.24165   4.27873   4.39539   4.51769   4.63183
          Condensed to atoms (all electrons):
              1          2          3          4          5          6
     1  H    0.502227   0.361324  -0.020710  -0.022040  -0.017668   0.005098
     2  C    0.361324   5.346774   0.352341   0.345748   0.349529  -0.082860
     3  H   -0.020710   0.352341   0.544566  -0.027508  -0.026367   0.001171
     4  H   -0.022040   0.345748  -0.027508   0.565981  -0.024320   0.001636
     5  C   -0.017668   0.349529  -0.026367  -0.024320   4.310996   0.607912
     6  O    0.005098  -0.082860   0.001171   0.001636   0.607912   8.068107
     7  N    0.004442  -0.136159   0.004490   0.004323   0.224823  -0.105077
     8  H   -0.000152  -0.000071   0.000813   0.001027  -0.017439   0.003618
     9  C   -0.000157   0.008204  -0.000131  -0.000327  -0.026619   0.008768
    10  H   -0.000002   0.000473  -0.000006  -0.000047  -0.000630   0.010418
    11  C    0.000001  -0.000139  -0.000015  -0.000009   0.006496   0.000796
    12  H    0.000000  -0.000011   0.000001   0.000001  -0.000099  -0.000011
    13  H    0.000000   0.000004   0.000000   0.000000  -0.000023   0.000004
    14  H    0.000000  -0.000011   0.000000   0.000001  -0.000089  -0.000007
    15  C    0.000005  -0.000396  -0.000011   0.000023   0.004051   0.003544
    16  O    0.000000  -0.000178   0.000148   0.000000   0.008197  -0.001694
    17  N    0.000000  -0.000008   0.000000   0.000000   0.000170  -0.000378
    18  H    0.000000   0.000000   0.000000   0.000000  -0.000062  -0.000014
    19  C    0.000000   0.000000   0.000000   0.000000  -0.000008   0.000002
    20  H    0.000000   0.000000   0.000000   0.000000  -0.000009   0.000000
    21  H    0.000000   0.000000   0.000000   0.000000   0.000002   0.000000
    22  H    0.000000   0.000000   0.000000   0.000000   0.000000   0.000000
              7          8          9         10         11         12
     1  H    0.004442  -0.000152  -0.000157  -0.000002   0.000001   0.000000
     2  C   -0.136159  -0.000071   0.008204   0.000473  -0.000139  -0.000011
     3  H    0.004490   0.000813  -0.000131  -0.000006  -0.000015   0.000001
     4  H    0.004323   0.001027  -0.000327  -0.000047  -0.000009   0.000001
     5  C    0.224823  -0.017439  -0.026619  -0.000630   0.006496  -0.000099
     6  O   -0.105077   0.003618   0.008768   0.010418   0.000796  -0.000011
     7  N    7.139586   0.303397   0.278915  -0.049626  -0.043879  -0.003601
     8  H    0.303397   0.413203  -0.036073   0.004309  -0.002490   0.003772
     9  C    0.278915  -0.036073   5.120433   0.365719   0.333926  -0.033283
    10  H   -0.049626   0.004309   0.365719   0.581065  -0.037453   0.005995
    11  C   -0.043879  -0.002490   0.333926  -0.037453   5.157746   0.368782
    12  H   -0.003601   0.003772  -0.033283   0.005995   0.368782   0.552569
    13  H    0.003779  -0.000010  -0.032634  -0.002392   0.371785  -0.025265
    14  H    0.000011   0.001239  -0.030876  -0.006866   0.367350  -0.032022
    15  C   -0.063490   0.000906   0.289427  -0.046448  -0.042666  -0.005095
    16  O   -0.001037   0.000362  -0.090060   0.002175  -0.002424   0.002329
    17  N    0.003131  -0.000078  -0.125020   0.003961  -0.001154   0.000247
    18  H    0.000129  -0.000002   0.002769   0.002388   0.000268  -0.000018
    19  C   -0.000123   0.000003   0.006170  -0.000374  -0.000129  -0.000034
    20  H   -0.000005   0.000000   0.001329  -0.000051  -0.000047  -0.000013
    21  H    0.000003   0.000000  -0.000150   0.000009  -0.000008   0.000000
    22  H    0.000001   0.000000  -0.000064  -0.000004   0.000034   0.000000
             13         14         15         16         17         18
     1  H    0.000000   0.000000   0.000005   0.000000   0.000000   0.000000
     2  C    0.000004  -0.000011  -0.000396  -0.000178  -0.000008   0.000000
     3  H    0.000000   0.000000  -0.000011   0.000148   0.000000   0.000000
     4  H    0.000000   0.000001   0.000023   0.000000   0.000000   0.000000
     5  C   -0.000023  -0.000089   0.004051   0.008197   0.000170  -0.000062
     6  O    0.000004  -0.000007   0.003544  -0.001694  -0.000378  -0.000014
     7  N    0.003779   0.000011  -0.063490  -0.001037   0.003131   0.000129
     8  H   -0.000010   0.001239   0.000906   0.000362  -0.000078  -0.000002
     9  C   -0.032634  -0.030876   0.289427  -0.090060  -0.125020   0.002769
    10  H   -0.002392  -0.006866  -0.046448   0.002175   0.003961   0.002388
    11  C    0.371785   0.367350  -0.042666  -0.002424  -0.001154   0.000268
    12  H   -0.025265  -0.032022  -0.005095   0.002329   0.000247  -0.000018
    13  H    0.551627  -0.023945  -0.003489  -0.000063   0.005029   0.002317
    14  H   -0.023945   0.557995   0.004984  -0.000095   0.000051  -0.000140
    15  C   -0.003489   0.004984   4.402510   0.609211   0.254956  -0.022768
    16  O   -0.000063  -0.000095   0.609211   8.086394  -0.100314   0.003732
    17  N    0.005029   0.000051   0.254956  -0.100314   7.100607   0.303252
    18  H    0.002317  -0.000140  -0.022768   0.003732   0.303252   0.417141
    19  C   -0.000155   0.000009  -0.025581  -0.010092   0.268781  -0.033185
    20  H   -0.000001   0.000001  -0.000774   0.022463  -0.037202   0.003891
    21  H    0.000009   0.000000   0.001443   0.000597  -0.043765  -0.001001
    22  H   -0.000027  -0.000002   0.001805   0.000602  -0.045148  -0.000562
             19         20         21         22
     1  H    0.000000   0.000000   0.000000   0.000000
     2  C    0.000000   0.000000   0.000000   0.000000
     3  H    0.000000   0.000000   0.000000   0.000000
     4  H    0.000000   0.000000   0.000000   0.000000
     5  C   -0.000008  -0.000009   0.000002   0.000000
     6  O    0.000002   0.000000   0.000000   0.000000
     7  N   -0.000123  -0.000005   0.000003   0.000001
     8  H    0.000003   0.000000   0.000000   0.000000
     9  C    0.006170   0.001329  -0.000150  -0.000064
    10  H   -0.000374  -0.000051   0.000009  -0.000004
    11  C   -0.000129  -0.000047  -0.000008   0.000034
    12  H   -0.000034  -0.000013   0.000000   0.000000
    13  H   -0.000155  -0.000001   0.000009  -0.000027
    14  H    0.000009   0.000001   0.000000  -0.000002
    15  C   -0.025581  -0.000774   0.001443   0.001805
    16  O   -0.010092   0.022463   0.000597   0.000602
    17  N    0.268781  -0.037202  -0.043765  -0.045148
    18  H   -0.033185   0.003891  -0.001001  -0.000562
    19  C    4.963948   0.376143   0.383584   0.381340
    20  H    0.376143   0.470546  -0.023228  -0.024726
    21  H    0.383584  -0.023228   0.560044  -0.039461
    22  H    0.381340  -0.024726  -0.039461   0.573391
 Mulliken atomic charges:
              1
     1  H    0.187632
     2  C   -0.544563
     3  H    0.171218
     4  H    0.155510
     5  C    0.601160
     6  O   -0.521032
     7  N   -0.564029
     8  H    0.323667
     9  C   -0.040264
    10  H    0.167387
    11  C   -0.476771
    12  H    0.165756
    13  H    0.153451
    14  H    0.162411
    15  C    0.637854
    16  O   -0.530256
    17  N   -0.587119
    18  H    0.321863
    19  C   -0.310296
    20  H    0.211683
    21  H    0.161921
    22  H    0.152820
 Sum of Mulliken atomic charges =   0.00000
 Mulliken charges with hydrogens summed into heavy atoms:
              1
     2  C   -0.030204
     5  C    0.601160
     6  O   -0.521032
     7  N   -0.240362
     9  C    0.127122
    11  C    0.004847
    15  C    0.637854
    16  O   -0.530256
    17  N   -0.265256
    19  C    0.216128
 Sum of Mulliken charges with hydrogens summed into heavy atoms =   0.00000
 APT atomic charges:
              1
     1  H    0.634653
     2  C   -1.246984
     3  H    0.325879
     4  H    0.475383
     5  C    0.122329
     6  O   -0.315563
     7  N   -0.735126
     8  H    0.630079
     9  C   -0.341769
    10  H    0.377327
    11  C   -1.248179
    12  H    0.357709
    13  H    0.434528
    14  H    0.480866
    15  C    0.075443
    16  O   -0.314519
    17  N   -0.457297
    18  H    0.595910
    19  C   -1.340316
    20  H    0.353543
    21  H    0.525130
    22  H    0.610975
 Sum of APT charges=   0.00000
 APT Atomic charges with hydrogens summed into heavy atoms:
              1
     1  H    0.000000
     2  C    0.188931
     3  H    0.000000
     4  H    0.000000
     5  C    0.122329
     6  O   -0.315563
     7  N   -0.105047
     8  H    0.000000
     9  C    0.035558
    10  H    0.000000
    11  C    0.024924
    12  H    0.000000
    13  H    0.000000
    14  H    0.000000
    15  C    0.075443
    16  O   -0.314519
    17  N    0.138613
    18  H    0.000000
    19  C    0.149332
    20  H    0.000000
    21  H    0.000000
    22  H    0.000000
 Sum of APT charges=   0.00000
 Electronic spatial extent (au):  <R**2>=           1778.5777
 Charge=              0.0000 electrons
 Dipole moment (field-independent basis, Debye):
    X=              1.6241    Y=              4.3282    Z=             -0.3256  Tot=              4.6344
 Quadrupole moment (field-independent basis, Debye-Ang):
   XX=            -47.4985   YY=            -59.9578   ZZ=            -62.5480
   XY=             -3.4565   XZ=             -8.3099   YZ=             -0.9845
 Traceless Quadrupole moment (field-independent basis, Debye-Ang):
   XX=              9.1696   YY=             -3.2897   ZZ=             -5.8799
   XY=             -3.4565   XZ=             -8.3099   YZ=             -0.9845
 Octapole moment (field-independent basis, Debye-Ang**2):
  XXX=             11.3416  YYY=              0.1384  ZZZ=             -2.0465  XYY=              3.5318
  XXY=             -2.9317  XXZ=              1.1560  XZZ=              4.7374  YZZ=              6.7465
  YYZ=              3.6578  XYZ=              1.8154
 Hexadecapole moment (field-independent basis, Debye-Ang**3):
 XXXX=          -1475.2798 YYYY=           -510.2433 ZZZZ=           -199.8709 XXXY=            -11.3380
 XXXZ=            -15.4521 YYYX=            -13.1561 YYYZ=             -1.2738 ZZZX=            -12.3538
 ZZZY=              0.2551 XXYY=           -335.8420 XXZZ=           -296.0307 YYZZ=           -119.0761
 XXYZ=             -8.6405 YYXZ=             -8.8497 ZZXY=             -4.0608
 N-N= 5.605963541017D+02 E-N=-2.277784397433D+03  KE= 4.914993673484D+02
  Exact polarizability:   0.000   0.000   0.000   0.000   0.000   0.000
 Approx polarizability: 112.639   2.498 108.783 -14.967   3.410 111.563
 Calling FoFJK, ICntrl=    100147 FMM=F ISym2X=0 I1Cent= 0 IOpClX= 0 NMat=1 NMatS=1 NMatT=0.
 ***** Axes restored to original set *****
 -------------------------------------------------------------------
 Center     Atomic                   Forces (Hartrees/Bohr)
 Number     Number              X              Y              Z
 -------------------------------------------------------------------
      1        1           0.003307369    0.001875318    0.000890826
      2        6           0.009149319    0.002562065   -0.005793113
      3        1          -0.004897317   -0.001208512   -0.003350547
      4        1          -0.003816227   -0.004984348   -0.002654784
      5        6          -0.023872113    0.002884311    0.037052405
      6        8           0.006215917    0.000165557   -0.002917308
      7        7           0.020270043   -0.005389439   -0.020886736
      8        1          -0.000933560    0.002161701   -0.000573157
      9        6           0.003616136   -0.001827115   -0.002429515
     10        1          -0.001315569   -0.002409465    0.005656853
     11        6          -0.003254652   -0.005910711    0.002625584
     12        1           0.000976557    0.001029456   -0.005175330
     13        1           0.002317142   -0.000822537   -0.003483832
     14        1           0.002761726   -0.003408985   -0.002990433
     15        6          -0.037309398    0.000662855    0.000623439
     16        8           0.002818917    0.000803931   -0.003112440
     17        7           0.016974407    0.008696705    0.003037292
     18        1          -0.000354832   -0.000273962    0.001677452
     19        6           0.004494956    0.000201567    0.000874907
     20        1          -0.000351829   -0.003593889    0.000003041
     21        1           0.000820338    0.004041603    0.002871218
     22        1           0.002382671    0.004743893   -0.001945822
 -------------------------------------------------------------------
 Cartesian Forces:  Max     0.037309398 RMS     0.008850896

 GradGradGradGradGradGradGradGradGradGradGradGradGradGradGradGradGradGrad
 Berny optimization.
 Internal  Forces:  Max     0.028384059 RMS     0.005532497
 Search for a local minimum.
 Step number   1 out of a maximum of  132
 All quantities printed in internal units (Hartrees-Bohrs-Radians)
 Mixed Optimization -- RFO/linear search
 Second derivative matrix not updated -- analytic derivatives used.
     Eigenvalues ---   -0.00066  -0.00031   0.00011   0.00292   0.00331
     Eigenvalues ---    0.01300   0.01841   0.02041   0.03894   0.04270
     Eigenvalues ---    0.04672   0.04929   0.05074   0.05487   0.05827
     Eigenvalues ---    0.05987   0.06411   0.06603   0.11969   0.12298
     Eigenvalues ---    0.12461   0.13067   0.13250   0.13351   0.13963
     Eigenvalues ---    0.14276   0.14834   0.16966   0.17808   0.18036
     Eigenvalues ---    0.18538   0.18665   0.21082   0.22149   0.24105
     Eigenvalues ---    0.24335   0.24619   0.30997   0.32154   0.34283
     Eigenvalues ---    0.34546   0.34655   0.35035   0.35061   0.35153
     Eigenvalues ---    0.35370   0.35572   0.35815   0.35903   0.36200
     Eigenvalues ---    0.38325   0.39549   0.46794   0.46852   0.52999
     Eigenvalues ---    0.54350   0.82484   0.828721000.000001000.00000
     Eigenvalues --- 1000.000001000.000001000.000001000.000001000.00000
     Eigenvalues --- 1000.000001000.000001000.000001000.000001000.00000
     Eigenvalues --- 1000.000001000.000001000.000001000.000001000.00000
     Eigenvalues --- 1000.000001000.000001000.000001000.000001000.00000
     Eigenvalues --- 1000.000001000.000001000.000001000.000001000.00000
     Eigenvalues --- 1000.000001000.000001000.000001000.000001000.00000
     Eigenvalues --- 1000.000001000.000001000.000001000.000001000.00000
     Eigenvalues --- 1000.000001000.000001000.00000
 RFO step:  Lambda=-1.03720518D-02 EMin=-6.55755639D-04
 Linear search not attempted -- first point.
 Maximum step size (   0.300) exceeded in Quadratic search.
    -- Step size scaled by   0.311
 Iteration  1 RMS(Cart)=  0.04874368 RMS(Int)=  0.00218122
 Iteration  2 RMS(Cart)=  0.00229750 RMS(Int)=  0.00005788
 Iteration  3 RMS(Cart)=  0.00000370 RMS(Int)=  0.00005782
 Iteration  4 RMS(Cart)=  0.00000000 RMS(Int)=  0.00005782
 Iteration  1 RMS(Cart)=  0.00000216 RMS(Int)=  0.00000092
 Iteration  2 RMS(Cart)=  0.00000131 RMS(Int)=  0.00000102
 Iteration  3 RMS(Cart)=  0.00000082 RMS(Int)=  0.00000117
 Variable       Old X    -DE/DX   Delta X   Delta X   Delta X     New X
                                 (Linear)    (Quad)   (Total)
    R1        2.05981  -0.00087   0.00000   0.00021   0.00021   2.06002
    R2        2.05971   0.00442   0.00000   0.00360   0.00360   2.06331
    R3        2.05988   0.00483   0.00000   0.00356   0.00356   2.06344
    R4        2.89139  -0.00151   0.00000  -0.00512  -0.00512   2.88627
    R5        2.32241  -0.00076   0.00000  -0.00232  -0.00232   2.32008
    R6        2.52283   0.02695   0.00000   0.01761   0.01761   2.54044
    R7        1.90868  -0.00011   0.00000  -0.00039  -0.00039   1.90828
    R8        2.73817  -0.00400   0.00000  -0.00268  -0.00268   2.73549
    R9        2.05975   0.00461   0.00000   0.00328   0.00328   2.06303
   R10        2.88188   0.01112   0.00000   0.00647   0.00647   2.88836
   R11        2.87618   0.01619   0.00000   0.01545   0.01545   2.89163
   R12        2.05972   0.00407   0.00000   0.00376   0.00376   2.06348
   R13        2.05984   0.00160   0.00000   0.00205   0.00205   2.06190
   R14        2.05966   0.00378   0.00000   0.00291   0.00291   2.06257
   R15        2.32246  -0.00143   0.00000  -0.00375  -0.00375   2.31871
   R16        2.52283   0.02838   0.00000   0.01591   0.01591   2.53874
   R17        1.90848   0.00019   0.00000   0.00008   0.00008   1.90856
   R18        2.73825   0.00541   0.00000   0.00185   0.00185   2.74010
   R19        2.05981  -0.00089   0.00000   0.00029   0.00029   2.06011
   R20        2.05982   0.00410   0.00000   0.00409   0.00409   2.06390
   R21        2.05984   0.00454   0.00000   0.00314   0.00314   2.06297
    A1        1.91121   0.00007   0.00000  -0.00327  -0.00329   1.90792
    A2        1.91105  -0.00019   0.00000   0.00083   0.00087   1.91192
    A3        1.93898  -0.00791   0.00000  -0.01212  -0.01212   1.92687
    A4        1.91021  -0.00488   0.00000  -0.00745  -0.00751   1.90270
    A5        1.89610   0.00589   0.00000   0.00255   0.00250   1.89860
    A6        1.89602   0.00707   0.00000   0.01958   0.01957   1.91559
    A7        2.10316   0.01111   0.00000   0.01405   0.01404   2.11720
    A8        2.03501  -0.00690   0.00000  -0.00788  -0.00788   2.02713
    A9        2.14502  -0.00421   0.00000  -0.00617  -0.00617   2.13884
   A10        2.09437   0.00149   0.00000   0.00138   0.00113   2.09550
   A11        2.12757  -0.00283   0.00000  -0.00491  -0.00516   2.12240
   A12        2.06124   0.00133   0.00000   0.00353   0.00328   2.06452
   A13        1.91114  -0.00118   0.00000  -0.00849  -0.00849   1.90265
   A14        1.93905  -0.00377   0.00000  -0.00590  -0.00589   1.93316
   A15        1.93900  -0.00184   0.00000  -0.00334  -0.00332   1.93568
   A16        1.89609   0.00119   0.00000   0.00603   0.00598   1.90207
   A17        1.89608  -0.00103   0.00000   0.00100   0.00091   1.89699
   A18        1.88137   0.00684   0.00000   0.01133   0.01130   1.89267
   A19        1.91115   0.00309   0.00000   0.00541   0.00539   1.91654
   A20        1.91106   0.00407   0.00000   0.00782   0.00780   1.91886
   A21        1.91110   0.00407   0.00000   0.00532   0.00530   1.91639
   A22        1.91011  -0.00412   0.00000  -0.00947  -0.00949   1.90062
   A23        1.91023  -0.00312   0.00000  -0.00384  -0.00386   1.90637
   A24        1.91015  -0.00401   0.00000  -0.00525  -0.00528   1.90487
   A25        2.10312   0.00586   0.00000   0.00851   0.00847   2.11158
   A26        2.03503  -0.00831   0.00000  -0.01263  -0.01267   2.02235
   A27        2.14504   0.00245   0.00000   0.00412   0.00407   2.14911
   A28        2.09446  -0.00260   0.00000  -0.00658  -0.00673   2.08773
   A29        2.12749   0.00488   0.00000   0.00457   0.00442   2.13192
   A30        2.06124  -0.00229   0.00000   0.00201   0.00186   2.06310
   A31        1.91122  -0.00708   0.00000  -0.01196  -0.01194   1.89927
   A32        1.91113   0.00450   0.00000   0.01161   0.01159   1.92272
   A33        1.91111   0.00544   0.00000   0.00571   0.00568   1.91680
   A34        1.91008   0.00013   0.00000  -0.00366  -0.00363   1.90646
   A35        1.91014   0.00010   0.00000   0.00117   0.00118   1.91132
   A36        1.91011  -0.00309   0.00000  -0.00288  -0.00294   1.90718
    D1       -0.00019   0.00042   0.00000  -0.08885  -0.08889  -0.08908
    D2       -3.14159  -0.00027   0.00000  -0.08311  -0.08313   3.05847
    D3        2.10322  -0.00058   0.00000  -0.09875  -0.09878   2.00444
    D4       -1.03818  -0.00127   0.00000  -0.09301  -0.09301  -1.13120
    D5       -2.10335   0.00098   0.00000  -0.09503  -0.09500  -2.19835
    D6        1.03844   0.00029   0.00000  -0.08929  -0.08924   0.94920
    D7       -0.00016   0.00000   0.00000   0.00714   0.00715   0.00699
    D8        3.14159  -0.00123   0.00000  -0.03566  -0.03562   3.10597
    D9       -3.14155  -0.00071   0.00000   0.01302   0.01299  -3.12857
   D10        0.00019  -0.00195   0.00000  -0.02978  -0.02978  -0.02959
   D11        0.78529  -0.00090   0.00000  -0.00639  -0.00639   0.77890
   D12        2.87973  -0.00257   0.00000  -0.00813  -0.00811   2.87162
   D13       -1.30910   0.00232   0.00000   0.00000   0.00000  -1.30910
   D14       -2.35615  -0.00211   0.00000  -0.04841  -0.04842  -2.40458
   D15       -0.26171  -0.00378   0.00000  -0.05015  -0.05015  -0.31186
   D16        1.83264   0.00110   0.00000  -0.04202  -0.04203   1.79061
   D17        1.04724   0.00151   0.00000   0.00629   0.00629   1.05353
   D18        3.14157   0.00086   0.00000   0.00279   0.00279  -3.13883
   D19       -1.04726   0.00094   0.00000   0.00441   0.00441  -1.04285
   D20       -3.13259  -0.00152   0.00000  -0.00398  -0.00400  -3.13659
   D21       -1.03826  -0.00217   0.00000  -0.00747  -0.00750  -1.04577
   D22        1.05609  -0.00209   0.00000  -0.00585  -0.00588   1.05021
   D23       -1.08102   0.00165   0.00000   0.00665   0.00668  -1.07434
   D24        1.01331   0.00099   0.00000   0.00316   0.00318   1.01648
   D25        3.10766   0.00108   0.00000   0.00478   0.00480   3.11246
   D26       -0.26182  -0.00305   0.00000  -0.01699  -0.01700  -0.27883
   D27        2.87976  -0.00148   0.00000   0.00000   0.00000   2.87976
   D28       -2.36514   0.00022   0.00000  -0.00506  -0.00507  -2.37021
   D29        0.77644   0.00179   0.00000   0.01193   0.01194   0.78838
   D30        1.86647  -0.00438   0.00000  -0.01895  -0.01896   1.84750
   D31       -1.27514  -0.00281   0.00000  -0.00196  -0.00196  -1.27709
   D32        0.00006  -0.00177   0.00000  -0.03701  -0.03695  -0.03689
   D33        3.14157  -0.00116   0.00000  -0.00449  -0.00452   3.13705
   D34       -3.14154  -0.00016   0.00000  -0.01957  -0.01954   3.12211
   D35       -0.00004   0.00045   0.00000   0.01295   0.01289   0.01285
   D36        0.00005  -0.00011   0.00000  -0.07708  -0.07710  -0.07706
   D37        2.09443  -0.00154   0.00000  -0.08178  -0.08185   2.01258
   D38       -2.09440   0.00077   0.00000  -0.07468  -0.07469  -2.16908
   D39        3.14155   0.00049   0.00000  -0.04515  -0.04511   3.09644
   D40       -1.04725  -0.00093   0.00000  -0.04985  -0.04986  -1.09710
   D41        1.04711   0.00137   0.00000  -0.04275  -0.04269   1.00442
         Item               Value     Threshold  Converged?
 Maximum Force            0.028384     0.000450     NO 
 RMS     Force            0.005575     0.000300     NO 
 Maximum Displacement     0.193975     0.001800     NO 
 RMS     Displacement     0.048927     0.001200     NO 
 Predicted change in Energy=-2.917334D-03
 GradGradGradGradGradGradGradGradGradGradGradGradGradGradGradGradGradGrad

                          Input orientation:                          
 ---------------------------------------------------------------------
 Center     Atomic      Atomic             Coordinates (Angstroms)
 Number     Number       Type             X           Y           Z
 ---------------------------------------------------------------------
      1          1           0        0.947425    3.155189    1.927996
      2          6           0        1.447635    3.220448    0.961622
      3          1           0        0.833508    3.807750    0.275997
      4          1           0        1.580215    2.217621    0.550453
      5          6           0        2.806752    3.901206    1.110495
      6          8           0        3.168794    4.375008    2.183702
      7          7           0        3.567511    3.953588    0.003357
      8          1           0        3.227705    3.561447   -0.862954
      9          6           0        4.857743    4.609879   -0.000157
     10          1           0        5.407344    4.318688    0.897046
     11          6           0        5.667523    4.206366   -1.232066
     12          1           0        5.131803    4.496294   -2.138316
     13          1           0        6.637483    4.705911   -1.219839
     14          1           0        5.821479    3.125822   -1.235679
     15          6           0        4.696348    6.131525   -0.004070
     16          8           0        3.623680    6.652230   -0.293560
     17          7           0        5.796011    6.838483    0.305430
     18          1           0        6.647447    6.354567    0.552236
     19          6           0        5.797770    8.288134    0.337146
     20          1           0        4.824865    8.648412    0.002323
     21          1           0        5.982155    8.642239    1.353733
     22          1           0        6.576304    8.671995   -0.324895
 ---------------------------------------------------------------------
                    Distance matrix (angstroms):
                    1          2          3          4          5
     1  H    0.000000
     2  C    1.090114   0.000000
     3  H    1.779864   1.091859   0.000000
     4  H    1.782437   1.091925   1.778035   0.000000
     5  C    2.163782   1.527349   2.144484   2.156966   0.000000
     6  O    2.547121   2.406008   3.068334   3.137739   1.227736
     7  N    3.347616   2.439189   2.751431   2.694855   1.344341
     8  H    3.626862   2.571771   2.662715   2.553000   2.046249
     9  C    4.596139   3.805835   4.112680   4.094907   2.437689
    10  H    4.723079   4.109696   4.644000   4.379672   2.642524
    11  C    5.776703   4.857135   5.079453   4.882476   3.710084
    12  H    5.986859   4.981013   4.977784   5.003559   4.039153
    13  H    6.685086   5.822362   6.060556   5.907747   4.555492
    14  H    5.810861   4.895671   5.256428   4.690780   3.897990
    15  C    5.161965   4.467781   4.516624   5.033530   3.128441
    16  O    4.932236   4.252973   4.024987   4.955186   3.194820
    17  N    6.301442   5.694659   5.814864   6.259820   4.267481
    18  H    6.679745   6.085092   6.353303   6.541496   4.591467
    19  C    7.239045   6.707837   6.687411   7.394890   5.365574
    20  H    6.994159   6.464420   6.279954   7.223799   5.276057
    21  H    7.469003   7.078943   7.144393   7.829307   5.711369
    22  H    8.197253   7.594586   7.549944   8.208903   6.247422
                    6          7          8          9         10
     6  O    0.000000
     7  N    2.256208   0.000000
     8  H    3.153960   1.009820   0.000000
     9  C    2.770732   1.447560   2.121474   0.000000
    10  H    2.582589   2.077731   2.902041   1.091708   0.000000
    11  C    4.235512   2.449534   2.550466   1.528452   2.147889
    12  H    4.748468   2.707083   2.475091   2.158642   3.053013
    13  H    4.870872   3.389237   3.614381   2.159704   2.478787
    14  H    4.504372   2.701995   2.656380   2.158176   2.478498
    15  C    3.194545   2.453107   3.082190   1.530186   2.145670
    16  O    3.395510   2.715508   3.167641   2.404203   3.169293
    17  N    4.061882   3.657879   4.324383   2.437295   2.617334
    18  H    4.322195   3.943599   4.636692   2.559709   2.408641
    19  C    5.062987   4.886078   5.512444   3.811427   4.027706
    20  H    5.075723   4.860279   5.401559   4.038667   4.459408
    21  H    5.178138   5.444030   6.189923   4.399687   4.385437
    22  H    6.030612   5.605707   6.133541   4.422634   4.670213
                   11         12         13         14         15
    11  C    0.000000
    12  H    1.091944   0.000000
    13  H    1.091108   1.776122   0.000000
    14  H    1.091462   1.780056   1.778424   0.000000
    15  C    2.481409   2.723712   2.697865   3.437590   0.000000
    16  O    3.322700   3.213350   3.705288   4.260687   1.227010
    17  N    3.050975   3.449481   2.753614   4.019890   1.343443
    18  H    2.959519   3.604084   2.420416   3.782017   2.041081
    19  C    4.374953   4.577059   3.995202   5.396647   2.445510
    20  H    4.686743   4.681520   4.508058   5.746728   2.520174
    21  H    5.144154   5.486926   4.748411   6.096041   3.130593
    22  H    4.646577   4.776144   4.066262   5.670918   3.176658
                   16         17         18         19         20
    16  O    0.000000
    17  N    2.261084   0.000000
    18  H    3.153909   1.009966   0.000000
    19  C    2.792962   1.449998   2.122945   0.000000
    20  H    2.348432   2.076256   2.980929   1.090161   0.000000
    21  H    3.498015   2.094545   2.513654   1.092171   1.779232
    22  H    3.577488   2.089960   2.478889   1.091679   1.781900
                   21         22
    21  H    0.000000
    22  H    1.780924   0.000000
 Stoichiometry    C6H12N2O2
 Framework group  C1[X(C6H12N2O2)]
 Deg. of freedom    60
 Full point group                 C1      NOp   1
 Largest Abelian subgroup         C1      NOp   1
 Largest concise Abelian subgroup C1      NOp   1
                         Standard orientation:                         
 ---------------------------------------------------------------------
 Center     Atomic      Atomic             Coordinates (Angstroms)
 Number     Number       Type             X           Y           Z
 ---------------------------------------------------------------------
      1          1           0       -3.930834   -1.353342   -0.035712
      2          6           0       -3.371576   -0.543601    0.433221
      3          1           0       -3.211831   -0.778284    1.487527
      4          1           0       -3.940891    0.385099    0.357740
      5          6           0       -2.013195   -0.372893   -0.243871
      6          8           0       -1.634538   -1.146930   -1.118413
      7          7           0       -1.266211    0.661628    0.179251
      8          1           0       -1.610041    1.268668    0.909332
      9          6           0        0.058336    0.907634   -0.350360
     10          1           0        0.032890    0.799435   -1.436395
     11          6           0        0.527282    2.320129   -0.002346
     12          1           0        0.562602    2.441613    1.082244
     13          1           0        1.524713    2.492095   -0.409870
     14          1           0       -0.162821    3.053190   -0.423855
     15          6           0        1.068083   -0.091549    0.218424
     16          8           0        0.803729   -0.760015    1.212820
     17          7           0        2.245417   -0.165491   -0.424427
     18          1           0        2.400288    0.397282   -1.248644
     19          6           0        3.302255   -1.062137    0.001735
     20          1           0        2.994256   -1.555703    0.923679
     21          1           0        3.487956   -1.816794   -0.765628
     22          1           0        4.218630   -0.496158    0.179743
 ---------------------------------------------------------------------
 Rotational constants (GHZ):      2.2576942      0.7991460      0.6886372
 Standard basis: 6-31G(d) (6D, 7F)
 There are   174 symmetry adapted basis functions of A   symmetry.
 Integral buffers will be    131072 words long.
 Raffenetti 2 integral format.
 Two-electron integral symmetry is turned on.
   174 basis functions,   328 primitive gaussians,   174 cartesian basis functions
    39 alpha electrons       39 beta electrons
       nuclear repulsion energy       559.4859900701 Hartrees.
 NAtoms=   22 NActive=   22 NUniq=   22 SFac= 7.50D-01 NAtFMM=   80 NAOKFM=F Big=F
 One-electron integrals computed using PRISM.
 NBasis=   174 RedAO= T  NBF=   174
 NBsUse=   174 1.00D-06 NBFU=   174
 Initial guess read from the read-write file.
 B after Tr=     0.000000    0.000000    0.000000
         Rot=    1.000000    0.000000    0.000000    0.000000 Ang=   0.00 deg.
 Initial guess orbital symmetries:
       Occupied  (A) (A) (A) (A) (A) (A) (A) (A) (A) (A) (A) (A)
                 (A) (A) (A) (A) (A) (A) (A) (A) (A) (A) (A) (A)
                 (A) (A) (A) (A) (A) (A) (A) (A) (A) (A) (A) (A)
                 (A) (A) (A)
       Virtual   (A) (A) (A) (A) (A) (A) (A) (A) (A) (A) (A) (A)
                 (A) (A) (A) (A) (A) (A) (A) (A) (A) (A) (A) (A)
                 (A) (A) (A) (A) (A) (A) (A) (A) (A) (A) (A) (A)
                 (A) (A) (A) (A) (A) (A) (A) (A) (A) (A) (A) (A)
                 (A) (A) (A) (A) (A) (A) (A) (A) (A) (A) (A) (A)
                 (A) (A) (A) (A) (A) (A) (A) (A) (A) (A) (A) (A)
                 (A) (A) (A) (A) (A) (A) (A) (A) (A) (A) (A) (A)
                 (A) (A) (A) (A) (A) (A) (A) (A) (A) (A) (A) (A)
                 (A) (A) (A) (A) (A) (A) (A) (A) (A) (A) (A) (A)
                 (A) (A) (A) (A) (A) (A) (A) (A) (A) (A) (A) (A)
                 (A) (A) (A) (A) (A) (A) (A) (A) (A) (A) (A) (A)
                 (A) (A) (A)
 Harris functional with IExCor=  402 diagonalized for initial guess.
 ExpMin= 1.61D-01 ExpMax= 5.48D+03 ExpMxC= 8.25D+02 IAcc=1 IRadAn=         1 AccDes= 0.00D+00
 HarFok:  IExCor=  402 AccDes= 0.00D+00 IRadAn=         1 IDoV= 1
 ScaDFX=  1.000000  1.000000  1.000000  1.000000
 FoFCou: FMM=F IPFlag=           0 FMFlag=      100000 FMFlg1=           0
         NFxFlg=           0 DoJE=T BraDBF=F KetDBF=T FulRan=T
         Omega=  0.000000  0.000000  1.000000  0.000000  0.000000 ICntrl=     500 IOpCl=  0
         NMat0=    1 NMatS0=    1 NMatT0=    0 NMatD0=    1 NMtDS0=    0 NMtDT0=    0
         I1Cent=           4 NGrid=           0.
 Petite list used in FoFCou.
 Requested convergence on RMS density matrix=1.00D-08 within 128 cycles.
 Requested convergence on MAX density matrix=1.00D-06.
 Requested convergence on             energy=1.00D-06.
 No special actions if energy rises.
 Integral accuracy reduced to 1.0D-05 until final iterations.
 Initial convergence to 1.0D-05 achieved.  Increase integral accuracy.
 SCF Done:  E(RB3LYP) =  -495.842260127     A.U. after   12 cycles
             Convg  =    0.7364D-08             -V/T =  2.0090
 Calling FoFJK, ICntrl=      2127 FMM=F ISym2X=0 I1Cent= 0 IOpClX= 0 NMat=1 NMatS=1 NMatT=0.
 ***** Axes restored to original set *****
 -------------------------------------------------------------------
 Center     Atomic                   Forces (Hartrees/Bohr)
 Number     Number              X              Y              Z
 -------------------------------------------------------------------
      1        1           0.002354979    0.001159256    0.000653784
      2        6           0.006678518    0.001745294   -0.004191408
      3        1          -0.003656366   -0.000570622   -0.002164794
      4        1          -0.002893292   -0.003179719   -0.002071547
      5        6          -0.016697838    0.001933855    0.026266992
      6        8           0.004304506    0.000028012   -0.002092359
      7        7           0.014982507   -0.005156531   -0.013779074
      8        1          -0.001096860    0.002281591   -0.000519110
      9        6           0.002857842   -0.000753786   -0.002843384
     10        1          -0.001163658   -0.001562661    0.004121090
     11        6          -0.002356001   -0.004344743    0.002076073
     12        1           0.000754404    0.000712064   -0.003659301
     13        1           0.001616900   -0.000628303   -0.002508419
     14        1           0.001947546   -0.002382250   -0.002129279
     15        6          -0.026431712    0.000355664    0.000159322
     16        8           0.002058333    0.000630231   -0.002307998
     17        7           0.012088635    0.006185319    0.001809124
     18        1          -0.000392273   -0.000202191    0.001524318
     19        6           0.003211663   -0.000011579    0.000886543
     20        1          -0.000245260   -0.002470809   -0.000004512
     21        1           0.000359867    0.002892941    0.002017000
     22        1           0.001717561    0.003338968   -0.001243061
 -------------------------------------------------------------------
 Cartesian Forces:  Max     0.026431712 RMS     0.006282769

 GradGradGradGradGradGradGradGradGradGradGradGradGradGradGradGradGradGrad
 Berny optimization.
 Using GEDIIS/GDIIS optimizer.
 Internal  Forces:  Max     0.019969210 RMS     0.003914767
 Search for a local minimum.
 Step number   2 out of a maximum of  132
 All quantities printed in internal units (Hartrees-Bohrs-Radians)
 Mixed Optimization -- RFO/linear search
 Update second derivatives using D2CorX and points    1    2
 DE= -2.92D-03 DEPred=-2.92D-03 R= 9.99D-01
 SS=  1.41D+00  RLast= 3.00D-01 DXNew= 5.0454D-01 9.0000D-01
 Trust test= 9.99D-01 RLast= 3.00D-01 DXMaxT set to 5.05D-01
 Use linear search instead of GDIIS.
 Linear search step of   0.594 exceeds DXMaxT=   0.505 but not scaled.
 Quartic linear search produced a step of  2.00000.
 Iteration  1 RMS(Cart)=  0.09680784 RMS(Int)=  0.00856202
 Iteration  2 RMS(Cart)=  0.00912790 RMS(Int)=  0.00035122
 Iteration  3 RMS(Cart)=  0.00006580 RMS(Int)=  0.00034771
 Iteration  4 RMS(Cart)=  0.00000001 RMS(Int)=  0.00034771
 Iteration  1 RMS(Cart)=  0.00001737 RMS(Int)=  0.00000586
 Iteration  2 RMS(Cart)=  0.00000986 RMS(Int)=  0.00000650
 Iteration  3 RMS(Cart)=  0.00000575 RMS(Int)=  0.00000742
 Iteration  4 RMS(Cart)=  0.00000345 RMS(Int)=  0.00000814
 Iteration  5 RMS(Cart)=  0.00000213 RMS(Int)=  0.00000864
 Iteration  6 RMS(Cart)=  0.00000135 RMS(Int)=  0.00000897
 Iteration  7 RMS(Cart)=  0.00000087 RMS(Int)=  0.00000920
 Variable       Old X    -DE/DX   Delta X   Delta X   Delta X     New X
                                 (Linear)    (Quad)   (Total)
    R1        2.06002  -0.00057   0.00042   0.00000   0.00042   2.06044
    R2        2.06331   0.00311   0.00720   0.00000   0.00720   2.07052
    R3        2.06344   0.00335   0.00712   0.00000   0.00712   2.07056
    R4        2.88627  -0.00108  -0.01025   0.00000  -0.01025   2.87602
    R5        2.32008  -0.00055  -0.00465   0.00000  -0.00465   2.31544
    R6        2.54044   0.01908   0.03521   0.00000   0.03521   2.57565
    R7        1.90828  -0.00007  -0.00079   0.00000  -0.00079   1.90750
    R8        2.73549  -0.00275  -0.00536   0.00000  -0.00536   2.73013
    R9        2.06303   0.00322   0.00657   0.00000   0.00657   2.06960
   R10        2.88836   0.00781   0.01294   0.00000   0.01294   2.90130
   R11        2.89163   0.01146   0.03091   0.00000   0.03091   2.92254
   R12        2.06348   0.00286   0.00751   0.00000   0.00751   2.07099
   R13        2.06190   0.00112   0.00410   0.00000   0.00410   2.06600
   R14        2.06257   0.00264   0.00581   0.00000   0.00581   2.06838
   R15        2.31871  -0.00099  -0.00750   0.00000  -0.00750   2.31121
   R16        2.53874   0.01997   0.03181   0.00000   0.03181   2.57055
   R17        1.90856   0.00014   0.00017   0.00000   0.00017   1.90873
   R18        2.74010   0.00379   0.00369   0.00000   0.00369   2.74379
   R19        2.06011  -0.00059   0.00059   0.00000   0.00059   2.06069
   R20        2.06390   0.00287   0.00818   0.00000   0.00818   2.07208
   R21        2.06297   0.00315   0.00628   0.00000   0.00628   2.06925
    A1        1.90792  -0.00001  -0.00658   0.00000  -0.00673   1.90119
    A2        1.91192  -0.00012   0.00174   0.00000   0.00197   1.91389
    A3        1.92687  -0.00551  -0.02423   0.00000  -0.02417   1.90269
    A4        1.90270  -0.00349  -0.01502   0.00000  -0.01537   1.88733
    A5        1.89860   0.00419   0.00501   0.00000   0.00475   1.90335
    A6        1.91559   0.00495   0.03914   0.00000   0.03909   1.95468
    A7        2.11720   0.00773   0.02808   0.00000   0.02805   2.14525
    A8        2.02713  -0.00482  -0.01577   0.00000  -0.01580   2.01133
    A9        2.13884  -0.00291  -0.01234   0.00000  -0.01237   2.12647
   A10        2.09550   0.00098   0.00226   0.00000   0.00072   2.09623
   A11        2.12240  -0.00194  -0.01033   0.00000  -0.01187   2.11053
   A12        2.06452   0.00092   0.00655   0.00000   0.00499   2.06951
   A13        1.90265  -0.00113  -0.01698   0.00000  -0.01698   1.88567
   A14        1.93316  -0.00237  -0.01177   0.00000  -0.01165   1.92151
   A15        1.93568  -0.00141  -0.00664   0.00000  -0.00654   1.92914
   A16        1.90207   0.00086   0.01195   0.00000   0.01161   1.91368
   A17        1.89699  -0.00080   0.00183   0.00000   0.00133   1.89832
   A18        1.89267   0.00492   0.02260   0.00000   0.02244   1.91512
   A19        1.91654   0.00218   0.01078   0.00000   0.01069   1.92723
   A20        1.91886   0.00289   0.01559   0.00000   0.01547   1.93433
   A21        1.91639   0.00286   0.01059   0.00000   0.01045   1.92685
   A22        1.90062  -0.00296  -0.01897   0.00000  -0.01904   1.88158
   A23        1.90637  -0.00223  -0.00771   0.00000  -0.00783   1.89855
   A24        1.90487  -0.00286  -0.01056   0.00000  -0.01072   1.89416
   A25        2.11158   0.00416   0.01693   0.00000   0.01666   2.12824
   A26        2.02235  -0.00584  -0.02535   0.00000  -0.02562   1.99674
   A27        2.14911   0.00167   0.00815   0.00000   0.00788   2.15700
   A28        2.08773  -0.00185  -0.01345   0.00000  -0.01429   2.07344
   A29        2.13192   0.00340   0.00885   0.00000   0.00798   2.13990
   A30        2.06310  -0.00157   0.00373   0.00000   0.00283   2.06593
   A31        1.89927  -0.00491  -0.02388   0.00000  -0.02375   1.87552
   A32        1.92272   0.00318   0.02318   0.00000   0.02308   1.94581
   A33        1.91680   0.00381   0.01137   0.00000   0.01121   1.92800
   A34        1.90646   0.00006  -0.00725   0.00000  -0.00706   1.89940
   A35        1.91132   0.00004   0.00237   0.00000   0.00243   1.91375
   A36        1.90718  -0.00221  -0.00587   0.00000  -0.00623   1.90095
    D1       -0.08908   0.00023  -0.17777   0.00000  -0.17801  -0.26709
    D2        3.05847  -0.00030  -0.16625   0.00000  -0.16631   2.89215
    D3        2.00444  -0.00050  -0.19755   0.00000  -0.19772   1.80672
    D4       -1.13120  -0.00103  -0.18603   0.00000  -0.18602  -1.31722
    D5       -2.19835   0.00070  -0.19000   0.00000  -0.18986  -2.38821
    D6        0.94920   0.00017  -0.17848   0.00000  -0.17816   0.77104
    D7        0.00699   0.00020   0.01430   0.00000   0.01431   0.02130
    D8        3.10597  -0.00107  -0.07124   0.00000  -0.07098   3.03498
    D9       -3.12857  -0.00037   0.02597   0.00000   0.02572  -3.10285
   D10       -0.02959  -0.00164  -0.05956   0.00000  -0.05957  -0.08916
   D11        0.77890  -0.00076  -0.01278   0.00000  -0.01282   0.76608
   D12        2.87162  -0.00187  -0.01623   0.00000  -0.01615   2.85547
   D13       -1.30910   0.00181   0.00000   0.00000   0.00000  -1.30910
   D14       -2.40458  -0.00200  -0.09685   0.00000  -0.09693  -2.50150
   D15       -0.31186  -0.00311  -0.10029   0.00000  -0.10025  -0.41211
   D16        1.79061   0.00057  -0.08406   0.00000  -0.08410   1.70651
   D17        1.05353   0.00117   0.01258   0.00000   0.01261   1.06614
   D18       -3.13883   0.00069   0.00557   0.00000   0.00557  -3.13326
   D19       -1.04285   0.00076   0.00883   0.00000   0.00885  -1.03400
   D20       -3.13659  -0.00114  -0.00800   0.00000  -0.00815   3.13844
   D21       -1.04577  -0.00162  -0.01501   0.00000  -0.01519  -1.06096
   D22        1.05021  -0.00154  -0.01176   0.00000  -0.01190   1.03831
   D23       -1.07434   0.00119   0.01336   0.00000   0.01352  -1.06082
   D24        1.01648   0.00071   0.00635   0.00000   0.00648   1.02296
   D25        3.11246   0.00078   0.00961   0.00000   0.00976   3.12223
   D26       -0.27883  -0.00264  -0.03400   0.00000  -0.03407  -0.31290
   D27        2.87976  -0.00171   0.00001   0.00000   0.00000   2.87976
   D28       -2.37021   0.00012  -0.01013   0.00000  -0.01017  -2.38038
   D29        0.78838   0.00104   0.02388   0.00000   0.02390   0.81228
   D30        1.84750  -0.00324  -0.03792   0.00000  -0.03800   1.80950
   D31       -1.27709  -0.00231  -0.00392   0.00000  -0.00393  -1.28103
   D32       -0.03689  -0.00130  -0.07390   0.00000  -0.07351  -0.11039
   D33        3.13705  -0.00070  -0.00904   0.00000  -0.00923   3.12782
   D34        3.12211  -0.00038  -0.03908   0.00000  -0.03889   3.08322
   D35        0.01285   0.00022   0.02578   0.00000   0.02539   0.03825
   D36       -0.07706  -0.00017  -0.15420   0.00000  -0.15432  -0.23138
   D37        2.01258  -0.00121  -0.16369   0.00000  -0.16408   1.84850
   D38       -2.16908   0.00050  -0.14937   0.00000  -0.14937  -2.31846
   D39        3.09644   0.00043  -0.09022   0.00000  -0.09000   3.00644
   D40       -1.09710  -0.00062  -0.09971   0.00000  -0.09976  -1.19686
   D41        1.00442   0.00109  -0.08539   0.00000  -0.08505   0.91936
         Item               Value     Threshold  Converged?
 Maximum Force            0.019969     0.000450     NO 
 RMS     Force            0.003938     0.000300     NO 
 Maximum Displacement     0.358181     0.001800     NO 
 RMS     Displacement     0.097856     0.001200     NO 
 Predicted change in Energy=-3.296887D-03
 GradGradGradGradGradGradGradGradGradGradGradGradGradGradGradGradGradGrad

                          Input orientation:                          
 ---------------------------------------------------------------------
 Center     Atomic      Atomic             Coordinates (Angstroms)
 Number     Number       Type             X           Y           Z
 ---------------------------------------------------------------------
      1          1           0        1.042887    3.020682    1.952318
      2          6           0        1.454901    3.247045    0.968532
      3          1           0        0.799263    3.966509    0.465538
      4          1           0        1.487232    2.334117    0.363500
      5          6           0        2.834376    3.866853    1.139268
      6          8           0        3.239020    4.306392    2.209020
      7          7           0        3.591263    3.921299    0.007077
      8          1           0        3.219080    3.581647   -0.867573
      9          6           0        4.865843    4.601440   -0.001938
     10          1           0        5.404819    4.323952    0.910166
     11          6           0        5.680955    4.178067   -1.232182
     12          1           0        5.151162    4.447151   -2.153027
     13          1           0        6.652209    4.679785   -1.246475
     14          1           0        5.848309    3.096422   -1.225200
     15          6           0        4.662499    6.134517   -0.012760
     16          8           0        3.597529    6.643698   -0.332760
     17          7           0        5.775718    6.851344    0.299106
     18          1           0        6.602869    6.357844    0.603224
     19          6           0        5.789619    8.302989    0.325587
     20          1           0        4.877486    8.647870   -0.162469
     21          1           0        5.807697    8.685786    1.352936
     22          1           0        6.662765    8.687392   -0.211888
 ---------------------------------------------------------------------
                    Distance matrix (angstroms):
                    1          2          3          4          5
     1  H    0.000000
     2  C    1.090335   0.000000
     3  H    1.778892   1.095670   0.000000
     4  H    1.786941   1.095695   1.774378   0.000000
     5  C    2.141609   1.521927   2.146049   2.183091   0.000000
     6  O    2.557723   2.417458   3.017890   3.219405   1.225276
     7  N    3.330060   2.437838   2.829751   2.659535   1.362974
     8  H    3.605868   2.568184   2.789412   2.463974   2.063189
     9  C    4.575249   3.796145   4.142311   4.085254   2.443118
    10  H    4.670229   4.094506   4.640754   4.427840   2.620802
    11  C    5.743889   4.854840   5.172806   4.851150   3.718016
    12  H    5.980519   4.984650   5.101659   4.921606   4.067364
    13  H    6.667038   5.828465   6.139765   5.896707   4.574765
    14  H    5.761462   4.912960   5.395230   4.703622   3.907437
    15  C    5.163244   4.425958   4.455740   4.966581   3.132332
    16  O    4.987386   4.221548   3.954100   4.848775   3.234214
    17  N    6.309261   5.666441   5.754569   6.229012   4.273705
    18  H    6.623451   6.025951   6.278477   6.512878   4.549057
    19  C    7.285636   6.690719   6.612737   7.357948   5.392109
    20  H    7.130338   6.493239   6.240307   7.185675   5.359752
    21  H    7.426714   6.976711   6.938549   7.745263   5.666429
    22  H    8.269125   7.623163   7.558194   8.214701   6.302364
                    6          7          8          9         10
     6  O    0.000000
     7  N    2.262946   0.000000
     8  H    3.160866   1.009404   0.000000
     9  C    2.760786   1.444723   2.121586   0.000000
    10  H    2.525473   2.065595   2.913559   1.095185   0.000000
    11  C    4.221538   2.443052   2.559195   1.535302   2.164992
    12  H    4.764825   2.715853   2.476779   2.175407   3.076146
    13  H    4.871317   3.393535   3.624340   2.178558   2.516685
    14  H    4.479541   2.700590   2.697440   2.174095   2.502659
    15  C    3.210083   2.458917   3.054719   1.546542   2.163556
    16  O    3.471624   2.743535   3.131359   2.426702   3.192551
    17  N    4.069322   3.666372   4.311433   2.445520   2.626532
    18  H    4.254705   3.919427   4.617417   2.543312   2.380389
[...]
    13  H    6.667564   5.848972   6.194341   5.928384   4.574542
    14  H    5.764874   4.998762   5.578220   4.843901   3.901279
    15  C    5.104576   4.277381   4.233308   4.748468   3.105661
    16  O    4.907232   4.007555   3.668557   4.475763   3.217386
    17  N    6.256632   5.523193   5.486944   6.058361   4.244267
    18  H    6.537542   5.888354   6.016686   6.415957   4.475475
    19  C    7.184692   6.472049   6.228743   7.085703   5.338551
    20  H    7.028972   6.253796   5.847683   6.835090   5.322661
    21  H    7.277112   6.698743   6.442594   7.442593   5.567976
    22  H    8.190192   7.443124   7.231485   7.988178   6.269293
                    6          7          8          9         10
     6  O    0.000000
     7  N    2.283895   0.000000
     8  H    3.120477   1.014299   0.000000
     9  C    2.765839   1.452765   2.079464   0.000000
    10  H    2.417459   2.050068   2.935393   1.094009   0.000000
    11  C    4.190608   2.453446   2.697731   1.535682   2.171408
    12  H    4.796728   2.743368   2.564924   2.181001   3.084306
    13  H    4.835282   3.407033   3.715357   2.183863   2.529428
    14  H    4.377832   2.690241   3.003840   2.170124   2.508058
    15  C    3.312451   2.457641   2.738423   1.548110   2.166644
    16  O    3.651197   2.731414   2.646163   2.424647   3.189433
    17  N    4.149034   3.675252   4.058616   2.455463   2.654339
    18  H    4.210400   3.918587   4.475381   2.552141   2.388781
    19  C    5.193880   4.911915   5.168180   3.838176   4.057121
    20  H    5.358772   4.903361   4.966223   4.061054   4.502546
    21  H    5.206201   5.394504   5.767596   4.394657   4.398444
    22  H    6.146161   5.697856   5.921082   4.497436   4.714403
                   11         12         13         14         15
    11  C    0.000000
    12  H    1.096716   0.000000
    13  H    1.094411   1.767798   0.000000
    14  H    1.094084   1.777068   1.778680   0.000000
    15  C    2.540680   2.788905   2.798501   3.491867   0.000000
    16  O    3.364128   3.264599   3.785228   4.292365   1.225340
    17  N    3.107808   3.502477   2.855554   4.084935   1.364435
    18  H    3.063003   3.715536   2.603767   3.890742   2.043128
    19  C    4.456445   4.666874   4.125217   5.481317   2.470641
    20  H    4.709577   4.696176   4.559947   5.775556   2.535443
    21  H    5.227005   5.564145   4.918849   6.185378   3.098121
    22  H    4.802407   4.970068   4.252568   5.825923   3.267644
                   16         17         18         19         20
    16  O    0.000000
    17  N    2.283276   0.000000
    18  H    3.157264   1.010735   0.000000
    19  C    2.832340   1.453783   2.125002   0.000000
    20  H    2.394892   2.062609   2.970323   1.090560   0.000000
    21  H    3.437421   2.121397   2.540070   1.097292   1.777969
    22  H    3.703736   2.104302   2.499614   1.095212   1.784232
                   21         22
    21  H    0.000000
    22  H    1.784168   0.000000
 Stoichiometry    C6H12N2O2
 Framework group  C1[X(C6H12N2O2)]
 Deg. of freedom    60
 Full point group                 C1      NOp   1
 Largest Abelian subgroup         C1      NOp   1
 Largest concise Abelian subgroup C1      NOp   1
                         Standard orientation:                         
 ---------------------------------------------------------------------
 Center     Atomic      Atomic             Coordinates (Angstroms)
 Number     Number       Type             X           Y           Z
 ---------------------------------------------------------------------
      1          1           0        3.931886   -1.241761    0.087895
      2          6           0        3.177318   -0.782564   -0.553158
      3          1           0        2.817603   -1.539502   -1.260833
      4          1           0        3.626462    0.035331   -1.126171
      5          6           0        2.014656   -0.316065    0.305746
      6          8           0        1.759801   -0.802142    1.398358
      7          7           0        1.274180    0.722484   -0.231325
      8          1           0        1.339046    0.810611   -1.239704
      9          6           0       -0.059970    0.962146    0.291297
     10          1           0        0.013931    0.869882    1.378901
     11          6           0       -0.537320    2.371084   -0.089952
     12          1           0       -0.610995    2.475697   -1.179178
     13          1           0       -1.526256    2.580105    0.329631
     14          1           0        0.167759    3.120270    0.282340
     15          6           0       -1.036120   -0.115635   -0.239894
     16          8           0       -0.772304   -0.784484   -1.232112
     17          7           0       -2.225991   -0.186778    0.424055
     18          1           0       -2.303849    0.296106    1.308558
     19          6           0       -3.252322   -1.158570    0.083835
     20          1           0       -3.019441   -1.546752   -0.908336
     21          1           0       -3.271634   -1.995209    0.793562
     22          1           0       -4.239271   -0.684082    0.067010
 ---------------------------------------------------------------------
 Rotational constants (GHZ):      2.0827459      0.8076216      0.7060971

 **********************************************************************

            Population analysis using the SCF density.

 **********************************************************************

 Orbital symmetries:
       Occupied  (A) (A) (A) (A) (A) (A) (A) (A) (A) (A) (A) (A)
                 (A) (A) (A) (A) (A) (A) (A) (A) (A) (A) (A) (A)
                 (A) (A) (A) (A) (A) (A) (A) (A) (A) (A) (A) (A)
                 (A) (A) (A)
       Virtual   (A) (A) (A) (A) (A) (A) (A) (A) (A) (A) (A) (A)
                 (A) (A) (A) (A) (A) (A) (A) (A) (A) (A) (A) (A)
                 (A) (A) (A) (A) (A) (A) (A) (A) (A) (A) (A) (A)
                 (A) (A) (A) (A) (A) (A) (A) (A) (A) (A) (A) (A)
                 (A) (A) (A) (A) (A) (A) (A) (A) (A) (A) (A) (A)
                 (A) (A) (A) (A) (A) (A) (A) (A) (A) (A) (A) (A)
                 (A) (A) (A) (A) (A) (A) (A) (A) (A) (A) (A) (A)
                 (A) (A) (A) (A) (A) (A) (A) (A) (A) (A) (A) (A)
                 (A) (A) (A) (A) (A) (A) (A) (A) (A) (A) (A) (A)
                 (A) (A) (A) (A) (A) (A) (A) (A) (A) (A) (A) (A)
                 (A) (A) (A) (A) (A) (A) (A) (A) (A) (A) (A) (A)
                 (A) (A) (A)
 The electronic state is 1-A.
 Alpha  occ. eigenvalues --  -19.11383 -19.10753 -14.36515 -14.34959 -10.28446
 Alpha  occ. eigenvalues --  -10.28126 -10.23303 -10.21958 -10.19372 -10.18439
 Alpha  occ. eigenvalues --   -1.03541  -1.02326  -0.92243  -0.91642  -0.77908
 Alpha  occ. eigenvalues --   -0.72571  -0.70927  -0.64025  -0.58724  -0.57287
 Alpha  occ. eigenvalues --   -0.53287  -0.47761  -0.47363  -0.45668  -0.45121
 Alpha  occ. eigenvalues --   -0.43797  -0.42629  -0.41448  -0.40335  -0.39314
 Alpha  occ. eigenvalues --   -0.39150  -0.38004  -0.37538  -0.35285  -0.34782
 Alpha  occ. eigenvalues --   -0.26375  -0.25634  -0.25007  -0.23836
 Alpha virt. eigenvalues --    0.02499   0.03025   0.06862   0.08907   0.11951
 Alpha virt. eigenvalues --    0.12770   0.14258   0.15010   0.15543   0.15789
 Alpha virt. eigenvalues --    0.16603   0.16776   0.17726   0.18670   0.19414
 Alpha virt. eigenvalues --    0.22210   0.22759   0.24879   0.28357   0.32185
 Alpha virt. eigenvalues --    0.35652   0.37651   0.39585   0.49492   0.51358
 Alpha virt. eigenvalues --    0.52585   0.53280   0.54340   0.54808   0.55878
 Alpha virt. eigenvalues --    0.56873   0.60390   0.60779   0.62878   0.66068
 Alpha virt. eigenvalues --    0.68725   0.69575   0.71383   0.72367   0.75188
 Alpha virt. eigenvalues --    0.76126   0.78064   0.78634   0.81850   0.83943
 Alpha virt. eigenvalues --    0.85298   0.85543   0.86014   0.87641   0.88137
 Alpha virt. eigenvalues --    0.88614   0.89902   0.91032   0.91904   0.93807
 Alpha virt. eigenvalues --    0.94245   0.95322   0.96240   0.97934   0.98577
 Alpha virt. eigenvalues --    1.02877   1.06633   1.09192   1.10667   1.13542
 Alpha virt. eigenvalues --    1.17708   1.19841   1.25363   1.31872   1.34758
 Alpha virt. eigenvalues --    1.36481   1.38193   1.43888   1.45635   1.50582
 Alpha virt. eigenvalues --    1.52696   1.54942   1.63577   1.67955   1.68809
 Alpha virt. eigenvalues --    1.71405   1.73257   1.79153   1.79970   1.82505
 Alpha virt. eigenvalues --    1.83183   1.84785   1.86070   1.90105   1.93268
 Alpha virt. eigenvalues --    1.95240   1.95349   1.98591   1.99892   2.00812
 Alpha virt. eigenvalues --    2.04790   2.06022   2.07843   2.12847   2.13209
 Alpha virt. eigenvalues --    2.19146   2.22753   2.24328   2.25527   2.27704
 Alpha virt. eigenvalues --    2.30775   2.32961   2.35046   2.39213   2.40374
 Alpha virt. eigenvalues --    2.45354   2.46842   2.53773   2.58336   2.64298
 Alpha virt. eigenvalues --    2.65648   2.69242   2.73437   2.75377   2.87270
 Alpha virt. eigenvalues --    2.92470   2.99343   3.00497   3.12006   3.13704
 Alpha virt. eigenvalues --    3.90659   4.02099   4.06885   4.11640   4.20461
 Alpha virt. eigenvalues --    4.23468   4.27647   4.38944   4.47650   4.60654
          Condensed to atoms (all electrons):
              1          2          3          4          5          6
     1  H    0.516003   0.355512  -0.020686  -0.023970  -0.018828   0.004264
     2  C    0.355512   5.339313   0.358867   0.344976   0.344759  -0.079367
     3  H   -0.020686   0.358867   0.518905  -0.026478  -0.020648  -0.000150
     4  H   -0.023970   0.344976  -0.026478   0.563762  -0.024012   0.002423
     5  C   -0.018828   0.344759  -0.020648  -0.024012   4.300144   0.595388
     6  O    0.004264  -0.079367  -0.000150   0.002423   0.595388   8.057281
     7  N    0.004366  -0.123714   0.000345   0.006177   0.260558  -0.098157
     8  H    0.000017   0.000307   0.000404   0.000112  -0.017559   0.003315
     9  C   -0.000198   0.008629  -0.000436  -0.000036  -0.027156  -0.000347
    10  H    0.000005   0.000868  -0.000022  -0.000066  -0.003204   0.018990
    11  C    0.000003  -0.000204  -0.000002  -0.000010   0.004279   0.000590
    12  H    0.000000  -0.000008   0.000000   0.000001  -0.000170  -0.000008
    13  H    0.000000   0.000004   0.000000   0.000000  -0.000014   0.000005
    14  H    0.000000  -0.000005   0.000000   0.000001   0.000188  -0.000001
    15  C    0.000004  -0.000807   0.000141   0.000039   0.005001   0.001341
    16  O    0.000002  -0.000560   0.000618  -0.000004   0.005909  -0.000527
    17  N    0.000000  -0.000015   0.000001   0.000000  -0.000259  -0.000238
    18  H    0.000000   0.000000   0.000000   0.000000  -0.000048  -0.000024
    19  C    0.000000   0.000000   0.000000   0.000000  -0.000002   0.000003
    20  H    0.000000   0.000000   0.000000   0.000000  -0.000005   0.000000
    21  H    0.000000   0.000000   0.000000   0.000000   0.000003   0.000000
    22  H    0.000000   0.000000   0.000000   0.000000   0.000000   0.000000
              7          8          9         10         11         12
     1  H    0.004366   0.000017  -0.000198   0.000005   0.000003   0.000000
     2  C   -0.123714   0.000307   0.008629   0.000868  -0.000204  -0.000008
     3  H    0.000345   0.000404  -0.000436  -0.000022  -0.000002   0.000000
     4  H    0.006177   0.000112  -0.000036  -0.000066  -0.000010   0.000001
     5  C    0.260558  -0.017559  -0.027156  -0.003204   0.004279  -0.000170
     6  O   -0.098157   0.003315  -0.000347   0.018990   0.000590  -0.000008
     7  N    7.098647   0.291306   0.281271  -0.044887  -0.052437  -0.004222
     8  H    0.291306   0.422147  -0.041859   0.006406  -0.001646   0.004722
     9  C    0.281271  -0.041859   5.122883   0.353180   0.347637  -0.032340
    10  H   -0.044887   0.006406   0.353180   0.555673  -0.032583   0.004756
    11  C   -0.052437  -0.001646   0.347637  -0.032583   5.124376   0.371578
    12  H   -0.004222   0.004722  -0.032340   0.004756   0.371578   0.561041
    13  H    0.003838  -0.000146  -0.030131  -0.002247   0.365505  -0.028707
    14  H    0.001224  -0.000545  -0.027927  -0.005063   0.368969  -0.030306
    15  C   -0.056390  -0.001869   0.306763  -0.035380  -0.043647  -0.003769
    16  O   -0.007808   0.010225  -0.083464   0.002117  -0.002006   0.001699
    17  N    0.004365   0.000357  -0.113897   0.002724  -0.000013   0.000123
    18  H    0.000091  -0.000014   0.002889   0.002495   0.000141   0.000025
    19  C   -0.000137  -0.000003   0.005580  -0.000328  -0.000103  -0.000020
    20  H   -0.000003  -0.000007   0.001133  -0.000032  -0.000047  -0.000008
    21  H    0.000004   0.000000  -0.000153   0.000007  -0.000006   0.000000
    22  H    0.000001   0.000000  -0.000083  -0.000004   0.000021  -0.000001
             13         14         15         16         17         18
     1  H    0.000000   0.000000   0.000004   0.000002   0.000000   0.000000
     2  C    0.000004  -0.000005  -0.000807  -0.000560  -0.000015   0.000000
     3  H    0.000000   0.000000   0.000141   0.000618   0.000001   0.000000
     4  H    0.000000   0.000001   0.000039  -0.000004   0.000000   0.000000
     5  C   -0.000014   0.000188   0.005001   0.005909  -0.000259  -0.000048
     6  O    0.000005  -0.000001   0.001341  -0.000527  -0.000238  -0.000024
     7  N    0.003838   0.001224  -0.056390  -0.007808   0.004365   0.000091
     8  H   -0.000146  -0.000545  -0.001869   0.010225   0.000357  -0.000014
     9  C   -0.030131  -0.027927   0.306763  -0.083464  -0.113897   0.002889
    10  H   -0.002247  -0.005063  -0.035380   0.002117   0.002724   0.002495
    11  C    0.365505   0.368969  -0.043647  -0.002006  -0.000013   0.000141
    12  H   -0.028707  -0.030306  -0.003769   0.001699   0.000123   0.000025
    13  H    0.563535  -0.024914  -0.001070  -0.000037   0.004020   0.000985
    14  H   -0.024914   0.545983   0.004023  -0.000072   0.000018  -0.000090
    15  C   -0.001070   0.004023   4.401715   0.595561   0.255700  -0.023269
    16  O   -0.000037  -0.000072   0.595561   8.086165  -0.096138   0.003363
    17  N    0.004020   0.000018   0.255700  -0.096138   7.079287   0.304722
    18  H    0.000985  -0.000090  -0.023269   0.003363   0.304722   0.412976
    19  C   -0.000054   0.000006  -0.022607  -0.006583   0.268679  -0.033253
    20  H   -0.000003   0.000001  -0.001243   0.019303  -0.039997   0.004252
    21  H    0.000006   0.000000  -0.000735   0.000516  -0.042066  -0.001063
    22  H   -0.000020  -0.000001   0.002886   0.000434  -0.039816  -0.000943
             19         20         21         22
     1  H    0.000000   0.000000   0.000000   0.000000
     2  C    0.000000   0.000000   0.000000   0.000000
     3  H    0.000000   0.000000   0.000000   0.000000
     4  H    0.000000   0.000000   0.000000   0.000000
     5  C   -0.000002  -0.000005   0.000003   0.000000
     6  O    0.000003   0.000000   0.000000   0.000000
     7  N   -0.000137  -0.000003   0.000004   0.000001
     8  H   -0.000003  -0.000007   0.000000   0.000000
     9  C    0.005580   0.001133  -0.000153  -0.000083
    10  H   -0.000328  -0.000032   0.000007  -0.000004
    11  C   -0.000103  -0.000047  -0.000006   0.000021
    12  H   -0.000020  -0.000008   0.000000  -0.000001
    13  H   -0.000054  -0.000003   0.000006  -0.000020
    14  H    0.000006   0.000001   0.000000  -0.000001
    15  C   -0.022607  -0.001243  -0.000735   0.002886
    16  O   -0.006583   0.019303   0.000516   0.000434
    17  N    0.268679  -0.039997  -0.042066  -0.039816
    18  H   -0.033253   0.004252  -0.001063  -0.000943
    19  C    4.958586   0.377943   0.384482   0.377682
    20  H    0.377943   0.485885  -0.027023  -0.023189
    21  H    0.384482  -0.027023   0.562570  -0.040082
    22  H    0.377682  -0.023189  -0.040082   0.567729
 Mulliken atomic charges:
              1
     1  H    0.183505
     2  C   -0.548556
     3  H    0.189139
     4  H    0.157084
     5  C    0.595677
     6  O   -0.504777
     7  N   -0.564437
     8  H    0.324330
     9  C   -0.071939
    10  H    0.176596
    11  C   -0.450396
    12  H    0.155613
    13  H    0.149446
    14  H    0.168512
    15  C    0.617611
    16  O   -0.528713
    17  N   -0.587558
    18  H    0.326766
    19  C   -0.309870
    20  H    0.203041
    21  H    0.163542
    22  H    0.155386
 Sum of Mulliken atomic charges =   0.00000
 Mulliken charges with hydrogens summed into heavy atoms:
              1
     2  C   -0.018828
     5  C    0.595677
     6  O   -0.504777
     7  N   -0.240107
     9  C    0.104656
    11  C    0.023174
    15  C    0.617611
    16  O   -0.528713
    17  N   -0.260793
    19  C    0.212098
 Sum of Mulliken charges with hydrogens summed into heavy atoms =   0.00000
 Electronic spatial extent (au):  <R**2>=           1773.5835
 Charge=              0.0000 electrons
 Dipole moment (field-independent basis, Debye):
    X=             -2.0132    Y=              2.3289    Z=             -0.3255  Tot=              3.0956
 Quadrupole moment (field-independent basis, Debye-Ang):
   XX=            -50.3887   YY=            -59.8543   ZZ=            -62.8573
   XY=              1.0241   XZ=             -9.7848   YZ=              0.6913
 Traceless Quadrupole moment (field-independent basis, Debye-Ang):
   XX=              7.3114   YY=             -2.1542   ZZ=             -5.1572
   XY=              1.0241   XZ=             -9.7848   YZ=              0.6913
 Octapole moment (field-independent basis, Debye-Ang**2):
  XXX=            -12.5519  YYY=             -4.1039  ZZZ=             -1.0881  XYY=             -3.9993
  XXY=            -10.0428  XXZ=             -3.2019  XZZ=             -6.6059  YZZ=              7.4359
  YYZ=             -0.9560  XYZ=              3.2435
 Hexadecapole moment (field-independent basis, Debye-Ang**3):
 XXXX=          -1408.1314 YYYY=           -526.6623 ZZZZ=           -242.6262 XXXY=             10.5726
 XXXZ=            -20.4480 YYYX=              4.3051 YYYZ=              1.9861 ZZZX=            -17.2504
 ZZZY=              0.6208 XXYY=           -334.6537 XXZZ=           -294.1478 YYZZ=           -128.3500
 XXYZ=              8.0566 YYXZ=             -5.5052 ZZXY=              5.7725
 N-N= 5.572539446143D+02 E-N=-2.270739214158D+03  KE= 4.912441789994D+02
 1\1\GINC-NODE006\FOpt\RB3LYP\6-31G(d)\C6H12N2O2\STEBOSS\10-Feb-2017\0\
 \# b3lyp/6-31G* Opt=(ModRedundant, maxcycles=1000, calcfc) geom=nocrow
 d\\Phi Psi fixed scan\\0,1\H,1.0967579783,2.9748219167,1.9167188783\C,
 1.4676665633,3.4008096884,0.9828319193\H,0.8882683417,4.3054048843,0.7
 611124531\H,1.3160155143,2.6885294591,0.1651006106\C,2.9284739738,3.77
 90437259,1.1563326583\O,3.4268957909,4.0188746566,2.2467811124\N,3.664
 9858208,3.8092746971,-0.0149787362\H,3.1148193102,3.9398269141,-0.8570
 444825\C,4.9234986724,4.5349698132,-0.0211889776\H,5.4280094018,4.2849
 893866,0.9168060169\C,5.7834623945,4.1016917601,-1.2174549175\H,5.2846
 687512,4.3441821271,-2.1635991516\H,6.7512974013,4.6125904379,-1.21382
 64286\H,5.9561280179,3.0218190102,-1.184585454\C,4.6535376609,6.058947
 7096,-0.0566481939\O,3.573149805,6.5090049635,-0.4195084005\N,5.729496
 6416,6.8378406352,0.2553145223\H,6.5317215449,6.3898139252,0.676375791
 5\C,5.6546594505,8.2889282065,0.3025316178\H,4.747288771,8.5871346784,
 -0.2238458254\H,5.601545637,8.6601877407,1.3337422636\H,6.5251525567,8
 .7341136636,-0.1909672765\\Version=EM64L-G09RevA.02\State=1-A\HF=-495.
 848306\RMSD=4.121e-09\RMSF=5.843e-04\Dipole=0.9282013,0.0501132,-0.786
 8976\Quadrupole=5.3382305,0.5398285,-5.8780591,5.2773909,1.2555563,4.0
 096045\PG=C01 [X(C6H12N2O2)]\\@


  THE LARGE PRINT GIVETH,
  AND THE SMALL PRINT TAKETH AWAY.

                     -- TOM WAITES
 Job cpu time:  0 days  1 hours 18 minutes 54.3 seconds.
 File lengths (MBytes):  RWF=    186 Int=      0 D2E=      0 Chk=      4 Scr=      2
 Normal termination of Gaussian 09 at Fri Feb 10 23:30:38 2017.
