 Entering Gaussian System, Link 0=g09
 Initial command:
 /home/steboss/Software/g09/l1.exe /home/steboss/projects/phi_psi_scan/alanine/MP2/255/5454/Gau-19930.inp -scrdir=/home/steboss/projects/phi_psi_scan/alanine/MP2/255/5454/
 Entering Link 1 = /home/steboss/Software/g09/l1.exe PID=     19933.
  
 Copyright (c) 1988,1990,1992,1993,1995,1998,2003,2009, Gaussian, Inc.
                  All Rights Reserved.
  
 This is part of the Gaussian(R) 09 program.  It is based on
 the Gaussian(R) 03 system (copyright 2003, Gaussian, Inc.),
 the Gaussian(R) 98 system (copyright 1998, Gaussian, Inc.),
 the Gaussian(R) 94 system (copyright 1995, Gaussian, Inc.),
 the Gaussian 92(TM) system (copyright 1992, Gaussian, Inc.),
 the Gaussian 90(TM) system (copyright 1990, Gaussian, Inc.),
 the Gaussian 88(TM) system (copyright 1988, Gaussian, Inc.),
 the Gaussian 86(TM) system (copyright 1986, Carnegie Mellon
 University), and the Gaussian 82(TM) system (copyright 1983,
 Carnegie Mellon University). Gaussian is a federally registered
 trademark of Gaussian, Inc.
  
 This software contains proprietary and confidential information,
 including trade secrets, belonging to Gaussian, Inc.
  
 This software is provided under written license and may be
 used, copied, transmitted, or stored only in accord with that
 written license.
  
 The following legend is applicable only to US Government
 contracts under FAR:
  
                    RESTRICTED RIGHTS LEGEND
  
 Use, reproduction and disclosure by the US Government is
 subject to restrictions as set forth in subparagraphs (a)
 and (c) of the Commercial Computer Software - Restricted
 Rights clause in FAR 52.227-19.
  
 Gaussian, Inc.
 340 Quinnipiac St., Bldg. 40, Wallingford CT 06492
  
  
 ---------------------------------------------------------------
 Warning -- This program may not be used in any manner that
 competes with the business of Gaussian, Inc. or will provide
 assistance to any competitor of Gaussian, Inc.  The licensee
 of this program is prohibited from giving any competitor of
 Gaussian, Inc. access to this program.  By using this program,
 the user acknowledges that Gaussian, Inc. is engaged in the
 business of creating and licensing software in the field of
 computational chemistry and represents and warrants to the
 licensee that it is not a competitor of Gaussian, Inc. and that
 it will not use this program in any manner prohibited above.
 ---------------------------------------------------------------
  

 Cite this work as:
 Gaussian 09, Revision A.02,
 M. J. Frisch, G. W. Trucks, H. B. Schlegel, G. E. Scuseria, 
 M. A. Robb, J. R. Cheeseman, G. Scalmani, V. Barone, B. Mennucci, 
 G. A. Petersson, H. Nakatsuji, M. Caricato, X. Li, H. P. Hratchian, 
 A. F. Izmaylov, J. Bloino, G. Zheng, J. L. Sonnenberg, M. Hada, 
 M. Ehara, K. Toyota, R. Fukuda, J. Hasegawa, M. Ishida, T. Nakajima, 
 Y. Honda, O. Kitao, H. Nakai, T. Vreven, J. A. Montgomery, Jr., 
 J. E. Peralta, F. Ogliaro, M. Bearpark, J. J. Heyd, E. Brothers, 
 K. N. Kudin, V. N. Staroverov, R. Kobayashi, J. Normand, 
 K. Raghavachari, A. Rendell, J. C. Burant, S. S. Iyengar, J. Tomasi, 
 M. Cossi, N. Rega, J. M. Millam, M. Klene, J. E. Knox, J. B. Cross, 
 V. Bakken, C. Adamo, J. Jaramillo, R. Gomperts, R. E. Stratmann, 
 O. Yazyev, A. J. Austin, R. Cammi, C. Pomelli, J. W. Ochterski, 
 R. L. Martin, K. Morokuma, V. G. Zakrzewski, G. A. Voth, 
 P. Salvador, J. J. Dannenberg, S. Dapprich, A. D. Daniels, 
 O. Farkas, J. B. Foresman, J. V. Ortiz, J. Cioslowski, 
 and D. J. Fox, Gaussian, Inc., Wallingford CT, 2009.
 
 ******************************************
 Gaussian 09:  EM64L-G09RevA.02 11-Jun-2009
                13-Feb-2017 
 ******************************************
 %chk=structure_225.chk
 %NProcShared=8
 Will use up to    8 processors via shared memory.
 -------------------
 #SP MP2/aug-cc-pVDZ
 -------------------
 1/38=1/1;
 2/12=2,17=6,18=5,40=1/2;
 3/5=16,7=10,11=9,16=1,25=1,30=1/1,2,3;
 4//1;
 5/5=2,38=5/2;
 8/10=1/1;
 9/16=-3/6;
 6/7=2,8=2,9=2,10=2/1;
 99/5=1,9=1/99;
 -------------------------------
 Single Point calculation at MP2
 -------------------------------
 Symbolic Z-matrix:
 Charge =  0 Multiplicity = 1
 H                     4.1871   -0.8482   -0.3513 
 C                     3.1742   -0.9554   -0.7432 
 H                     2.8843   -2.0102   -0.6651 
 H                     3.1577   -0.6731   -1.8014 
 C                     2.2263   -0.1184    0.0996 
 O                     2.4563    0.1665    1.2654 
 N                     1.0917    0.3094   -0.5609 
 H                     0.8855   -0.156    -1.4361 
 C                    -0.0584    0.7901    0.1959 
 H                     0.2931    0.8426    1.2327 
 C                    -0.4735    2.1958   -0.2591 
 H                    -0.8367    2.2025   -1.2941 
 H                    -1.2505    2.6191    0.3898 
 H                     0.3928    2.8605   -0.205 
 C                    -1.1526   -0.3044    0.1674 
 O                    -0.8529   -1.4813    0.3305 
 N                    -2.429     0.1091   -0.0854 
 H                    -2.6144    1.0956   -0.18 
 C                    -3.5576   -0.8064   -0.0778 
 H                    -3.1562   -1.8177   -0.003 
 H                    -4.2202   -0.6212    0.7766 
 H                    -4.1386   -0.7134   -1.0022 
 
                          Input orientation:                          
 ---------------------------------------------------------------------
 Center     Atomic      Atomic             Coordinates (Angstroms)
 Number     Number       Type             X           Y           Z
 ---------------------------------------------------------------------
      1          1           0        4.187100   -0.848200   -0.351300
      2          6           0        3.174200   -0.955400   -0.743200
      3          1           0        2.884300   -2.010200   -0.665100
      4          1           0        3.157700   -0.673100   -1.801400
      5          6           0        2.226300   -0.118400    0.099600
      6          8           0        2.456300    0.166500    1.265400
      7          7           0        1.091700    0.309400   -0.560900
      8          1           0        0.885500   -0.156000   -1.436100
      9          6           0       -0.058400    0.790100    0.195900
     10          1           0        0.293100    0.842600    1.232700
     11          6           0       -0.473500    2.195800   -0.259100
     12          1           0       -0.836700    2.202500   -1.294100
     13          1           0       -1.250500    2.619100    0.389800
     14          1           0        0.392800    2.860500   -0.205000
     15          6           0       -1.152600   -0.304400    0.167400
     16          8           0       -0.852900   -1.481300    0.330500
     17          7           0       -2.429000    0.109100   -0.085400
     18          1           0       -2.614400    1.095600   -0.180000
     19          6           0       -3.557600   -0.806400   -0.077800
     20          1           0       -3.156200   -1.817700   -0.003000
     21          1           0       -4.220200   -0.621200    0.776600
     22          1           0       -4.138600   -0.713400   -1.002200
 ---------------------------------------------------------------------
                    Distance matrix (angstroms):
                    1          2          3          4          5
     1  H    0.000000
     2  C    1.091350   0.000000
     3  H    1.773697   1.096697   0.000000
     4  H    1.786929   1.095332   1.775883   0.000000
     5  C    2.140247   1.519669   2.143977   2.188378   0.000000
     6  O    2.576626   2.410086   2.940755   3.256095   1.221948
     7  N    3.311415   2.443309   2.933397   2.602403   1.380793
     8  H    3.543514   2.521368   2.833320   2.358756   2.039003
     9  C    4.583418   3.791884   4.152407   4.058751   2.460589
    10  H    4.531125   3.929087   4.295862   4.439487   2.438175
    11  C    5.567372   4.844598   5.397230   4.878001   3.573948
    12  H    5.952664   5.134505   5.655822   4.947895   4.087902
    13  H    6.491448   5.799889   6.296015   5.922176   4.434666
    14  H    5.307784   4.752572   5.490263   4.762299   3.511175
    15  C    5.392325   4.469250   4.460871   4.752978   3.384695
    16  O    5.125160   4.200826   3.903539   4.613361   3.375246
    17  N    6.690284   5.741229   5.749664   5.896415   4.664526
    18  H    7.075882   6.166983   6.333800   6.250950   4.998435
    19  C    7.749640   6.766246   6.579676   6.934250   5.827376
    20  H    7.415207   6.431596   6.079726   6.664059   5.645304
    21  H    8.485657   7.556364   7.381175   7.815509   6.501423
    22  H    8.352193   7.321386   7.149577   7.340050   6.486905
                    6          7          8          9         10
     6  O    0.000000
     7  N    2.284278   0.000000
     8  H    3.141579   1.012468   0.000000
     9  C    2.802931   1.458269   2.109378   0.000000
    10  H    2.266631   2.034469   2.910435   1.096021   0.000000
    11  C    3.876324   2.469704   2.960266   1.534707   2.155062
    12  H    4.641141   2.800024   2.923809   2.195615   3.083909
    13  H    4.530153   3.424098   3.949378   2.191789   2.499827
    14  H    3.698343   2.668939   3.295092   2.156585   2.479686
    15  C    3.801514   2.438043   2.597515   1.547907   2.130850
    16  O    3.813147   2.789744   2.810575   2.410105   2.743682
    17  N    5.068936   3.558307   3.588952   2.482466   3.112112
    18  H    5.353915   3.807673   3.923467   2.601493   3.242420
    19  C    6.238406   4.805662   4.691390   3.855921   4.389135
    20  H    6.086546   4.783353   4.598952   4.054201   4.527894
    21  H    6.740553   5.556186   5.583961   4.432782   4.766615
    22  H    7.029149   5.347607   5.073514   4.510431   5.201527
                   11         12         13         14         15
    11  C    0.000000
    12  H    1.096898   0.000000
    13  H    1.097262   1.783341   0.000000
    14  H    1.093265   1.769399   1.764227   0.000000
    15  C    2.625658   2.918959   2.933581   3.541685   0.000000
    16  O    3.743346   4.026161   4.120059   4.548599   1.225363
    17  N    2.865043   2.894598   2.813321   3.942976   1.365316
    18  H    2.408350   2.372059   2.122722   3.486940   2.053666
    19  C    4.307870   4.235111   4.156370   5.391474   2.469039
    20  H    4.834320   4.817575   4.844706   5.875522   2.516650
    21  H    4.800617   4.869204   4.412287   5.862213   3.143510
    22  H    4.737995   4.414773   4.624321   5.825966   3.232869
                   16         17         18         19         20
    16  O    0.000000
    17  N    2.277375   0.000000
    18  H    3.162895   1.008219   0.000000
    19  C    2.817375   1.453250   2.125482   0.000000
    20  H    2.351505   2.061108   2.968534   1.090617   0.000000
    21  H    3.503924   2.117730   2.537928   1.096967   1.780866
    22  H    3.627890   2.107074   2.504332   1.095776   1.784093
                   21         22
    21  H    0.000000
    22  H    1.783056   0.000000
 Stoichiometry    C6H12N2O2
 Framework group  C1[X(C6H12N2O2)]
 Deg. of freedom    60
 Full point group                 C1      NOp   1
 Largest Abelian subgroup         C1      NOp   1
 Largest concise Abelian subgroup C1      NOp   1
                         Standard orientation:                         
 ---------------------------------------------------------------------
 Center     Atomic      Atomic             Coordinates (Angstroms)
 Number     Number       Type             X           Y           Z
 ---------------------------------------------------------------------
      1          1           0        4.187094   -0.848197   -0.351310
      2          6           0        3.174194   -0.955396   -0.743210
      3          1           0        2.884293   -2.010196   -0.665110
      4          1           0        3.157694   -0.673096   -1.801410
      5          6           0        2.226295   -0.118395    0.099590
      6          8           0        2.456295    0.166505    1.265390
      7          7           0        1.091695    0.309406   -0.560910
      8          1           0        0.885495   -0.155993   -1.436110
      9          6           0       -0.058404    0.790108    0.195890
     10          1           0        0.293096    0.842607    1.232690
     11          6           0       -0.473503    2.195808   -0.259110
     12          1           0       -0.836703    2.202509   -1.294110
     13          1           0       -1.250502    2.619109    0.389790
     14          1           0        0.392798    2.860507   -0.205010
     15          6           0       -1.152605   -0.304391    0.167390
     16          8           0       -0.852907   -1.481291    0.330490
     17          7           0       -2.429005    0.109110   -0.085410
     18          1           0       -2.614404    1.095611   -0.180010
     19          6           0       -3.557606   -0.806388   -0.077810
     20          1           0       -3.156207   -1.817689   -0.003010
     21          1           0       -4.220206   -0.621188    0.776590
     22          1           0       -4.138606   -0.713388   -1.002210
 ---------------------------------------------------------------------
 Rotational constants (GHZ):      2.4676688      0.7209325      0.6287338
 Standard basis: Aug-CC-pVDZ (5D, 7F)
 There are   338 symmetry adapted basis functions of A   symmetry.
 Integral buffers will be    131072 words long.
 Raffenetti 1 integral format.
 Two-electron integral symmetry is turned on.
   338 basis functions,   562 primitive gaussians,   358 cartesian basis functions
    39 alpha electrons       39 beta electrons
       nuclear repulsion energy       551.5094960301 Hartrees.
 NAtoms=   22 NActive=   22 NUniq=   22 SFac= 7.50D-01 NAtFMM=   80 NAOKFM=F Big=F
 One-electron integrals computed using PRISM.
 NBasis=   338 RedAO= T  NBF=   338
 NBsUse=   338 1.00D-06 NBFU=   338
 Harris functional with IExCor=  205 diagonalized for initial guess.
 ExpMin= 2.97D-02 ExpMax= 1.17D+04 ExpMxC= 4.01D+02 IAcc=3 IRadAn=         0 AccDes= 0.00D+00
 HarFok:  IExCor=  205 AccDes= 0.00D+00 IRadAn=         0 IDoV= 1
 ScaDFX=  1.000000  1.000000  1.000000  1.000000
 FoFCou: FMM=F IPFlag=           0 FMFlag=      100000 FMFlg1=           0
         NFxFlg=           0 DoJE=T BraDBF=F KetDBF=T FulRan=T
         Omega=  0.000000  0.000000  1.000000  0.000000  0.000000 ICntrl=     500 IOpCl=  0
         NMat0=    1 NMatS0=    1 NMatT0=    0 NMatD0=    1 NMtDS0=    0 NMtDT0=    0
         I1Cent=           4 NGrid=           0.
 Petite list used in FoFCou.
 Initial guess orbital symmetries:
       Occupied  (A) (A) (A) (A) (A) (A) (A) (A) (A) (A) (A) (A)
                 (A) (A) (A) (A) (A) (A) (A) (A) (A) (A) (A) (A)
                 (A) (A) (A) (A) (A) (A) (A) (A) (A) (A) (A) (A)
                 (A) (A) (A)
       Virtual   (A) (A) (A) (A) (A) (A) (A) (A) (A) (A) (A) (A)
                 (A) (A) (A) (A) (A) (A) (A) (A) (A) (A) (A) (A)
                 (A) (A) (A) (A) (A) (A) (A) (A) (A) (A) (A) (A)
                 (A) (A) (A) (A) (A) (A) (A) (A) (A) (A) (A) (A)
                 (A) (A) (A) (A) (A) (A) (A) (A) (A) (A) (A) (A)
                 (A) (A) (A) (A) (A) (A) (A) (A) (A) (A) (A) (A)
                 (A) (A) (A) (A) (A) (A) (A) (A) (A) (A) (A) (A)
                 (A) (A) (A) (A) (A) (A) (A) (A) (A) (A) (A) (A)
                 (A) (A) (A) (A) (A) (A) (A) (A) (A) (A) (A) (A)
                 (A) (A) (A) (A) (A) (A) (A) (A) (A) (A) (A) (A)
                 (A) (A) (A) (A) (A) (A) (A) (A) (A) (A) (A) (A)
                 (A) (A) (A) (A) (A) (A) (A) (A) (A) (A) (A) (A)
                 (A) (A) (A) (A) (A) (A) (A) (A) (A) (A) (A) (A)
                 (A) (A) (A) (A) (A) (A) (A) (A) (A) (A) (A) (A)
                 (A) (A) (A) (A) (A) (A) (A) (A) (A) (A) (A) (A)
                 (A) (A) (A) (A) (A) (A) (A) (A) (A) (A) (A) (A)
                 (A) (A) (A) (A) (A) (A) (A) (A) (A) (A) (A) (A)
                 (A) (A) (A) (A) (A) (A) (A) (A) (A) (A) (A) (A)
                 (A) (A) (A) (A) (A) (A) (A) (A) (A) (A) (A) (A)
                 (A) (A) (A) (A) (A) (A) (A) (A) (A) (A) (A) (A)
                 (A) (A) (A) (A) (A) (A) (A) (A) (A) (A) (A) (A)
                 (A) (A) (A) (A) (A) (A) (A) (A) (A) (A) (A) (A)
                 (A) (A) (A) (A) (A) (A) (A) (A) (A) (A) (A) (A)
                 (A) (A) (A) (A) (A) (A) (A) (A) (A) (A) (A) (A)
                 (A) (A) (A) (A) (A) (A) (A) (A) (A) (A) (A)
 The electronic state of the initial guess is 1-A.
 Requested convergence on RMS density matrix=1.00D-08 within 128 cycles.
 Requested convergence on MAX density matrix=1.00D-06.
 Requested convergence on             energy=1.00D-06.
 No special actions if energy rises.
 Initial convergence to 1.0D-05 achieved.  Increase integral accuracy.
 SCF Done:  E(RHF) =  -492.919455923     A.U. after   14 cycles
             Convg  =    0.6857D-08             -V/T =  2.0017
 ExpMin= 2.97D-02 ExpMax= 1.17D+04 ExpMxC= 4.01D+02 IAcc=3 IRadAn=         5 AccDes= 0.00D+00
 HarFok:  IExCor=  205 AccDes= 0.00D+00 IRadAn=         5 IDoV=-2
 ScaDFX=  1.000000  1.000000  1.000000  1.000000
 Range of M.O.s used for correlation:    11   338
 NBasis=   338 NAE=    39 NBE=    39 NFC=    10 NFV=     0
 NROrb=    328 NOA=    29 NOB=    29 NVA=   299 NVB=   299

 **** Warning!!: The largest alpha MO coefficient is  0.74518034D+02

 Disk-based method using OVN memory for 29 occupieds at a time.
 Estimated scratch disk usage=  1375517330 words.
 Actual    scratch disk usage=  1362232844 words.
 JobTyp=1 Pass  1:  I=   1 to  29 NPSUse=  8 ParTrn=T ParDer=T DoDerP=F.
 Spin components of T(2) and E(2):
     alpha-alpha T2 =       0.6795208792D-01 E2=     -0.2057893554D+00
     alpha-beta  T2 =       0.3764850615D+00 E2=     -0.1189792725D+01
     beta-beta   T2 =       0.6795208792D-01 E2=     -0.2057893554D+00
 ANorm=    0.1229792355D+01
 E2 =    -0.1601371436D+01 EUMP2 =    -0.49452082735861D+03

 **********************************************************************

            Population analysis using the SCF density.

 **********************************************************************

 Orbital symmetries:
       Occupied  (A) (A) (A) (A) (A) (A) (A) (A) (A) (A) (A) (A)
                 (A) (A) (A) (A) (A) (A) (A) (A) (A) (A) (A) (A)
                 (A) (A) (A) (A) (A) (A) (A) (A) (A) (A) (A) (A)
                 (A) (A) (A)
       Virtual   (A) (A) (A) (A) (A) (A) (A) (A) (A) (A) (A) (A)
                 (A) (A) (A) (A) (A) (A) (A) (A) (A) (A) (A) (A)
                 (A) (A) (A) (A) (A) (A) (A) (A) (A) (A) (A) (A)
                 (A) (A) (A) (A) (A) (A) (A) (A) (A) (A) (A) (A)
                 (A) (A) (A) (A) (A) (A) (A) (A) (A) (A) (A) (A)
                 (A) (A) (A) (A) (A) (A) (A) (A) (A) (A) (A) (A)
                 (A) (A) (A) (A) (A) (A) (A) (A) (A) (A) (A) (A)
                 (A) (A) (A) (A) (A) (A) (A) (A) (A) (A) (A) (A)
                 (A) (A) (A) (A) (A) (A) (A) (A) (A) (A) (A) (A)
                 (A) (A) (A) (A) (A) (A) (A) (A) (A) (A) (A) (A)
                 (A) (A) (A) (A) (A) (A) (A) (A) (A) (A) (A) (A)
                 (A) (A) (A) (A) (A) (A) (A) (A) (A) (A) (A) (A)
                 (A) (A) (A) (A) (A) (A) (A) (A) (A) (A) (A) (A)
                 (A) (A) (A) (A) (A) (A) (A) (A) (A) (A) (A) (A)
                 (A) (A) (A) (A) (A) (A) (A) (A) (A) (A) (A) (A)
                 (A) (A) (A) (A) (A) (A) (A) (A) (A) (A) (A) (A)
                 (A) (A) (A) (A) (A) (A) (A) (A) (A) (A) (A) (A)
                 (A) (A) (A) (A) (A) (A) (A) (A) (A) (A) (A) (A)
                 (A) (A) (A) (A) (A) (A) (A) (A) (A) (A) (A) (A)
                 (A) (A) (A) (A) (A) (A) (A) (A) (A) (A) (A) (A)
                 (A) (A) (A) (A) (A) (A) (A) (A) (A) (A) (A) (A)
                 (A) (A) (A) (A) (A) (A) (A) (A) (A) (A) (A) (A)
                 (A) (A) (A) (A) (A) (A) (A) (A) (A) (A) (A) (A)
                 (A) (A) (A) (A) (A) (A) (A) (A) (A) (A) (A) (A)
                 (A) (A) (A) (A) (A) (A) (A) (A) (A) (A) (A)
 The electronic state is 1-A.
 Alpha  occ. eigenvalues --  -20.53215 -20.52843 -15.60323 -15.59140 -11.36412
 Alpha  occ. eigenvalues --  -11.35861 -11.29143 -11.27295 -11.24713 -11.24159
 Alpha  occ. eigenvalues --   -1.39018  -1.37973  -1.23972  -1.23359  -1.05597
 Alpha  occ. eigenvalues --   -0.99078  -0.95856  -0.88705  -0.79577  -0.78904
 Alpha  occ. eigenvalues --   -0.73069  -0.67203  -0.65455  -0.64863  -0.62421
 Alpha  occ. eigenvalues --   -0.61577  -0.59281  -0.58818  -0.57153  -0.56348
 Alpha  occ. eigenvalues --   -0.55176  -0.54647  -0.53373  -0.51754  -0.49660
 Alpha  occ. eigenvalues --   -0.43141  -0.42096  -0.39969  -0.39323
 Alpha virt. eigenvalues --    0.02590   0.03683   0.04166   0.04565   0.05733
 Alpha virt. eigenvalues --    0.05888   0.06154   0.06956   0.07317   0.08094
 Alpha virt. eigenvalues --    0.08817   0.08968   0.11401   0.12159   0.12629
 Alpha virt. eigenvalues --    0.13803   0.14651   0.14677   0.14880   0.15054
 Alpha virt. eigenvalues --    0.15474   0.15773   0.16581   0.16863   0.17302
 Alpha virt. eigenvalues --    0.17382   0.17840   0.18547   0.18749   0.19605
 Alpha virt. eigenvalues --    0.19881   0.20369   0.20675   0.21646   0.22407
 Alpha virt. eigenvalues --    0.23604   0.23782   0.24740   0.25523   0.26010
 Alpha virt. eigenvalues --    0.26746   0.28138   0.28702   0.29203   0.30282
 Alpha virt. eigenvalues --    0.30873   0.32047   0.32760   0.32865   0.33519
 Alpha virt. eigenvalues --    0.34340   0.34973   0.35557   0.36067   0.36865
 Alpha virt. eigenvalues --    0.37361   0.37647   0.38293   0.39070   0.39625
 Alpha virt. eigenvalues --    0.40104   0.41003   0.41728   0.42847   0.43182
 Alpha virt. eigenvalues --    0.43571   0.44078   0.44352   0.45528   0.45963
 Alpha virt. eigenvalues --    0.47072   0.47318   0.47789   0.48826   0.49040
 Alpha virt. eigenvalues --    0.49296   0.50518   0.50809   0.51438   0.52418
 Alpha virt. eigenvalues --    0.53837   0.54235   0.54729   0.55447   0.55798
 Alpha virt. eigenvalues --    0.55896   0.56309   0.56715   0.57119   0.57964
 Alpha virt. eigenvalues --    0.59428   0.60018   0.60623   0.61440   0.62077
 Alpha virt. eigenvalues --    0.62576   0.63345   0.63980   0.64449   0.65297
 Alpha virt. eigenvalues --    0.66268   0.66687   0.67214   0.67404   0.68116
 Alpha virt. eigenvalues --    0.69014   0.69973   0.70757   0.71223   0.71434
 Alpha virt. eigenvalues --    0.72548   0.73060   0.73263   0.74737   0.75097
 Alpha virt. eigenvalues --    0.75364   0.76804   0.77101   0.77996   0.78824
 Alpha virt. eigenvalues --    0.79768   0.80416   0.81233   0.82876   0.83224
 Alpha virt. eigenvalues --    0.84227   0.85163   0.85540   0.87084   0.87894
 Alpha virt. eigenvalues --    0.88145   0.89621   0.91472   0.91765   0.92014
 Alpha virt. eigenvalues --    0.92196   0.94346   0.97140   0.98653   0.99518
 Alpha virt. eigenvalues --    1.00772   1.02235   1.02679   1.05258   1.06466
 Alpha virt. eigenvalues --    1.06932   1.07498   1.08192   1.08741   1.10623
 Alpha virt. eigenvalues --    1.11257   1.13671   1.14595   1.15786   1.16873
 Alpha virt. eigenvalues --    1.17430   1.18263   1.19267   1.20154   1.21432
 Alpha virt. eigenvalues --    1.23350   1.24375   1.26272   1.27647   1.28585
 Alpha virt. eigenvalues --    1.32459   1.33687   1.34394   1.34680   1.37645
 Alpha virt. eigenvalues --    1.40595   1.41606   1.43179   1.45979   1.47571
 Alpha virt. eigenvalues --    1.49055   1.49299   1.52042   1.53200   1.54152
 Alpha virt. eigenvalues --    1.56089   1.58627   1.60270   1.61396   1.62620
 Alpha virt. eigenvalues --    1.65099   1.65992   1.68790   1.70413   1.72410
 Alpha virt. eigenvalues --    1.73742   1.75148   1.77337   1.77909   1.79923
 Alpha virt. eigenvalues --    1.80190   1.82379   1.83620   1.86174   1.87364
 Alpha virt. eigenvalues --    1.88668   1.89907   1.90602   1.93028   1.93570
 Alpha virt. eigenvalues --    1.93840   1.96541   1.97774   1.98353   2.00861
 Alpha virt. eigenvalues --    2.02689   2.03317   2.05806   2.07012   2.08445
 Alpha virt. eigenvalues --    2.09630   2.11524   2.14288   2.15570   2.17017
 Alpha virt. eigenvalues --    2.17848   2.20156   2.21329   2.22629   2.23108
 Alpha virt. eigenvalues --    2.23777   2.25368   2.27422   2.28094   2.30292
 Alpha virt. eigenvalues --    2.31109   2.32151   2.34529   2.35265   2.35944
 Alpha virt. eigenvalues --    2.38186   2.40308   2.41985   2.42446   2.43650
 Alpha virt. eigenvalues --    2.44791   2.46323   2.47761   2.49018   2.50597
 Alpha virt. eigenvalues --    2.52856   2.54268   2.57134   2.58539   2.59209
 Alpha virt. eigenvalues --    2.62353   2.64770   2.65620   2.68965   2.68974
 Alpha virt. eigenvalues --    2.70430   2.72525   2.74287   2.78375   2.79979
 Alpha virt. eigenvalues --    2.81495   2.84627   2.85837   2.87022   2.87456
 Alpha virt. eigenvalues --    2.90326   2.92258   2.96850   2.97484   2.98994
 Alpha virt. eigenvalues --    2.99682   3.01659   3.03001   3.05759   3.07414
 Alpha virt. eigenvalues --    3.08927   3.11064   3.12855   3.18147   3.23496
 Alpha virt. eigenvalues --    3.25059   3.30524   3.40467   3.48790   3.52266
 Alpha virt. eigenvalues --    3.58907   3.70098   3.73516   3.82770   3.84036
 Alpha virt. eigenvalues --    3.84760   3.87656   3.90951   3.99930   4.02745
 Alpha virt. eigenvalues --    4.05408   4.19354   4.21914   4.39832
          Condensed to atoms (all electrons):
              1          2          3          4          5          6
     1  H    0.825902   0.338365  -0.060334  -0.100039  -0.038612   0.027161
     2  C    0.338365   4.526978   0.356605   0.344223   0.246049  -0.035989
     3  H   -0.060334   0.356605   0.706358  -0.067414  -0.057909   0.015328
     4  H   -0.100039   0.344223  -0.067414   0.976078   0.063510  -0.008288
     5  C   -0.038612   0.246049  -0.057909   0.063510   5.137564   0.171239
     6  O    0.027161  -0.035989   0.015328  -0.008288   0.171239   8.723125
     7  N    0.038952   0.002883   0.011817  -0.133199   0.123414  -0.107758
     8  H   -0.007064  -0.068446  -0.001072   0.019166  -0.081910   0.006621
     9  C    0.011389  -0.040591   0.010546  -0.015540  -0.165051   0.029361
    10  H   -0.001296  -0.007012   0.000996  -0.001233   0.017299  -0.005074
    11  C    0.000973  -0.000786   0.000160  -0.001241  -0.009717  -0.015679
    12  H   -0.000290  -0.005450  -0.000015   0.000279  -0.008112  -0.001968
    13  H    0.000378   0.001093   0.000042  -0.000604  -0.011269  -0.002129
    14  H    0.000175   0.005048  -0.000198   0.000793   0.045778  -0.000280
    15  C   -0.004004  -0.001350   0.004887  -0.014534  -0.121036   0.042535
    16  O   -0.000883   0.008427   0.001017   0.001194   0.001874   0.001485
    17  N   -0.000182  -0.001295  -0.000021   0.000634   0.006943  -0.001196
    18  H   -0.000005  -0.000283   0.000185  -0.000291   0.001690  -0.000115
    19  C   -0.000113  -0.002018  -0.000309  -0.000108  -0.004933   0.001106
    20  H    0.000037   0.000242  -0.000012  -0.000021  -0.001376   0.000045
    21  H    0.000000  -0.000046  -0.000010  -0.000020   0.001835   0.000113
    22  H   -0.000013  -0.000041  -0.000033   0.000022  -0.000906   0.000078
              7          8          9         10         11         12
     1  H    0.038952  -0.007064   0.011389  -0.001296   0.000973  -0.000290
     2  C    0.002883  -0.068446  -0.040591  -0.007012  -0.000786  -0.005450
     3  H    0.011817  -0.001072   0.010546   0.000996   0.000160  -0.000015
     4  H   -0.133199   0.019166  -0.015540  -0.001233  -0.001241   0.000279
     5  C    0.123414  -0.081910  -0.165051   0.017299  -0.009717  -0.008112
     6  O   -0.107758   0.006621   0.029361  -0.005074  -0.015679  -0.001968
     7  N    7.670032   0.261815  -0.449390  -0.000737  -0.079140  -0.065177
     8  H    0.261815   0.939934   0.043238   0.004539  -0.024625   0.001503
     9  C   -0.449390   0.043238   7.368579   0.018019   0.314141  -0.035312
    10  H   -0.000737   0.004539   0.018019   1.224001  -0.090349   0.065697
    11  C   -0.079140  -0.024625   0.314141  -0.090349   4.356887   0.390005
    12  H   -0.065177   0.001503  -0.035312   0.065697   0.390005   1.116492
    13  H    0.144388   0.000405  -0.255769  -0.093566   0.324647  -0.184706
    14  H   -0.104782  -0.001613   0.205328  -0.034064   0.164542  -0.243549
    15  C    0.147143  -0.058497  -0.708820  -0.123104  -0.199305  -0.059358
    16  O   -0.015897   0.023518   0.010769   0.024189   0.006240   0.001393
    17  N    0.050777   0.011561  -0.070016   0.056592   0.012132   0.016463
    18  H    0.000279  -0.000720   0.009860  -0.006859   0.007835   0.004142
    19  C    0.000103  -0.001765  -0.047281   0.003293  -0.020738  -0.003554
    20  H   -0.000305  -0.001074  -0.034857   0.000236  -0.002673   0.000651
    21  H    0.002684   0.001487   0.000839  -0.003406  -0.004603  -0.003107
    22  H   -0.002472  -0.002191   0.004143   0.001052   0.009297   0.000427
             13         14         15         16         17         18
     1  H    0.000378   0.000175  -0.004004  -0.000883  -0.000182  -0.000005
     2  C    0.001093   0.005048  -0.001350   0.008427  -0.001295  -0.000283
     3  H    0.000042  -0.000198   0.004887   0.001017  -0.000021   0.000185
     4  H   -0.000604   0.000793  -0.014534   0.001194   0.000634  -0.000291
     5  C   -0.011269   0.045778  -0.121036   0.001874   0.006943   0.001690
     6  O   -0.002129  -0.000280   0.042535   0.001485  -0.001196  -0.000115
     7  N    0.144388  -0.104782   0.147143  -0.015897   0.050777   0.000279
     8  H    0.000405  -0.001613  -0.058497   0.023518   0.011561  -0.000720
     9  C   -0.255769   0.205328  -0.708820   0.010769  -0.070016   0.009860
    10  H   -0.093566  -0.034064  -0.123104   0.024189   0.056592  -0.006859
    11  C    0.324647   0.164542  -0.199305   0.006240   0.012132   0.007835
    12  H   -0.184706  -0.243549  -0.059358   0.001393   0.016463   0.004142
    13  H    1.166175  -0.208434   0.063393  -0.002067  -0.000670   0.025761
    14  H   -0.208434   1.312249   0.040222   0.000646  -0.020612   0.002664
    15  C    0.063393   0.040222   5.740087   0.211845   0.082059  -0.067457
    16  O   -0.002067   0.000646   0.211845   8.774363  -0.180993   0.018657
    17  N   -0.000670  -0.020612   0.082059  -0.180993   7.178875   0.259571
    18  H    0.025761   0.002664  -0.067457   0.018657   0.259571   1.019234
    19  C   -0.002388   0.003186  -0.049807  -0.012335   0.252939  -0.131849
    20  H    0.001188  -0.000141   0.031147  -0.009364  -0.054588   0.000118
    21  H   -0.000038   0.000819  -0.004303   0.007999   0.011199   0.001236
    22  H   -0.001813   0.001349  -0.013563   0.011980  -0.085842   0.006744
             19         20         21         22
     1  H   -0.000113   0.000037   0.000000  -0.000013
     2  C   -0.002018   0.000242  -0.000046  -0.000041
     3  H   -0.000309  -0.000012  -0.000010  -0.000033
     4  H   -0.000108  -0.000021  -0.000020   0.000022
     5  C   -0.004933  -0.001376   0.001835  -0.000906
     6  O    0.001106   0.000045   0.000113   0.000078
     7  N    0.000103  -0.000305   0.002684  -0.002472
     8  H   -0.001765  -0.001074   0.001487  -0.002191
     9  C   -0.047281  -0.034857   0.000839   0.004143
    10  H    0.003293   0.000236  -0.003406   0.001052
    11  C   -0.020738  -0.002673  -0.004603   0.009297
    12  H   -0.003554   0.000651  -0.003107   0.000427
    13  H   -0.002388   0.001188  -0.000038  -0.001813
    14  H    0.003186  -0.000141   0.000819   0.001349
    15  C   -0.049807   0.031147  -0.004303  -0.013563
    16  O   -0.012335  -0.009364   0.007999   0.011980
    17  N    0.252939  -0.054588   0.011199  -0.085842
    18  H   -0.131849   0.000118   0.001236   0.006744
    19  C    4.109829   0.498985   0.293964   0.353424
    20  H    0.498985   0.971060  -0.111091  -0.137391
    21  H    0.293964  -0.111091   1.042014  -0.150384
    22  H    0.353424  -0.137391  -0.150384   1.123729
 Mulliken atomic charges:
              1
     1  H   -0.030497
     2  C    0.333391
     3  H    0.079386
     4  H   -0.063366
     5  C    0.683636
     6  O   -0.839719
     7  N   -0.495429
     8  H   -0.064809
     9  C   -0.203587
    10  H   -0.049214
    11  C    0.861997
    12  H    0.013547
    13  H    0.035982
    14  H   -0.169126
    15  C    1.061819
    16  O   -0.884057
    17  N   -0.524331
    18  H   -0.150397
    19  C    0.760368
    20  H   -0.150816
    21  H   -0.087181
    22  H   -0.117598
 Sum of Mulliken atomic charges =   0.00000
 Mulliken charges with hydrogens summed into heavy atoms:
              1
     2  C    0.318915
     5  C    0.683636
     6  O   -0.839719
     7  N   -0.560238
     9  C   -0.252801
    11  C    0.742400
    15  C    1.061819
    16  O   -0.884057
    17  N   -0.674727
    19  C    0.404773
 Sum of Mulliken charges with hydrogens summed into heavy atoms =   0.00000
 Electronic spatial extent (au):  <R**2>=           1896.6952
 Charge=              0.0000 electrons
 Dipole moment (field-independent basis, Debye):
    X=             -3.2419    Y=              2.3005    Z=             -3.8321  Tot=              5.5216
 Quadrupole moment (field-independent basis, Debye-Ang):
   XX=            -54.2783   YY=            -62.7282   ZZ=            -63.4717
   XY=             -6.2672   XZ=             -7.8877   YZ=              2.1177
 Traceless Quadrupole moment (field-independent basis, Debye-Ang):
   XX=              5.8811   YY=             -2.5688   ZZ=             -3.3123
   XY=             -6.2672   XZ=             -7.8877   YZ=              2.1177
 Octapole moment (field-independent basis, Debye-Ang**2):
  XXX=            -33.0607  YYY=              6.0702  ZZZ=             -6.4825  XYY=              0.9199
  XXY=            -10.7360  XXZ=            -21.4204  XZZ=             -9.2078  YZZ=             -1.8439
  YYZ=             -0.3621  XYZ=             -0.0053
 Hexadecapole moment (field-independent basis, Debye-Ang**3):
 XXXX=          -1671.9410 YYYY=           -498.6490 ZZZZ=           -195.6068 XXXY=            -17.7199
 XXXZ=            -46.4802 YYYX=             -7.4918 YYYZ=              5.5121 ZZZX=            -12.9475
 ZZZY=              1.7584 XXYY=           -365.1680 XXZZ=           -359.1239 YYZZ=           -120.0816
 XXYZ=             -0.5602 YYXZ=              3.5029 ZZXY=             -2.5007
 N-N= 5.515094960301D+02 E-N=-2.258321889416D+03  KE= 4.920733362420D+02
 1\1\GINC-NODE002\SP\RMP2-FC\Aug-CC-pVDZ\C6H12N2O2\STEBOSS\13-Feb-2017\
 0\\#SP MP2/aug-cc-pVDZ\\Single Point calculation at MP2\\0,1\H,0,4.187
 1,-0.8482,-0.3513\C,0,3.1742,-0.9554,-0.7432\H,0,2.8843,-2.0102,-0.665
 1\H,0,3.1577,-0.6731,-1.8014\C,0,2.2263,-0.1184,0.0996\O,0,2.4563,0.16
 65,1.2654\N,0,1.0917,0.3094,-0.5609\H,0,0.8855,-0.156,-1.4361\C,0,-0.0
 584,0.7901,0.1959\H,0,0.2931,0.8426,1.2327\C,0,-0.4735,2.1958,-0.2591\
 H,0,-0.8367,2.2025,-1.2941\H,0,-1.2505,2.6191,0.3898\H,0,0.3928,2.8605
 ,-0.205\C,0,-1.1526,-0.3044,0.1674\O,0,-0.8529,-1.4813,0.3305\N,0,-2.4
 29,0.1091,-0.0854\H,0,-2.6144,1.0956,-0.18\C,0,-3.5576,-0.8064,-0.0778
 \H,0,-3.1562,-1.8177,-0.003\H,0,-4.2202,-0.6212,0.7766\H,0,-4.1386,-0.
 7134,-1.0022\\Version=EM64L-G09RevA.02\State=1-A\HF=-492.9194559\MP2=-
 494.5208274\RMSD=6.857e-09\PG=C01 [X(C6H12N2O2)]\\@


 MORNING PEOPLE ARE USUALLY ADMIRED AS EARLY BIRDS.
 RECALL BEN FRANKLIN'S APHORISM THAT THE EARLY BIRD GETS THE WORM.
 I IDENTIFY WITH THE WORM. --  CRAIG JAGGER, MINNEAPOLIS, KS.
 Job cpu time:  0 days 17 hours 13 minutes 40.0 seconds.
 File lengths (MBytes):  RWF=  10510 Int=      0 D2E=      0 Chk=      7 Scr=      2
 Normal termination of Gaussian 09 at Mon Feb 13 10:36:03 2017.
