 Entering Gaussian System, Link 0=g09
 Initial command:
 /home/steboss/Software/g09/l1.exe /home/steboss/projects/phi_psi_scan/alanine/MP2/255/5444/Gau-19712.inp -scrdir=/home/steboss/projects/phi_psi_scan/alanine/MP2/255/5444/
 Entering Link 1 = /home/steboss/Software/g09/l1.exe PID=     19714.
  
 Copyright (c) 1988,1990,1992,1993,1995,1998,2003,2009, Gaussian, Inc.
                  All Rights Reserved.
  
 This is part of the Gaussian(R) 09 program.  It is based on
 the Gaussian(R) 03 system (copyright 2003, Gaussian, Inc.),
 the Gaussian(R) 98 system (copyright 1998, Gaussian, Inc.),
 the Gaussian(R) 94 system (copyright 1995, Gaussian, Inc.),
 the Gaussian 92(TM) system (copyright 1992, Gaussian, Inc.),
 the Gaussian 90(TM) system (copyright 1990, Gaussian, Inc.),
 the Gaussian 88(TM) system (copyright 1988, Gaussian, Inc.),
 the Gaussian 86(TM) system (copyright 1986, Carnegie Mellon
 University), and the Gaussian 82(TM) system (copyright 1983,
 Carnegie Mellon University). Gaussian is a federally registered
 trademark of Gaussian, Inc.
  
 This software contains proprietary and confidential information,
 including trade secrets, belonging to Gaussian, Inc.
  
 This software is provided under written license and may be
 used, copied, transmitted, or stored only in accord with that
 written license.
  
 The following legend is applicable only to US Government
 contracts under FAR:
  
                    RESTRICTED RIGHTS LEGEND
  
 Use, reproduction and disclosure by the US Government is
 subject to restrictions as set forth in subparagraphs (a)
 and (c) of the Commercial Computer Software - Restricted
 Rights clause in FAR 52.227-19.
  
 Gaussian, Inc.
 340 Quinnipiac St., Bldg. 40, Wallingford CT 06492
  
  
 ---------------------------------------------------------------
 Warning -- This program may not be used in any manner that
 competes with the business of Gaussian, Inc. or will provide
 assistance to any competitor of Gaussian, Inc.  The licensee
 of this program is prohibited from giving any competitor of
 Gaussian, Inc. access to this program.  By using this program,
 the user acknowledges that Gaussian, Inc. is engaged in the
 business of creating and licensing software in the field of
 computational chemistry and represents and warrants to the
 licensee that it is not a competitor of Gaussian, Inc. and that
 it will not use this program in any manner prohibited above.
 ---------------------------------------------------------------
  

 Cite this work as:
 Gaussian 09, Revision A.02,
 M. J. Frisch, G. W. Trucks, H. B. Schlegel, G. E. Scuseria, 
 M. A. Robb, J. R. Cheeseman, G. Scalmani, V. Barone, B. Mennucci, 
 G. A. Petersson, H. Nakatsuji, M. Caricato, X. Li, H. P. Hratchian, 
 A. F. Izmaylov, J. Bloino, G. Zheng, J. L. Sonnenberg, M. Hada, 
 M. Ehara, K. Toyota, R. Fukuda, J. Hasegawa, M. Ishida, T. Nakajima, 
 Y. Honda, O. Kitao, H. Nakai, T. Vreven, J. A. Montgomery, Jr., 
 J. E. Peralta, F. Ogliaro, M. Bearpark, J. J. Heyd, E. Brothers, 
 K. N. Kudin, V. N. Staroverov, R. Kobayashi, J. Normand, 
 K. Raghavachari, A. Rendell, J. C. Burant, S. S. Iyengar, J. Tomasi, 
 M. Cossi, N. Rega, J. M. Millam, M. Klene, J. E. Knox, J. B. Cross, 
 V. Bakken, C. Adamo, J. Jaramillo, R. Gomperts, R. E. Stratmann, 
 O. Yazyev, A. J. Austin, R. Cammi, C. Pomelli, J. W. Ochterski, 
 R. L. Martin, K. Morokuma, V. G. Zakrzewski, G. A. Voth, 
 P. Salvador, J. J. Dannenberg, S. Dapprich, A. D. Daniels, 
 O. Farkas, J. B. Foresman, J. V. Ortiz, J. Cioslowski, 
 and D. J. Fox, Gaussian, Inc., Wallingford CT, 2009.
 
 ******************************************
 Gaussian 09:  EM64L-G09RevA.02 11-Jun-2009
                13-Feb-2017 
 ******************************************
 %chk=structure_0.chk
 %NProcShared=8
 Will use up to    8 processors via shared memory.
 -------------------
 #SP MP2/aug-cc-pVDZ
 -------------------
 1/38=1/1;
 2/12=2,17=6,18=5,40=1/2;
 3/5=16,7=10,11=9,16=1,25=1,30=1/1,2,3;
 4//1;
 5/5=2,38=5/2;
 8/10=1/1;
 9/16=-3/6;
 6/7=2,8=2,9=2,10=2/1;
 99/5=1,9=1/99;
 -------------------------------
 Single Point calculation at MP2
 -------------------------------
 Symbolic Z-matrix:
 Charge =  0 Multiplicity = 1
 H                     3.4725   -1.8302   -0.1918 
 C                     3.1945   -0.8449   -0.5748 
 H                     2.9889   -0.9197   -1.6475 
 H                     4.0552   -0.1828   -0.4289 
 C                     2.0223   -0.3155    0.2391 
 O                     1.9897   -0.388     1.4583 
 N                     1.0027    0.249    -0.4979 
 H                     1.1615    0.4017   -1.4855 
 C                    -0.0894    0.9953    0.1252 
 H                     0.2059    1.1402    1.1696 
 C                    -0.2881    2.3585   -0.5461 
 H                    -0.5095    2.2452   -1.6155 
 H                    -1.1342    2.8682   -0.0811 
 H                     0.6095    2.9759   -0.4394 
 C                    -1.4331    0.2354    0.1859 
 O                    -2.4203    0.7811    0.6667 
 N                    -1.4354   -1.0184   -0.3409 
 H                    -0.5422   -1.3992   -0.6192 
 C                    -2.595    -1.8881   -0.2698 
 H                    -3.4423   -1.278     0.0466 
 H                    -2.8102   -2.3284   -1.2499 
 H                    -2.4494   -2.6971    0.4571 
 
                          Input orientation:                          
 ---------------------------------------------------------------------
 Center     Atomic      Atomic             Coordinates (Angstroms)
 Number     Number       Type             X           Y           Z
 ---------------------------------------------------------------------
      1          1           0        3.472500   -1.830200   -0.191800
      2          6           0        3.194500   -0.844900   -0.574800
      3          1           0        2.988900   -0.919700   -1.647500
      4          1           0        4.055200   -0.182800   -0.428900
      5          6           0        2.022300   -0.315500    0.239100
      6          8           0        1.989700   -0.388000    1.458300
      7          7           0        1.002700    0.249000   -0.497900
      8          1           0        1.161500    0.401700   -1.485500
      9          6           0       -0.089400    0.995300    0.125200
     10          1           0        0.205900    1.140200    1.169600
     11          6           0       -0.288100    2.358500   -0.546100
     12          1           0       -0.509500    2.245200   -1.615500
     13          1           0       -1.134200    2.868200   -0.081100
     14          1           0        0.609500    2.975900   -0.439400
     15          6           0       -1.433100    0.235400    0.185900
     16          8           0       -2.420300    0.781100    0.666700
     17          7           0       -1.435400   -1.018400   -0.340900
     18          1           0       -0.542200   -1.399200   -0.619200
     19          6           0       -2.595000   -1.888100   -0.269800
     20          1           0       -3.442300   -1.278000    0.046600
     21          1           0       -2.810200   -2.328400   -1.249900
     22          1           0       -2.449400   -2.697100    0.457100
 ---------------------------------------------------------------------
                    Distance matrix (angstroms):
                    1          2          3          4          5
     1  H    0.000000
     2  C    1.093064   0.000000
     3  H    1.783800   1.094784   0.000000
     4  H    1.763429   1.095659   1.779046   0.000000
     5  C    2.140811   1.522088   2.204231   2.143949   0.000000
     6  O    2.646028   2.407031   3.305616   2.805338   1.221789
     7  N    3.242943   2.450820   2.575351   3.083662   1.378917
     8  H    3.463489   2.552739   2.260914   3.135529   2.056599
     9  C    4.557529   3.828882   4.035545   4.344267   2.488061
    10  H    4.620321   3.989396   4.463668   4.372944   2.506831
    11  C    5.640288   4.731923   4.764284   5.033507   3.620050
    12  H    5.873000   4.934713   4.717671   5.304686   4.050523
    13  H    6.580950   5.724377   5.813927   6.029879   4.494660
    14  H    5.599703   4.615092   4.721943   4.674435   3.645501
    15  C    5.336129   4.812525   4.924398   5.538439   3.499444
    16  O    6.502384   5.975883   6.124352   6.637887   4.595875
    17  N    4.976820   4.639050   4.614258   5.554517   3.575774
    18  H    4.060326   3.777849   3.708907   4.759404   2.913373
    19  C    6.068278   5.890637   5.832306   6.867206   4.904234
    20  H    6.940909   6.679882   6.660232   7.591974   5.552055
    21  H    6.390626   6.221974   5.980977   7.239569   5.442604
    22  H    6.020090   6.029019   6.096195   7.029689   5.071059
                    6          7          8          9         10
     6  O    0.000000
     7  N    2.281810   0.000000
     8  H    3.158401   1.011874   0.000000
     9  C    2.830783   1.462156   2.124021   0.000000
    10  H    2.366577   2.051751   2.916866   1.094975   0.000000
    11  C    4.092585   2.473556   2.610149   1.532462   2.161462
    12  H    4.756889   2.742370   2.491512   2.183751   3.080520
    13  H    4.767740   3.405917   3.650507   2.154512   2.519147
    14  H    4.101468   2.755724   2.832937   2.174859   2.474180
    15  C    3.704482   2.529998   3.090822   1.544883   2.114864
    16  O    4.630499   3.654634   4.195855   2.402540   2.697923
    17  N    3.919928   2.752323   3.173434   2.466567   3.104034
    18  H    3.427689   2.262298   2.626083   2.548095   3.194998
    19  C    5.124071   4.190784   4.564253   3.840319   4.368926
    20  H    5.682572   4.731409   5.134559   4.051667   4.518648
    21  H    5.842819   4.663336   4.825283   4.510059   5.194423
    22  H    5.102936   4.637728   5.139538   4.394721   4.720503
                   11         12         13         14         15
    11  C    0.000000
    12  H    1.097940   0.000000
    13  H    1.091744   1.769961   0.000000
    14  H    1.094648   1.780251   1.783387   0.000000
    15  C    2.520794   2.852608   2.663131   3.474702   0.000000
    16  O    2.916394   3.317105   2.563054   3.901319   1.226181
    17  N    3.572374   3.623945   3.906901   4.488402   1.359977
    18  H    3.766991   3.778271   4.341741   4.527719   2.028252
    19  C    4.840634   4.821243   4.979150   5.827185   2.463113
    20  H    4.850196   4.876149   4.747063   5.894824   2.519260
    21  H    5.368739   5.132709   5.583880   6.362928   3.245150
    22  H    5.588982   5.699580   5.743864   6.507189   3.115441
                   16         17         18         19         20
    16  O    0.000000
    17  N    2.285495   0.000000
    18  H    3.151905   1.010082   0.000000
    19  C    2.834110   1.451243   2.138946   0.000000
    20  H    2.380945   2.060387   2.978013   1.090985   0.000000
    21  H    3.673468   2.105340   2.530814   1.095797   1.784321
    22  H    3.484631   2.117318   2.545659   1.097298   1.779945
                   21         22
    21  H    0.000000
    22  H    1.783246   0.000000
 Stoichiometry    C6H12N2O2
 Framework group  C1[X(C6H12N2O2)]
 Deg. of freedom    60
 Full point group                 C1      NOp   1
 Largest Abelian subgroup         C1      NOp   1
 Largest concise Abelian subgroup C1      NOp   1
                         Standard orientation:                         
 ---------------------------------------------------------------------
 Center     Atomic      Atomic             Coordinates (Angstroms)
 Number     Number       Type             X           Y           Z
 ---------------------------------------------------------------------
      1          1           0        3.472502   -1.830203   -0.191799
      2          6           0        3.194506   -0.844901   -0.574799
      3          1           0        2.988906   -0.919700   -1.647499
      4          1           0        4.055209   -0.182805   -0.428899
      5          6           0        2.022309   -0.315496    0.239101
      6          8           0        1.989709   -0.387996    1.458301
      7          7           0        1.002711    0.249008   -0.497899
      8          1           0        1.161512    0.401708   -1.485499
      9          6           0       -0.089385    0.995313    0.125201
     10          1           0        0.205915    1.140212    1.169601
     11          6           0       -0.288079    2.358514   -0.546099
     12          1           0       -0.509480    2.245215   -1.615499
     13          1           0       -1.134177    2.868218   -0.081099
     14          1           0        0.609524    2.975910   -0.439399
     15          6           0       -1.433089    0.235419    0.185901
     16          8           0       -2.420286    0.781124    0.666701
     17          7           0       -1.435394   -1.018381   -0.340899
     18          1           0       -0.542196   -1.399185   -0.619199
     19          6           0       -2.594998   -1.888076   -0.269799
     20          1           0       -3.442295   -1.277972    0.046601
     21          1           0       -2.810200   -2.328375   -1.249899
     22          1           0       -2.449402   -2.697076    0.457101
 ---------------------------------------------------------------------
 Rotational constants (GHZ):      1.8656010      0.8248582      0.6745363
 Standard basis: Aug-CC-pVDZ (5D, 7F)
 There are   338 symmetry adapted basis functions of A   symmetry.
 Integral buffers will be    131072 words long.
 Raffenetti 1 integral format.
 Two-electron integral symmetry is turned on.
   338 basis functions,   562 primitive gaussians,   358 cartesian basis functions
    39 alpha electrons       39 beta electrons
       nuclear repulsion energy       552.8889379193 Hartrees.
 NAtoms=   22 NActive=   22 NUniq=   22 SFac= 7.50D-01 NAtFMM=   80 NAOKFM=F Big=F
 One-electron integrals computed using PRISM.
 NBasis=   338 RedAO= T  NBF=   338
 NBsUse=   338 1.00D-06 NBFU=   338
 Harris functional with IExCor=  205 diagonalized for initial guess.
 ExpMin= 2.97D-02 ExpMax= 1.17D+04 ExpMxC= 4.01D+02 IAcc=3 IRadAn=         0 AccDes= 0.00D+00
 HarFok:  IExCor=  205 AccDes= 0.00D+00 IRadAn=         0 IDoV= 1
 ScaDFX=  1.000000  1.000000  1.000000  1.000000
 FoFCou: FMM=F IPFlag=           0 FMFlag=      100000 FMFlg1=           0
         NFxFlg=           0 DoJE=T BraDBF=F KetDBF=T FulRan=T
         Omega=  0.000000  0.000000  1.000000  0.000000  0.000000 ICntrl=     500 IOpCl=  0
         NMat0=    1 NMatS0=    1 NMatT0=    0 NMatD0=    1 NMtDS0=    0 NMtDT0=    0
         I1Cent=           4 NGrid=           0.
 Petite list used in FoFCou.
 Initial guess orbital symmetries:
       Occupied  (A) (A) (A) (A) (A) (A) (A) (A) (A) (A) (A) (A)
                 (A) (A) (A) (A) (A) (A) (A) (A) (A) (A) (A) (A)
                 (A) (A) (A) (A) (A) (A) (A) (A) (A) (A) (A) (A)
                 (A) (A) (A)
       Virtual   (A) (A) (A) (A) (A) (A) (A) (A) (A) (A) (A) (A)
                 (A) (A) (A) (A) (A) (A) (A) (A) (A) (A) (A) (A)
                 (A) (A) (A) (A) (A) (A) (A) (A) (A) (A) (A) (A)
                 (A) (A) (A) (A) (A) (A) (A) (A) (A) (A) (A) (A)
                 (A) (A) (A) (A) (A) (A) (A) (A) (A) (A) (A) (A)
                 (A) (A) (A) (A) (A) (A) (A) (A) (A) (A) (A) (A)
                 (A) (A) (A) (A) (A) (A) (A) (A) (A) (A) (A) (A)
                 (A) (A) (A) (A) (A) (A) (A) (A) (A) (A) (A) (A)
                 (A) (A) (A) (A) (A) (A) (A) (A) (A) (A) (A) (A)
                 (A) (A) (A) (A) (A) (A) (A) (A) (A) (A) (A) (A)
                 (A) (A) (A) (A) (A) (A) (A) (A) (A) (A) (A) (A)
                 (A) (A) (A) (A) (A) (A) (A) (A) (A) (A) (A) (A)
                 (A) (A) (A) (A) (A) (A) (A) (A) (A) (A) (A) (A)
                 (A) (A) (A) (A) (A) (A) (A) (A) (A) (A) (A) (A)
                 (A) (A) (A) (A) (A) (A) (A) (A) (A) (A) (A) (A)
                 (A) (A) (A) (A) (A) (A) (A) (A) (A) (A) (A) (A)
                 (A) (A) (A) (A) (A) (A) (A) (A) (A) (A) (A) (A)
                 (A) (A) (A) (A) (A) (A) (A) (A) (A) (A) (A) (A)
                 (A) (A) (A) (A) (A) (A) (A) (A) (A) (A) (A) (A)
                 (A) (A) (A) (A) (A) (A) (A) (A) (A) (A) (A) (A)
                 (A) (A) (A) (A) (A) (A) (A) (A) (A) (A) (A) (A)
                 (A) (A) (A) (A) (A) (A) (A) (A) (A) (A) (A) (A)
                 (A) (A) (A) (A) (A) (A) (A) (A) (A) (A) (A) (A)
                 (A) (A) (A) (A) (A) (A) (A) (A) (A) (A) (A) (A)
                 (A) (A) (A) (A) (A) (A) (A) (A) (A) (A) (A)
 The electronic state of the initial guess is 1-A.
 Requested convergence on RMS density matrix=1.00D-08 within 128 cycles.
 Requested convergence on MAX density matrix=1.00D-06.
 Requested convergence on             energy=1.00D-06.
 No special actions if energy rises.
 Initial convergence to 1.0D-05 achieved.  Increase integral accuracy.
 SCF Done:  E(RHF) =  -492.925092192     A.U. after   14 cycles
             Convg  =    0.6222D-08             -V/T =  2.0017
 ExpMin= 2.97D-02 ExpMax= 1.17D+04 ExpMxC= 4.01D+02 IAcc=3 IRadAn=         5 AccDes= 0.00D+00
 HarFok:  IExCor=  205 AccDes= 0.00D+00 IRadAn=         5 IDoV=-2
 ScaDFX=  1.000000  1.000000  1.000000  1.000000
 Range of M.O.s used for correlation:    11   338
 NBasis=   338 NAE=    39 NBE=    39 NFC=    10 NFV=     0
 NROrb=    328 NOA=    29 NOB=    29 NVA=   299 NVB=   299

 **** Warning!!: The largest alpha MO coefficient is  0.58080588D+02

 Disk-based method using OVN memory for 29 occupieds at a time.
 Estimated scratch disk usage=  1382285210 words.
 Actual    scratch disk usage=  1369543058 words.
 JobTyp=1 Pass  1:  I=   1 to  29 NPSUse=  8 ParTrn=T ParDer=T DoDerP=F.
 Spin components of T(2) and E(2):
     alpha-alpha T2 =       0.6800311251D-01 E2=     -0.2059433583D+00
     alpha-beta  T2 =       0.3763223963D+00 E2=     -0.1189743128D+01
     beta-beta   T2 =       0.6800311251D-01 E2=     -0.2059433583D+00
 ANorm=    0.1229767710D+01
 E2 =    -0.1601629844D+01 EUMP2 =    -0.49452672203645D+03

 **********************************************************************

            Population analysis using the SCF density.

 **********************************************************************

 Orbital symmetries:
       Occupied  (A) (A) (A) (A) (A) (A) (A) (A) (A) (A) (A) (A)
                 (A) (A) (A) (A) (A) (A) (A) (A) (A) (A) (A) (A)
                 (A) (A) (A) (A) (A) (A) (A) (A) (A) (A) (A) (A)
                 (A) (A) (A)
       Virtual   (A) (A) (A) (A) (A) (A) (A) (A) (A) (A) (A) (A)
                 (A) (A) (A) (A) (A) (A) (A) (A) (A) (A) (A) (A)
                 (A) (A) (A) (A) (A) (A) (A) (A) (A) (A) (A) (A)
                 (A) (A) (A) (A) (A) (A) (A) (A) (A) (A) (A) (A)
                 (A) (A) (A) (A) (A) (A) (A) (A) (A) (A) (A) (A)
                 (A) (A) (A) (A) (A) (A) (A) (A) (A) (A) (A) (A)
                 (A) (A) (A) (A) (A) (A) (A) (A) (A) (A) (A) (A)
                 (A) (A) (A) (A) (A) (A) (A) (A) (A) (A) (A) (A)
                 (A) (A) (A) (A) (A) (A) (A) (A) (A) (A) (A) (A)
                 (A) (A) (A) (A) (A) (A) (A) (A) (A) (A) (A) (A)
                 (A) (A) (A) (A) (A) (A) (A) (A) (A) (A) (A) (A)
                 (A) (A) (A) (A) (A) (A) (A) (A) (A) (A) (A) (A)
                 (A) (A) (A) (A) (A) (A) (A) (A) (A) (A) (A) (A)
                 (A) (A) (A) (A) (A) (A) (A) (A) (A) (A) (A) (A)
                 (A) (A) (A) (A) (A) (A) (A) (A) (A) (A) (A) (A)
                 (A) (A) (A) (A) (A) (A) (A) (A) (A) (A) (A) (A)
                 (A) (A) (A) (A) (A) (A) (A) (A) (A) (A) (A) (A)
                 (A) (A) (A) (A) (A) (A) (A) (A) (A) (A) (A) (A)
                 (A) (A) (A) (A) (A) (A) (A) (A) (A) (A) (A) (A)
                 (A) (A) (A) (A) (A) (A) (A) (A) (A) (A) (A) (A)
                 (A) (A) (A) (A) (A) (A) (A) (A) (A) (A) (A) (A)
                 (A) (A) (A) (A) (A) (A) (A) (A) (A) (A) (A) (A)
                 (A) (A) (A) (A) (A) (A) (A) (A) (A) (A) (A) (A)
                 (A) (A) (A) (A) (A) (A) (A) (A) (A) (A) (A) (A)
                 (A) (A) (A) (A) (A) (A) (A) (A) (A) (A) (A)
 The electronic state is 1-A.
 Alpha  occ. eigenvalues --  -20.54272 -20.52517 -15.61020 -15.59377 -11.37588
 Alpha  occ. eigenvalues --  -11.35620 -11.29239 -11.26671 -11.25949 -11.23986
 Alpha  occ. eigenvalues --   -1.39769  -1.37981  -1.25467  -1.22604  -1.05921
 Alpha  occ. eigenvalues --   -1.00053  -0.96077  -0.87824  -0.81012  -0.78532
 Alpha  occ. eigenvalues --   -0.73001  -0.68545  -0.67228  -0.63375  -0.62333
 Alpha  occ. eigenvalues --   -0.62236  -0.59881  -0.59361  -0.58277  -0.56014
 Alpha  occ. eigenvalues --   -0.54749  -0.54444  -0.53141  -0.52062  -0.49751
 Alpha  occ. eigenvalues --   -0.44496  -0.43531  -0.39584  -0.38917
 Alpha virt. eigenvalues --    0.02169   0.03664   0.04106   0.04574   0.05577
 Alpha virt. eigenvalues --    0.06106   0.06301   0.06509   0.07269   0.08022
 Alpha virt. eigenvalues --    0.08488   0.09368   0.11594   0.11947   0.12312
 Alpha virt. eigenvalues --    0.12716   0.13388   0.14668   0.14774   0.15066
 Alpha virt. eigenvalues --    0.15671   0.15943   0.16645   0.17053   0.17605
 Alpha virt. eigenvalues --    0.17713   0.17872   0.18367   0.18678   0.19431
 Alpha virt. eigenvalues --    0.19940   0.20265   0.20847   0.21032   0.21484
 Alpha virt. eigenvalues --    0.22983   0.23310   0.24439   0.25657   0.26186
 Alpha virt. eigenvalues --    0.26481   0.27624   0.28746   0.30001   0.30654
 Alpha virt. eigenvalues --    0.31106   0.31716   0.32621   0.32861   0.33373
 Alpha virt. eigenvalues --    0.34008   0.34715   0.34967   0.35711   0.36579
 Alpha virt. eigenvalues --    0.36905   0.37164   0.38293   0.38853   0.40234
 Alpha virt. eigenvalues --    0.40561   0.41500   0.41930   0.42554   0.42855
 Alpha virt. eigenvalues --    0.43677   0.43979   0.44703   0.44880   0.45490
 Alpha virt. eigenvalues --    0.46310   0.47002   0.48017   0.48832   0.49327
 Alpha virt. eigenvalues --    0.49846   0.50549   0.50595   0.51163   0.51561
 Alpha virt. eigenvalues --    0.52902   0.53333   0.54430   0.54790   0.55007
 Alpha virt. eigenvalues --    0.55738   0.56502   0.56864   0.57531   0.58125
 Alpha virt. eigenvalues --    0.59016   0.59454   0.60422   0.60634   0.61836
 Alpha virt. eigenvalues --    0.62329   0.63053   0.63430   0.64143   0.64911
 Alpha virt. eigenvalues --    0.65788   0.66760   0.67232   0.67658   0.68319
 Alpha virt. eigenvalues --    0.68720   0.68973   0.70195   0.70836   0.71484
 Alpha virt. eigenvalues --    0.72297   0.72701   0.73474   0.73860   0.74493
 Alpha virt. eigenvalues --    0.74670   0.76468   0.76874   0.78722   0.78974
 Alpha virt. eigenvalues --    0.79843   0.81123   0.81596   0.82865   0.83242
 Alpha virt. eigenvalues --    0.84199   0.84867   0.85642   0.87186   0.87864
 Alpha virt. eigenvalues --    0.88887   0.89701   0.90953   0.92632   0.92994
 Alpha virt. eigenvalues --    0.94863   0.95616   0.96883   0.97525   0.98289
 Alpha virt. eigenvalues --    0.99804   1.01039   1.02060   1.04283   1.04678
 Alpha virt. eigenvalues --    1.06033   1.07566   1.08811   1.09682   1.09745
 Alpha virt. eigenvalues --    1.11234   1.12196   1.13961   1.15843   1.16654
 Alpha virt. eigenvalues --    1.17812   1.18573   1.19920   1.20333   1.21520
 Alpha virt. eigenvalues --    1.22561   1.23999   1.25676   1.27671   1.28753
 Alpha virt. eigenvalues --    1.30088   1.31899   1.33595   1.35995   1.36549
 Alpha virt. eigenvalues --    1.39160   1.40338   1.43274   1.45417   1.46364
 Alpha virt. eigenvalues --    1.48256   1.48928   1.51546   1.53674   1.53846
 Alpha virt. eigenvalues --    1.55620   1.57753   1.58637   1.60873   1.63642
 Alpha virt. eigenvalues --    1.65337   1.67062   1.69799   1.70479   1.72472
 Alpha virt. eigenvalues --    1.74477   1.76175   1.77702   1.78026   1.80696
 Alpha virt. eigenvalues --    1.82505   1.84028   1.84443   1.84863   1.87251
 Alpha virt. eigenvalues --    1.88123   1.88715   1.89104   1.90811   1.93272
 Alpha virt. eigenvalues --    1.94470   1.96112   1.97504   1.99084   2.01517
 Alpha virt. eigenvalues --    2.02592   2.03192   2.04973   2.06238   2.07878
 Alpha virt. eigenvalues --    2.08720   2.12183   2.13964   2.14178   2.17414
 Alpha virt. eigenvalues --    2.18602   2.19050   2.20836   2.23191   2.23652
 Alpha virt. eigenvalues --    2.25094   2.25933   2.27174   2.28648   2.30344
 Alpha virt. eigenvalues --    2.30511   2.31308   2.33606   2.34428   2.36348
 Alpha virt. eigenvalues --    2.39474   2.40481   2.41685   2.43250   2.44274
 Alpha virt. eigenvalues --    2.45521   2.46404   2.48401   2.50028   2.52032
 Alpha virt. eigenvalues --    2.52843   2.53230   2.56187   2.58561   2.60262
 Alpha virt. eigenvalues --    2.62268   2.63274   2.65458   2.66390   2.70000
 Alpha virt. eigenvalues --    2.70407   2.71844   2.74976   2.75329   2.78040
 Alpha virt. eigenvalues --    2.81248   2.83908   2.85756   2.86989   2.89065
 Alpha virt. eigenvalues --    2.89341   2.92298   2.95422   2.96639   2.98469
 Alpha virt. eigenvalues --    2.99864   3.02600   3.03120   3.05489   3.06812
 Alpha virt. eigenvalues --    3.09321   3.14272   3.16753   3.22543   3.24384
 Alpha virt. eigenvalues --    3.31175   3.33099   3.41725   3.46686   3.47622
 Alpha virt. eigenvalues --    3.57240   3.64562   3.75757   3.82697   3.84499
 Alpha virt. eigenvalues --    3.85447   3.86734   3.88318   3.97326   4.02728
 Alpha virt. eigenvalues --    4.04483   4.06837   4.20015   4.27135
          Condensed to atoms (all electrons):
              1          2          3          4          5          6
     1  H    0.744750   0.367346  -0.083915  -0.051050  -0.085632   0.033873
     2  C    0.367346   4.616194   0.346568   0.374330   0.178251  -0.051391
     3  H   -0.083915   0.346568   1.115045  -0.081059   0.110906  -0.011013
     4  H   -0.051050   0.374330  -0.081059   0.730398  -0.049013   0.002958
     5  C   -0.085632   0.178251   0.110906  -0.049013   5.470101   0.154140
     6  O    0.033873  -0.051391  -0.011013   0.002958   0.154140   8.726435
     7  N    0.046937  -0.011951  -0.226963   0.039768  -0.094513  -0.076253
     8  H   -0.004412  -0.038424   0.009271  -0.005921  -0.111426   0.001450
     9  C    0.000843  -0.095429  -0.007860  -0.009912  -0.214300   0.071111
    10  H   -0.000739  -0.015545   0.001879  -0.001598   0.070852  -0.020692
    11  C   -0.000089  -0.001862   0.004598   0.000083   0.041697  -0.007757
    12  H   -0.000408  -0.011738   0.001083  -0.000989  -0.010378   0.000639
    13  H    0.000059   0.003110   0.000216   0.000165  -0.007077  -0.000072
    14  H    0.000326   0.005575   0.000531   0.000565   0.036099  -0.002970
    15  C   -0.002993   0.003728  -0.013602   0.005698  -0.133495   0.020530
    16  O    0.000116   0.001310   0.000184   0.000043   0.015658  -0.001006
    17  N    0.000862  -0.011280  -0.004936  -0.001027   0.025832   0.016067
    18  H    0.004569   0.000466  -0.003545  -0.002828  -0.004251  -0.006182
    19  C   -0.000184   0.001440  -0.002301   0.000362  -0.011435   0.005637
    20  H    0.000092   0.001348  -0.000044   0.000092  -0.000547   0.000047
    21  H   -0.000179  -0.001562  -0.000188   0.000011   0.000878  -0.000069
    22  H    0.000049   0.000982   0.000139  -0.000034   0.003940   0.000228
              7          8          9         10         11         12
     1  H    0.046937  -0.004412   0.000843  -0.000739  -0.000089  -0.000408
     2  C   -0.011951  -0.038424  -0.095429  -0.015545  -0.001862  -0.011738
     3  H   -0.226963   0.009271  -0.007860   0.001879   0.004598   0.001083
     4  H    0.039768  -0.005921  -0.009912  -0.001598   0.000083  -0.000989
     5  C   -0.094513  -0.111426  -0.214300   0.070852   0.041697  -0.010378
     6  O   -0.076253   0.001450   0.071111  -0.020692  -0.007757   0.000639
     7  N    8.066306   0.355226  -0.576678  -0.182104  -0.057408  -0.136186
     8  H    0.355226   0.904654  -0.023649  -0.012776  -0.031316   0.003964
     9  C   -0.576678  -0.023649   7.153944   0.173051   0.240497  -0.007091
    10  H   -0.182104  -0.012776   0.173051   1.117248  -0.016101   0.080574
    11  C   -0.057408  -0.031316   0.240497  -0.016101   4.197714   0.400163
    12  H   -0.136186   0.003964  -0.007091   0.080574   0.400163   1.114836
    13  H    0.051129  -0.000318  -0.057653  -0.031710   0.284431  -0.156994
    14  H    0.006950  -0.003663   0.060164  -0.072454   0.253736  -0.207581
    15  C    0.221596   0.031950  -0.331878  -0.202822  -0.182631  -0.060317
    16  O    0.008030  -0.000139  -0.057406   0.029033   0.024167   0.014008
    17  N   -0.173795  -0.016683   0.142750   0.054952   0.059271   0.029214
    18  H    0.045299  -0.006397  -0.011813  -0.001944  -0.010770   0.003633
    19  C    0.012401  -0.001635  -0.011231   0.000674  -0.009824   0.002707
    20  H    0.010765  -0.000029  -0.038204  -0.001241  -0.007279  -0.001112
    21  H   -0.002567   0.000426   0.015967   0.000942  -0.002800  -0.000526
    22  H    0.005796  -0.000417  -0.005990  -0.003179   0.005264   0.000436
             13         14         15         16         17         18
     1  H    0.000059   0.000326  -0.002993   0.000116   0.000862   0.004569
     2  C    0.003110   0.005575   0.003728   0.001310  -0.011280   0.000466
     3  H    0.000216   0.000531  -0.013602   0.000184  -0.004936  -0.003545
     4  H    0.000165   0.000565   0.005698   0.000043  -0.001027  -0.002828
     5  C   -0.007077   0.036099  -0.133495   0.015658   0.025832  -0.004251
     6  O   -0.000072  -0.002970   0.020530  -0.001006   0.016067  -0.006182
     7  N    0.051129   0.006950   0.221596   0.008030  -0.173795   0.045299
     8  H   -0.000318  -0.003663   0.031950  -0.000139  -0.016683  -0.006397
     9  C   -0.057653   0.060164  -0.331878  -0.057406   0.142750  -0.011813
    10  H   -0.031710  -0.072454  -0.202822   0.029033   0.054952  -0.001944
    11  C    0.284431   0.253736  -0.182631   0.024167   0.059271  -0.010770
    12  H   -0.156994  -0.207581  -0.060317   0.014008   0.029214   0.003633
    13  H    1.089276  -0.159115   0.064818  -0.018801  -0.023509  -0.000137
    14  H   -0.159115   1.142982  -0.015974   0.000795   0.005833  -0.003424
    15  C    0.064818  -0.015974   5.473344   0.167905  -0.051414  -0.061584
    16  O   -0.018801   0.000795   0.167905   8.812716  -0.130741   0.012593
    17  N   -0.023509   0.005833  -0.051414  -0.130741   7.181146   0.239887
    18  H   -0.000137  -0.003424  -0.061584   0.012593   0.239887   1.019912
    19  C   -0.002261  -0.000132  -0.085267  -0.007018   0.275838  -0.142315
    20  H    0.000189  -0.000009   0.059464  -0.006612  -0.053337  -0.001944
    21  H   -0.000165  -0.000041  -0.012467   0.005384  -0.085216   0.010121
    22  H    0.000179   0.000296  -0.031844   0.007088   0.045797  -0.010181
             19         20         21         22
     1  H   -0.000184   0.000092  -0.000179   0.000049
     2  C    0.001440   0.001348  -0.001562   0.000982
     3  H   -0.002301  -0.000044  -0.000188   0.000139
     4  H    0.000362   0.000092   0.000011  -0.000034
     5  C   -0.011435  -0.000547   0.000878   0.003940
     6  O    0.005637   0.000047  -0.000069   0.000228
     7  N    0.012401   0.010765  -0.002567   0.005796
     8  H   -0.001635  -0.000029   0.000426  -0.000417
     9  C   -0.011231  -0.038204   0.015967  -0.005990
    10  H    0.000674  -0.001241   0.000942  -0.003179
    11  C   -0.009824  -0.007279  -0.002800   0.005264
    12  H    0.002707  -0.001112  -0.000526   0.000436
    13  H   -0.002261   0.000189  -0.000165   0.000179
    14  H   -0.000132  -0.000009  -0.000041   0.000296
    15  C   -0.085267   0.059464  -0.012467  -0.031844
    16  O   -0.007018  -0.006612   0.005384   0.007088
    17  N    0.275838  -0.053337  -0.085216   0.045797
    18  H   -0.142315  -0.001944   0.010121  -0.010181
    19  C    4.116500   0.465827   0.355546   0.307506
    20  H    0.465827   0.972428  -0.146492  -0.108377
    21  H    0.355546  -0.146492   1.127722  -0.154025
    22  H    0.307506  -0.108377  -0.154025   1.012319
 Mulliken atomic charges:
              1
     1  H    0.029781
     2  C    0.338535
     3  H   -0.154993
     4  H    0.048958
     5  C    0.613712
     6  O   -0.855710
     7  N   -0.331787
     8  H   -0.049736
     9  C   -0.409235
    10  H    0.033699
    11  C    0.816218
    12  H   -0.057935
    13  H   -0.035761
    14  H   -0.048487
    15  C    1.137257
    16  O   -0.877309
    17  N   -0.525512
    18  H   -0.069163
    19  C    0.729165
    20  H   -0.145025
    21  H   -0.110700
    22  H   -0.075972
 Sum of Mulliken atomic charges =   0.00000
 Mulliken charges with hydrogens summed into heavy atoms:
              1
     2  C    0.262281
     5  C    0.613712
     6  O   -0.855710
     7  N   -0.381522
     9  C   -0.375535
    11  C    0.674035
    15  C    1.137257
    16  O   -0.877309
    17  N   -0.594675
    19  C    0.397468
 Sum of Mulliken charges with hydrogens summed into heavy atoms =   0.00000
 Electronic spatial extent (au):  <R**2>=           1814.5653
 Charge=              0.0000 electrons
 Dipole moment (field-independent basis, Debye):
    X=              2.7265    Y=             -1.4474    Z=             -5.2128  Tot=              6.0583
 Quadrupole moment (field-independent basis, Debye-Ang):
   XX=            -65.6925   YY=            -56.6156   ZZ=            -65.3155
   XY=              6.0821   XZ=             -4.4073   YZ=              0.7728
 Traceless Quadrupole moment (field-independent basis, Debye-Ang):
   XX=             -3.1513   YY=              5.9256   ZZ=             -2.7743
   XY=              6.0821   XZ=             -4.4073   YZ=              0.7728
 Octapole moment (field-independent basis, Debye-Ang**2):
  XXX=             34.1798  YYY=             -5.8286  ZZZ=            -10.5210  XYY=             -0.3370
  XXY=            -20.7558  XXZ=            -24.5166  XZZ=             -5.9318  YZZ=              1.7356
  YYZ=             -0.8144  XYZ=              6.0717
 Hexadecapole moment (field-independent basis, Debye-Ang**3):
 XXXX=          -1467.3434 YYYY=           -633.6540 ZZZZ=           -237.6764 XXXY=             37.6609
 XXXZ=             -6.7946 YYYX=              1.0104 YYYZ=              4.2196 ZZZX=            -18.9228
 ZZZY=              4.4077 XXYY=           -343.7856 XXZZ=           -319.5583 YYZZ=           -148.8008
 XXYZ=             -0.2447 YYXZ=              4.5903 ZZXY=              8.5604
 N-N= 5.528889379193D+02 E-N=-2.260851219971D+03  KE= 4.920712458162D+02
 1\1\GINC-NODE002\SP\RMP2-FC\Aug-CC-pVDZ\C6H12N2O2\STEBOSS\13-Feb-2017\
 0\\#SP MP2/aug-cc-pVDZ\\Single Point calculation at MP2\\0,1\H,0,3.472
 5,-1.8302,-0.1918\C,0,3.1945,-0.8449,-0.5748\H,0,2.9889,-0.9197,-1.647
 5\H,0,4.0552,-0.1828,-0.4289\C,0,2.0223,-0.3155,0.2391\O,0,1.9897,-0.3
 88,1.4583\N,0,1.0027,0.249,-0.4979\H,0,1.1615,0.4017,-1.4855\C,0,-0.08
 94,0.9953,0.1252\H,0,0.2059,1.1402,1.1696\C,0,-0.2881,2.3585,-0.5461\H
 ,0,-0.5095,2.2452,-1.6155\H,0,-1.1342,2.8682,-0.0811\H,0,0.6095,2.9759
 ,-0.4394\C,0,-1.4331,0.2354,0.1859\O,0,-2.4203,0.7811,0.6667\N,0,-1.43
 54,-1.0184,-0.3409\H,0,-0.5422,-1.3992,-0.6192\C,0,-2.595,-1.8881,-0.2
 698\H,0,-3.4423,-1.278,0.0466\H,0,-2.8102,-2.3284,-1.2499\H,0,-2.4494,
 -2.6971,0.4571\\Version=EM64L-G09RevA.02\State=1-A\HF=-492.9250922\MP2
 =-494.526722\RMSD=6.222e-09\PG=C01 [X(C6H12N2O2)]\\@


 We find comfort among those who agree with us -- growth among those who don't.
 -- Frank A. Clark
 Job cpu time:  0 days 15 hours  9 minutes 24.6 seconds.
 File lengths (MBytes):  RWF=  10565 Int=      0 D2E=      0 Chk=      7 Scr=      2
 Normal termination of Gaussian 09 at Mon Feb 13 09:32:36 2017.
