 Entering Gaussian System, Link 0=g09
 Initial command:
 /home/steboss/Software/g09/l1.exe /home/steboss/projects/phi_psi_scan/alanine/MP2/255/5462/Gau-3689.inp -scrdir=/home/steboss/projects/phi_psi_scan/alanine/MP2/255/5462/
 Entering Link 1 = /home/steboss/Software/g09/l1.exe PID=      3691.
  
 Copyright (c) 1988,1990,1992,1993,1995,1998,2003,2009, Gaussian, Inc.
                  All Rights Reserved.
  
 This is part of the Gaussian(R) 09 program.  It is based on
 the Gaussian(R) 03 system (copyright 2003, Gaussian, Inc.),
 the Gaussian(R) 98 system (copyright 1998, Gaussian, Inc.),
 the Gaussian(R) 94 system (copyright 1995, Gaussian, Inc.),
 the Gaussian 92(TM) system (copyright 1992, Gaussian, Inc.),
 the Gaussian 90(TM) system (copyright 1990, Gaussian, Inc.),
 the Gaussian 88(TM) system (copyright 1988, Gaussian, Inc.),
 the Gaussian 86(TM) system (copyright 1986, Carnegie Mellon
 University), and the Gaussian 82(TM) system (copyright 1983,
 Carnegie Mellon University). Gaussian is a federally registered
 trademark of Gaussian, Inc.
  
 This software contains proprietary and confidential information,
 including trade secrets, belonging to Gaussian, Inc.
  
 This software is provided under written license and may be
 used, copied, transmitted, or stored only in accord with that
 written license.
  
 The following legend is applicable only to US Government
 contracts under FAR:
  
                    RESTRICTED RIGHTS LEGEND
  
 Use, reproduction and disclosure by the US Government is
 subject to restrictions as set forth in subparagraphs (a)
 and (c) of the Commercial Computer Software - Restricted
 Rights clause in FAR 52.227-19.
  
 Gaussian, Inc.
 340 Quinnipiac St., Bldg. 40, Wallingford CT 06492
  
  
 ---------------------------------------------------------------
 Warning -- This program may not be used in any manner that
 competes with the business of Gaussian, Inc. or will provide
 assistance to any competitor of Gaussian, Inc.  The licensee
 of this program is prohibited from giving any competitor of
 Gaussian, Inc. access to this program.  By using this program,
 the user acknowledges that Gaussian, Inc. is engaged in the
 business of creating and licensing software in the field of
 computational chemistry and represents and warrants to the
 licensee that it is not a competitor of Gaussian, Inc. and that
 it will not use this program in any manner prohibited above.
 ---------------------------------------------------------------
  

 Cite this work as:
 Gaussian 09, Revision A.02,
 M. J. Frisch, G. W. Trucks, H. B. Schlegel, G. E. Scuseria, 
 M. A. Robb, J. R. Cheeseman, G. Scalmani, V. Barone, B. Mennucci, 
 G. A. Petersson, H. Nakatsuji, M. Caricato, X. Li, H. P. Hratchian, 
 A. F. Izmaylov, J. Bloino, G. Zheng, J. L. Sonnenberg, M. Hada, 
 M. Ehara, K. Toyota, R. Fukuda, J. Hasegawa, M. Ishida, T. Nakajima, 
 Y. Honda, O. Kitao, H. Nakai, T. Vreven, J. A. Montgomery, Jr., 
 J. E. Peralta, F. Ogliaro, M. Bearpark, J. J. Heyd, E. Brothers, 
 K. N. Kudin, V. N. Staroverov, R. Kobayashi, J. Normand, 
 K. Raghavachari, A. Rendell, J. C. Burant, S. S. Iyengar, J. Tomasi, 
 M. Cossi, N. Rega, J. M. Millam, M. Klene, J. E. Knox, J. B. Cross, 
 V. Bakken, C. Adamo, J. Jaramillo, R. Gomperts, R. E. Stratmann, 
 O. Yazyev, A. J. Austin, R. Cammi, C. Pomelli, J. W. Ochterski, 
 R. L. Martin, K. Morokuma, V. G. Zakrzewski, G. A. Voth, 
 P. Salvador, J. J. Dannenberg, S. Dapprich, A. D. Daniels, 
 O. Farkas, J. B. Foresman, J. V. Ortiz, J. Cioslowski, 
 and D. J. Fox, Gaussian, Inc., Wallingford CT, 2009.
 
 ******************************************
 Gaussian 09:  EM64L-G09RevA.02 11-Jun-2009
                13-Feb-2017 
 ******************************************
 %chk=structure_345.chk
 %NProcShared=8
 Will use up to    8 processors via shared memory.
 -------------------
 #SP MP2/aug-cc-pVDZ
 -------------------
 1/38=1/1;
 2/12=2,17=6,18=5,40=1/2;
 3/5=16,7=10,11=9,16=1,25=1,30=1/1,2,3;
 4//1;
 5/5=2,38=5/2;
 8/10=1/1;
 9/16=-3/6;
 6/7=2,8=2,9=2,10=2/1;
 99/5=1,9=1/99;
 -------------------------------
 Single Point calculation at MP2
 -------------------------------
 Symbolic Z-matrix:
 Charge =  0 Multiplicity = 1
 H                     3.4858   -1.8556   -0.0996 
 C                     3.2064   -0.8955   -0.5413 
 H                     2.9873   -1.0388   -1.6044 
 H                     4.071    -0.2291   -0.4477 
 C                     2.0456   -0.3121    0.2517 
 O                     2.0374   -0.288     1.4724 
 N                     1.0017    0.1778   -0.5079 
 H                     1.1671    0.294    -1.4999 
 C                    -0.0692    0.9819    0.0825 
 H                     0.2583    1.2331    1.0954 
 C                    -0.3069    2.2684   -0.7173 
 H                    -0.5913    2.0436   -1.7536 
 H                    -1.1226    2.8323   -0.259 
 H                     0.5946    2.8897   -0.7281 
 C                    -1.4048    0.2302    0.2619 
 O                    -2.3067    0.7397    0.9164 
 N                    -1.5238   -0.9429   -0.4205 
 H                    -0.6685   -1.3375   -0.7873 
 C                    -2.6969   -1.7895   -0.2954 
 H                    -3.5008   -1.178     0.1171 
 H                    -2.9976   -2.174    -1.2759 
 H                    -2.5193   -2.6376    0.3786 
 
                          Input orientation:                          
 ---------------------------------------------------------------------
 Center     Atomic      Atomic             Coordinates (Angstroms)
 Number     Number       Type             X           Y           Z
 ---------------------------------------------------------------------
      1          1           0        3.485800   -1.855600   -0.099600
      2          6           0        3.206400   -0.895500   -0.541300
      3          1           0        2.987300   -1.038800   -1.604400
      4          1           0        4.071000   -0.229100   -0.447700
      5          6           0        2.045600   -0.312100    0.251700
      6          8           0        2.037400   -0.288000    1.472400
      7          7           0        1.001700    0.177800   -0.507900
      8          1           0        1.167100    0.294000   -1.499900
      9          6           0       -0.069200    0.981900    0.082500
     10          1           0        0.258300    1.233100    1.095400
     11          6           0       -0.306900    2.268400   -0.717300
     12          1           0       -0.591300    2.043600   -1.753600
     13          1           0       -1.122600    2.832300   -0.259000
     14          1           0        0.594600    2.889700   -0.728100
     15          6           0       -1.404800    0.230200    0.261900
     16          8           0       -2.306700    0.739700    0.916400
     17          7           0       -1.523800   -0.942900   -0.420500
     18          1           0       -0.668500   -1.337500   -0.787300
     19          6           0       -2.696900   -1.789500   -0.295400
     20          1           0       -3.500800   -1.178000    0.117100
     21          1           0       -2.997600   -2.174000   -1.275900
     22          1           0       -2.519300   -2.637600    0.378600
 ---------------------------------------------------------------------
                    Distance matrix (angstroms):
                    1          2          3          4          5
     1  H    0.000000
     2  C    1.093140   0.000000
     3  H    1.783280   1.094861   0.000000
     4  H    1.763274   1.095620   1.779881   0.000000
     5  C    2.140089   1.522058   2.204541   2.144363   0.000000
     6  O    2.650739   2.406368   3.306465   2.797460   1.220965
     7  N    3.236074   2.452303   2.573914   3.096739   1.380841
     8  H    3.458033   2.548052   2.258407   3.132634   2.051151
     9  C    4.552207   3.826658   4.033739   4.346135   2.485044
    10  H    4.624376   3.987608   4.460705   4.365303   2.508767
    11  C    5.636799   4.731228   4.751449   5.047395   3.623837
    12  H    5.878964   4.952828   4.725445   5.348606   4.064947
    13  H    6.575649   5.719828   5.804033   6.031688   4.492834
    14  H    5.592130   4.602622   4.682524   4.678771   3.649237
    15  C    5.329091   4.814093   4.938014   5.540656   3.492772
    16  O    6.428133   5.932372   6.127310   6.593512   4.526657
    17  N    5.102165   4.731980   4.664851   5.640216   3.686513
    18  H    4.242590   3.907778   3.757891   4.879215   3.081770
    19  C    6.186153   5.975672   5.881085   6.947123   4.997333
    20  H    7.022726   6.745356   6.714044   7.651899   5.615198
    21  H    6.596934   6.376819   6.100461   7.377917   5.588748
    22  H    6.074654   6.055144   6.067215   7.065104   5.124682
                    6          7          8          9         10
     6  O    0.000000
     7  N    2.282812   0.000000
     8  H    3.151303   1.012385   0.000000
     9  C    2.825284   1.463549   2.122648   0.000000
    10  H    2.370880   2.058366   2.905754   1.093766   0.000000
    11  C    4.101915   2.475256   2.585226   1.533383   2.162679
    12  H    4.770063   2.751477   2.493478   2.184275   3.081482
    13  H    4.766510   3.408955   3.636692   2.156445   2.509726
    14  H    4.125730   2.751113   2.767867   2.176558   2.486478
    15  C    3.685456   2.527168   3.118121   1.543070   2.113394
    16  O    4.498501   3.645528   4.254931   2.400095   2.618150
    17  N    4.085843   2.764373   3.152137   2.464493   3.195123
    18  H    3.678259   2.272392   2.557150   2.548594   3.318358
    19  C    5.271927   4.194647   4.552174   3.837743   4.450128
    20  H    5.770667   4.743556   5.154684   4.054904   4.571795
    21  H    6.038325   4.702679   4.846228   4.514475   5.275631
    22  H    5.242188   4.594540   5.070758   4.380804   4.817799
                   11         12         13         14         15
    11  C    0.000000
    12  H    1.097878   0.000000
    13  H    1.092423   1.771484   0.000000
    14  H    1.094912   1.781543   1.781046   0.000000
    15  C    2.513658   2.830626   2.668688   3.471403   0.000000
    16  O    3.000850   3.430984   2.676310   3.967924   1.225310
    17  N    3.446938   3.400867   3.799892   4.389881   1.362349
    18  H    3.624661   3.517319   4.227593   4.412272   2.025004
    19  C    4.728282   4.610049   4.882702   5.737257   2.461563
    20  H    4.772305   4.726882   4.677584   5.833768   2.529271
    21  H    5.223679   4.879203   5.441760   6.232579   3.268336
    22  H    5.492226   5.493368   5.681295   6.439892   3.078962
                   16         17         18         19         20
    16  O    0.000000
    17  N    2.287220   0.000000
    18  H    3.146594   1.010836   0.000000
    19  C    2.831531   1.452083   2.135574   0.000000
    20  H    2.396316   2.062235   2.977466   1.091029   0.000000
    21  H    3.711222   2.102238   2.522532   1.095281   1.784846
    22  H    3.426453   2.121695   2.544611   1.097767   1.778245
                   21         22
    21  H    0.000000
    22  H    1.783554   0.000000
 Stoichiometry    C6H12N2O2
 Framework group  C1[X(C6H12N2O2)]
 Deg. of freedom    60
 Full point group                 C1      NOp   1
 Largest Abelian subgroup         C1      NOp   1
 Largest concise Abelian subgroup C1      NOp   1
                         Standard orientation:                         
 ---------------------------------------------------------------------
 Center     Atomic      Atomic             Coordinates (Angstroms)
 Number     Number       Type             X           Y           Z
 ---------------------------------------------------------------------
      1          1           0        3.485794   -1.855614   -0.099597
      2          6           0        3.206396   -0.895514   -0.541297
      3          1           0        2.987296   -1.038813   -1.604397
      4          1           0        4.070998   -0.229116   -0.447697
      5          6           0        2.045598   -0.312111    0.251703
      6          8           0        2.037398   -0.288011    1.472403
      7          7           0        1.001699    0.177792   -0.507897
      8          1           0        1.167100    0.293992   -1.499897
      9          6           0       -0.069199    0.981895    0.082503
     10          1           0        0.258302    1.233094    1.095403
     11          6           0       -0.306895    2.268396   -0.717297
     12          1           0       -0.591296    2.043596   -1.753597
     13          1           0       -1.122594    2.832298   -0.258997
     14          1           0        0.594606    2.889693   -0.728097
     15          6           0       -1.404801    0.230199    0.261903
     16          8           0       -2.306699    0.739701    0.916403
     17          7           0       -1.523804   -0.942901   -0.420497
     18          1           0       -0.668505   -1.337503   -0.787297
     19          6           0       -2.696906   -1.789498   -0.295397
     20          1           0       -3.500804   -1.177996    0.117103
     21          1           0       -2.997607   -2.173997   -1.275897
     22          1           0       -2.519308   -2.637598    0.378603
 ---------------------------------------------------------------------
 Rotational constants (GHZ):      1.8955938      0.7994318      0.6815556
 Standard basis: Aug-CC-pVDZ (5D, 7F)
 There are   338 symmetry adapted basis functions of A   symmetry.
 Integral buffers will be    131072 words long.
 Raffenetti 1 integral format.
 Two-electron integral symmetry is turned on.
   338 basis functions,   562 primitive gaussians,   358 cartesian basis functions
    39 alpha electrons       39 beta electrons
       nuclear repulsion energy       552.2631050442 Hartrees.
 NAtoms=   22 NActive=   22 NUniq=   22 SFac= 7.50D-01 NAtFMM=   80 NAOKFM=F Big=F
 One-electron integrals computed using PRISM.
 NBasis=   338 RedAO= T  NBF=   338
 NBsUse=   338 1.00D-06 NBFU=   338
 Harris functional with IExCor=  205 diagonalized for initial guess.
 ExpMin= 2.97D-02 ExpMax= 1.17D+04 ExpMxC= 4.01D+02 IAcc=3 IRadAn=         0 AccDes= 0.00D+00
 HarFok:  IExCor=  205 AccDes= 0.00D+00 IRadAn=         0 IDoV= 1
 ScaDFX=  1.000000  1.000000  1.000000  1.000000
 FoFCou: FMM=F IPFlag=           0 FMFlag=      100000 FMFlg1=           0
         NFxFlg=           0 DoJE=T BraDBF=F KetDBF=T FulRan=T
         Omega=  0.000000  0.000000  1.000000  0.000000  0.000000 ICntrl=     500 IOpCl=  0
         NMat0=    1 NMatS0=    1 NMatT0=    0 NMatD0=    1 NMtDS0=    0 NMtDT0=    0
         I1Cent=           4 NGrid=           0.
 Petite list used in FoFCou.
 Initial guess orbital symmetries:
       Occupied  (A) (A) (A) (A) (A) (A) (A) (A) (A) (A) (A) (A)
                 (A) (A) (A) (A) (A) (A) (A) (A) (A) (A) (A) (A)
                 (A) (A) (A) (A) (A) (A) (A) (A) (A) (A) (A) (A)
                 (A) (A) (A)
       Virtual   (A) (A) (A) (A) (A) (A) (A) (A) (A) (A) (A) (A)
                 (A) (A) (A) (A) (A) (A) (A) (A) (A) (A) (A) (A)
                 (A) (A) (A) (A) (A) (A) (A) (A) (A) (A) (A) (A)
                 (A) (A) (A) (A) (A) (A) (A) (A) (A) (A) (A) (A)
                 (A) (A) (A) (A) (A) (A) (A) (A) (A) (A) (A) (A)
                 (A) (A) (A) (A) (A) (A) (A) (A) (A) (A) (A) (A)
                 (A) (A) (A) (A) (A) (A) (A) (A) (A) (A) (A) (A)
                 (A) (A) (A) (A) (A) (A) (A) (A) (A) (A) (A) (A)
                 (A) (A) (A) (A) (A) (A) (A) (A) (A) (A) (A) (A)
                 (A) (A) (A) (A) (A) (A) (A) (A) (A) (A) (A) (A)
                 (A) (A) (A) (A) (A) (A) (A) (A) (A) (A) (A) (A)
                 (A) (A) (A) (A) (A) (A) (A) (A) (A) (A) (A) (A)
                 (A) (A) (A) (A) (A) (A) (A) (A) (A) (A) (A) (A)
                 (A) (A) (A) (A) (A) (A) (A) (A) (A) (A) (A) (A)
                 (A) (A) (A) (A) (A) (A) (A) (A) (A) (A) (A) (A)
                 (A) (A) (A) (A) (A) (A) (A) (A) (A) (A) (A) (A)
                 (A) (A) (A) (A) (A) (A) (A) (A) (A) (A) (A) (A)
                 (A) (A) (A) (A) (A) (A) (A) (A) (A) (A) (A) (A)
                 (A) (A) (A) (A) (A) (A) (A) (A) (A) (A) (A) (A)
                 (A) (A) (A) (A) (A) (A) (A) (A) (A) (A) (A) (A)
                 (A) (A) (A) (A) (A) (A) (A) (A) (A) (A) (A) (A)
                 (A) (A) (A) (A) (A) (A) (A) (A) (A) (A) (A) (A)
                 (A) (A) (A) (A) (A) (A) (A) (A) (A) (A) (A) (A)
                 (A) (A) (A) (A) (A) (A) (A) (A) (A) (A) (A) (A)
                 (A) (A) (A) (A) (A) (A) (A) (A) (A) (A) (A)
 The electronic state of the initial guess is 1-A.
 Requested convergence on RMS density matrix=1.00D-08 within 128 cycles.
 Requested convergence on MAX density matrix=1.00D-06.
 Requested convergence on             energy=1.00D-06.
 No special actions if energy rises.
 Initial convergence to 1.0D-05 achieved.  Increase integral accuracy.
 SCF Done:  E(RHF) =  -492.924427798     A.U. after   14 cycles
             Convg  =    0.5932D-08             -V/T =  2.0017
 ExpMin= 2.97D-02 ExpMax= 1.17D+04 ExpMxC= 4.01D+02 IAcc=3 IRadAn=         5 AccDes= 0.00D+00
 HarFok:  IExCor=  205 AccDes= 0.00D+00 IRadAn=         5 IDoV=-2
 ScaDFX=  1.000000  1.000000  1.000000  1.000000
 Range of M.O.s used for correlation:    11   338
 NBasis=   338 NAE=    39 NBE=    39 NFC=    10 NFV=     0
 NROrb=    328 NOA=    29 NOB=    29 NVA=   299 NVB=   299

 **** Warning!!: The largest alpha MO coefficient is  0.69391765D+02

 Disk-based method using OVN memory for 29 occupieds at a time.
 Estimated scratch disk usage=  1382305002 words.
 Actual    scratch disk usage=  1369543058 words.
 JobTyp=1 Pass  1:  I=   1 to  29 NPSUse=  8 ParTrn=T ParDer=T DoDerP=F.
 Spin components of T(2) and E(2):
     alpha-alpha T2 =       0.6798914536D-01 E2=     -0.2058545546D+00
     alpha-beta  T2 =       0.3764564310D+00 E2=     -0.1189775270D+01
     beta-beta   T2 =       0.6798914536D-01 E2=     -0.2058545546D+00
 ANorm=    0.1229810848D+01
 E2 =    -0.1601484379D+01 EUMP2 =    -0.49452591217692D+03

 **********************************************************************

            Population analysis using the SCF density.

 **********************************************************************

 Orbital symmetries:
       Occupied  (A) (A) (A) (A) (A) (A) (A) (A) (A) (A) (A) (A)
                 (A) (A) (A) (A) (A) (A) (A) (A) (A) (A) (A) (A)
                 (A) (A) (A) (A) (A) (A) (A) (A) (A) (A) (A) (A)
                 (A) (A) (A)
       Virtual   (A) (A) (A) (A) (A) (A) (A) (A) (A) (A) (A) (A)
                 (A) (A) (A) (A) (A) (A) (A) (A) (A) (A) (A) (A)
                 (A) (A) (A) (A) (A) (A) (A) (A) (A) (A) (A) (A)
                 (A) (A) (A) (A) (A) (A) (A) (A) (A) (A) (A) (A)
                 (A) (A) (A) (A) (A) (A) (A) (A) (A) (A) (A) (A)
                 (A) (A) (A) (A) (A) (A) (A) (A) (A) (A) (A) (A)
                 (A) (A) (A) (A) (A) (A) (A) (A) (A) (A) (A) (A)
                 (A) (A) (A) (A) (A) (A) (A) (A) (A) (A) (A) (A)
                 (A) (A) (A) (A) (A) (A) (A) (A) (A) (A) (A) (A)
                 (A) (A) (A) (A) (A) (A) (A) (A) (A) (A) (A) (A)
                 (A) (A) (A) (A) (A) (A) (A) (A) (A) (A) (A) (A)
                 (A) (A) (A) (A) (A) (A) (A) (A) (A) (A) (A) (A)
                 (A) (A) (A) (A) (A) (A) (A) (A) (A) (A) (A) (A)
                 (A) (A) (A) (A) (A) (A) (A) (A) (A) (A) (A) (A)
                 (A) (A) (A) (A) (A) (A) (A) (A) (A) (A) (A) (A)
                 (A) (A) (A) (A) (A) (A) (A) (A) (A) (A) (A) (A)
                 (A) (A) (A) (A) (A) (A) (A) (A) (A) (A) (A) (A)
                 (A) (A) (A) (A) (A) (A) (A) (A) (A) (A) (A) (A)
                 (A) (A) (A) (A) (A) (A) (A) (A) (A) (A) (A) (A)
                 (A) (A) (A) (A) (A) (A) (A) (A) (A) (A) (A) (A)
                 (A) (A) (A) (A) (A) (A) (A) (A) (A) (A) (A) (A)
                 (A) (A) (A) (A) (A) (A) (A) (A) (A) (A) (A) (A)
                 (A) (A) (A) (A) (A) (A) (A) (A) (A) (A) (A) (A)
                 (A) (A) (A) (A) (A) (A) (A) (A) (A) (A) (A) (A)
                 (A) (A) (A) (A) (A) (A) (A) (A) (A) (A) (A)
 The electronic state is 1-A.
 Alpha  occ. eigenvalues --  -20.54264 -20.52600 -15.60983 -15.59379 -11.37519
 Alpha  occ. eigenvalues --  -11.35567 -11.29176 -11.26684 -11.25901 -11.24333
 Alpha  occ. eigenvalues --   -1.39757  -1.38016  -1.25418  -1.22585  -1.05979
 Alpha  occ. eigenvalues --   -1.00094  -0.95979  -0.87971  -0.80931  -0.78397
 Alpha  occ. eigenvalues --   -0.72769  -0.68510  -0.67328  -0.63154  -0.62639
 Alpha  occ. eigenvalues --   -0.62198  -0.59680  -0.59358  -0.58279  -0.56323
 Alpha  occ. eigenvalues --   -0.54794  -0.54523  -0.53339  -0.52004  -0.49692
 Alpha  occ. eigenvalues --   -0.44453  -0.43491  -0.39571  -0.39126
 Alpha virt. eigenvalues --    0.02123   0.03637   0.04027   0.04578   0.05543
 Alpha virt. eigenvalues --    0.05963   0.06382   0.06510   0.07323   0.07953
 Alpha virt. eigenvalues --    0.08427   0.09350   0.11415   0.11856   0.12076
 Alpha virt. eigenvalues --    0.13084   0.13349   0.14734   0.14916   0.14987
 Alpha virt. eigenvalues --    0.15607   0.15911   0.16654   0.16860   0.17506
 Alpha virt. eigenvalues --    0.17753   0.18123   0.18321   0.18619   0.19290
 Alpha virt. eigenvalues --    0.19975   0.20100   0.20898   0.21201   0.21475
 Alpha virt. eigenvalues --    0.22732   0.23309   0.24390   0.25529   0.26282
 Alpha virt. eigenvalues --    0.26575   0.27809   0.28515   0.29497   0.30160
 Alpha virt. eigenvalues --    0.31201   0.31747   0.32683   0.33056   0.33898
 Alpha virt. eigenvalues --    0.34091   0.34421   0.34872   0.35891   0.36794
 Alpha virt. eigenvalues --    0.36965   0.37648   0.38987   0.39125   0.40333
 Alpha virt. eigenvalues --    0.40511   0.41054   0.41506   0.42499   0.43159
 Alpha virt. eigenvalues --    0.43688   0.44171   0.44763   0.45034   0.45586
 Alpha virt. eigenvalues --    0.46471   0.47071   0.48314   0.48636   0.48877
 Alpha virt. eigenvalues --    0.49228   0.50108   0.50282   0.50874   0.51619
 Alpha virt. eigenvalues --    0.52424   0.53339   0.54536   0.55055   0.55153
 Alpha virt. eigenvalues --    0.55835   0.56363   0.56670   0.57651   0.58724
 Alpha virt. eigenvalues --    0.58954   0.59167   0.60090   0.60290   0.62245
 Alpha virt. eigenvalues --    0.62456   0.62801   0.63484   0.64077   0.64530
 Alpha virt. eigenvalues --    0.65307   0.66387   0.67166   0.67701   0.68138
 Alpha virt. eigenvalues --    0.68405   0.69468   0.69877   0.70402   0.71515
 Alpha virt. eigenvalues --    0.72163   0.72938   0.73529   0.73790   0.74231
 Alpha virt. eigenvalues --    0.74684   0.76537   0.77382   0.77880   0.79334
 Alpha virt. eigenvalues --    0.79669   0.80695   0.81388   0.81941   0.83684
 Alpha virt. eigenvalues --    0.84641   0.85377   0.86194   0.86688   0.88138
 Alpha virt. eigenvalues --    0.89236   0.90371   0.91807   0.91934   0.93121
 Alpha virt. eigenvalues --    0.94158   0.96023   0.96612   0.97432   0.97695
 Alpha virt. eigenvalues --    1.00460   1.01745   1.02331   1.03876   1.04444
 Alpha virt. eigenvalues --    1.05701   1.07593   1.08610   1.09446   1.10237
 Alpha virt. eigenvalues --    1.11522   1.12187   1.14099   1.15459   1.16777
 Alpha virt. eigenvalues --    1.17504   1.18289   1.19140   1.20930   1.21054
 Alpha virt. eigenvalues --    1.22413   1.24100   1.25235   1.27712   1.27866
 Alpha virt. eigenvalues --    1.30447   1.31414   1.33596   1.36534   1.37197
 Alpha virt. eigenvalues --    1.39040   1.40338   1.41755   1.44464   1.47251
 Alpha virt. eigenvalues --    1.47960   1.50045   1.50794   1.52614   1.53201
 Alpha virt. eigenvalues --    1.55574   1.57112   1.58404   1.60942   1.63470
 Alpha virt. eigenvalues --    1.65894   1.67126   1.69503   1.71075   1.72912
 Alpha virt. eigenvalues --    1.73783   1.75652   1.76908   1.77619   1.81417
 Alpha virt. eigenvalues --    1.82636   1.84244   1.85519   1.86007   1.86753
 Alpha virt. eigenvalues --    1.88232   1.88473   1.88931   1.90802   1.93000
 Alpha virt. eigenvalues --    1.95077   1.95319   1.97177   1.99292   2.00576
 Alpha virt. eigenvalues --    2.02600   2.04067   2.04895   2.06846   2.07904
 Alpha virt. eigenvalues --    2.09720   2.11486   2.12856   2.14306   2.18053
 Alpha virt. eigenvalues --    2.18288   2.18790   2.21133   2.21901   2.22513
 Alpha virt. eigenvalues --    2.25483   2.26053   2.27666   2.28541   2.29634
 Alpha virt. eigenvalues --    2.31483   2.32575   2.33429   2.34451   2.36507
 Alpha virt. eigenvalues --    2.38137   2.41078   2.41729   2.42259   2.44994
 Alpha virt. eigenvalues --    2.45198   2.46388   2.47778   2.50052   2.52125
 Alpha virt. eigenvalues --    2.52577   2.53615   2.57056   2.57877   2.60298
 Alpha virt. eigenvalues --    2.60870   2.63809   2.65146   2.67658   2.69196
 Alpha virt. eigenvalues --    2.70294   2.72486   2.74358   2.75578   2.76605
 Alpha virt. eigenvalues --    2.80088   2.83295   2.85660   2.86998   2.88732
 Alpha virt. eigenvalues --    2.89326   2.92282   2.95341   2.96338   2.98596
 Alpha virt. eigenvalues --    2.99855   3.02216   3.02945   3.06067   3.08160
 Alpha virt. eigenvalues --    3.12055   3.14061   3.18138   3.21450   3.23315
 Alpha virt. eigenvalues --    3.30140   3.34579   3.40467   3.45921   3.47180
 Alpha virt. eigenvalues --    3.56153   3.64604   3.74122   3.82731   3.84266
 Alpha virt. eigenvalues --    3.84377   3.86519   3.89216   3.96319   4.01322
 Alpha virt. eigenvalues --    4.03356   4.04762   4.19410   4.27104
          Condensed to atoms (all electrons):
              1          2          3          4          5          6
     1  H    0.741022   0.368177  -0.083016  -0.053112  -0.087923   0.034375
     2  C    0.368177   4.607863   0.332177   0.370496   0.162607  -0.047413
     3  H   -0.083016   0.332177   1.131255  -0.081126   0.121982  -0.012312
     4  H   -0.053112   0.370496  -0.081126   0.735405  -0.056868   0.005529
     5  C   -0.087923   0.162607   0.121982  -0.056868   5.457827   0.159162
     6  O    0.034375  -0.047413  -0.012312   0.005529   0.159162   8.711473
     7  N    0.047752  -0.019015  -0.239207   0.041465  -0.143693  -0.059069
     8  H   -0.004606  -0.038637   0.007992  -0.005263  -0.096064   0.000607
     9  C    0.001616  -0.045147   0.003477  -0.006327  -0.149571   0.066172
    10  H   -0.000990  -0.016409   0.002946  -0.001599   0.071390  -0.023083
    11  C    0.000821  -0.016119   0.001029  -0.000319   0.029249  -0.011884
    12  H   -0.000253  -0.009004   0.000675  -0.000717  -0.012698   0.000833
    13  H    0.000083   0.002979   0.000167   0.000127  -0.005894  -0.000683
    14  H    0.000344   0.002636   0.000387   0.000469   0.035517  -0.002733
    15  C   -0.003775   0.010576  -0.012650   0.004593  -0.110381   0.020541
    16  O    0.000020   0.000584   0.000311   0.000026   0.015088  -0.001308
    17  N    0.001863  -0.015583  -0.007960  -0.000331   0.006810   0.012271
    18  H    0.003756   0.007516  -0.001966  -0.001791  -0.010825  -0.004665
    19  C   -0.000087   0.001951  -0.002506   0.000375  -0.013492   0.004505
    20  H    0.000029   0.001212   0.000043   0.000079   0.000160   0.000017
    21  H   -0.000125  -0.001182  -0.000120  -0.000002  -0.000321   0.000009
    22  H    0.000109   0.000612  -0.000094  -0.000045   0.002838   0.000363
              7          8          9         10         11         12
     1  H    0.047752  -0.004606   0.001616  -0.000990   0.000821  -0.000253
     2  C   -0.019015  -0.038637  -0.045147  -0.016409  -0.016119  -0.009004
     3  H   -0.239207   0.007992   0.003477   0.002946   0.001029   0.000675
     4  H    0.041465  -0.005263  -0.006327  -0.001599  -0.000319  -0.000717
     5  C   -0.143693  -0.096064  -0.149571   0.071390   0.029249  -0.012698
     6  O   -0.059069   0.000607   0.066172  -0.023083  -0.011884   0.000833
     7  N    7.962404   0.369484  -0.400910  -0.154822  -0.097815  -0.112540
     8  H    0.369484   0.889762  -0.049138  -0.006092  -0.033744   0.009440
     9  C   -0.400910  -0.049138   6.950360  -0.020944   0.289016  -0.045233
    10  H   -0.154822  -0.006092  -0.020944   1.193446   0.038636   0.076334
    11  C   -0.097815  -0.033744   0.289016   0.038636   4.200461   0.425413
    12  H   -0.112540   0.009440  -0.045233   0.076334   0.425413   1.107604
    13  H    0.046765  -0.001447  -0.063357  -0.031280   0.288175  -0.158033
    14  H   -0.013120  -0.003457   0.104139  -0.061219   0.203734  -0.202738
    15  C    0.169223   0.028575  -0.204731  -0.190010  -0.231037  -0.079554
    16  O   -0.004350  -0.000968  -0.046417   0.044910   0.046988   0.011235
    17  N   -0.149762  -0.015977   0.091387   0.067793   0.097730   0.039853
    18  H    0.039986  -0.005369  -0.015455  -0.003303  -0.015303   0.004081
    19  C    0.009379  -0.001636  -0.010760   0.004973  -0.014039   0.003880
    20  H    0.008671  -0.000084  -0.039735  -0.000445  -0.010438  -0.001845
    21  H   -0.006496  -0.000143   0.025951   0.001279  -0.001377   0.000150
    22  H    0.010575   0.000063  -0.014967  -0.003283   0.003807   0.000108
             13         14         15         16         17         18
     1  H    0.000083   0.000344  -0.003775   0.000020   0.001863   0.003756
     2  C    0.002979   0.002636   0.010576   0.000584  -0.015583   0.007516
     3  H    0.000167   0.000387  -0.012650   0.000311  -0.007960  -0.001966
     4  H    0.000127   0.000469   0.004593   0.000026  -0.000331  -0.001791
     5  C   -0.005894   0.035517  -0.110381   0.015088   0.006810  -0.010825
     6  O   -0.000683  -0.002733   0.020541  -0.001308   0.012271  -0.004665
     7  N    0.046765  -0.013120   0.169223  -0.004350  -0.149762   0.039986
     8  H   -0.001447  -0.003457   0.028575  -0.000968  -0.015977  -0.005369
     9  C   -0.063357   0.104139  -0.204731  -0.046417   0.091387  -0.015455
    10  H   -0.031280  -0.061219  -0.190010   0.044910   0.067793  -0.003303
    11  C    0.288175   0.203734  -0.231037   0.046988   0.097730  -0.015303
    12  H   -0.158033  -0.202738  -0.079554   0.011235   0.039853   0.004081
    13  H    1.092425  -0.163070   0.050946  -0.002567  -0.017278   0.000638
    14  H   -0.163070   1.143999   0.027122  -0.003340  -0.001866  -0.003829
    15  C    0.050946   0.027122   5.378575   0.106087  -0.051226  -0.048045
    16  O   -0.002567  -0.003340   0.106087   8.825952  -0.098320   0.013175
    17  N   -0.017278  -0.001866  -0.051226  -0.098320   7.200356   0.248372
    18  H    0.000638  -0.003829  -0.048045   0.013175   0.248372   1.013403
    19  C   -0.002715   0.000265  -0.084692  -0.007418   0.257986  -0.149207
    20  H    0.000407   0.000051   0.071578  -0.014810  -0.054928  -0.001531
    21  H   -0.000595   0.000081  -0.034548   0.008469  -0.107743   0.007176
    22  H    0.000103   0.000305  -0.015028   0.004913   0.059104  -0.006753
             19         20         21         22
     1  H   -0.000087   0.000029  -0.000125   0.000109
     2  C    0.001951   0.001212  -0.001182   0.000612
     3  H   -0.002506   0.000043  -0.000120  -0.000094
     4  H    0.000375   0.000079  -0.000002  -0.000045
     5  C   -0.013492   0.000160  -0.000321   0.002838
     6  O    0.004505   0.000017   0.000009   0.000363
     7  N    0.009379   0.008671  -0.006496   0.010575
     8  H   -0.001636  -0.000084  -0.000143   0.000063
     9  C   -0.010760  -0.039735   0.025951  -0.014967
    10  H    0.004973  -0.000445   0.001279  -0.003283
    11  C   -0.014039  -0.010438  -0.001377   0.003807
    12  H    0.003880  -0.001845   0.000150   0.000108
    13  H   -0.002715   0.000407  -0.000595   0.000103
    14  H    0.000265   0.000051   0.000081   0.000305
    15  C   -0.084692   0.071578  -0.034548  -0.015028
    16  O   -0.007418  -0.014810   0.008469   0.004913
    17  N    0.257986  -0.054928  -0.107743   0.059104
    18  H   -0.149207  -0.001531   0.007176  -0.006753
    19  C    4.120762   0.457650   0.385470   0.296470
    20  H    0.457650   0.972539  -0.151185  -0.101124
    21  H    0.385470  -0.151185   1.163838  -0.162385
    22  H    0.296470  -0.101124  -0.162385   0.999156
 Mulliken atomic charges:
              1
     1  H    0.033921
     2  C    0.339125
     3  H   -0.161486
     4  H    0.048936
     5  C    0.625099
     6  O   -0.852707
     7  N   -0.304905
     8  H   -0.043299
     9  C   -0.419428
    10  H    0.011772
    11  C    0.807016
    12  H   -0.056992
    13  H   -0.035898
    14  H   -0.063676
    15  C    1.197862
    16  O   -0.898259
    17  N   -0.562549
    18  H   -0.070059
    19  C    0.742886
    20  H   -0.136310
    21  H   -0.126201
    22  H   -0.074846
 Sum of Mulliken atomic charges =   0.00000
 Mulliken charges with hydrogens summed into heavy atoms:
              1
     2  C    0.260495
     5  C    0.625099
     6  O   -0.852707
     7  N   -0.348204
     9  C   -0.407656
    11  C    0.650450
    15  C    1.197862
    16  O   -0.898259
    17  N   -0.632608
    19  C    0.405528
 Sum of Mulliken charges with hydrogens summed into heavy atoms =   0.00000
 Electronic spatial extent (au):  <R**2>=           1822.1468
 Charge=              0.0000 electrons
 Dipole moment (field-independent basis, Debye):
    X=              2.4323    Y=             -1.5482    Z=             -5.7747  Tot=              6.4544
 Quadrupole moment (field-independent basis, Debye-Ang):
   XX=            -64.4367   YY=            -56.4183   ZZ=            -66.3663
   XY=              5.1833   XZ=             -3.4366   YZ=              0.0423
 Traceless Quadrupole moment (field-independent basis, Debye-Ang):
   XX=             -2.0296   YY=              5.9888   ZZ=             -3.9592
   XY=              5.1833   XZ=             -3.4366   YZ=              0.0423
 Octapole moment (field-independent basis, Debye-Ang**2):
  XXX=             27.9878  YYY=             -4.1926  ZZZ=            -11.8568  XYY=             -0.0626
  XXY=            -20.1360  XXZ=            -26.9663  XZZ=             -3.9391  YZZ=             -0.5565
  YYZ=             -0.9591  XYZ=              5.8312
 Hexadecapole moment (field-independent basis, Debye-Ang**3):
 XXXX=          -1474.6541 YYYY=           -589.8287 ZZZZ=           -268.7084 XXXY=             30.3123
 XXXZ=             -5.8273 YYYX=              0.2674 YYYZ=              3.3408 ZZZX=            -16.8224
 ZZZY=              5.4469 XXYY=           -337.9775 XXZZ=           -334.7981 YYZZ=           -146.3688
 XXYZ=             -3.3689 YYXZ=              6.2395 ZZXY=              9.3793
 N-N= 5.522631050442D+02 E-N=-2.259589830340D+03  KE= 4.920700046902D+02
 1\1\GINC-NODE011\SP\RMP2-FC\Aug-CC-pVDZ\C6H12N2O2\MANAGER\13-Feb-2017\
 0\\#SP MP2/aug-cc-pVDZ\\Single Point calculation at MP2\\0,1\H,0,3.485
 8,-1.8556,-0.0996\C,0,3.2064,-0.8955,-0.5413\H,0,2.9873,-1.0388,-1.604
 4\H,0,4.071,-0.2291,-0.4477\C,0,2.0456,-0.3121,0.2517\O,0,2.0374,-0.28
 8,1.4724\N,0,1.0017,0.1778,-0.5079\H,0,1.1671,0.294,-1.4999\C,0,-0.069
 2,0.9819,0.0825\H,0,0.2583,1.2331,1.0954\C,0,-0.3069,2.2684,-0.7173\H,
 0,-0.5913,2.0436,-1.7536\H,0,-1.1226,2.8323,-0.259\H,0,0.5946,2.8897,-
 0.7281\C,0,-1.4048,0.2302,0.2619\O,0,-2.3067,0.7397,0.9164\N,0,-1.5238
 ,-0.9429,-0.4205\H,0,-0.6685,-1.3375,-0.7873\C,0,-2.6969,-1.7895,-0.29
 54\H,0,-3.5008,-1.178,0.1171\H,0,-2.9976,-2.174,-1.2759\H,0,-2.5193,-2
 .6376,0.3786\\Version=EM64L-G09RevA.02\State=1-A\HF=-492.9244278\MP2=-
 494.5259122\RMSD=5.932e-09\PG=C01 [X(C6H12N2O2)]\\@


 THE RED LIGHT IS ALWAYS LONGER THAN THE GREEN LIGHT.

                     -- PETER'S THEORY OF RELATIVITY
 Job cpu time:  0 days 10 hours 32 minutes  4.4 seconds.
 File lengths (MBytes):  RWF=  10565 Int=      0 D2E=      0 Chk=      7 Scr=      2
 Normal termination of Gaussian 09 at Mon Feb 13 10:02:09 2017.
