 Entering Gaussian System, Link 0=g09
 Initial command:
 /home/steboss/Software/g09/l1.exe /tmp/Gau-11013.inp -scrdir=/tmp/
 Entering Link 1 = /home/steboss/Software/g09/l1.exe PID=     11015.
  
 Copyright (c) 1988,1990,1992,1993,1995,1998,2003,2009, Gaussian, Inc.
                  All Rights Reserved.
  
 This is part of the Gaussian(R) 09 program.  It is based on
 the Gaussian(R) 03 system (copyright 2003, Gaussian, Inc.),
 the Gaussian(R) 98 system (copyright 1998, Gaussian, Inc.),
 the Gaussian(R) 94 system (copyright 1995, Gaussian, Inc.),
 the Gaussian 92(TM) system (copyright 1992, Gaussian, Inc.),
 the Gaussian 90(TM) system (copyright 1990, Gaussian, Inc.),
 the Gaussian 88(TM) system (copyright 1988, Gaussian, Inc.),
 the Gaussian 86(TM) system (copyright 1986, Carnegie Mellon
 University), and the Gaussian 82(TM) system (copyright 1983,
 Carnegie Mellon University). Gaussian is a federally registered
 trademark of Gaussian, Inc.
  
 This software contains proprietary and confidential information,
 including trade secrets, belonging to Gaussian, Inc.
  
 This software is provided under written license and may be
 used, copied, transmitted, or stored only in accord with that
 written license.
  
 The following legend is applicable only to US Government
 contracts under FAR:
  
                    RESTRICTED RIGHTS LEGEND
  
 Use, reproduction and disclosure by the US Government is
 subject to restrictions as set forth in subparagraphs (a)
 and (c) of the Commercial Computer Software - Restricted
 Rights clause in FAR 52.227-19.
  
 Gaussian, Inc.
 340 Quinnipiac St., Bldg. 40, Wallingford CT 06492
  
  
 ---------------------------------------------------------------
 Warning -- This program may not be used in any manner that
 competes with the business of Gaussian, Inc. or will provide
 assistance to any competitor of Gaussian, Inc.  The licensee
 of this program is prohibited from giving any competitor of
 Gaussian, Inc. access to this program.  By using this program,
 the user acknowledges that Gaussian, Inc. is engaged in the
 business of creating and licensing software in the field of
 computational chemistry and represents and warrants to the
 licensee that it is not a competitor of Gaussian, Inc. and that
 it will not use this program in any manner prohibited above.
 ---------------------------------------------------------------
  

 Cite this work as:
 Gaussian 09, Revision A.02,
 M. J. Frisch, G. W. Trucks, H. B. Schlegel, G. E. Scuseria, 
 M. A. Robb, J. R. Cheeseman, G. Scalmani, V. Barone, B. Mennucci, 
 G. A. Petersson, H. Nakatsuji, M. Caricato, X. Li, H. P. Hratchian, 
 A. F. Izmaylov, J. Bloino, G. Zheng, J. L. Sonnenberg, M. Hada, 
 M. Ehara, K. Toyota, R. Fukuda, J. Hasegawa, M. Ishida, T. Nakajima, 
 Y. Honda, O. Kitao, H. Nakai, T. Vreven, J. A. Montgomery, Jr., 
 J. E. Peralta, F. Ogliaro, M. Bearpark, J. J. Heyd, E. Brothers, 
 K. N. Kudin, V. N. Staroverov, R. Kobayashi, J. Normand, 
 K. Raghavachari, A. Rendell, J. C. Burant, S. S. Iyengar, J. Tomasi, 
 M. Cossi, N. Rega, J. M. Millam, M. Klene, J. E. Knox, J. B. Cross, 
 V. Bakken, C. Adamo, J. Jaramillo, R. Gomperts, R. E. Stratmann, 
 O. Yazyev, A. J. Austin, R. Cammi, C. Pomelli, J. W. Ochterski, 
 R. L. Martin, K. Morokuma, V. G. Zakrzewski, G. A. Voth, 
 P. Salvador, J. J. Dannenberg, S. Dapprich, A. D. Daniels, 
 O. Farkas, J. B. Foresman, J. V. Ortiz, J. Cioslowski, 
 and D. J. Fox, Gaussian, Inc., Wallingford CT, 2009.
 
 ******************************************
 Gaussian 09:  EM64L-G09RevA.02 11-Jun-2009
                11-Feb-2017 
 ******************************************
 %chk=structure_210.chk
 %NProcShared=8
 Will use up to    8 processors via shared memory.
 -------------------------------------------
 # HF/6-31G* Opt=(ModRedundant) geom=nocrowd
 -------------------------------------------
 1/18=120,19=15,38=1/1,3;
 2/9=110,12=1,17=6,18=5,40=1/2;
 3/5=1,6=6,7=1,11=9,16=1,25=1,30=1,71=1/1,2,3;
 4//1;
 5/5=2,38=5/2;
 6/7=2,8=2,9=2,10=2,28=1/1;
 7//1,2,3,16;
 1/18=20,19=15/3(2);
 2/9=110,12=1/2;
 99//99;
 2/9=110,12=1/2;
 3/5=1,6=6,7=1,11=9,16=1,25=1,30=1,71=1/1,2,3;
 4/5=5,16=3/1;
 5/5=2,38=5/2;
 7//1,2,3,16;
 1/18=20,19=15/3(-5);
 2/9=110,12=1/2;
 6/7=2,8=2,9=2,10=2,19=2,28=1/1;
 99/9=1/99;
 ------------------
 Phi Psi fixed scan
 ------------------
 Symbolic Z-matrix:
 Charge =  0 Multiplicity = 1
 H                     1.3513    2.3068    1.9013 
 C                     1.6731    2.7486    0.9582 
 H                     0.9598    3.5143    0.6531 
 H                     1.7242    1.9746    0.1925 
 C                     3.0539    3.3932    1.0948 
 O                     3.6506    3.3681    2.1689 
 N                     3.5554    3.9697    0. 
 H                     3.0267    3.9647   -0.8606 
 C                     4.8533    4.6139    0. 
 H                     5.4076    4.3155    0.8898 
 C                     5.6613    4.2208   -1.2322 
 H                     5.1233    4.5214   -2.1312 
 H                     6.6305    4.7189   -1.2058 
 H                     5.8085    3.1409   -1.2414 
 C                     4.7127    6.1294    0. 
 O                     3.7419    6.6658    0.5295 
 N                     5.6868    6.8201   -0.5968 
 H                     6.4653    6.334    -1.0185 
 C                     5.669     8.2675   -0.6638 
 H                     4.7735    8.6435   -0.169 
 H                     6.553     8.6657   -0.1657 
 H                     5.667     8.5835   -1.7069 
 
 The following ModRedundant input section has been read:
 D    5    7    9   15 F                                                       
 D    7    9   15   17 F                                                       

 GradGradGradGradGradGradGradGradGradGradGradGradGradGradGradGradGradGrad
 Berny optimization.
 Initialization pass.
                           ----------------------------
                           !    Initial Parameters    !
                           ! (Angstroms and Degrees)  !
 --------------------------                            --------------------------
 ! Name  Definition              Value          Derivative Info.                !
 --------------------------------------------------------------------------------
 ! R1    R(1,2)                  1.09           estimate D2E/DX2                !
 ! R2    R(2,3)                  1.09           estimate D2E/DX2                !
 ! R3    R(2,4)                  1.0899         estimate D2E/DX2                !
 ! R4    R(2,5)                  1.53           estimate D2E/DX2                !
 ! R5    R(5,6)                  1.229          estimate D2E/DX2                !
 ! R6    R(5,7)                  1.3351         estimate D2E/DX2                !
 ! R7    R(7,8)                  1.01           estimate D2E/DX2                !
 ! R8    R(7,9)                  1.449          estimate D2E/DX2                !
 ! R9    R(9,10)                 1.09           estimate D2E/DX2                !
 ! R10   R(9,11)                 1.525          estimate D2E/DX2                !
 ! R11   R(9,15)                 1.522          estimate D2E/DX2                !
 ! R12   R(11,12)                1.09           estimate D2E/DX2                !
 ! R13   R(11,13)                1.09           estimate D2E/DX2                !
 ! R14   R(11,14)                1.0899         estimate D2E/DX2                !
 ! R15   R(15,16)                1.229          estimate D2E/DX2                !
 ! R16   R(15,17)                1.335          estimate D2E/DX2                !
 ! R17   R(17,18)                1.01           estimate D2E/DX2                !
 ! R18   R(17,19)                1.4491         estimate D2E/DX2                !
 ! R19   R(19,20)                1.09           estimate D2E/DX2                !
 ! R20   R(19,21)                1.09           estimate D2E/DX2                !
 ! R21   R(19,22)                1.0899         estimate D2E/DX2                !
 ! A1    A(1,2,3)              109.493          estimate D2E/DX2                !
 ! A2    A(1,2,4)              109.5017         estimate D2E/DX2                !
 ! A3    A(1,2,5)              111.0973         estimate D2E/DX2                !
 ! A4    A(3,2,4)              109.4436         estimate D2E/DX2                !
 ! A5    A(3,2,5)              108.6398         estimate D2E/DX2                !
 ! A6    A(4,2,5)              108.6387         estimate D2E/DX2                !
 ! A7    A(2,5,6)              120.5054         estimate D2E/DX2                !
 ! A8    A(2,5,7)              116.5979         estimate D2E/DX2                !
 ! A9    A(6,5,7)              122.8967         estimate D2E/DX2                !
 ! A10   A(5,7,8)              119.9959         estimate D2E/DX2                !
 ! A11   A(5,7,9)              121.9004         estimate D2E/DX2                !
 ! A12   A(8,7,9)              118.1037         estimate D2E/DX2                !
 ! A13   A(7,9,10)             109.5            estimate D2E/DX2                !
 ! A14   A(7,9,11)             111.0992         estimate D2E/DX2                !
 ! A15   A(7,9,15)             111.0966         estimate D2E/DX2                !
 ! A16   A(10,9,11)            108.6382         estimate D2E/DX2                !
 ! A17   A(10,9,15)            108.6373         estimate D2E/DX2                !
 ! A18   A(11,9,15)            107.7947         estimate D2E/DX2                !
 ! A19   A(9,11,12)            109.5007         estimate D2E/DX2                !
 ! A20   A(9,11,13)            109.4959         estimate D2E/DX2                !
 ! A21   A(9,11,14)            109.4978         estimate D2E/DX2                !
 ! A22   A(12,11,13)           109.441          estimate D2E/DX2                !
 ! A23   A(12,11,14)           109.4482         estimate D2E/DX2                !
 ! A24   A(13,11,14)           109.4436         estimate D2E/DX2                !
 ! A25   A(9,15,16)            120.5            estimate D2E/DX2                !
 ! A26   A(9,15,17)            116.6011         estimate D2E/DX2                !
 ! A27   A(16,15,17)           122.8989         estimate D2E/DX2                !
 ! A28   A(15,17,18)           120.0038         estimate D2E/DX2                !
 ! A29   A(15,17,19)           121.9048         estimate D2E/DX2                !
 ! A30   A(18,17,19)           118.0914         estimate D2E/DX2                !
 ! A31   A(17,19,20)           109.491          estimate D2E/DX2                !
 ! A32   A(17,19,21)           109.5001         estimate D2E/DX2                !
 ! A33   A(17,19,22)           109.504          estimate D2E/DX2                !
 ! A34   A(20,19,21)           109.4404         estimate D2E/DX2                !
 ! A35   A(20,19,22)           109.4463         estimate D2E/DX2                !
 ! A36   A(21,19,22)           109.4456         estimate D2E/DX2                !
 ! D1    D(1,2,5,6)              0.0038         estimate D2E/DX2                !
 ! D2    D(1,2,5,7)           -179.9948         estimate D2E/DX2                !
 ! D3    D(3,2,5,6)            120.5082         estimate D2E/DX2                !
 ! D4    D(3,2,5,7)            -59.4904         estimate D2E/DX2                !
 ! D5    D(4,2,5,6)           -120.5106         estimate D2E/DX2                !
 ! D6    D(4,2,5,7)             59.4908         estimate D2E/DX2                !
 ! D7    D(2,5,7,8)             -0.0007         estimate D2E/DX2                !
 ! D8    D(2,5,7,9)           -179.9954         estimate D2E/DX2                !
 ! D9    D(6,5,7,8)           -179.9993         estimate D2E/DX2                !
 ! D10   D(6,5,7,9)              0.006          estimate D2E/DX2                !
 ! D11   D(5,7,9,10)            14.996          estimate D2E/DX2                !
 ! D12   D(5,7,9,11)           134.9986         estimate D2E/DX2                !
 ! D13   D(5,7,9,15)          -105.0038         Frozen                          !
 ! D14   D(8,7,9,10)          -164.9988         estimate D2E/DX2                !
 ! D15   D(8,7,9,11)           -44.9962         estimate D2E/DX2                !
 ! D16   D(8,7,9,15)            75.0013         estimate D2E/DX2                !
 ! D17   D(7,9,11,12)           60.0024         estimate D2E/DX2                !
 ! D18   D(7,9,11,13)          179.9986         estimate D2E/DX2                !
 ! D19   D(7,9,11,14)          -60.0038         estimate D2E/DX2                !
 ! D20   D(10,9,11,12)        -179.4843         estimate D2E/DX2                !
 ! D21   D(10,9,11,13)         -59.4881         estimate D2E/DX2                !
 ! D22   D(10,9,11,14)          60.5095         estimate D2E/DX2                !
 ! D23   D(15,9,11,12)         -61.938          estimate D2E/DX2                !
 ! D24   D(15,9,11,13)          58.0582         estimate D2E/DX2                !
 ! D25   D(15,9,11,14)         178.0558         estimate D2E/DX2                !
 ! D26   D(7,9,15,16)           30.0006         estimate D2E/DX2                !
 ! D27   D(7,9,15,17)         -150.0013         Frozen                          !
 ! D28   D(10,9,15,16)         -90.5105         estimate D2E/DX2                !
 ! D29   D(10,9,15,17)          89.4877         estimate D2E/DX2                !
 ! D30   D(11,9,15,16)         151.9427         estimate D2E/DX2                !
 ! D31   D(11,9,15,17)         -28.0592         estimate D2E/DX2                !
 ! D32   D(9,15,17,18)           0.0058         estimate D2E/DX2                !
 ! D33   D(9,15,17,19)         179.9984         estimate D2E/DX2                !
 ! D34   D(16,15,17,18)       -179.9962         estimate D2E/DX2                !
 ! D35   D(16,15,17,19)         -0.0036         estimate D2E/DX2                !
 ! D36   D(15,17,19,20)          0.0048         estimate D2E/DX2                !
 ! D37   D(15,17,19,21)        119.9969         estimate D2E/DX2                !
 ! D38   D(15,17,19,22)       -119.9968         estimate D2E/DX2                !
 ! D39   D(18,17,19,20)        179.9976         estimate D2E/DX2                !
 ! D40   D(18,17,19,21)        -60.0103         estimate D2E/DX2                !
 ! D41   D(18,17,19,22)         59.996          estimate D2E/DX2                !
 --------------------------------------------------------------------------------
 Trust Radius=3.00D-01 FncErr=1.00D-07 GrdErr=1.00D-07
 Number of steps in this run= 108 maximum allowed number of steps= 132.
 GradGradGradGradGradGradGradGradGradGradGradGradGradGradGradGradGradGrad

                          Input orientation:                          
 ---------------------------------------------------------------------
 Center     Atomic      Atomic             Coordinates (Angstroms)
 Number     Number       Type             X           Y           Z
 ---------------------------------------------------------------------
      1          1           0        1.351300    2.306800    1.901300
      2          6           0        1.673100    2.748600    0.958200
      3          1           0        0.959800    3.514300    0.653100
      4          1           0        1.724200    1.974600    0.192500
      5          6           0        3.053900    3.393200    1.094800
      6          8           0        3.650600    3.368100    2.168900
      7          7           0        3.555400    3.969700    0.000000
      8          1           0        3.026700    3.964700   -0.860600
      9          6           0        4.853300    4.613900    0.000000
     10          1           0        5.407600    4.315500    0.889800
     11          6           0        5.661300    4.220800   -1.232200
     12          1           0        5.123300    4.521400   -2.131200
     13          1           0        6.630500    4.718900   -1.205800
     14          1           0        5.808500    3.140900   -1.241400
     15          6           0        4.712700    6.129400    0.000000
     16          8           0        3.741900    6.665800    0.529500
     17          7           0        5.686800    6.820100   -0.596800
     18          1           0        6.465300    6.334000   -1.018500
     19          6           0        5.669000    8.267500   -0.663800
     20          1           0        4.773500    8.643500   -0.169000
     21          1           0        6.553000    8.665700   -0.165700
     22          1           0        5.667000    8.583500   -1.706900
 ---------------------------------------------------------------------
                    Distance matrix (angstroms):
                    1          2          3          4          5
     1  H    0.000000
     2  C    1.090037   0.000000
     3  H    1.780262   1.090036   0.000000
     4  H    1.780283   1.089947   1.779645   0.000000
     5  C    2.174754   1.529960   2.143600   2.143519   0.000000
     6  O    2.546517   2.400017   3.091833   3.091766   1.228972
     7  N    3.352348   2.439731   2.714971   2.714917   1.335081
     8  H    3.630935   2.572774   2.601197   2.601158   2.037386
     9  C    4.604526   3.809352   4.098171   4.098076   2.434448
    10  H    4.638058   4.050475   4.525580   4.419669   2.536250
    11  C    5.662007   4.782360   5.114450   4.751415   3.591432
    12  H    5.949243   4.958941   5.108944   4.841452   3.995288
    13  H    6.583483   5.756804   6.087972   5.792944   4.454471
    14  H    5.517148   4.700391   5.219047   4.483060   3.620678
    15  C    5.433804   4.646195   4.620557   5.121577   3.381863
    16  O    5.157294   4.450637   4.205628   5.117816   3.391581
    17  N    6.738467   5.924941   5.902126   6.309046   4.640831
    18  H    7.134183   6.302985   6.407455   6.553542   4.975137
    19  C    7.794371   7.004024   6.819362   7.476315   5.804328
    20  H    7.493421   6.755213   6.444288   7.341876   5.667439
    21  H    8.471469   7.751687   7.647957   8.259324   6.452272
    22  H    8.428602   7.556458   7.309181   7.926598   6.451126
                    6          7          8          9         10
     6  O    0.000000
     7  N    2.252801   0.000000
     8  H    3.150088   1.010040   0.000000
     9  C    2.775362   1.448978   2.120981   0.000000
    10  H    2.370804   2.083739   2.975844   1.089970   0.000000
    11  C    4.041966   2.452791   2.672974   1.525027   2.139209
    12  H    4.689329   2.702720   2.513975   2.150225   3.041326
    13  H    4.700326   3.386959   3.698020   2.150214   2.459625
    14  H    4.042066   2.702673   2.926101   2.150165   2.466256
    15  C    3.668373   2.450234   2.875614   1.522008   2.136554
    16  O    3.683856   2.753926   3.120870   2.392880   2.903150
    17  N    4.869447   3.608852   3.911398   2.432737   2.925911
    18  H    5.184459   3.885199   4.178814   2.568001   2.972319
    19  C    6.008515   4.835186   5.053174   3.801946   4.254446
    20  H    5.878480   4.832881   5.041903   4.033932   4.500525
    21  H    6.476021   5.573641   5.917523   4.396990   4.620634
    22  H    6.803535   5.353458   5.387088   4.396969   5.002596
                   11         12         13         14         15
    11  C    0.000000
    12  H    1.089957   0.000000
    13  H    1.090023   1.779613   0.000000
    14  H    1.089925   1.779613   1.779617   0.000000
    15  C    2.461892   2.701161   2.668599   3.416575   0.000000
    16  O    3.572913   3.685925   3.891747   4.453296   1.229043
    17  N    2.675957   2.820627   2.382539   3.737223   1.334956
    18  H    2.271057   2.514873   1.634295   3.267562   2.037354
    19  C    4.086431   4.060088   3.716290   5.160921   2.434463
    20  H    4.634529   4.578679   4.463842   5.700866   2.520507
    21  H    4.657219   4.804420   4.082284   5.677572   3.137990
    22  H    4.388453   4.120230   4.014295   5.464303   3.137962
                   16         17         18         19         20
    16  O    0.000000
    17  N    2.252775   0.000000
    18  H    3.150127   1.010043   0.000000
    19  C    2.775450   1.449059   2.120926   0.000000
    20  H    2.337391   2.083727   2.986240   1.090011   0.000000
    21  H    3.519259   2.083840   2.484308   1.090010   1.779642
    22  H    3.519243   2.083817   2.484236   1.089916   1.779629
                   21         22
    21  H    0.000000
    22  H    1.779621   0.000000
 Stoichiometry    C6H12N2O2
 Framework group  C1[X(C6H12N2O2)]
 Deg. of freedom    60
 Full point group                 C1      NOp   1
 Largest Abelian subgroup         C1      NOp   1
 Largest concise Abelian subgroup C1      NOp   1
                         Standard orientation:                         
 ---------------------------------------------------------------------
 Center     Atomic      Atomic             Coordinates (Angstroms)
 Number     Number       Type             X           Y           Z
 ---------------------------------------------------------------------
      1          1           0        4.238436   -0.901400   -0.152485
      2          6           0        3.417377   -0.485040   -0.736168
      3          1           0        3.106484   -1.205937   -1.492363
      4          1           0        3.746134    0.432852   -1.223381
      5          6           0        2.216312   -0.162466    0.154992
      6          8           0        2.260770   -0.378247    1.364056
      7          7           0        1.144776    0.355107   -0.450293
      8          1           0        1.155944    0.514416   -1.447628
      9          6           0       -0.055371    0.703310    0.283151
     10          1           0        0.165418    0.730815    1.350171
     11          6           0       -0.580836    2.070604   -0.141233
     12          1           0       -0.815073    2.056038   -1.205623
     13          1           0       -1.481814    2.305952    0.425334
     14          1           0        0.178160    2.828326    0.052980
     15          6           0       -1.160182   -0.315188    0.041154
     16          8           0       -0.885084   -1.488874   -0.198283
     17          7           0       -2.414555    0.137224    0.104240
     18          1           0       -2.590639    1.111478    0.304262
     19          6           0       -3.553977   -0.732645   -0.107461
     20          1           0       -3.205633   -1.745208   -0.311170
     21          1           0       -4.179360   -0.736863    0.785289
     22          1           0       -4.135031   -0.371257   -0.955808
 ---------------------------------------------------------------------
 Rotational constants (GHZ):      2.7157877      0.7060064      0.6339628
 Standard basis: 6-31G(d) (6D, 7F)
 There are   174 symmetry adapted basis functions of A   symmetry.
 Integral buffers will be    131072 words long.
 Raffenetti 1 integral format.
 Two-electron integral symmetry is turned on.
   174 basis functions,   328 primitive gaussians,   174 cartesian basis functions
    39 alpha electrons       39 beta electrons
       nuclear repulsion energy       556.0723746938 Hartrees.
 NAtoms=   22 NActive=   22 NUniq=   22 SFac= 7.50D-01 NAtFMM=   80 NAOKFM=F Big=F
 One-electron integrals computed using PRISM.
 NBasis=   174 RedAO= T  NBF=   174
 NBsUse=   174 1.00D-06 NBFU=   174
 Harris functional with IExCor=  205 diagonalized for initial guess.
 ExpMin= 1.61D-01 ExpMax= 5.48D+03 ExpMxC= 8.25D+02 IAcc=1 IRadAn=         1 AccDes= 0.00D+00
 HarFok:  IExCor=  205 AccDes= 0.00D+00 IRadAn=         1 IDoV= 1
 ScaDFX=  1.000000  1.000000  1.000000  1.000000
 FoFCou: FMM=F IPFlag=           0 FMFlag=      100000 FMFlg1=           0
         NFxFlg=           0 DoJE=T BraDBF=F KetDBF=T FulRan=T
         Omega=  0.000000  0.000000  1.000000  0.000000  0.000000 ICntrl=     500 IOpCl=  0
         NMat0=    1 NMatS0=    1 NMatT0=    0 NMatD0=    1 NMtDS0=    0 NMtDT0=    0
         I1Cent=           4 NGrid=           0.
 Petite list used in FoFCou.
 Initial guess orbital symmetries:
       Occupied  (A) (A) (A) (A) (A) (A) (A) (A) (A) (A) (A) (A)
                 (A) (A) (A) (A) (A) (A) (A) (A) (A) (A) (A) (A)
                 (A) (A) (A) (A) (A) (A) (A) (A) (A) (A) (A) (A)
                 (A) (A) (A)
       Virtual   (A) (A) (A) (A) (A) (A) (A) (A) (A) (A) (A) (A)
                 (A) (A) (A) (A) (A) (A) (A) (A) (A) (A) (A) (A)
                 (A) (A) (A) (A) (A) (A) (A) (A) (A) (A) (A) (A)
                 (A) (A) (A) (A) (A) (A) (A) (A) (A) (A) (A) (A)
                 (A) (A) (A) (A) (A) (A) (A) (A) (A) (A) (A) (A)
                 (A) (A) (A) (A) (A) (A) (A) (A) (A) (A) (A) (A)
                 (A) (A) (A) (A) (A) (A) (A) (A) (A) (A) (A) (A)
                 (A) (A) (A) (A) (A) (A) (A) (A) (A) (A) (A) (A)
                 (A) (A) (A) (A) (A) (A) (A) (A) (A) (A) (A) (A)
                 (A) (A) (A) (A) (A) (A) (A) (A) (A) (A) (A) (A)
                 (A) (A) (A) (A) (A) (A) (A) (A) (A) (A) (A) (A)
                 (A) (A) (A)
 The electronic state of the initial guess is 1-A.
 Requested convergence on RMS density matrix=1.00D-08 within 128 cycles.
 Requested convergence on MAX density matrix=1.00D-06.
 Requested convergence on             energy=1.00D-06.
 No special actions if energy rises.
 Integral accuracy reduced to 1.0D-05 until final iterations.
 Initial convergence to 1.0D-05 achieved.  Increase integral accuracy.
 SCF Done:  E(RHF) =  -492.836086721     A.U. after   15 cycles
             Convg  =    0.3806D-08             -V/T =  2.0020

 **********************************************************************

            Population analysis using the SCF density.

 **********************************************************************

 Orbital symmetries:
       Occupied  (A) (A) (A) (A) (A) (A) (A) (A) (A) (A) (A) (A)
                 (A) (A) (A) (A) (A) (A) (A) (A) (A) (A) (A) (A)
                 (A) (A) (A) (A) (A) (A) (A) (A) (A) (A) (A) (A)
                 (A) (A) (A)
       Virtual   (A) (A) (A) (A) (A) (A) (A) (A) (A) (A) (A) (A)
                 (A) (A) (A) (A) (A) (A) (A) (A) (A) (A) (A) (A)
                 (A) (A) (A) (A) (A) (A) (A) (A) (A) (A) (A) (A)
                 (A) (A) (A) (A) (A) (A) (A) (A) (A) (A) (A) (A)
                 (A) (A) (A) (A) (A) (A) (A) (A) (A) (A) (A) (A)
                 (A) (A) (A) (A) (A) (A) (A) (A) (A) (A) (A) (A)
                 (A) (A) (A) (A) (A) (A) (A) (A) (A) (A) (A) (A)
                 (A) (A) (A) (A) (A) (A) (A) (A) (A) (A) (A) (A)
                 (A) (A) (A) (A) (A) (A) (A) (A) (A) (A) (A) (A)
                 (A) (A) (A) (A) (A) (A) (A) (A) (A) (A) (A) (A)
                 (A) (A) (A) (A) (A) (A) (A) (A) (A) (A) (A) (A)
                 (A) (A) (A)
 The electronic state is 1-A.
 Alpha  occ. eigenvalues --  -20.51290 -20.50847 -15.59411 -15.59145 -11.34384
 Alpha  occ. eigenvalues --  -11.34324 -11.28447 -11.26139 -11.24533 -11.23077
 Alpha  occ. eigenvalues --   -1.37479  -1.36187  -1.23929  -1.23560  -1.06831
 Alpha  occ. eigenvalues --   -0.98925  -0.95652  -0.89118  -0.80127  -0.79445
 Alpha  occ. eigenvalues --   -0.73258  -0.66919  -0.66114  -0.63978  -0.62295
 Alpha  occ. eigenvalues --   -0.61134  -0.60016  -0.58361  -0.56242  -0.56032
 Alpha  occ. eigenvalues --   -0.55409  -0.54624  -0.53475  -0.50547  -0.50100
 Alpha  occ. eigenvalues --   -0.41561  -0.40504  -0.38925  -0.38126
 Alpha virt. eigenvalues --    0.18907   0.20442   0.21957   0.22629   0.26028
 Alpha virt. eigenvalues --    0.26777   0.27770   0.30056   0.31004   0.31305
 Alpha virt. eigenvalues --    0.32008   0.32461   0.33550   0.34711   0.38434
 Alpha virt. eigenvalues --    0.39794   0.40746   0.42770   0.48243   0.50272
 Alpha virt. eigenvalues --    0.52222   0.58093   0.62623   0.71060   0.72224
 Alpha virt. eigenvalues --    0.72979   0.74360   0.75985   0.76534   0.79296
 Alpha virt. eigenvalues --    0.80877   0.81871   0.83670   0.85827   0.88680
 Alpha virt. eigenvalues --    0.93620   0.95368   0.95702   0.97522   0.97995
 Alpha virt. eigenvalues --    0.99887   1.01255   1.03953   1.06298   1.10100
 Alpha virt. eigenvalues --    1.10671   1.11440   1.14207   1.14524   1.15836
 Alpha virt. eigenvalues --    1.16458   1.17462   1.18365   1.18972   1.20554
 Alpha virt. eigenvalues --    1.21057   1.22090   1.22346   1.24616   1.28980
 Alpha virt. eigenvalues --    1.32513   1.34204   1.36165   1.36943   1.42480
 Alpha virt. eigenvalues --    1.47338   1.53560   1.55874   1.58661   1.59430
 Alpha virt. eigenvalues --    1.65206   1.66254   1.69203   1.73357   1.74048
 Alpha virt. eigenvalues --    1.77200   1.82357   1.90039   1.94044   1.97680
 Alpha virt. eigenvalues --    2.00464   2.06162   2.09156   2.10220   2.13174
 Alpha virt. eigenvalues --    2.14682   2.15015   2.16992   2.19688   2.21807
 Alpha virt. eigenvalues --    2.26545   2.26727   2.28321   2.31576   2.34340
 Alpha virt. eigenvalues --    2.36905   2.40316   2.41813   2.46387   2.47479
 Alpha virt. eigenvalues --    2.53016   2.54176   2.59280   2.59789   2.61954
 Alpha virt. eigenvalues --    2.63988   2.65933   2.68408   2.73844   2.74776
 Alpha virt. eigenvalues --    2.76081   2.82451   2.88961   2.92718   2.98309
 Alpha virt. eigenvalues --    3.01105   3.04621   3.07169   3.11907   3.25611
 Alpha virt. eigenvalues --    3.31301   3.34763   3.41689   3.55023   3.56130
 Alpha virt. eigenvalues --    4.36331   4.46378   4.47979   4.56026   4.65015
 Alpha virt. eigenvalues --    4.65787   4.68169   4.81355   4.89781   5.09887
          Condensed to atoms (all electrons):
              1          2          3          4          5          6
     1  H    0.453887   0.385448  -0.017725  -0.019052  -0.029559   0.003729
     2  C    0.385448   5.262967   0.374907   0.370981   0.374705  -0.070526
     3  H   -0.017725   0.374907   0.504256  -0.024551  -0.034449   0.001128
     4  H   -0.019052   0.370981  -0.024551   0.526591  -0.034712   0.001385
     5  C   -0.029559   0.374705  -0.034449  -0.034712   4.158932   0.604030
     6  O    0.003729  -0.070526   0.001128   0.001385   0.604030   8.180287
     7  N    0.003724  -0.121237   0.003520   0.003696   0.237429  -0.104803
     8  H   -0.000021  -0.000951   0.000529   0.000641  -0.016154   0.002302
     9  C   -0.000078   0.005012  -0.000279  -0.000292  -0.025299   0.003785
    10  H   -0.000003   0.000477  -0.000015  -0.000028  -0.000635   0.011580
    11  C    0.000001  -0.000051  -0.000005   0.000011   0.002395   0.000412
    12  H    0.000000  -0.000012   0.000000   0.000002  -0.000122  -0.000011
    13  H    0.000000   0.000002   0.000000   0.000000  -0.000022   0.000001
    14  H    0.000000  -0.000014   0.000000   0.000001   0.000041   0.000020
    15  C    0.000001  -0.000179   0.000036   0.000003   0.000308  -0.000499
    16  O    0.000000  -0.000022   0.000052   0.000000   0.005370  -0.000354
    17  N    0.000000   0.000001   0.000000   0.000000   0.000148  -0.000005
    18  H    0.000000   0.000000   0.000000   0.000000  -0.000014   0.000000
    19  C    0.000000   0.000000   0.000000   0.000000   0.000000   0.000000
    20  H    0.000000   0.000000   0.000000   0.000000  -0.000001   0.000000
    21  H    0.000000   0.000000   0.000000   0.000000   0.000000   0.000000
    22  H    0.000000   0.000000   0.000000   0.000000   0.000000   0.000000
              7          8          9         10         11         12
     1  H    0.003724  -0.000021  -0.000078  -0.000003   0.000001   0.000000
     2  C   -0.121237  -0.000951   0.005012   0.000477  -0.000051  -0.000012
     3  H    0.003520   0.000529  -0.000279  -0.000015  -0.000005   0.000000
     4  H    0.003696   0.000641  -0.000292  -0.000028   0.000011   0.000002
     5  C    0.237429  -0.016154  -0.025299  -0.000635   0.002395  -0.000122
     6  O   -0.104803   0.002302   0.003785   0.011580   0.000412  -0.000011
     7  N    7.370888   0.323297   0.206942  -0.029642  -0.068175  -0.002234
     8  H    0.323297   0.324008  -0.025888   0.002357  -0.001822   0.002910
     9  C    0.206942  -0.025888   5.104437   0.394620   0.331132  -0.040227
    10  H   -0.029642   0.002357   0.394620   0.415901  -0.032218   0.003496
    11  C   -0.068175  -0.001822   0.331132  -0.032218   5.194937   0.388146
    12  H   -0.002234   0.002910  -0.040227   0.003496   0.388146   0.531004
    13  H    0.005021  -0.000023  -0.041144  -0.002540   0.388281  -0.028467
    14  H   -0.000274   0.000037  -0.032921  -0.002642   0.389310  -0.022625
    15  C   -0.062016   0.000251   0.365537  -0.027947  -0.079951  -0.002538
    16  O   -0.000572   0.000768  -0.080103  -0.000240   0.002209   0.000040
    17  N    0.001586  -0.000058  -0.110197   0.000600  -0.005652   0.000160
    18  H    0.000114  -0.000006  -0.000316   0.000107  -0.002919  -0.000468
    19  C   -0.000091   0.000000   0.003914  -0.000169   0.000154  -0.000226
    20  H   -0.000012   0.000000   0.000600  -0.000010  -0.000066  -0.000004
    21  H   -0.000001   0.000000  -0.000156   0.000015   0.000032   0.000004
    22  H    0.000005   0.000000   0.000019  -0.000001  -0.000082   0.000013
             13         14         15         16         17         18
     1  H    0.000000   0.000000   0.000001   0.000000   0.000000   0.000000
     2  C    0.000002  -0.000014  -0.000179  -0.000022   0.000001   0.000000
     3  H    0.000000   0.000000   0.000036   0.000052   0.000000   0.000000
     4  H    0.000000   0.000001   0.000003   0.000000   0.000000   0.000000
     5  C   -0.000022   0.000041   0.000308   0.005370   0.000148  -0.000014
     6  O    0.000001   0.000020  -0.000499  -0.000354  -0.000005   0.000000
     7  N    0.005021  -0.000274  -0.062016  -0.000572   0.001586   0.000114
     8  H   -0.000023   0.000037   0.000251   0.000768  -0.000058  -0.000006
     9  C   -0.041144  -0.032921   0.365537  -0.080103  -0.110197  -0.000316
    10  H   -0.002540  -0.002642  -0.027947  -0.000240   0.000600   0.000107
    11  C    0.388281   0.389310  -0.079951   0.002209  -0.005652  -0.002919
    12  H   -0.028467  -0.022625  -0.002538   0.000040   0.000160  -0.000468
    13  H    0.557064  -0.020736  -0.003103  -0.000038  -0.009068   0.004228
    14  H   -0.020736   0.489168   0.004249  -0.000057   0.000392   0.000135
    15  C   -0.003103   0.004249   4.175061   0.611728   0.273381  -0.017589
    16  O   -0.000038  -0.000057   0.611728   8.189291  -0.100488   0.002513
    17  N   -0.009068   0.000392   0.273381  -0.100488   7.383880   0.318092
    18  H    0.004228   0.000135  -0.017589   0.002513   0.318092   0.318934
    19  C    0.000604   0.000004  -0.026029  -0.005076   0.184592  -0.021808
    20  H   -0.000015   0.000001  -0.001752   0.011225  -0.032213   0.002307
    21  H   -0.000045   0.000001   0.001245   0.000362  -0.047076  -0.001293
    22  H    0.000043  -0.000001   0.000663   0.000400  -0.048606  -0.000800
             19         20         21         22
     1  H    0.000000   0.000000   0.000000   0.000000
     2  C    0.000000   0.000000   0.000000   0.000000
     3  H    0.000000   0.000000   0.000000   0.000000
     4  H    0.000000   0.000000   0.000000   0.000000
     5  C    0.000000  -0.000001   0.000000   0.000000
     6  O    0.000000   0.000000   0.000000   0.000000
     7  N   -0.000091  -0.000012  -0.000001   0.000005
     8  H    0.000000   0.000000   0.000000   0.000000
     9  C    0.003914   0.000600  -0.000156   0.000019
    10  H   -0.000169  -0.000010   0.000015  -0.000001
    11  C    0.000154  -0.000066   0.000032  -0.000082
    12  H   -0.000226  -0.000004   0.000004   0.000013
    13  H    0.000604  -0.000015  -0.000045   0.000043
    14  H    0.000004   0.000001   0.000001  -0.000001
    15  C   -0.026029  -0.001752   0.001245   0.000663
    16  O   -0.005076   0.011225   0.000362   0.000400
    17  N    0.184592  -0.032213  -0.047076  -0.048606
    18  H   -0.021808   0.002307  -0.001293  -0.000800
    19  C    4.952024   0.396478   0.402354   0.402957
    20  H    0.396478   0.428607  -0.021790  -0.022789
    21  H    0.402354  -0.021790   0.531991  -0.036812
    22  H    0.402957  -0.022789  -0.036812   0.538011
 Mulliken atomic charges:
              1
     1  H    0.219648
     2  C   -0.581510
     3  H    0.192596
     4  H    0.175324
     5  C    0.757611
     6  O   -0.632461
     7  N   -0.767165
     8  H    0.387824
     9  C   -0.059098
    10  H    0.266936
    11  C   -0.506079
    12  H    0.171161
    13  H    0.149958
    14  H    0.195912
    15  C    0.789142
    16  O   -0.637008
    17  N   -0.809471
    18  H    0.398782
    19  C   -0.289682
    20  H    0.239435
    21  H    0.171167
    22  H    0.166979
 Sum of Mulliken atomic charges =   0.00000
 Mulliken charges with hydrogens summed into heavy atoms:
              1
     2  C    0.006058
     5  C    0.757611
     6  O   -0.632461
     7  N   -0.379342
     9  C    0.207839
    11  C    0.010952
    15  C    0.789142
    16  O   -0.637008
    17  N   -0.410690
    19  C    0.287899
 Sum of Mulliken charges with hydrogens summed into heavy atoms =   0.00000
 Electronic spatial extent (au):  <R**2>=           1886.7951
 Charge=              0.0000 electrons
 Dipole moment (field-independent basis, Debye):
    X=             -2.6539    Y=              4.5308    Z=             -3.1492  Tot=              6.1228
 Quadrupole moment (field-independent basis, Debye-Ang):
   XX=            -51.0841   YY=            -63.2127   ZZ=            -62.4096
   XY=             -1.8795   XZ=             -9.8205   YZ=              1.1701
 Traceless Quadrupole moment (field-independent basis, Debye-Ang):
   XX=              7.8180   YY=             -4.3105   ZZ=             -3.5075
   XY=             -1.8795   XZ=             -9.8205   YZ=              1.1701
 Octapole moment (field-independent basis, Debye-Ang**2):
  XXX=            -23.4910  YYY=              3.8259  ZZZ=             -8.3783  XYY=             -0.3314
  XXY=             -1.3758  XXZ=            -17.6354  XZZ=             -8.5627  YZZ=              2.5877
  YYZ=              1.9996  XYZ=              1.7081
 Hexadecapole moment (field-independent basis, Debye-Ang**3):
 XXXX=          -1680.8696 YYYY=           -438.9054 ZZZZ=           -193.3094 XXXY=              0.1183
 XXXZ=            -36.9039 YYYX=             -2.5076 YYYZ=              3.0650 ZZZX=            -13.7086
 ZZZY=              0.2203 XXYY=           -357.1462 XXZZ=           -362.8083 YYZZ=           -103.3034
 XXYZ=              9.7195 YYXZ=             -2.8176 ZZXY=              5.6746
 N-N= 5.560723746938D+02 E-N=-2.267466072463D+03  KE= 4.918585914011D+02
 Calling FoFJK, ICntrl=      2127 FMM=F ISym2X=0 I1Cent= 0 IOpClX= 0 NMat=1 NMatS=1 NMatT=0.
 ***** Axes restored to original set *****
 -------------------------------------------------------------------
 Center     Atomic                   Forces (Hartrees/Bohr)
 Number     Number              X              Y              Z
 -------------------------------------------------------------------
      1        1           0.006204831    0.004710925   -0.005744577
      2        6           0.007433056    0.005090143   -0.004705083
      3        1          -0.000005457   -0.004856653   -0.000343678
      4        1          -0.004301894    0.002059773    0.001444101
      5        6           0.002755968   -0.011467583    0.063112137
      6        8          -0.017939174    0.000566659   -0.040945830
      7        7           0.011252218    0.002297254   -0.019714796
      8        1           0.006226146    0.002130446    0.014009080
      9        6           0.007255255    0.002136835   -0.009860260
     10        1          -0.010142939    0.001793466   -0.002584107
     11        6          -0.001284394   -0.016481414   -0.000224745
     12        1           0.005840487   -0.002283906   -0.000355193
     13        1          -0.003487882   -0.016056136   -0.004997219
     14        1           0.001797042    0.005239506   -0.003042178
     15        6          -0.050990168    0.017926616    0.034348075
     16        8           0.034184416   -0.017343102   -0.021107573
     17        7           0.016537922    0.005747339   -0.007316846
     18        1          -0.017023077    0.017704679    0.009779206
     19        6           0.001469684    0.003492203    0.000730348
     20        1           0.007943917   -0.005173723   -0.004159477
     21        1          -0.004110223    0.001341732   -0.002790839
     22        1           0.000384267    0.001424939    0.004469455
 -------------------------------------------------------------------
 Cartesian Forces:  Max     0.063112137 RMS     0.015219177

 GradGradGradGradGradGradGradGradGradGradGradGradGradGradGradGradGradGrad
 Berny optimization.
 Internal  Forces:  Max     0.044507485 RMS     0.011698666
 Search for a local minimum.
 Step number   1 out of a maximum of  108
 All quantities printed in internal units (Hartrees-Bohrs-Radians)
 Mixed Optimization -- RFO/linear search
 Second derivative matrix not updated -- first step.
     Eigenvalues ---    0.00370   0.00435   0.00999   0.01043   0.01269
     Eigenvalues ---    0.01422   0.01660   0.02551   0.02552   0.03503
     Eigenvalues ---    0.05232   0.05841   0.05844   0.05844   0.07166
     Eigenvalues ---    0.07464   0.07685   0.07686   0.15421   0.16000
     Eigenvalues ---    0.16000   0.16000   0.16000   0.16000   0.16000
     Eigenvalues ---    0.16000   0.16000   0.16000   0.16000   0.16000
     Eigenvalues ---    0.16180   0.22000   0.22000   0.25000   0.25000
     Eigenvalues ---    0.25000   0.25000   0.29427   0.29887   0.30174
     Eigenvalues ---    0.34808   0.34808   0.34810   0.34811   0.34811
     Eigenvalues ---    0.34816   0.34818   0.34819   0.34821   0.34822
     Eigenvalues ---    0.38368   0.38379   0.45965   0.45966   0.58322
     Eigenvalues ---    0.58350   0.91486   0.915161000.000001000.00000
     Eigenvalues --- 1000.000001000.000001000.000001000.000001000.00000
     Eigenvalues --- 1000.000001000.000001000.000001000.000001000.00000
     Eigenvalues --- 1000.000001000.000001000.000001000.000001000.00000
     Eigenvalues --- 1000.000001000.000001000.000001000.000001000.00000
     Eigenvalues --- 1000.000001000.000001000.000001000.000001000.00000
     Eigenvalues --- 1000.000001000.000001000.000001000.000001000.00000
     Eigenvalues --- 1000.000001000.000001000.000001000.000001000.00000
     Eigenvalues --- 1000.000001000.000001000.00000
 RFO step:  Lambda=-4.11935579D-02 EMin= 3.69635118D-03
 Linear search not attempted -- first point.
 Maximum step size (   0.300) exceeded in Quadratic search.
    -- Step size scaled by   0.649
 Iteration  1 RMS(Cart)=  0.14513708 RMS(Int)=  0.00480811
 Iteration  2 RMS(Cart)=  0.00723219 RMS(Int)=  0.00058361
 Iteration  3 RMS(Cart)=  0.00002378 RMS(Int)=  0.00058326
 Iteration  4 RMS(Cart)=  0.00000002 RMS(Int)=  0.00058326
 Iteration  1 RMS(Cart)=  0.00009901 RMS(Int)=  0.00004750
 Iteration  2 RMS(Cart)=  0.00006138 RMS(Int)=  0.00005259
 Iteration  3 RMS(Cart)=  0.00003913 RMS(Int)=  0.00006028
 Iteration  4 RMS(Cart)=  0.00002547 RMS(Int)=  0.00006655
 Iteration  5 RMS(Cart)=  0.00001682 RMS(Int)=  0.00007106
 Iteration  6 RMS(Cart)=  0.00001120 RMS(Int)=  0.00007417
 Iteration  7 RMS(Cart)=  0.00000750 RMS(Int)=  0.00007630
 Iteration  8 RMS(Cart)=  0.00000504 RMS(Int)=  0.00007773
 Iteration  9 RMS(Cart)=  0.00000339 RMS(Int)=  0.00007869
 Iteration 10 RMS(Cart)=  0.00000228 RMS(Int)=  0.00007934
 Iteration 11 RMS(Cart)=  0.00000153 RMS(Int)=  0.00007977
 Iteration 12 RMS(Cart)=  0.00000103 RMS(Int)=  0.00008007
 Iteration 13 RMS(Cart)=  0.00000069 RMS(Int)=  0.00008026
 Variable       Old X    -DE/DX   Delta X   Delta X   Delta X     New X
                                 (Linear)    (Quad)   (Total)
    R1        2.05987  -0.00871   0.00000  -0.01453  -0.01453   2.04534
    R2        2.05987  -0.00331   0.00000  -0.00552  -0.00552   2.05435
    R3        2.05970  -0.00268   0.00000  -0.00447  -0.00447   2.05523
    R4        2.89121  -0.01054   0.00000  -0.02040  -0.02040   2.87081
    R5        2.32242  -0.04451   0.00000  -0.03022  -0.03022   2.29220
    R6        2.52294   0.01439   0.00000   0.01497   0.01497   2.53790
    R7        1.90870  -0.01521   0.00000  -0.01972  -0.01972   1.88898
    R8        2.73817  -0.01065   0.00000  -0.01627  -0.01627   2.72190
    R9        2.05975  -0.00776   0.00000  -0.01294  -0.01294   2.04680
   R10        2.88188   0.01611   0.00000   0.03076   0.03076   2.91264
   R11        2.87618   0.02609   0.00000   0.04940   0.04940   2.92557
   R12        2.05972  -0.00322   0.00000  -0.00537  -0.00537   2.05435
   R13        2.05984  -0.01056   0.00000  -0.01761  -0.01761   2.04223
   R14        2.05966  -0.00492   0.00000  -0.00821  -0.00821   2.05145
   R15        2.32256  -0.04366   0.00000  -0.02966  -0.02966   2.29290
   R16        2.52270   0.01617   0.00000   0.01681   0.01681   2.53951
   R17        1.90870  -0.02572   0.00000  -0.03335  -0.03335   1.87535
   R18        2.73833   0.00109   0.00000   0.00167   0.00167   2.74000
   R19        2.05982  -0.01020   0.00000  -0.01701  -0.01701   2.04281
   R20        2.05982  -0.00412   0.00000  -0.00687  -0.00687   2.05295
   R21        2.05964  -0.00387   0.00000  -0.00645  -0.00645   2.05320
    A1        1.91101   0.00070   0.00000   0.00096   0.00105   1.91206
    A2        1.91116   0.00039   0.00000   0.00050   0.00062   1.91179
    A3        1.93901  -0.00814   0.00000  -0.02732  -0.02721   1.91180
    A4        1.91015  -0.00432   0.00000  -0.01175  -0.01198   1.89817
    A5        1.89612   0.00514   0.00000   0.01693   0.01686   1.91298
    A6        1.89610   0.00628   0.00000   0.02091   0.02086   1.91696
    A7        2.10322   0.00799   0.00000   0.01782   0.01780   2.12102
    A8        2.03502  -0.00794   0.00000  -0.01770  -0.01772   2.01730
    A9        2.14495  -0.00006   0.00000  -0.00013  -0.00015   2.14481
   A10        2.09432  -0.00246   0.00000  -0.00664  -0.00666   2.08767
   A11        2.12756   0.00354   0.00000   0.00881   0.00879   2.13635
   A12        2.06130  -0.00108   0.00000  -0.00217  -0.00219   2.05911
   A13        1.91114   0.00429   0.00000  -0.01656  -0.01799   1.89315
   A14        1.93905  -0.01612   0.00000  -0.05508  -0.05359   1.88546
   A15        1.93900  -0.01843   0.00000  -0.04948  -0.04778   1.89122
   A16        1.89609  -0.00412   0.00000  -0.00273  -0.00571   1.89038
   A17        1.89608  -0.00786   0.00000  -0.00233  -0.00520   1.89088
   A18        1.88137   0.04294   0.00000   0.12963   0.12864   2.01001
   A19        1.91115   0.00583   0.00000   0.02239   0.02184   1.93299
   A20        1.91106   0.01354   0.00000   0.04500   0.04449   1.95555
   A21        1.91110   0.00093   0.00000  -0.00187  -0.00178   1.90932
   A22        1.91011  -0.00601   0.00000  -0.00969  -0.01074   1.89937
   A23        1.91023  -0.00436   0.00000  -0.01666  -0.01661   1.89362
   A24        1.91015  -0.00995   0.00000  -0.03925  -0.03913   1.87102
   A25        2.10312  -0.01420   0.00000  -0.03166  -0.03171   2.07141
   A26        2.03507   0.03307   0.00000   0.07374   0.07369   2.10876
   A27        2.14499  -0.01887   0.00000  -0.04208  -0.04213   2.10286
   A28        2.09446   0.00544   0.00000   0.01780   0.01779   2.11225
   A29        2.12764   0.00065   0.00000   0.00161   0.00160   2.12924
   A30        2.06108  -0.00609   0.00000  -0.01941  -0.01942   2.04166
   A31        1.91098  -0.00417   0.00000  -0.01447  -0.01443   1.89655
   A32        1.91114   0.00447   0.00000   0.01495   0.01491   1.92605
   A33        1.91120   0.00377   0.00000   0.01265   0.01260   1.92380
   A34        1.91010  -0.00068   0.00000  -0.00315  -0.00310   1.90699
   A35        1.91020  -0.00037   0.00000  -0.00223  -0.00219   1.90801
   A36        1.91019  -0.00302   0.00000  -0.00776  -0.00789   1.90229
    D1        0.00007   0.00054   0.00000   0.00564   0.00566   0.00572
    D2       -3.14150  -0.00043   0.00000  -0.00607  -0.00611   3.13558
    D3        2.10327  -0.00031   0.00000   0.00087   0.00077   2.10403
    D4       -1.03830  -0.00128   0.00000  -0.01084  -0.01099  -1.04930
    D5       -2.10331   0.00104   0.00000   0.00842   0.00859  -2.09472
    D6        1.03831   0.00007   0.00000  -0.00329  -0.00317   1.03514
    D7       -0.00001   0.00023   0.00000  -0.01155  -0.01165  -0.01167
    D8       -3.14151  -0.00168   0.00000  -0.00023  -0.00020   3.14147
    D9       -3.14158  -0.00076   0.00000  -0.02357  -0.02360   3.11801
   D10        0.00011  -0.00268   0.00000  -0.01224  -0.01214  -0.01204
   D11        0.26173  -0.00190   0.00000  -0.04491  -0.04519   0.21654
   D12        2.35617  -0.01443   0.00000  -0.09386  -0.09416   2.26201
   D13       -1.83266   0.01673   0.00000   0.00000   0.00000  -1.83266
   D14       -2.87977  -0.00378   0.00000  -0.03379  -0.03392  -2.91369
   D15       -0.78533  -0.01631   0.00000  -0.08274  -0.08289  -0.86822
   D16        1.30902   0.01485   0.00000   0.01112   0.01128   1.32030
   D17        1.04724   0.00087   0.00000   0.02982   0.02896   1.07620
   D18        3.14157   0.00539   0.00000   0.05928   0.05900  -3.08262
   D19       -1.04726   0.00207   0.00000   0.03764   0.03704  -1.01022
   D20       -3.13259  -0.00646   0.00000  -0.02653  -0.02714   3.12345
   D21       -1.03826  -0.00194   0.00000   0.00293   0.00290  -1.03536
   D22        1.05609  -0.00526   0.00000  -0.01871  -0.01906   1.03703
   D23       -1.08102   0.00554   0.00000   0.04026   0.04088  -1.04014
   D24        1.01331   0.01006   0.00000   0.06971   0.07093   1.08423
   D25        3.10766   0.00674   0.00000   0.04808   0.04897  -3.12656
   D26        0.52361  -0.00439   0.00000  -0.01932  -0.01908   0.50453
   D27       -2.61802  -0.00607   0.00000   0.00000   0.00000  -2.61801
   D28       -1.57971   0.00679   0.00000   0.03330   0.03358  -1.54612
   D29        1.56185   0.00511   0.00000   0.05262   0.05266   1.61452
   D30        2.65190  -0.00762   0.00000  -0.03323  -0.03416   2.61774
   D31       -0.48973  -0.00930   0.00000  -0.01391  -0.01508  -0.50481
   D32        0.00010   0.00078   0.00000  -0.01129  -0.01115  -0.01104
   D33        3.14156   0.00160   0.00000  -0.00216  -0.00190   3.13966
   D34       -3.14153  -0.00094   0.00000   0.00854   0.00828  -3.13324
   D35       -0.00006  -0.00013   0.00000   0.01767   0.01753   0.01746
   D36        0.00008  -0.00041   0.00000  -0.00455  -0.00451  -0.00443
   D37        2.09434  -0.00106   0.00000  -0.00812  -0.00816   2.08619
   D38       -2.09434   0.00029   0.00000  -0.00070  -0.00059  -2.09493
   D39        3.14155   0.00038   0.00000   0.00441   0.00438  -3.13725
   D40       -1.04738  -0.00026   0.00000   0.00085   0.00074  -1.04664
   D41        1.04713   0.00108   0.00000   0.00827   0.00830   1.05543
         Item               Value     Threshold  Converged?
 Maximum Force            0.044507     0.000450     NO 
 RMS     Force            0.011500     0.000300     NO 
 Maximum Displacement     0.667596     0.001800     NO 
 RMS     Displacement     0.145292     0.001200     NO 
 Predicted change in Energy=-1.996713D-02
 GradGradGradGradGradGradGradGradGradGradGradGradGradGradGradGradGradGrad

                          Input orientation:                          
 ---------------------------------------------------------------------
 Center     Atomic      Atomic             Coordinates (Angstroms)
 Number     Number       Type             X           Y           Z
 ---------------------------------------------------------------------
      1          1           0        1.372803    2.412049    1.870950
      2          6           0        1.690471    2.850330    0.933683
      3          1           0        1.001921    3.642530    0.650605
      4          1           0        1.686678    2.089446    0.156588
      5          6           0        3.089422    3.422032    1.088464
      6          8           0        3.691650    3.349336    2.138872
      7          7           0        3.607699    3.992583   -0.011314
      8          1           0        3.075640    4.007698   -0.857423
      9          6           0        4.922414    4.580683   -0.029228
     10          1           0        5.444317    4.281782    0.871566
     11          6           0        5.683720    4.010147   -1.241878
     12          1           0        5.181757    4.272180   -2.169882
     13          1           0        6.703394    4.365624   -1.284526
     14          1           0        5.723907    2.927987   -1.165727
     15          6           0        4.767812    6.121018   -0.014259
     16          8           0        3.791472    6.603136    0.521034
     17          7           0        5.683419    6.910684   -0.600800
     18          1           0        6.481301    6.524519   -1.047013
     19          6           0        5.562766    8.355596   -0.604080
     20          1           0        4.655637    8.628186   -0.083128
     21          1           0        6.413852    8.806988   -0.101978
     22          1           0        5.516649    8.726364   -1.624325
 ---------------------------------------------------------------------
                    Distance matrix (angstroms):
                    1          2          3          4          5
     1  H    0.000000
     2  C    1.082347   0.000000
     3  H    1.772253   1.087113   0.000000
     4  H    1.772464   1.087582   1.767771   0.000000
     5  C    2.139891   1.519166   2.144295   2.147527   0.000000
     6  O    2.515421   2.388766   3.087967   3.088152   1.212979
     7  N    3.322014   2.423536   2.711228   2.709326   1.343001
     8  H    3.590232   2.542882   2.589943   2.576261   2.032159
     9  C    4.573117   3.790353   4.088101   4.087882   2.439583
    10  H    4.590414   4.017994   4.493590   4.408785   2.516296
    11  C    5.552264   4.693004   5.063189   4.649855   3.536489
    12  H    5.856325   4.882914   5.081597   4.732057   3.964522
    13  H    6.495282   5.687351   6.064189   5.694316   4.425182
    14  H    5.331014   4.547764   5.109480   4.330229   3.502280
    15  C    5.369968   4.589773   4.557069   5.077021   3.364151
    16  O    5.023689   4.320652   4.069837   4.993633   3.306701
    17  N    6.702886   5.897859   5.844935   6.308083   4.664024
    18  H    7.178000   6.354123   6.419609   6.641306   5.068583
    19  C    7.681622   6.904153   6.677464   7.407247   5.772537
    20  H    7.296286   6.573411   6.224530   7.185214   5.561447
    21  H    8.378537   7.672333   7.518445   8.218175   6.439467
    22  H    8.322198   7.463967   7.169619   7.866956   6.433241
                    6          7          8          9         10
     6  O    0.000000
     7  N    2.245911   0.000000
     8  H    3.129007   0.999607   0.000000
     9  C    2.780585   1.440367   2.103519   0.000000
    10  H    2.355284   2.058222   2.945362   1.083123   0.000000
    11  C    3.979257   2.413392   2.636265   1.541304   2.144236
    12  H    4.651604   2.686121   2.495642   2.178263   3.052775
    13  H    4.671520   3.368019   3.670303   2.189500   2.498207
    14  H    3.902304   2.635217   2.876481   2.159959   2.462011
    15  C    3.671010   2.424067   2.835576   1.548147   2.150612
    16  O    3.635186   2.670609   3.024708   2.381625   2.871142
    17  N    4.914890   3.629245   3.910715   2.516888   3.022607
    18  H    5.292807   3.967488   4.238970   2.691563   3.128282
    19  C    6.007287   4.817628   5.015396   3.871753   4.334457
    20  H    5.807995   4.753119   4.944172   4.056644   4.519367
    21  H    6.497519   5.573258   5.894705   4.482336   4.729194
    22  H    6.812099   5.352996   5.367725   4.481531   5.097941
                   11         12         13         14         15
    11  C    0.000000
    12  H    1.087115   0.000000
    13  H    1.080702   1.762942   0.000000
    14  H    1.085581   1.763267   1.743648   0.000000
    15  C    2.608010   2.869889   2.905421   3.526393   0.000000
    16  O    3.662247   3.821947   4.092163   4.481762   1.213349
    17  N    2.970537   3.110528   2.825803   4.022767   1.343853
    18  H    2.645028   2.832434   2.183247   3.677334   2.040941
    19  C    4.393671   4.389896   4.205225   5.458970   2.444009
    20  H    4.870928   4.858614   4.879150   5.899618   2.510621
    21  H    4.984190   5.134079   4.605212   6.014170   3.151441
    22  H    4.734646   4.499948   4.532095   5.820175   3.152919
                   16         17         18         19         20
    16  O    0.000000
    17  N    2.220938   0.000000
    18  H    3.114504   0.992393   0.000000
    19  C    2.733950   1.449945   2.095886   0.000000
    20  H    2.283117   2.067398   2.947463   1.081008   0.000000
    21  H    3.481665   2.092445   2.471296   1.086375   1.767384
    22  H    3.476622   2.090959   2.472238   1.086506   1.768125
                   21         22
    21  H    0.000000
    22  H    1.768902   0.000000
 Stoichiometry    C6H12N2O2
 Framework group  C1[X(C6H12N2O2)]
 Deg. of freedom    60
 Full point group                 C1      NOp   1
 Largest Abelian subgroup         C1      NOp   1
 Largest concise Abelian subgroup C1      NOp   1
                         Standard orientation:                         
 ---------------------------------------------------------------------
 Center     Atomic      Atomic             Coordinates (Angstroms)
 Number     Number       Type             X           Y           Z
 ---------------------------------------------------------------------
      1          1           0        4.118995   -1.065672   -0.165577
      2          6           0        3.314323   -0.645647   -0.755116
      3          1           0        2.955171   -1.388950   -1.462452
      4          1           0        3.680470    0.215842   -1.308839
      5          6           0        2.178926   -0.224289    0.162051
      6          8           0        2.248754   -0.366992    1.364582
      7          7           0        1.114170    0.322749   -0.446796
      8          1           0        1.116935    0.435384   -1.440034
      9          6           0       -0.043940    0.773830    0.281191
     10          1           0        0.201238    0.796720    1.335951
     11          6           0       -0.362777    2.211720   -0.173157
     12          1           0       -0.597458    2.237263   -1.234332
     13          1           0       -1.189862    2.637038    0.377252
     14          1           0        0.500552    2.845571    0.003992
     15          6           0       -1.183803   -0.251891    0.068193
     16          8           0       -0.892673   -1.411807   -0.136877
     17          7           0       -2.470646    0.134906    0.087274
     18          1           0       -2.717507    1.082700    0.247241
     19          6           0       -3.557961   -0.803466   -0.111580
     20          1           0       -3.140691   -1.788287   -0.268396
     21          1           0       -4.204594   -0.823015    0.761171
     22          1           0       -4.145173   -0.519328   -0.980455
 ---------------------------------------------------------------------
 Rotational constants (GHZ):      2.5565217      0.7182428      0.6347040
 Standard basis: 6-31G(d) (6D, 7F)
 There are   174 symmetry adapted basis functions of A   symmetry.
 Integral buffers will be    131072 words long.
 Raffenetti 1 integral format.
 Two-electron integral symmetry is turned on.
   174 basis functions,   328 primitive gaussians,   174 cartesian basis functions
    39 alpha electrons       39 beta electrons
       nuclear repulsion energy       555.2677054945 Hartrees.
 NAtoms=   22 NActive=   22 NUniq=   22 SFac= 7.50D-01 NAtFMM=   80 NAOKFM=F Big=F
 One-electron integrals computed using PRISM.
 NBasis=   174 RedAO= T  NBF=   174
 NBsUse=   174 1.00D-06 NBFU=   174
 Initial guess read from the read-write file.
 B after Tr=     0.000000    0.000000    0.000000
         Rot=    1.000000    0.000000    0.000000    0.000000 Ang=   0.00 deg.
 Initial guess orbital symmetries:
       Occupied  (A) (A) (A) (A) (A) (A) (A) (A) (A) (A) (A) (A)
                 (A) (A) (A) (A) (A) (A) (A) (A) (A) (A) (A) (A)
                 (A) (A) (A) (A) (A) (A) (A) (A) (A) (A) (A) (A)
                 (A) (A) (A)
       Virtual   (A) (A) (A) (A) (A) (A) (A) (A) (A) (A) (A) (A)
                 (A) (A) (A) (A) (A) (A) (A) (A) (A) (A) (A) (A)
                 (A) (A) (A) (A) (A) (A) (A) (A) (A) (A) (A) (A)
                 (A) (A) (A) (A) (A) (A) (A) (A) (A) (A) (A) (A)
                 (A) (A) (A) (A) (A) (A) (A) (A) (A) (A) (A) (A)
                 (A) (A) (A) (A) (A) (A) (A) (A) (A) (A) (A) (A)
                 (A) (A) (A) (A) (A) (A) (A) (A) (A) (A) (A) (A)
                 (A) (A) (A) (A) (A) (A) (A) (A) (A) (A) (A) (A)
                 (A) (A) (A) (A) (A) (A) (A) (A) (A) (A) (A) (A)
                 (A) (A) (A) (A) (A) (A) (A) (A) (A) (A) (A) (A)
                 (A) (A) (A) (A) (A) (A) (A) (A) (A) (A) (A) (A)
                 (A) (A) (A)
 Harris functional with IExCor=  205 diagonalized for initial guess.
 ExpMin= 1.61D-01 ExpMax= 5.48D+03 ExpMxC= 8.25D+02 IAcc=1 IRadAn=         1 AccDes= 0.00D+00
 HarFok:  IExCor=  205 AccDes= 0.00D+00 IRadAn=         1 IDoV= 1
 ScaDFX=  1.000000  1.000000  1.000000  1.000000
 FoFCou: FMM=F IPFlag=           0 FMFlag=      100000 FMFlg1=           0
         NFxFlg=           0 DoJE=T BraDBF=F KetDBF=T FulRan=T
         Omega=  0.000000  0.000000  1.000000  0.000000  0.000000 ICntrl=     500 IOpCl=  0
         NMat0=    1 NMatS0=    1 NMatT0=    0 NMatD0=    1 NMtDS0=    0 NMtDT0=    0
         I1Cent=           4 NGrid=           0.
 Petite list used in FoFCou.
 Requested convergence on RMS density matrix=1.00D-08 within 128 cycles.
 Requested convergence on MAX density matrix=1.00D-06.
 Requested convergence on             energy=1.00D-06.
 No special actions if energy rises.
 Integral accuracy reduced to 1.0D-05 until final iterations.
 Initial convergence to 1.0D-05 achieved.  Increase integral accuracy.
 SCF Done:  E(RHF) =  -492.846288961     A.U. after   14 cycles
             Convg  =    0.4670D-08             -V/T =  2.0017
 Calling FoFJK, ICntrl=      2127 FMM=F ISym2X=0 I1Cent= 0 IOpClX= 0 NMat=1 NMatS=1 NMatT=0.
 ***** Axes restored to original set *****
 -------------------------------------------------------------------
 Center     Atomic                   Forces (Hartrees/Bohr)
 Number     Number              X              Y              Z
 -------------------------------------------------------------------
      1        1           0.001846592    0.001254602   -0.001723736
      2        6           0.003309894    0.002776698   -0.002572836
      3        1          -0.000234927   -0.002129543   -0.000143192
      4        1          -0.001900176    0.000956648    0.000715461
      5        6           0.000572291   -0.005922358    0.031030371
      6        8          -0.008555107    0.000821627   -0.018795572
      7        7           0.006189649   -0.004114350   -0.005258098
      8        1           0.001223323    0.002442433    0.005831925
      9        6           0.005999785    0.001889433   -0.016337593
     10        1          -0.005355898    0.002686802    0.000717443
     11        6          -0.002234173    0.002714730    0.003948005
     12        1           0.001998623   -0.000309194   -0.000331341
     13        1           0.002964222    0.001504737   -0.001335682
     14        1          -0.000936957    0.002093195    0.000181177
     15        6          -0.029861554    0.009131264    0.014073060
     16        8           0.014300914   -0.010695203   -0.006825451
     17        7           0.008519998   -0.002410074   -0.003164241
     18        1          -0.000488806   -0.002777817    0.000658013
     19        6           0.000502872    0.000913063    0.000588676
     20        1           0.003265066   -0.001196319   -0.001846979
     21        1          -0.001321097    0.000147455   -0.000923022
     22        1           0.000195467    0.000222172    0.001513613
 -------------------------------------------------------------------
 Cartesian Forces:  Max     0.031030371 RMS     0.007429689

 GradGradGradGradGradGradGradGradGradGradGradGradGradGradGradGradGradGrad
 Berny optimization.
 Using GEDIIS/GDIIS optimizer.
 Internal  Forces:  Max     0.022326346 RMS     0.004735248
 Search for a local minimum.
 Step number   2 out of a maximum of  108
 All quantities printed in internal units (Hartrees-Bohrs-Radians)
 Mixed Optimization -- RFO/linear search
 Update second derivatives using D2CorX and points    1    2
 DE= -1.02D-02 DEPred=-2.00D-02 R= 5.11D-01
 SS=  1.41D+00  RLast= 3.00D-01 DXNew= 5.0454D-01 8.9949D-01
 Trust test= 5.11D-01 RLast= 3.00D-01 DXMaxT set to 5.05D-01
 Use linear search instead of GDIIS.
     Eigenvalues ---    0.00370   0.00446   0.00995   0.01043   0.01259
     Eigenvalues ---    0.01418   0.01676   0.02548   0.02552   0.03457
     Eigenvalues ---    0.05098   0.05559   0.05760   0.06164   0.07264
     Eigenvalues ---    0.07293   0.07550   0.07723   0.15673   0.15904
     Eigenvalues ---    0.15999   0.16000   0.16000   0.16000   0.16000
     Eigenvalues ---    0.16000   0.16000   0.16000   0.16000   0.16796
     Eigenvalues ---    0.18228   0.21916   0.22019   0.24771   0.24997
     Eigenvalues ---    0.24999   0.28688   0.29406   0.29975   0.34237
     Eigenvalues ---    0.34613   0.34808   0.34809   0.34811   0.34815
     Eigenvalues ---    0.34818   0.34819   0.34820   0.34822   0.38144
     Eigenvalues ---    0.38368   0.43101   0.45742   0.53316   0.57382
     Eigenvalues ---    0.58717   0.85034   0.915101000.000001000.00000
     Eigenvalues --- 1000.000001000.000001000.000001000.000001000.00000
     Eigenvalues --- 1000.000001000.000001000.000001000.000001000.00000
     Eigenvalues --- 1000.000001000.000001000.000001000.000001000.00000
     Eigenvalues --- 1000.000001000.000001000.000001000.000001000.00000
     Eigenvalues --- 1000.000001000.000001000.000001000.000001000.00000
     Eigenvalues --- 1000.000001000.000001000.000001000.000001000.00000
     Eigenvalues --- 1000.000001000.000001000.000001000.000001000.00000
     Eigenvalues --- 1000.000001000.000001000.00000
 RFO step:  Lambda=-5.38573984D-03 EMin= 3.69634322D-03
 Quartic linear search produced a step of -0.11335.
 Iteration  1 RMS(Cart)=  0.05973343 RMS(Int)=  0.00121918
 Iteration  2 RMS(Cart)=  0.00237060 RMS(Int)=  0.00015554
 Iteration  3 RMS(Cart)=  0.00000152 RMS(Int)=  0.00015554
 Iteration  4 RMS(Cart)=  0.00000000 RMS(Int)=  0.00015554
 Iteration  1 RMS(Cart)=  0.00001983 RMS(Int)=  0.00000714
 Iteration  2 RMS(Cart)=  0.00001168 RMS(Int)=  0.00000792
 Iteration  3 RMS(Cart)=  0.00000704 RMS(Int)=  0.00000905
 Iteration  4 RMS(Cart)=  0.00000435 RMS(Int)=  0.00000993
 Iteration  5 RMS(Cart)=  0.00000274 RMS(Int)=  0.00001055
 Iteration  6 RMS(Cart)=  0.00000175 RMS(Int)=  0.00001098
 Iteration  7 RMS(Cart)=  0.00000114 RMS(Int)=  0.00001126
 Iteration  8 RMS(Cart)=  0.00000075 RMS(Int)=  0.00001145
 Variable       Old X    -DE/DX   Delta X   Delta X   Delta X     New X
                                 (Linear)    (Quad)   (Total)
    R1        2.04534  -0.00254   0.00165  -0.01153  -0.00988   2.03546
    R2        2.05435  -0.00137   0.00063  -0.00538  -0.00475   2.04960
    R3        2.05523  -0.00117   0.00051  -0.00452  -0.00401   2.05122
    R4        2.87081  -0.00348   0.00231  -0.01743  -0.01511   2.85569
    R5        2.29220  -0.02057   0.00343  -0.03091  -0.02748   2.26472
    R6        2.53790   0.00984  -0.00170   0.02020   0.01851   2.55641
    R7        1.88898  -0.00555   0.00223  -0.01766  -0.01543   1.87356
    R8        2.72190  -0.00053   0.00184  -0.00704  -0.00519   2.71671
    R9        2.04680  -0.00273   0.00147  -0.01141  -0.00995   2.03686
   R10        2.91264  -0.00327  -0.00349   0.00139  -0.00210   2.91055
   R11        2.92557  -0.00610  -0.00560  -0.00004  -0.00564   2.91993
   R12        2.05435  -0.00071   0.00061  -0.00370  -0.00309   2.05126
   R13        2.04223   0.00334   0.00200   0.00204   0.00404   2.04627
   R14        2.05145  -0.00211   0.00093  -0.00819  -0.00725   2.04420
   R15        2.29290  -0.01877   0.00336  -0.02898  -0.02561   2.26728
   R16        2.53951   0.00566  -0.00191   0.01462   0.01272   2.55223
   R17        1.87535   0.00039   0.00378  -0.01135  -0.00757   1.86778
   R18        2.74000  -0.00013  -0.00019   0.00030   0.00011   2.74011
   R19        2.04281  -0.00393   0.00193  -0.01587  -0.01394   2.02886
   R20        2.05295  -0.00140   0.00078  -0.00594  -0.00516   2.04779
   R21        2.05320  -0.00135   0.00073  -0.00567  -0.00494   2.04825
    A1        1.91206  -0.00004  -0.00012  -0.00085  -0.00091   1.91115
    A2        1.91179  -0.00019  -0.00007  -0.00157  -0.00156   1.91022
    A3        1.91180  -0.00261   0.00308  -0.02377  -0.02062   1.89118
    A4        1.89817  -0.00202   0.00136  -0.01297  -0.01178   1.88639
    A5        1.91298   0.00222  -0.00191   0.01780   0.01583   1.92881
    A6        1.91696   0.00265  -0.00236   0.02149   0.01908   1.93604
    A7        2.12102   0.00352  -0.00202   0.01832   0.01628   2.13730
    A8        2.01730  -0.00360   0.00201  -0.01862  -0.01663   2.00067
    A9        2.14481   0.00007   0.00002   0.00014   0.00013   2.14494
   A10        2.08767  -0.00190   0.00075  -0.01034  -0.01013   2.07754
   A11        2.13635   0.00262  -0.00100   0.01338   0.01184   2.14819
   A12        2.05911  -0.00070   0.00025  -0.00245  -0.00275   2.05635
   A13        1.89315  -0.00539   0.00204  -0.03389  -0.03180   1.86134
   A14        1.88546   0.00691   0.00607   0.01993   0.02570   1.91116
   A15        1.89122   0.00202   0.00542   0.00431   0.00914   1.90036
   A16        1.89038   0.00235   0.00065   0.01013   0.01136   1.90174
   A17        1.89088  -0.00026   0.00059  -0.02278  -0.02188   1.86900
   A18        2.01001  -0.00583  -0.01458   0.01885   0.00398   2.01399
   A19        1.93299   0.00232  -0.00248   0.01847   0.01600   1.94899
   A20        1.95555   0.00078  -0.00504   0.01853   0.01349   1.96905
   A21        1.90932  -0.00143   0.00020  -0.00697  -0.00675   1.90256
   A22        1.89937  -0.00186   0.00122  -0.01612  -0.01490   1.88447
   A23        1.89362  -0.00040   0.00188  -0.00715  -0.00525   1.88838
   A24        1.87102   0.00049   0.00444  -0.00841  -0.00396   1.86706
   A25        2.07141   0.00708   0.00359   0.01348   0.01706   2.08846
   A26        2.10876  -0.02233  -0.00835  -0.05129  -0.05966   2.04910
   A27        2.10286   0.01527   0.00478   0.03800   0.04276   2.14562
   A28        2.11225  -0.00538  -0.00202  -0.01898  -0.02103   2.09122
   A29        2.12924   0.00538  -0.00018   0.02157   0.02135   2.15059
   A30        2.04166  -0.00001   0.00220  -0.00271  -0.00054   2.04112
   A31        1.89655  -0.00066   0.00164  -0.00852  -0.00688   1.88967
   A32        1.92605   0.00106  -0.00169   0.01068   0.00898   1.93502
   A33        1.92380   0.00092  -0.00143   0.00915   0.00771   1.93152
   A34        1.90699  -0.00025   0.00035  -0.00258  -0.00222   1.90477
   A35        1.90801  -0.00019   0.00025  -0.00200  -0.00174   1.90627
   A36        1.90229  -0.00088   0.00089  -0.00687  -0.00601   1.89629
    D1        0.00572   0.00013  -0.00064   0.00239   0.00177   0.00749
    D2        3.13558  -0.00020   0.00069  -0.01216  -0.01149   3.12408
    D3        2.10403  -0.00017  -0.00009  -0.00237  -0.00252   2.10151
    D4       -1.04930  -0.00049   0.00125  -0.01692  -0.01579  -1.06508
    D5       -2.09472   0.00035  -0.00097   0.00583   0.00497  -2.08974
    D6        1.03514   0.00002   0.00036  -0.00872  -0.00829   1.02685
    D7       -0.01167   0.00031   0.00132   0.01018   0.01136  -0.00031
    D8        3.14147  -0.00188   0.00002  -0.05178  -0.05169   3.08978
    D9        3.11801   0.00001   0.00267  -0.00445  -0.00185   3.11616
   D10       -0.01204  -0.00218   0.00138  -0.06642  -0.06490  -0.07693
   D11        0.21654  -0.00146   0.00512  -0.04324  -0.03793   0.17861
   D12        2.26201   0.00217   0.01067  -0.03865  -0.02819   2.23382
   D13       -1.83266   0.00069   0.00000   0.00000   0.00000  -1.83266
   D14       -2.91369  -0.00361   0.00384  -0.10418  -0.10021  -3.01390
   D15       -0.86822   0.00003   0.00940  -0.09959  -0.09047  -0.95869
   D16        1.32030  -0.00146  -0.00128  -0.06095  -0.06228   1.25802
   D17        1.07620   0.00192  -0.00328   0.01202   0.00880   1.08500
   D18       -3.08262   0.00171  -0.00669   0.01733   0.01073  -3.07189
   D19       -1.01022   0.00188  -0.00420   0.01384   0.00973  -1.00050
   D20        3.12345   0.00054   0.00308  -0.01184  -0.00868   3.11477
   D21       -1.03536   0.00034  -0.00033  -0.00653  -0.00676  -1.04212
   D22        1.03703   0.00051   0.00216  -0.01002  -0.00776   1.02927
   D23       -1.04014  -0.00197  -0.00463  -0.02099  -0.02580  -1.06594
   D24        1.08423  -0.00217  -0.00804  -0.01567  -0.02388   1.06035
   D25       -3.12656  -0.00200  -0.00555  -0.01916  -0.02488   3.13175
   D26        0.50453  -0.00389   0.00216   0.01255   0.01464   0.51917
   D27       -2.61801  -0.00557   0.00000   0.00000   0.00000  -2.61801
   D28       -1.54612   0.00154  -0.00381   0.06287   0.05898  -1.48715
   D29        1.61452  -0.00014  -0.00597   0.05032   0.04434   1.65886
   D30        2.61774   0.00264   0.00387   0.05418   0.05807   2.67581
   D31       -0.50481   0.00096   0.00171   0.04163   0.04344  -0.46137
   D32       -0.01104   0.00096   0.00126   0.00821   0.00961  -0.00144
   D33        3.13966   0.00136   0.00022   0.02505   0.02527  -3.11825
   D34       -3.13324  -0.00066  -0.00094  -0.00427  -0.00522  -3.13846
   D35        0.01746  -0.00025  -0.00199   0.01257   0.01045   0.02791
   D36       -0.00443  -0.00022   0.00051  -0.00853  -0.00806  -0.01249
   D37        2.08619  -0.00030   0.00092  -0.01056  -0.00969   2.07649
   D38       -2.09493  -0.00012   0.00007  -0.00631  -0.00627  -2.10120
   D39       -3.13725   0.00020  -0.00050   0.00775   0.00729  -3.12996
   D40       -1.04664   0.00011  -0.00008   0.00572   0.00566  -1.04098
   D41        1.05543   0.00029  -0.00094   0.00996   0.00908   1.06451
         Item               Value     Threshold  Converged?
 Maximum Force            0.022341     0.000450     NO 
 RMS     Force            0.004698     0.000300     NO 
 Maximum Displacement     0.196784     0.001800     NO 
 RMS     Displacement     0.060215     0.001200     NO 
 Predicted change in Energy=-3.254696D-03
 GradGradGradGradGradGradGradGradGradGradGradGradGradGradGradGradGradGrad

                          Input orientation:                          
 ---------------------------------------------------------------------
 Center     Atomic      Atomic             Coordinates (Angstroms)
 Number     Number       Type             X           Y           Z
 ---------------------------------------------------------------------
      1          1           0        1.397771    2.362988    1.853578
      2          6           0        1.690646    2.835630    0.931071
      3          1           0        1.000665    3.640377    0.701583
      4          1           0        1.644505    2.111733    0.123567
      5          6           0        3.093825    3.371944    1.095646
      6          8           0        3.715712    3.245203    2.112231
      7          7           0        3.598711    3.976970   -0.003938
      8          1           0        3.041256    4.031245   -0.822019
      9          6           0        4.891386    4.605510   -0.029972
     10          1           0        5.387706    4.328958    0.885980
     11          6           0        5.702545    4.063893   -1.221975
     12          1           0        5.225947    4.295369   -2.169361
     13          1           0        6.713195    4.451413   -1.252903
     14          1           0        5.779225    2.988278   -1.136321
     15          6           0        4.702611    6.138785    0.001040
     16          8           0        3.746627    6.608238    0.553503
     17          7           0        5.639916    6.893051   -0.612651
     18          1           0        6.408195    6.457379   -1.056324
     19          6           0        5.602737    8.342384   -0.636369
     20          1           0        4.724527    8.665211   -0.109863
     21          1           0        6.479223    8.758962   -0.154170
     22          1           0        5.561768    8.707378   -1.656132
 ---------------------------------------------------------------------
                    Distance matrix (angstroms):
                    1          2          3          4          5
     1  H    0.000000
     2  C    1.077119   0.000000
     3  H    1.765363   1.084599   0.000000
     4  H    1.765488   1.085458   1.756527   0.000000
     5  C    2.114012   1.511168   2.146778   2.152579   0.000000
     6  O    2.493603   2.379870   3.085056   3.086979   1.198437
     7  N    3.301430   2.411973   2.713097   2.704494   1.352795
     8  H    3.555692   2.515347   2.576461   2.555303   2.028518
     9  C    4.558729   3.781642   4.074845   4.096918   2.453554
    10  H    4.552017   3.987520   4.444577   4.416890   2.494339
    11  C    5.557264   4.715885   5.097756   4.699904   3.557469
    12  H    5.879886   4.923604   5.150179   4.780430   4.007360
    13  H    6.501190   5.710210   6.091863   5.749817   4.447559
    14  H    5.341125   4.584091   5.161178   4.410392   3.512869
    15  C    5.348879   4.565931   4.520753   5.058080   3.382568
    16  O    5.022894   4.313026   4.046040   4.982201   3.345695
    17  N    6.678289   5.868772   5.816335   6.274260   4.668946
    18  H    7.094781   6.270732   6.345638   6.555115   5.013576
    19  C    7.722354   6.934383   6.714019   7.420655   5.830935
    20  H    7.391916   6.653720   6.306707   7.244936   5.668432
    21  H    8.411937   7.693769   7.546312   8.224190   6.484052
    22  H    8.361114   7.493773   7.213667   7.874949   6.490755
                    6          7          8          9         10
     6  O    0.000000
     7  N    2.242174   0.000000
     8  H    3.111684   0.991443   0.000000
     9  C    2.796726   1.437619   2.092869   0.000000
    10  H    2.339611   2.028879   2.917485   1.077860   0.000000
    11  C    3.966697   2.432547   2.691373   1.540195   2.147756
    12  H    4.660009   2.727330   2.580304   2.187489   3.059804
    13  H    4.665187   3.388956   3.720933   2.199613   2.519273
    14  H    3.857095   2.648479   2.946700   2.151211   2.457725
    15  C    3.715362   2.427357   2.807000   1.545163   2.127897
    16  O    3.706831   2.693732   3.005080   2.379461   2.828214
    17  N    4.943110   3.611174   3.871280   2.476420   2.980617
    18  H    5.254263   3.892704   4.156598   2.604520   3.056815
    19  C    6.090725   4.844887   5.018125   3.852008   4.297834
    20  H    5.944064   4.822684   4.981386   4.063913   4.498288
    21  H    6.570777   5.584565   5.883617   4.448349   4.679557
    22  H    6.887949   5.381459   5.377262   4.463086   5.065885
                   11         12         13         14         15
    11  C    0.000000
    12  H    1.085480   0.000000
    13  H    1.082840   1.753896   0.000000
    14  H    1.081742   1.755498   1.739729   0.000000
    15  C    2.607836   2.895290   2.908959   3.518293   0.000000
    16  O    3.667646   3.866748   4.088462   4.482307   1.199794
    17  N    2.894708   3.056578   2.742890   3.942194   1.350583
    18  H    2.500831   2.703858   2.038521   3.526566   2.031880
    19  C    4.319535   4.344004   4.093029   5.380294   2.464218
    20  H    4.833781   4.856797   4.797648   5.864603   2.528954
    21  H    4.877203   5.055231   4.451621   5.895372   3.169506
    22  H    4.665862   4.454437   4.427371   5.746791   3.175223
[...]
     22          1           0        5.879944    8.696431   -1.592574
 ---------------------------------------------------------------------
                    Distance matrix (angstroms):
                    1          2          3          4          5
     1  H    0.000000
     2  C    1.080508   0.000000
     3  H    1.760465   1.085500   0.000000
     4  H    1.769909   1.084164   1.759449   0.000000
     5  C    2.128114   1.512201   2.119693   2.171945   0.000000
     6  O    2.557955   2.388616   2.897557   3.229864   1.210993
     7  N    3.288459   2.429803   2.905728   2.585519   1.368146
     8  H    3.501787   2.494521   2.811450   2.322472   2.010616
     9  C    4.555671   3.762781   4.092642   4.026351   2.445534
    10  H    4.545837   3.934006   4.261516   4.437922   2.458985
    11  C    5.552307   4.825371   5.346678   4.859532   3.560424
    12  H    5.959839   5.137499   5.622716   4.959556   4.090564
    13  H    6.454552   5.763152   6.231567   5.888414   4.402099
    14  H    5.283123   4.716076   5.424772   4.720430   3.480477
    15  C    5.345198   4.418968   4.381863   4.684714   3.367296
    16  O    5.035016   4.076409   3.757998   4.405259   3.343071
    17  N    6.670542   5.743025   5.717201   5.936322   4.650171
    18  H    7.076792   6.203462   6.325508   6.370264   4.983878
    19  C    7.707382   6.746553   6.525982   6.950733   5.799089
    20  H    7.438251   6.443305   6.079927   6.619853   5.705571
    21  H    8.148531   7.254536   6.990274   7.593973   6.232862
    22  H    8.542170   7.553392   7.386782   7.646242   6.616875
                    6          7          8          9         10
     6  O    0.000000
     7  N    2.266128   0.000000
     8  H    3.107049   0.995750   0.000000
     9  C    2.799015   1.445316   2.079635   0.000000
    10  H    2.308871   2.034839   2.889317   1.081836   0.000000
    11  C    3.877140   2.449377   2.915508   1.531944   2.141050
    12  H    4.649199   2.801272   2.902468   2.181974   3.055190
    13  H    4.506834   3.394505   3.909579   2.187030   2.459382
    14  H    3.699685   2.611201   3.199168   2.139869   2.491367
    15  C    3.805146   2.423500   2.569206   1.538130   2.113901
    16  O    3.883079   2.693260   2.621827   2.380566   2.820104
    17  N    5.002796   3.604274   3.698497   2.463184   2.966206
    18  H    5.236685   3.892042   4.110800   2.581792   3.010919
    19  C    6.161390   4.836351   4.786709   3.830259   4.251924
    20  H    6.191613   4.815041   4.603161   4.084900   4.580892
    21  H    6.409884   5.426086   5.517083   4.324108   4.494331
    22  H    7.037738   5.530781   5.405435   4.510183   5.033104
                   11         12         13         14         15
    11  C    0.000000
    12  H    1.085503   0.000000
    13  H    1.085936   1.762059   0.000000
    14  H    1.082079   1.755954   1.746111   0.000000
    15  C    2.598800   2.846979   2.941208   3.503796   0.000000
    16  O    3.664631   3.841586   4.117698   4.462864   1.199063
    17  N    2.873368   2.946745   2.797396   3.933363   1.348732
    18  H    2.483127   2.607552   2.092709   3.531936   2.026365
    19  C    4.307333   4.260108   4.152956   5.375347   2.449647
    20  H    4.792661   4.672962   4.852372   5.830131   2.567174
    21  H    4.883925   5.024784   4.575333   5.914771   3.009746
    22  H    4.673696   4.436756   4.431259   5.754442   3.266159
                   16         17         18         19         20
    16  O    0.000000
    17  N    2.236656   0.000000
    18  H    3.107754   0.991784   0.000000
    19  C    2.779852   1.447874   2.101628   0.000000
    20  H    2.427814   2.065102   2.937088   1.077907   0.000000
    21  H    3.274739   2.107140   2.589991   1.085372   1.757748
    22  H    3.707235   2.076781   2.384921   1.082990   1.762033
                   21         22
    21  H    0.000000
    22  H    1.763523   0.000000
 Stoichiometry    C6H12N2O2
 Framework group  C1[X(C6H12N2O2)]
 Deg. of freedom    60
 Full point group                 C1      NOp   1
 Largest Abelian subgroup         C1      NOp   1
 Largest concise Abelian subgroup C1      NOp   1
                         Standard orientation:                         
 ---------------------------------------------------------------------
 Center     Atomic      Atomic             Coordinates (Angstroms)
 Number     Number       Type             X           Y           Z
 ---------------------------------------------------------------------
      1          1           0        4.162242   -0.882528   -0.199876
      2          6           0        3.168506   -0.989088   -0.610523
      3          1           0        2.849016   -2.019180   -0.487452
      4          1           0        3.184574   -0.760546   -1.670203
      5          6           0        2.214953   -0.102455    0.158484
      6          8           0        2.411495    0.209337    1.312027
      7          7           0        1.119181    0.314795   -0.546504
      8          1           0        0.957731   -0.154583   -1.409716
      9          6           0       -0.062511    0.788255    0.137877
     10          1           0        0.204558    0.875344    1.182606
     11          6           0       -0.472476    2.169347   -0.383050
     12          1           0       -0.842051    2.122488   -1.402626
     13          1           0       -1.233327    2.632783    0.237908
     14          1           0        0.394286    2.816927   -0.366964
     15          6           0       -1.144980   -0.301663    0.059228
     16          8           0       -0.836192   -1.458156   -0.010960
     17          7           0       -2.429120    0.110664    0.052394
     18          1           0       -2.628108    1.073671    0.181455
     19          6           0       -3.539427   -0.817867    0.089689
     20          1           0       -3.223354   -1.754978   -0.339035
     21          1           0       -3.880412   -0.997066    1.104406
     22          1           0       -4.362398   -0.419165   -0.490503
 ---------------------------------------------------------------------
 Rotational constants (GHZ):      2.5143577      0.7299387      0.6349704

 **********************************************************************

            Population analysis using the SCF density.

 **********************************************************************

 Orbital symmetries:
       Occupied  (A) (A) (A) (A) (A) (A) (A) (A) (A) (A) (A) (A)
                 (A) (A) (A) (A) (A) (A) (A) (A) (A) (A) (A) (A)
                 (A) (A) (A) (A) (A) (A) (A) (A) (A) (A) (A) (A)
                 (A) (A) (A)
       Virtual   (A) (A) (A) (A) (A) (A) (A) (A) (A) (A) (A) (A)
                 (A) (A) (A) (A) (A) (A) (A) (A) (A) (A) (A) (A)
                 (A) (A) (A) (A) (A) (A) (A) (A) (A) (A) (A) (A)
                 (A) (A) (A) (A) (A) (A) (A) (A) (A) (A) (A) (A)
                 (A) (A) (A) (A) (A) (A) (A) (A) (A) (A) (A) (A)
                 (A) (A) (A) (A) (A) (A) (A) (A) (A) (A) (A) (A)
                 (A) (A) (A) (A) (A) (A) (A) (A) (A) (A) (A) (A)
                 (A) (A) (A) (A) (A) (A) (A) (A) (A) (A) (A) (A)
                 (A) (A) (A) (A) (A) (A) (A) (A) (A) (A) (A) (A)
                 (A) (A) (A) (A) (A) (A) (A) (A) (A) (A) (A) (A)
                 (A) (A) (A) (A) (A) (A) (A) (A) (A) (A) (A) (A)
                 (A) (A) (A)
 The electronic state is 1-A.
 Alpha  occ. eigenvalues --  -20.52654 -20.51906 -15.59263 -15.58025 -11.34954
 Alpha  occ. eigenvalues --  -11.34559 -11.27911 -11.26162 -11.23354 -11.22675
 Alpha  occ. eigenvalues --   -1.39965  -1.37816  -1.23989  -1.23396  -1.05617
 Alpha  occ. eigenvalues --   -0.99074  -0.95996  -0.88677  -0.79753  -0.78816
 Alpha  occ. eigenvalues --   -0.73292  -0.66909  -0.65609  -0.64625  -0.62765
 Alpha  occ. eigenvalues --   -0.61685  -0.59552  -0.58705  -0.57079  -0.56379
 Alpha  occ. eigenvalues --   -0.55620  -0.54680  -0.53706  -0.51672  -0.49503
 Alpha  occ. eigenvalues --   -0.42440  -0.41396  -0.39493  -0.38967
 Alpha virt. eigenvalues --    0.19271   0.20283   0.22083   0.23675   0.26279
 Alpha virt. eigenvalues --    0.28000   0.29332   0.29539   0.30892   0.31410
 Alpha virt. eigenvalues --    0.31613   0.32836   0.34045   0.34740   0.37681
 Alpha virt. eigenvalues --    0.39906   0.40802   0.43373   0.47461   0.50452
 Alpha virt. eigenvalues --    0.51867   0.58952   0.61690   0.69957   0.72315
 Alpha virt. eigenvalues --    0.73280   0.74938   0.75841   0.77729   0.80422
 Alpha virt. eigenvalues --    0.80780   0.82091   0.84347   0.86720   0.88642
 Alpha virt. eigenvalues --    0.92398   0.96155   0.96912   0.97392   0.98959
 Alpha virt. eigenvalues --    0.99793   1.02997   1.04791   1.06154   1.09263
 Alpha virt. eigenvalues --    1.09422   1.12408   1.14194   1.14744   1.15874
 Alpha virt. eigenvalues --    1.16530   1.17577   1.19418   1.19823   1.20730
 Alpha virt. eigenvalues --    1.21933   1.22613   1.23700   1.23952   1.27258
 Alpha virt. eigenvalues --    1.28943   1.33212   1.34690   1.38955   1.41147
 Alpha virt. eigenvalues --    1.44597   1.48568   1.54158   1.55251   1.58411
 Alpha virt. eigenvalues --    1.63784   1.67739   1.68315   1.71130   1.74799
 Alpha virt. eigenvalues --    1.79726   1.80559   1.88821   1.94381   1.97800
 Alpha virt. eigenvalues --    2.03495   2.04794   2.07164   2.09148   2.11433
 Alpha virt. eigenvalues --    2.13403   2.15002   2.17726   2.20275   2.22306
 Alpha virt. eigenvalues --    2.23585   2.26688   2.30543   2.33170   2.33670
 Alpha virt. eigenvalues --    2.38040   2.38518   2.40612   2.48079   2.49961
 Alpha virt. eigenvalues --    2.54225   2.56173   2.57162   2.61304   2.63610
 Alpha virt. eigenvalues --    2.64687   2.68583   2.70671   2.75154   2.78323
 Alpha virt. eigenvalues --    2.79536   2.81797   2.87826   2.92588   2.94855
 Alpha virt. eigenvalues --    3.02694   3.04220   3.08587   3.09513   3.25924
 Alpha virt. eigenvalues --    3.32817   3.36549   3.42015   3.52004   3.55882
 Alpha virt. eigenvalues --    4.36444   4.42727   4.48691   4.55397   4.64735
 Alpha virt. eigenvalues --    4.65830   4.69055   4.83102   4.90105   5.08715
          Condensed to atoms (all electrons):
              1          2          3          4          5          6
     1  H    0.470477   0.382645  -0.017225  -0.022277  -0.031192   0.002989
     2  C    0.382645   5.265253   0.376873   0.374529   0.370051  -0.071429
     3  H   -0.017225   0.376873   0.476580  -0.023504  -0.026236  -0.000009
     4  H   -0.022277   0.374529  -0.023504   0.526469  -0.036170   0.002294
     5  C   -0.031192   0.370051  -0.026236  -0.036170   4.134736   0.605766
     6  O    0.002989  -0.071429  -0.000009   0.002294   0.605766   8.155132
     7  N    0.004034  -0.113356   0.000109   0.004734   0.270031  -0.100621
     8  H    0.000086  -0.000683   0.000083   0.000392  -0.017796   0.002352
     9  C   -0.000116   0.005260  -0.000361   0.000081  -0.026911  -0.000327
    10  H   -0.000010   0.000722  -0.000026  -0.000026  -0.002057   0.014271
    11  C    0.000005  -0.000170  -0.000001  -0.000001   0.000576  -0.000254
    12  H    0.000000  -0.000004   0.000000   0.000001  -0.000059  -0.000011
    13  H    0.000000   0.000002   0.000000   0.000000  -0.000005   0.000003
    14  H    0.000000   0.000001   0.000000  -0.000004   0.000288   0.000231
    15  C   -0.000001  -0.000094   0.000081  -0.000022   0.001048   0.000145
    16  O    0.000001  -0.000300   0.000305  -0.000002   0.004673  -0.000160
    17  N    0.000000   0.000001   0.000000   0.000000   0.000070  -0.000005
    18  H    0.000000   0.000000   0.000000   0.000000  -0.000009   0.000000
    19  C    0.000000   0.000000   0.000000   0.000000   0.000001   0.000000
    20  H    0.000000   0.000000   0.000000   0.000000   0.000000   0.000000
    21  H    0.000000   0.000000   0.000000   0.000000   0.000000   0.000000
    22  H    0.000000   0.000000   0.000000   0.000000   0.000000   0.000000
              7          8          9         10         11         12
     1  H    0.004034   0.000086  -0.000116  -0.000010   0.000005   0.000000
     2  C   -0.113356  -0.000683   0.005260   0.000722  -0.000170  -0.000004
     3  H    0.000109   0.000083  -0.000361  -0.000026  -0.000001   0.000000
     4  H    0.004734   0.000392   0.000081  -0.000026  -0.000001   0.000001
     5  C    0.270031  -0.017796  -0.026911  -0.002057   0.000576  -0.000059
     6  O   -0.100621   0.002352  -0.000327   0.014271  -0.000254  -0.000011
     7  N    7.335513   0.324227   0.206504  -0.036541  -0.070891  -0.000403
     8  H    0.324227   0.330895  -0.034096   0.003170   0.000614   0.001037
     9  C    0.206504  -0.034096   5.110873   0.395487   0.336844  -0.038273
    10  H   -0.036541   0.003170   0.395487   0.424302  -0.034373   0.003285
    11  C   -0.070891   0.000614   0.336844  -0.034373   5.152040   0.388697
    12  H   -0.000403   0.001037  -0.038273   0.003285   0.388697   0.529752
    13  H    0.004793  -0.000089  -0.038428  -0.001875   0.382552  -0.029020
    14  H   -0.002589   0.000007  -0.030285  -0.001764   0.392847  -0.023031
    15  C   -0.054181   0.000371   0.375727  -0.026187  -0.058516  -0.001812
    16  O   -0.007925   0.005445  -0.081272  -0.000016   0.002038   0.000012
    17  N    0.002510   0.000198  -0.108779   0.000207   0.001704   0.001063
    18  H    0.000177  -0.000011  -0.000657  -0.000093   0.000747  -0.000561
    19  C   -0.000087  -0.000012   0.003860  -0.000146  -0.000122  -0.000109
    20  H    0.000000   0.000000   0.000399  -0.000011  -0.000039  -0.000006
    21  H   -0.000002   0.000000  -0.000201   0.000026   0.000018   0.000003
    22  H    0.000002   0.000000   0.000023  -0.000001  -0.000026   0.000000
             13         14         15         16         17         18
     1  H    0.000000   0.000000  -0.000001   0.000001   0.000000   0.000000
     2  C    0.000002   0.000001  -0.000094  -0.000300   0.000001   0.000000
     3  H    0.000000   0.000000   0.000081   0.000305   0.000000   0.000000
     4  H    0.000000  -0.000004  -0.000022  -0.000002   0.000000   0.000000
     5  C   -0.000005   0.000288   0.001048   0.004673   0.000070  -0.000009
     6  O    0.000003   0.000231   0.000145  -0.000160  -0.000005   0.000000
     7  N    0.004793  -0.002589  -0.054181  -0.007925   0.002510   0.000177
     8  H   -0.000089   0.000007   0.000371   0.005445   0.000198  -0.000011
     9  C   -0.038428  -0.030285   0.375727  -0.081272  -0.108779  -0.000657
    10  H   -0.001875  -0.001764  -0.026187  -0.000016   0.000207  -0.000093
    11  C    0.382552   0.392847  -0.058516   0.002038   0.001704   0.000747
    12  H   -0.029020  -0.023031  -0.001812   0.000012   0.001063  -0.000561
    13  H    0.551298  -0.023650   0.000407  -0.000018  -0.002218   0.003337
    14  H   -0.023650   0.481606   0.003056  -0.000050   0.000063   0.000029
    15  C    0.000407   0.003056   4.146308   0.619286   0.281685  -0.016970
    16  O   -0.000018  -0.000050   0.619286   8.164739  -0.105710   0.002596
    17  N   -0.002218   0.000063   0.281685  -0.105710   7.345564   0.321430
    18  H    0.003337   0.000029  -0.016970   0.002596   0.321430   0.320772
    19  C    0.000048   0.000004  -0.026102   0.000488   0.193156  -0.022959
    20  H    0.000000   0.000000  -0.002891   0.008179  -0.035328   0.002755
    21  H   -0.000009   0.000000  -0.001232   0.000529  -0.047408  -0.000142
    22  H    0.000007   0.000000   0.002885   0.000310  -0.042303  -0.002439
             19         20         21         22
     1  H    0.000000   0.000000   0.000000   0.000000
     2  C    0.000000   0.000000   0.000000   0.000000
     3  H    0.000000   0.000000   0.000000   0.000000
     4  H    0.000000   0.000000   0.000000   0.000000
     5  C    0.000001   0.000000   0.000000   0.000000
     6  O    0.000000   0.000000   0.000000   0.000000
     7  N   -0.000087   0.000000  -0.000002   0.000002
     8  H   -0.000012   0.000000   0.000000   0.000000
     9  C    0.003860   0.000399  -0.000201   0.000023
    10  H   -0.000146  -0.000011   0.000026  -0.000001
    11  C   -0.000122  -0.000039   0.000018  -0.000026
    12  H   -0.000109  -0.000006   0.000003   0.000000
    13  H    0.000048   0.000000  -0.000009   0.000007
    14  H    0.000004   0.000000   0.000000   0.000000
    15  C   -0.026102  -0.002891  -0.001232   0.002885
    16  O    0.000488   0.008179   0.000529   0.000310
    17  N    0.193156  -0.035328  -0.047408  -0.042303
    18  H   -0.022959   0.002755  -0.000142  -0.002439
    19  C    4.928286   0.400759   0.405590   0.400468
    20  H    0.400759   0.453748  -0.027635  -0.022268
    21  H    0.405590  -0.027635   0.532236  -0.036170
    22  H    0.400468  -0.022268  -0.036170   0.529363
 Mulliken atomic charges:
              1
     1  H    0.210585
     2  C   -0.589302
     3  H    0.213330
     4  H    0.173505
     5  C    0.753197
     6  O   -0.610369
     7  N   -0.766038
     8  H    0.383811
     9  C   -0.075350
    10  H    0.261657
    11  C   -0.494287
    12  H    0.169436
    13  H    0.152866
    14  H    0.203240
    15  C    0.757008
    16  O   -0.613148
    17  N   -0.805901
    18  H    0.391997
    19  C   -0.283123
    20  H    0.222340
    21  H    0.174397
    22  H    0.170150
 Sum of Mulliken atomic charges =   0.00000
 Mulliken charges with hydrogens summed into heavy atoms:
              1
     2  C    0.008117
     5  C    0.753197
     6  O   -0.610369
     7  N   -0.382227
     9  C    0.186308
    11  C    0.031254
    15  C    0.757008
    16  O   -0.613148
    17  N   -0.413904
    19  C    0.283764
 Sum of Mulliken charges with hydrogens summed into heavy atoms =   0.00000
 Electronic spatial extent (au):  <R**2>=           1873.9034
 Charge=              0.0000 electrons
 Dipole moment (field-independent basis, Debye):
    X=             -3.2339    Y=              1.9411    Z=             -2.8868  Tot=              4.7497
 Quadrupole moment (field-independent basis, Debye-Ang):
   XX=            -53.2039   YY=            -61.9836   ZZ=            -62.6795
   XY=             -6.1544   XZ=             -8.8377   YZ=              0.9268
 Traceless Quadrupole moment (field-independent basis, Debye-Ang):
   XX=              6.0851   YY=             -2.6946   ZZ=             -3.3905
   XY=             -6.1544   XZ=             -8.8377   YZ=              0.9268
 Octapole moment (field-independent basis, Debye-Ang**2):
  XXX=            -33.0238  YYY=              4.2946  ZZZ=             -6.2679  XYY=              0.0698
  XXY=            -11.2094  XXZ=            -16.2192  XZZ=             -9.1339  YZZ=             -3.2920
  YYZ=              1.9774  XYZ=             -1.0968
 Hexadecapole moment (field-independent basis, Debye-Ang**3):
 XXXX=          -1622.0733 YYYY=           -487.3011 ZZZZ=           -181.9420 XXXY=            -12.9559
 XXXZ=            -41.8732 YYYX=             -4.4818 YYYZ=              5.1459 ZZZX=            -14.0725
 ZZZY=              1.8127 XXYY=           -354.0626 XXZZ=           -353.6165 YYZZ=           -113.3570
 XXYZ=             -0.2627 YYXZ=              1.9292 ZZXY=             -1.2633
 N-N= 5.560424945537D+02 E-N=-2.267487345949D+03  KE= 4.920706722397D+02


 IF YOU WISH TO UNDERSTAND THE FRAGRANCE OF THE ROSE, 
 OR THE TENACITY OF THE OAK; 
 IF YOU ARE NOT SATISFIED UNTIL YOU KNOW THE SECRET PATHS 
 BY WHICH THE SUNSHINE AND THE AIR ACHIEVE THESE WONDERS; 
 IF YOU WISH TO SEE THE PATTERN WHICH UNDERLIES ONE LARGE FIELD OF 
 HUMAN EXPERIENCE AND HUMAN MEASUREMENT, THEN TAKE UP CHEMISTRY.

                                         -- C. A. COULSON, 1973.
 Error termination request processed by link 9999.
 Error termination via Lnk1e in /home/steboss/Software/g09/l9999.exe at Sat Feb 11 17:08:19 2017.
 Job cpu time:  0 days  1 hours 48 minutes 17.1 seconds.
 File lengths (MBytes):  RWF=     25 Int=      0 D2E=      0 Chk=      3 Scr=      1
