 Entering Gaussian System, Link 0=g09
 Initial command:
 /home/steboss/Software/g09/l1.exe /tmp/Gau-19464.inp -scrdir=/tmp/
 Entering Link 1 = /home/steboss/Software/g09/l1.exe PID=     19466.
  
 Copyright (c) 1988,1990,1992,1993,1995,1998,2003,2009, Gaussian, Inc.
                  All Rights Reserved.
  
 This is part of the Gaussian(R) 09 program.  It is based on
 the Gaussian(R) 03 system (copyright 2003, Gaussian, Inc.),
 the Gaussian(R) 98 system (copyright 1998, Gaussian, Inc.),
 the Gaussian(R) 94 system (copyright 1995, Gaussian, Inc.),
 the Gaussian 92(TM) system (copyright 1992, Gaussian, Inc.),
 the Gaussian 90(TM) system (copyright 1990, Gaussian, Inc.),
 the Gaussian 88(TM) system (copyright 1988, Gaussian, Inc.),
 the Gaussian 86(TM) system (copyright 1986, Carnegie Mellon
 University), and the Gaussian 82(TM) system (copyright 1983,
 Carnegie Mellon University). Gaussian is a federally registered
 trademark of Gaussian, Inc.
  
 This software contains proprietary and confidential information,
 including trade secrets, belonging to Gaussian, Inc.
  
 This software is provided under written license and may be
 used, copied, transmitted, or stored only in accord with that
 written license.
  
 The following legend is applicable only to US Government
 contracts under FAR:
  
                    RESTRICTED RIGHTS LEGEND
  
 Use, reproduction and disclosure by the US Government is
 subject to restrictions as set forth in subparagraphs (a)
 and (c) of the Commercial Computer Software - Restricted
 Rights clause in FAR 52.227-19.
  
 Gaussian, Inc.
 340 Quinnipiac St., Bldg. 40, Wallingford CT 06492
  
  
 ---------------------------------------------------------------
 Warning -- This program may not be used in any manner that
 competes with the business of Gaussian, Inc. or will provide
 assistance to any competitor of Gaussian, Inc.  The licensee
 of this program is prohibited from giving any competitor of
 Gaussian, Inc. access to this program.  By using this program,
 the user acknowledges that Gaussian, Inc. is engaged in the
 business of creating and licensing software in the field of
 computational chemistry and represents and warrants to the
 licensee that it is not a competitor of Gaussian, Inc. and that
 it will not use this program in any manner prohibited above.
 ---------------------------------------------------------------
  

 Cite this work as:
 Gaussian 09, Revision A.02,
 M. J. Frisch, G. W. Trucks, H. B. Schlegel, G. E. Scuseria, 
 M. A. Robb, J. R. Cheeseman, G. Scalmani, V. Barone, B. Mennucci, 
 G. A. Petersson, H. Nakatsuji, M. Caricato, X. Li, H. P. Hratchian, 
 A. F. Izmaylov, J. Bloino, G. Zheng, J. L. Sonnenberg, M. Hada, 
 M. Ehara, K. Toyota, R. Fukuda, J. Hasegawa, M. Ishida, T. Nakajima, 
 Y. Honda, O. Kitao, H. Nakai, T. Vreven, J. A. Montgomery, Jr., 
 J. E. Peralta, F. Ogliaro, M. Bearpark, J. J. Heyd, E. Brothers, 
 K. N. Kudin, V. N. Staroverov, R. Kobayashi, J. Normand, 
 K. Raghavachari, A. Rendell, J. C. Burant, S. S. Iyengar, J. Tomasi, 
 M. Cossi, N. Rega, J. M. Millam, M. Klene, J. E. Knox, J. B. Cross, 
 V. Bakken, C. Adamo, J. Jaramillo, R. Gomperts, R. E. Stratmann, 
 O. Yazyev, A. J. Austin, R. Cammi, C. Pomelli, J. W. Ochterski, 
 R. L. Martin, K. Morokuma, V. G. Zakrzewski, G. A. Voth, 
 P. Salvador, J. J. Dannenberg, S. Dapprich, A. D. Daniels, 
 O. Farkas, J. B. Foresman, J. V. Ortiz, J. Cioslowski, 
 and D. J. Fox, Gaussian, Inc., Wallingford CT, 2009.
 
 ******************************************
 Gaussian 09:  EM64L-G09RevA.02 11-Jun-2009
                11-Feb-2017 
 ******************************************
 %chk=structure_60.chk
 %NProcShared=8
 Will use up to    8 processors via shared memory.
 -------------------------------------------
 # HF/6-31G* Opt=(ModRedundant) geom=nocrowd
 -------------------------------------------
 1/18=120,19=15,38=1/1,3;
 2/9=110,12=1,17=6,18=5,40=1/2;
 3/5=1,6=6,7=1,11=9,16=1,25=1,30=1,71=1/1,2,3;
 4//1;
 5/5=2,38=5/2;
 6/7=2,8=2,9=2,10=2,28=1/1;
 7//1,2,3,16;
 1/18=20,19=15/3(2);
 2/9=110,12=1/2;
 99//99;
 2/9=110,12=1/2;
 3/5=1,6=6,7=1,11=9,16=1,25=1,30=1,71=1/1,2,3;
 4/5=5,16=3/1;
 5/5=2,38=5/2;
 7//1,2,3,16;
 1/18=20,19=15/3(-5);
 2/9=110,12=1/2;
 6/7=2,8=2,9=2,10=2,19=2,28=1/1;
 99/9=1/99;
 ------------------
 Phi Psi fixed scan
 ------------------
 Symbolic Z-matrix:
 Charge =  0 Multiplicity = 1
 H                     1.3513    2.3068    1.9013 
 C                     1.6731    2.7486    0.9582 
 H                     0.9598    3.5143    0.6531 
 H                     1.7242    1.9746    0.1925 
 C                     3.0539    3.3932    1.0948 
 O                     3.6506    3.3681    2.1689 
 N                     3.5554    3.9697    0. 
 H                     3.0267    3.9647   -0.8606 
 C                     4.8533    4.6139    0. 
 H                     5.4076    4.3155    0.8898 
 C                     5.6613    4.2208   -1.2322 
 H                     5.1233    4.5214   -2.1312 
 H                     6.6305    4.7189   -1.2058 
 H                     5.8085    3.1409   -1.2414 
 C                     4.7127    6.1294    0. 
 O                     5.1823    6.7994   -0.9171 
 N                     4.0632    6.6695    1.0338 
 H                     3.6947    6.0769    1.764 
 C                     3.8633    8.0999    1.1497 
 H                     4.3136    8.6009    0.2928 
 H                     2.7955    8.3171    1.1769 
 H                     4.3301    8.4594    2.0667 
 
 The following ModRedundant input section has been read:
 D    5    7    9   15 F                                                       
 D    7    9   15   17 F                                                       

 GradGradGradGradGradGradGradGradGradGradGradGradGradGradGradGradGradGrad
 Berny optimization.
 Initialization pass.
                           ----------------------------
                           !    Initial Parameters    !
                           ! (Angstroms and Degrees)  !
 --------------------------                            --------------------------
 ! Name  Definition              Value          Derivative Info.                !
 --------------------------------------------------------------------------------
 ! R1    R(1,2)                  1.09           estimate D2E/DX2                !
 ! R2    R(2,3)                  1.09           estimate D2E/DX2                !
 ! R3    R(2,4)                  1.0899         estimate D2E/DX2                !
 ! R4    R(2,5)                  1.53           estimate D2E/DX2                !
 ! R5    R(5,6)                  1.229          estimate D2E/DX2                !
 ! R6    R(5,7)                  1.3351         estimate D2E/DX2                !
 ! R7    R(7,8)                  1.01           estimate D2E/DX2                !
 ! R8    R(7,9)                  1.449          estimate D2E/DX2                !
 ! R9    R(9,10)                 1.09           estimate D2E/DX2                !
 ! R10   R(9,11)                 1.525          estimate D2E/DX2                !
 ! R11   R(9,15)                 1.522          estimate D2E/DX2                !
 ! R12   R(11,12)                1.09           estimate D2E/DX2                !
 ! R13   R(11,13)                1.09           estimate D2E/DX2                !
 ! R14   R(11,14)                1.0899         estimate D2E/DX2                !
 ! R15   R(15,16)                1.229          estimate D2E/DX2                !
 ! R16   R(15,17)                1.335          estimate D2E/DX2                !
 ! R17   R(17,18)                1.01           estimate D2E/DX2                !
 ! R18   R(17,19)                1.4489         estimate D2E/DX2                !
 ! R19   R(19,20)                1.09           estimate D2E/DX2                !
 ! R20   R(19,21)                1.09           estimate D2E/DX2                !
 ! R21   R(19,22)                1.09           estimate D2E/DX2                !
 ! A1    A(1,2,3)              109.493          estimate D2E/DX2                !
 ! A2    A(1,2,4)              109.5017         estimate D2E/DX2                !
 ! A3    A(1,2,5)              111.0973         estimate D2E/DX2                !
 ! A4    A(3,2,4)              109.4436         estimate D2E/DX2                !
 ! A5    A(3,2,5)              108.6398         estimate D2E/DX2                !
 ! A6    A(4,2,5)              108.6387         estimate D2E/DX2                !
 ! A7    A(2,5,6)              120.5054         estimate D2E/DX2                !
 ! A8    A(2,5,7)              116.5979         estimate D2E/DX2                !
 ! A9    A(6,5,7)              122.8967         estimate D2E/DX2                !
 ! A10   A(5,7,8)              119.9959         estimate D2E/DX2                !
 ! A11   A(5,7,9)              121.9004         estimate D2E/DX2                !
 ! A12   A(8,7,9)              118.1037         estimate D2E/DX2                !
 ! A13   A(7,9,10)             109.5            estimate D2E/DX2                !
 ! A14   A(7,9,11)             111.0992         estimate D2E/DX2                !
 ! A15   A(7,9,15)             111.0966         estimate D2E/DX2                !
 ! A16   A(10,9,11)            108.6382         estimate D2E/DX2                !
 ! A17   A(10,9,15)            108.6373         estimate D2E/DX2                !
 ! A18   A(11,9,15)            107.7947         estimate D2E/DX2                !
 ! A19   A(9,11,12)            109.5007         estimate D2E/DX2                !
 ! A20   A(9,11,13)            109.4959         estimate D2E/DX2                !
 ! A21   A(9,11,14)            109.4978         estimate D2E/DX2                !
 ! A22   A(12,11,13)           109.441          estimate D2E/DX2                !
 ! A23   A(12,11,14)           109.4482         estimate D2E/DX2                !
 ! A24   A(13,11,14)           109.4436         estimate D2E/DX2                !
 ! A25   A(9,15,16)            120.4988         estimate D2E/DX2                !
 ! A26   A(9,15,17)            116.6009         estimate D2E/DX2                !
 ! A27   A(16,15,17)           122.9003         estimate D2E/DX2                !
 ! A28   A(15,17,18)           119.9975         estimate D2E/DX2                !
 ! A29   A(15,17,19)           121.9004         estimate D2E/DX2                !
 ! A30   A(18,17,19)           118.1021         estimate D2E/DX2                !
 ! A31   A(17,19,20)           109.5044         estimate D2E/DX2                !
 ! A32   A(17,19,21)           109.5034         estimate D2E/DX2                !
 ! A33   A(17,19,22)           109.5005         estimate D2E/DX2                !
 ! A34   A(20,19,21)           109.4351         estimate D2E/DX2                !
 ! A35   A(20,19,22)           109.4433         estimate D2E/DX2                !
 ! A36   A(21,19,22)           109.4405         estimate D2E/DX2                !
 ! D1    D(1,2,5,6)              0.0038         estimate D2E/DX2                !
 ! D2    D(1,2,5,7)           -179.9948         estimate D2E/DX2                !
 ! D3    D(3,2,5,6)            120.5082         estimate D2E/DX2                !
 ! D4    D(3,2,5,7)            -59.4904         estimate D2E/DX2                !
 ! D5    D(4,2,5,6)           -120.5106         estimate D2E/DX2                !
 ! D6    D(4,2,5,7)             59.4908         estimate D2E/DX2                !
 ! D7    D(2,5,7,8)             -0.0007         estimate D2E/DX2                !
 ! D8    D(2,5,7,9)           -179.9954         estimate D2E/DX2                !
 ! D9    D(6,5,7,8)           -179.9993         estimate D2E/DX2                !
 ! D10   D(6,5,7,9)              0.006          estimate D2E/DX2                !
 ! D11   D(5,7,9,10)            14.996          estimate D2E/DX2                !
 ! D12   D(5,7,9,11)           134.9986         estimate D2E/DX2                !
 ! D13   D(5,7,9,15)          -105.0038         Frozen                          !
 ! D14   D(8,7,9,10)          -164.9988         estimate D2E/DX2                !
 ! D15   D(8,7,9,11)           -44.9962         estimate D2E/DX2                !
 ! D16   D(8,7,9,15)            75.0013         estimate D2E/DX2                !
 ! D17   D(7,9,11,12)           60.0024         estimate D2E/DX2                !
 ! D18   D(7,9,11,13)          179.9986         estimate D2E/DX2                !
 ! D19   D(7,9,11,14)          -60.0038         estimate D2E/DX2                !
 ! D20   D(10,9,11,12)        -179.4843         estimate D2E/DX2                !
 ! D21   D(10,9,11,13)         -59.4881         estimate D2E/DX2                !
 ! D22   D(10,9,11,14)          60.5095         estimate D2E/DX2                !
 ! D23   D(15,9,11,12)         -61.938          estimate D2E/DX2                !
 ! D24   D(15,9,11,13)          58.0582         estimate D2E/DX2                !
 ! D25   D(15,9,11,14)         178.0558         estimate D2E/DX2                !
 ! D26   D(7,9,15,16)         -119.9999         estimate D2E/DX2                !
 ! D27   D(7,9,15,17)           60.0015         Frozen                          !
 ! D28   D(10,9,15,16)         119.489          estimate D2E/DX2                !
 ! D29   D(10,9,15,17)         -60.5096         estimate D2E/DX2                !
 ! D30   D(11,9,15,16)           1.9421         estimate D2E/DX2                !
 ! D31   D(11,9,15,17)        -178.0565         estimate D2E/DX2                !
 ! D32   D(9,15,17,18)          -0.0063         estimate D2E/DX2                !
 ! D33   D(9,15,17,19)         179.9999         estimate D2E/DX2                !
 ! D34   D(16,15,17,18)        179.9951         estimate D2E/DX2                !
 ! D35   D(16,15,17,19)          0.0012         estimate D2E/DX2                !
 ! D36   D(15,17,19,20)          0.0023         estimate D2E/DX2                !
 ! D37   D(15,17,19,21)        119.9982         estimate D2E/DX2                !
 ! D38   D(15,17,19,22)       -120.0018         estimate D2E/DX2                !
 ! D39   D(18,17,19,20)       -179.9916         estimate D2E/DX2                !
 ! D40   D(18,17,19,21)        -59.9958         estimate D2E/DX2                !
 ! D41   D(18,17,19,22)         60.0043         estimate D2E/DX2                !
 --------------------------------------------------------------------------------
 Trust Radius=3.00D-01 FncErr=1.00D-07 GrdErr=1.00D-07
 Number of steps in this run= 108 maximum allowed number of steps= 132.
 GradGradGradGradGradGradGradGradGradGradGradGradGradGradGradGradGradGrad

                          Input orientation:                          
 ---------------------------------------------------------------------
 Center     Atomic      Atomic             Coordinates (Angstroms)
 Number     Number       Type             X           Y           Z
 ---------------------------------------------------------------------
      1          1           0        1.351300    2.306800    1.901300
      2          6           0        1.673100    2.748600    0.958200
      3          1           0        0.959800    3.514300    0.653100
      4          1           0        1.724200    1.974600    0.192500
      5          6           0        3.053900    3.393200    1.094800
      6          8           0        3.650600    3.368100    2.168900
      7          7           0        3.555400    3.969700    0.000000
      8          1           0        3.026700    3.964700   -0.860600
      9          6           0        4.853300    4.613900    0.000000
     10          1           0        5.407600    4.315500    0.889800
     11          6           0        5.661300    4.220800   -1.232200
     12          1           0        5.123300    4.521400   -2.131200
     13          1           0        6.630500    4.718900   -1.205800
     14          1           0        5.808500    3.140900   -1.241400
     15          6           0        4.712700    6.129400    0.000000
     16          8           0        5.182300    6.799400   -0.917100
     17          7           0        4.063200    6.669500    1.033800
     18          1           0        3.694700    6.076900    1.764000
     19          6           0        3.863300    8.099900    1.149700
     20          1           0        4.313600    8.600900    0.292800
     21          1           0        2.795500    8.317100    1.176900
     22          1           0        4.330100    8.459400    2.066700
 ---------------------------------------------------------------------
                    Distance matrix (angstroms):
                    1          2          3          4          5
     1  H    0.000000
     2  C    1.090037   0.000000
     3  H    1.780262   1.090036   0.000000
     4  H    1.780283   1.089947   1.779645   0.000000
     5  C    2.174754   1.529960   2.143600   2.143519   0.000000
     6  O    2.546517   2.400017   3.091833   3.091766   1.228972
     7  N    3.352348   2.439731   2.714971   2.714917   1.335081
     8  H    3.630935   2.572774   2.601197   2.601158   2.037386
     9  C    4.604526   3.809352   4.098171   4.098076   2.434448
    10  H    4.638058   4.050475   4.525580   4.419669   2.536250
    11  C    5.662007   4.782360   5.114450   4.751415   3.591432
    12  H    5.949243   4.958941   5.108944   4.841452   3.995288
    13  H    6.583483   5.756804   6.087972   5.792944   4.454471
    14  H    5.517148   4.700391   5.219047   4.483060   3.620678
    15  C    5.433804   4.646195   4.620557   5.121577   3.381863
    16  O    6.542430   5.678047   5.575564   6.038904   4.492218
    17  N    5.209617   4.592576   4.441994   5.312325   3.428782
    18  H    4.441174   3.976652   3.909053   4.814701   2.839137
    19  C    6.358856   5.785331   5.450197   6.558299   4.776104
    20  H    7.139901   6.454798   6.103383   7.114977   5.417581
    21  H    6.223679   5.684699   5.168273   6.507229   4.931359
    22  H    6.837770   6.395440   6.149081   7.235743   5.314100
                    6          7          8          9         10
     6  O    0.000000
     7  N    2.252801   0.000000
     8  H    3.150088   1.010040   0.000000
     9  C    2.775362   1.448978   2.120981   0.000000
    10  H    2.370804   2.083739   2.975844   1.089970   0.000000
    11  C    4.041966   2.452791   2.672974   1.525027   2.139209
    12  H    4.689329   2.702720   2.513975   2.150225   3.041326
    13  H    4.700326   3.386959   3.698020   2.150214   2.459625
    14  H    4.042066   2.702673   2.926101   2.150165   2.466256
    15  C    3.668373   2.450234   2.875614   1.522008   2.136554
    16  O    4.862440   3.390439   3.561647   2.392848   3.079839
    17  N    3.515385   2.935221   3.461073   2.432795   2.714676
    18  H    2.739249   2.751616   3.434551   2.567960   2.607831
    19  C    4.844991   4.298275   4.673445   3.801856   4.095619
    20  H    5.598349   4.701980   4.947807   4.034003   4.462947
    21  H    5.119361   4.567541   4.811262   4.396968   4.787306
    22  H    5.137461   5.002881   5.519988   4.396915   4.440496
                   11         12         13         14         15
    11  C    0.000000
    12  H    1.089957   0.000000
    13  H    1.090023   1.779613   0.000000
    14  H    1.089925   1.779613   1.779617   0.000000
    15  C    2.461892   2.701161   2.668599   3.416575   0.000000
    16  O    2.641573   2.582015   2.551296   3.725845   1.229023
    17  N    3.699299   3.969304   3.925771   4.546826   1.335028
    18  H    4.036067   4.430921   4.391218   4.703262   2.037345
    19  C    4.894249   5.015732   4.963561   5.838908   2.434371
    20  H    4.829824   4.813908   4.762746   5.865159   2.520580
    21  H    5.549437   5.547028   5.773346   6.459055   3.137958
    22  H    5.533585   5.810282   5.476535   6.435498   3.137918
                   16         17         18         19         20
    16  O    0.000000
    17  N    2.252836   0.000000
    18  H    3.150120   1.010029   0.000000
    19  C    2.775378   1.448943   2.120924   0.000000
    20  H    2.337499   2.083768   2.986309   1.089976   0.000000
    21  H    3.519242   2.083777   2.484299   1.090006   1.779551
    22  H    3.519220   2.083713   2.484284   1.089969   1.779611
                   21         22
    21  H    0.000000
    22  H    1.779604   0.000000
 Stoichiometry    C6H12N2O2
 Framework group  C1[X(C6H12N2O2)]
 Deg. of freedom    60
 Full point group                 C1      NOp   1
 Largest Abelian subgroup         C1      NOp   1
 Largest concise Abelian subgroup C1      NOp   1
                         Standard orientation:                         
 ---------------------------------------------------------------------
 Center     Atomic      Atomic             Coordinates (Angstroms)
 Number     Number       Type             X           Y           Z
 ---------------------------------------------------------------------
      1          1           0        3.810100   -1.386651   -0.318682
      2          6           0        3.096078   -0.744147   -0.833990
      3          1           0        2.662687   -1.283979   -1.675971
      4          1           0        3.606016    0.147541   -1.198462
      5          6           0        1.966789   -0.312728    0.103753
      6          8           0        1.948245   -0.690531    1.273066
      7          7           0        1.027319    0.480079   -0.417106
      8          1           0        1.085871    0.764185   -1.384596
      9          6           0       -0.093457    0.957016    0.367706
     10          1           0        0.110829    0.799769    1.426751
     11          6           0       -0.334251    2.444574    0.133408
     12          1           0       -0.549235    2.616683   -0.921185
     13          1           0       -1.181003    2.775201    0.734945
     14          1           0        0.554992    3.006431    0.418891
     15          6           0       -1.372008    0.215865    0.003686
     16          8           0       -2.345243    0.827501   -0.431299
     17          7           0       -1.367772   -1.107073    0.182904
     18          1           0       -0.542944   -1.565189    0.543386
     19          6           0       -2.522972   -1.925307   -0.126037
     20          1           0       -3.326817   -1.292721   -0.502490
     21          1           0       -2.255344   -2.661322   -0.884172
     22          1           0       -2.857077   -2.438392    0.775711
 ---------------------------------------------------------------------
 Rotational constants (GHZ):      1.8435363      0.8886668      0.6874371
 Standard basis: 6-31G(d) (6D, 7F)
 There are   174 symmetry adapted basis functions of A   symmetry.
 Integral buffers will be    131072 words long.
 Raffenetti 1 integral format.
 Two-electron integral symmetry is turned on.
   174 basis functions,   328 primitive gaussians,   174 cartesian basis functions
    39 alpha electrons       39 beta electrons
       nuclear repulsion energy       559.7058522624 Hartrees.
 NAtoms=   22 NActive=   22 NUniq=   22 SFac= 7.50D-01 NAtFMM=   80 NAOKFM=F Big=F
 One-electron integrals computed using PRISM.
 NBasis=   174 RedAO= T  NBF=   174
 NBsUse=   174 1.00D-06 NBFU=   174
 Harris functional with IExCor=  205 diagonalized for initial guess.
 ExpMin= 1.61D-01 ExpMax= 5.48D+03 ExpMxC= 8.25D+02 IAcc=1 IRadAn=         1 AccDes= 0.00D+00
 HarFok:  IExCor=  205 AccDes= 0.00D+00 IRadAn=         1 IDoV= 1
 ScaDFX=  1.000000  1.000000  1.000000  1.000000
 FoFCou: FMM=F IPFlag=           0 FMFlag=      100000 FMFlg1=           0
         NFxFlg=           0 DoJE=T BraDBF=F KetDBF=T FulRan=T
         Omega=  0.000000  0.000000  1.000000  0.000000  0.000000 ICntrl=     500 IOpCl=  0
         NMat0=    1 NMatS0=    1 NMatT0=    0 NMatD0=    1 NMtDS0=    0 NMtDT0=    0
         I1Cent=           4 NGrid=           0.
 Petite list used in FoFCou.
 Initial guess orbital symmetries:
       Occupied  (A) (A) (A) (A) (A) (A) (A) (A) (A) (A) (A) (A)
                 (A) (A) (A) (A) (A) (A) (A) (A) (A) (A) (A) (A)
                 (A) (A) (A) (A) (A) (A) (A) (A) (A) (A) (A) (A)
                 (A) (A) (A)
       Virtual   (A) (A) (A) (A) (A) (A) (A) (A) (A) (A) (A) (A)
                 (A) (A) (A) (A) (A) (A) (A) (A) (A) (A) (A) (A)
                 (A) (A) (A) (A) (A) (A) (A) (A) (A) (A) (A) (A)
                 (A) (A) (A) (A) (A) (A) (A) (A) (A) (A) (A) (A)
                 (A) (A) (A) (A) (A) (A) (A) (A) (A) (A) (A) (A)
                 (A) (A) (A) (A) (A) (A) (A) (A) (A) (A) (A) (A)
                 (A) (A) (A) (A) (A) (A) (A) (A) (A) (A) (A) (A)
                 (A) (A) (A) (A) (A) (A) (A) (A) (A) (A) (A) (A)
                 (A) (A) (A) (A) (A) (A) (A) (A) (A) (A) (A) (A)
                 (A) (A) (A) (A) (A) (A) (A) (A) (A) (A) (A) (A)
                 (A) (A) (A) (A) (A) (A) (A) (A) (A) (A) (A) (A)
                 (A) (A) (A)
 The electronic state of the initial guess is 1-A.
 Requested convergence on RMS density matrix=1.00D-08 within 128 cycles.
 Requested convergence on MAX density matrix=1.00D-06.
 Requested convergence on             energy=1.00D-06.
 No special actions if energy rises.
 Integral accuracy reduced to 1.0D-05 until final iterations.
 Initial convergence to 1.0D-05 achieved.  Increase integral accuracy.
 SCF Done:  E(RHF) =  -492.851375486     A.U. after   15 cycles
             Convg  =    0.5266D-08             -V/T =  2.0020

 **********************************************************************

            Population analysis using the SCF density.

 **********************************************************************

 Orbital symmetries:
       Occupied  (A) (A) (A) (A) (A) (A) (A) (A) (A) (A) (A) (A)
                 (A) (A) (A) (A) (A) (A) (A) (A) (A) (A) (A) (A)
                 (A) (A) (A) (A) (A) (A) (A) (A) (A) (A) (A) (A)
                 (A) (A) (A)
       Virtual   (A) (A) (A) (A) (A) (A) (A) (A) (A) (A) (A) (A)
                 (A) (A) (A) (A) (A) (A) (A) (A) (A) (A) (A) (A)
                 (A) (A) (A) (A) (A) (A) (A) (A) (A) (A) (A) (A)
                 (A) (A) (A) (A) (A) (A) (A) (A) (A) (A) (A) (A)
                 (A) (A) (A) (A) (A) (A) (A) (A) (A) (A) (A) (A)
                 (A) (A) (A) (A) (A) (A) (A) (A) (A) (A) (A) (A)
                 (A) (A) (A) (A) (A) (A) (A) (A) (A) (A) (A) (A)
                 (A) (A) (A) (A) (A) (A) (A) (A) (A) (A) (A) (A)
                 (A) (A) (A) (A) (A) (A) (A) (A) (A) (A) (A) (A)
                 (A) (A) (A) (A) (A) (A) (A) (A) (A) (A) (A) (A)
                 (A) (A) (A) (A) (A) (A) (A) (A) (A) (A) (A) (A)
                 (A) (A) (A)
 The electronic state is 1-A.
 Alpha  occ. eigenvalues --  -20.52934 -20.51717 -15.60587 -15.58723 -11.36202
 Alpha  occ. eigenvalues --  -11.34298 -11.28036 -11.25713 -11.24621 -11.21897
 Alpha  occ. eigenvalues --   -1.38749  -1.37340  -1.25431  -1.22782  -1.05974
 Alpha  occ. eigenvalues --   -0.99510  -0.96163  -0.87157  -0.81338  -0.78697
 Alpha  occ. eigenvalues --   -0.73375  -0.67539  -0.67002  -0.64164  -0.62408
 Alpha  occ. eigenvalues --   -0.61857  -0.59638  -0.58657  -0.57576  -0.55320
 Alpha  occ. eigenvalues --   -0.54710  -0.53000  -0.52518  -0.51314  -0.50607
 Alpha  occ. eigenvalues --   -0.43593  -0.42384  -0.39100  -0.38083
 Alpha virt. eigenvalues --    0.18126   0.20136   0.21875   0.24083   0.25565
 Alpha virt. eigenvalues --    0.26977   0.28137   0.29628   0.31319   0.31800
 Alpha virt. eigenvalues --    0.32489   0.32695   0.32990   0.34175   0.36612
 Alpha virt. eigenvalues --    0.39041   0.40817   0.44601   0.46174   0.49273
 Alpha virt. eigenvalues --    0.53949   0.55721   0.62018   0.70747   0.72345
 Alpha virt. eigenvalues --    0.72943   0.74275   0.76377   0.77295   0.79113
 Alpha virt. eigenvalues --    0.80876   0.81856   0.83446   0.87076   0.89200
 Alpha virt. eigenvalues --    0.90241   0.94312   0.95956   0.97985   0.98208
 Alpha virt. eigenvalues --    1.00030   1.01306   1.03572   1.06450   1.09299
 Alpha virt. eigenvalues --    1.09638   1.11498   1.14260   1.15264   1.15806
 Alpha virt. eigenvalues --    1.16244   1.16935   1.17645   1.18129   1.19775
 Alpha virt. eigenvalues --    1.20399   1.22281   1.22763   1.22869   1.25435
 Alpha virt. eigenvalues --    1.30291   1.36028   1.36175   1.39306   1.45796
 Alpha virt. eigenvalues --    1.48605   1.51920   1.55360   1.58289   1.60500
 Alpha virt. eigenvalues --    1.62561   1.66683   1.68386   1.71254   1.74996
 Alpha virt. eigenvalues --    1.79017   1.82368   1.90004   1.91839   1.97174
 Alpha virt. eigenvalues --    1.99992   2.03436   2.09000   2.11700   2.11842
 Alpha virt. eigenvalues --    2.14828   2.16055   2.18641   2.19507   2.20568
 Alpha virt. eigenvalues --    2.23919   2.26070   2.28473   2.31966   2.35042
 Alpha virt. eigenvalues --    2.37679   2.39913   2.42908   2.44692   2.46350
 Alpha virt. eigenvalues --    2.51978   2.53029   2.58221   2.61713   2.63503
 Alpha virt. eigenvalues --    2.64278   2.67069   2.68573   2.73789   2.74380
 Alpha virt. eigenvalues --    2.75005   2.81570   2.89463   2.92287   2.97916
 Alpha virt. eigenvalues --    3.01299   3.03717   3.09753   3.11204   3.26039
 Alpha virt. eigenvalues --    3.30496   3.34256   3.40467   3.53970   3.55948
 Alpha virt. eigenvalues --    4.38215   4.44808   4.45207   4.52901   4.61728
 Alpha virt. eigenvalues --    4.67992   4.69087   4.83915   4.93088   5.05153
          Condensed to atoms (all electrons):
              1          2          3          4          5          6
     1  H    0.451642   0.385433  -0.018567  -0.017961  -0.030083   0.003549
     2  C    0.385433   5.252502   0.374442   0.374536   0.374863  -0.068068
     3  H   -0.018567   0.374442   0.513120  -0.023714  -0.035216   0.001222
     4  H   -0.017961   0.374536  -0.023714   0.507638  -0.034502   0.001271
     5  C   -0.030083   0.374863  -0.035216  -0.034502   4.191834   0.584200
     6  O    0.003549  -0.068068   0.001222   0.001271   0.584200   8.205545
     7  N    0.003788  -0.120546   0.003359   0.003509   0.247737  -0.107001
     8  H   -0.000011  -0.000664   0.000539   0.000595  -0.017998   0.002126
     9  C   -0.000075   0.004419  -0.000250  -0.000226  -0.021766   0.004072
    10  H   -0.000003   0.000468  -0.000012  -0.000025  -0.000149   0.008141
    11  C    0.000001  -0.000088  -0.000005   0.000011   0.002321   0.000502
    12  H    0.000000  -0.000006   0.000000   0.000002  -0.000110  -0.000013
    13  H    0.000000   0.000002   0.000000   0.000000  -0.000040  -0.000001
    14  H    0.000000  -0.000022   0.000000   0.000003   0.000001   0.000017
    15  C    0.000002  -0.000194   0.000043   0.000000  -0.003342  -0.001165
    16  O    0.000000   0.000000   0.000000   0.000000  -0.000022  -0.000003
    17  N    0.000000  -0.000041   0.000048  -0.000001   0.002202  -0.001558
    18  H   -0.000003   0.000286  -0.000110   0.000002   0.003971   0.007998
    19  C    0.000000   0.000001  -0.000001   0.000000  -0.000029   0.000022
    20  H    0.000000   0.000000   0.000000   0.000000  -0.000001   0.000000
    21  H    0.000000   0.000000   0.000000   0.000000  -0.000005  -0.000001
    22  H    0.000000   0.000000   0.000000   0.000000   0.000002   0.000000
              7          8          9         10         11         12
     1  H    0.003788  -0.000011  -0.000075  -0.000003   0.000001   0.000000
     2  C   -0.120546  -0.000664   0.004419   0.000468  -0.000088  -0.000006
     3  H    0.003359   0.000539  -0.000250  -0.000012  -0.000005   0.000000
     4  H    0.003509   0.000595  -0.000226  -0.000025   0.000011   0.000002
     5  C    0.247737  -0.017998  -0.021766  -0.000149   0.002321  -0.000110
     6  O   -0.107001   0.002126   0.004072   0.008141   0.000502  -0.000013
     7  N    7.412793   0.321736   0.167313  -0.035116  -0.062433  -0.003076
     8  H    0.321736   0.314633  -0.022012   0.002424  -0.001425   0.003077
     9  C    0.167313  -0.022012   5.150354   0.399843   0.353737  -0.033176
    10  H   -0.035116   0.002424   0.399843   0.436050  -0.029230   0.003582
    11  C   -0.062433  -0.001425   0.353737  -0.029230   5.089304   0.389650
    12  H   -0.003076   0.003077  -0.033176   0.003582   0.389650   0.520448
    13  H    0.004008  -0.000045  -0.034693  -0.002012   0.395369  -0.018833
    14  H    0.000039   0.000031  -0.042404  -0.003200   0.386013  -0.028529
    15  C   -0.059391  -0.000160   0.361298  -0.036275  -0.067427  -0.006698
    16  O    0.000768   0.000185  -0.081327   0.001317  -0.000826   0.002927
    17  N    0.006239   0.000257  -0.125014   0.001276   0.004774  -0.000015
    18  H   -0.004253  -0.000043   0.002008   0.000039   0.000028  -0.000011
    19  C   -0.000266  -0.000001   0.004146  -0.000166  -0.000105  -0.000004
    20  H   -0.000036   0.000000   0.000635  -0.000021  -0.000014  -0.000003
    21  H    0.000046  -0.000003  -0.000039   0.000001   0.000002   0.000000
    22  H   -0.000005   0.000000  -0.000113   0.000002   0.000001   0.000000
             13         14         15         16         17         18
     1  H    0.000000   0.000000   0.000002   0.000000   0.000000  -0.000003
     2  C    0.000002  -0.000022  -0.000194   0.000000  -0.000041   0.000286
     3  H    0.000000   0.000000   0.000043   0.000000   0.000048  -0.000110
     4  H    0.000000   0.000003   0.000000   0.000000  -0.000001   0.000002
     5  C   -0.000040   0.000001  -0.003342  -0.000022   0.002202   0.003971
     6  O   -0.000001   0.000017  -0.001165  -0.000003  -0.001558   0.007998
     7  N    0.004008   0.000039  -0.059391   0.000768   0.006239  -0.004253
     8  H   -0.000045   0.000031  -0.000160   0.000185   0.000257  -0.000043
     9  C   -0.034693  -0.042404   0.361298  -0.081327  -0.125014   0.002008
    10  H   -0.002012  -0.003200  -0.036275   0.001317   0.001276   0.000039
    11  C    0.395369   0.386013  -0.067427  -0.000826   0.004774   0.000028
    12  H   -0.018833  -0.028529  -0.006698   0.002927  -0.000015  -0.000011
    13  H    0.484387  -0.023829  -0.000767   0.000621   0.000014   0.000002
    14  H   -0.023829   0.541549   0.005979   0.000674  -0.000042  -0.000006
    15  C   -0.000767   0.005979   4.170786   0.591850   0.308823  -0.018493
    16  O    0.000621   0.000674   0.591850   8.220304  -0.099283   0.002110
    17  N    0.000014  -0.000042   0.308823  -0.099283   7.319117   0.314535
    18  H    0.000002  -0.000006  -0.018493   0.002110   0.314535   0.303973
    19  C    0.000000   0.000002  -0.028101  -0.005099   0.191535  -0.020185
    20  H    0.000000   0.000000  -0.001715   0.010633  -0.032444   0.002180
    21  H    0.000000   0.000000   0.000970   0.000363  -0.048377  -0.001036
    22  H    0.000000   0.000000   0.000762   0.000395  -0.047623  -0.001047
             19         20         21         22
     1  H    0.000000   0.000000   0.000000   0.000000
     2  C    0.000001   0.000000   0.000000   0.000000
     3  H   -0.000001   0.000000   0.000000   0.000000
     4  H    0.000000   0.000000   0.000000   0.000000
     5  C   -0.000029  -0.000001  -0.000005   0.000002
     6  O    0.000022   0.000000  -0.000001   0.000000
     7  N   -0.000266  -0.000036   0.000046  -0.000005
     8  H   -0.000001   0.000000  -0.000003   0.000000
     9  C    0.004146   0.000635  -0.000039  -0.000113
    10  H   -0.000166  -0.000021   0.000001   0.000002
    11  C   -0.000105  -0.000014   0.000002   0.000001
    12  H   -0.000004  -0.000003   0.000000   0.000000
    13  H    0.000000   0.000000   0.000000   0.000000
    14  H    0.000002   0.000000   0.000000   0.000000
    15  C   -0.028101  -0.001715   0.000970   0.000762
    16  O   -0.005099   0.010633   0.000363   0.000395
    17  N    0.191535  -0.032444  -0.048377  -0.047623
    18  H   -0.020185   0.002180  -0.001036  -0.001047
    19  C    4.947160   0.396613   0.402068   0.403341
    20  H    0.396613   0.436677  -0.023231  -0.022471
    21  H    0.402068  -0.023231   0.540255  -0.036715
    22  H    0.403341  -0.022471  -0.036715   0.530964
 Mulliken atomic charges:
              1
     1  H    0.222288
     2  C   -0.577323
     3  H    0.185101
     4  H    0.188863
     5  C    0.736130
     6  O   -0.640855
     7  N   -0.779211
     8  H    0.396760
     9  C   -0.086730
    10  H    0.253066
    11  C   -0.460159
    12  H    0.170788
    13  H    0.195819
    14  H    0.163725
    15  C    0.783214
    16  O   -0.645585
    17  N   -0.794421
    18  H    0.408053
    19  C   -0.290930
    20  H    0.233198
    21  H    0.165702
    22  H    0.172506
 Sum of Mulliken atomic charges =   0.00000
 Mulliken charges with hydrogens summed into heavy atoms:
              1
     2  C    0.018929
     5  C    0.736130
     6  O   -0.640855
     7  N   -0.382451
     9  C    0.166336
    11  C    0.070174
    15  C    0.783214
    16  O   -0.645585
    17  N   -0.386368
    19  C    0.280475
 Sum of Mulliken charges with hydrogens summed into heavy atoms =   0.00000
 Electronic spatial extent (au):  <R**2>=           1758.9676
 Charge=              0.0000 electrons
 Dipole moment (field-independent basis, Debye):
    X=              2.0658    Y=             -1.1049    Z=             -2.3924  Tot=              3.3484
 Quadrupole moment (field-independent basis, Debye-Ang):
   XX=            -65.7710   YY=            -57.7094   ZZ=            -61.8684
   XY=              7.9002   XZ=            -10.2321   YZ=              2.7338
 Traceless Quadrupole moment (field-independent basis, Debye-Ang):
   XX=             -3.9881   YY=              4.0735   ZZ=             -0.0854
   XY=              7.9002   XZ=            -10.2321   YZ=              2.7338
 Octapole moment (field-independent basis, Debye-Ang**2):
  XXX=             24.4951  YYY=             -9.5942  ZZZ=             -6.9791  XYY=             -2.4914
  XXY=            -17.7734  XXZ=             -9.6112  XZZ=             -5.9452  YZZ=              4.8983
  YYZ=              0.6992  XYZ=              0.7028
 Hexadecapole moment (field-independent basis, Debye-Ang**3):
 XXXX=          -1374.5970 YYYY=           -681.5238 ZZZZ=           -197.8197 XXXY=             38.5250
 XXXZ=            -31.7311 YYYX=              5.3208 YYYZ=             -1.8432 ZZZX=             -8.8050
 ZZZY=             -2.8444 XXYY=           -338.4113 XXZZ=           -282.9221 YYZZ=           -144.0403
 XXYZ=             14.5760 YYXZ=             -6.1269 ZZXY=              7.7633
 N-N= 5.597058522624D+02 E-N=-2.274555725960D+03  KE= 4.918555566238D+02
 Calling FoFJK, ICntrl=      2127 FMM=F ISym2X=0 I1Cent= 0 IOpClX= 0 NMat=1 NMatS=1 NMatT=0.
 ***** Axes restored to original set *****
 -------------------------------------------------------------------
 Center     Atomic                   Forces (Hartrees/Bohr)
 Number     Number              X              Y              Z
 -------------------------------------------------------------------
      1        1           0.005957781    0.004599875   -0.005757132
      2        6           0.007416426    0.004204295   -0.003906695
      3        1          -0.000357492   -0.005066038   -0.000662636
      4        1          -0.004236341    0.002529689    0.001717768
      5        6           0.000709167   -0.017900048    0.051832296
      6        8          -0.017448364    0.006137636   -0.034672819
      7        7          -0.000708922    0.003310425   -0.011582521
      8        1           0.007225021    0.000069765    0.012193594
      9        6           0.014847187    0.000668924   -0.009644765
     10        1          -0.010496904    0.000005084   -0.002998661
     11        6          -0.000002155   -0.006816605   -0.000125455
     12        1           0.006847702   -0.001543957    0.001868983
     13        1          -0.006613582   -0.003603089   -0.003786032
     14        1           0.000076445    0.003498138   -0.000794534
     15        6           0.015557668    0.024945752   -0.030686379
     16        8          -0.015797071   -0.019559564    0.030623860
     17        7          -0.007017704   -0.001161731    0.010957853
     18        1           0.007689024    0.005739960   -0.010548618
     19        6          -0.001345221    0.002452748    0.001824598
     20        1          -0.003666022   -0.006100400    0.007407002
     21        1           0.004363597    0.002308682    0.000608763
     22        1          -0.003000240    0.001280459   -0.003868470
 -------------------------------------------------------------------
 Cartesian Forces:  Max     0.051832296 RMS     0.012099853

 GradGradGradGradGradGradGradGradGradGradGradGradGradGradGradGradGradGrad
 Berny optimization.
 Internal  Forces:  Max     0.039550415 RMS     0.007577849
 Search for a local minimum.
 Step number   1 out of a maximum of  108
 All quantities printed in internal units (Hartrees-Bohrs-Radians)
 Mixed Optimization -- RFO/linear search
 Second derivative matrix not updated -- first step.
     Eigenvalues ---    0.00370   0.00435   0.00999   0.01044   0.01269
     Eigenvalues ---    0.01422   0.01660   0.02551   0.02551   0.03503
     Eigenvalues ---    0.05232   0.05841   0.05844   0.05844   0.07166
     Eigenvalues ---    0.07464   0.07685   0.07685   0.15421   0.16000
     Eigenvalues ---    0.16000   0.16000   0.16000   0.16000   0.16000
     Eigenvalues ---    0.16000   0.16000   0.16000   0.16000   0.16000
     Eigenvalues ---    0.16180   0.22000   0.22000   0.25000   0.25000
     Eigenvalues ---    0.25000   0.25000   0.29427   0.29887   0.30174
     Eigenvalues ---    0.34808   0.34808   0.34810   0.34812   0.34815
     Eigenvalues ---    0.34816   0.34816   0.34818   0.34819   0.34821
     Eigenvalues ---    0.38379   0.38384   0.45966   0.45968   0.58322
     Eigenvalues ---    0.58334   0.91495   0.915161000.000001000.00000
     Eigenvalues --- 1000.000001000.000001000.000001000.000001000.00000
     Eigenvalues --- 1000.000001000.000001000.000001000.000001000.00000
     Eigenvalues --- 1000.000001000.000001000.000001000.000001000.00000
     Eigenvalues --- 1000.000001000.000001000.000001000.000001000.00000
     Eigenvalues --- 1000.000001000.000001000.000001000.000001000.00000
     Eigenvalues --- 1000.000001000.000001000.000001000.000001000.00000
     Eigenvalues --- 1000.000001000.000001000.000001000.000001000.00000
     Eigenvalues --- 1000.000001000.000001000.00000
 RFO step:  Lambda=-1.42267279D-02 EMin= 3.69635118D-03
 Linear search not attempted -- first point.
 Maximum step size (   0.300) exceeded in Quadratic search.
    -- Step size scaled by   0.943
 Iteration  1 RMS(Cart)=  0.08108362 RMS(Int)=  0.00242916
 Iteration  2 RMS(Cart)=  0.00362670 RMS(Int)=  0.00034197
 Iteration  3 RMS(Cart)=  0.00000453 RMS(Int)=  0.00034195
 Iteration  4 RMS(Cart)=  0.00000000 RMS(Int)=  0.00034195
 Iteration  1 RMS(Cart)=  0.00013671 RMS(Int)=  0.00004017
 Iteration  2 RMS(Cart)=  0.00007587 RMS(Int)=  0.00004466
 Iteration  3 RMS(Cart)=  0.00004302 RMS(Int)=  0.00005075
 Iteration  4 RMS(Cart)=  0.00002504 RMS(Int)=  0.00005526
 Iteration  5 RMS(Cart)=  0.00001500 RMS(Int)=  0.00005828
 Iteration  6 RMS(Cart)=  0.00000924 RMS(Int)=  0.00006024
 Iteration  7 RMS(Cart)=  0.00000584 RMS(Int)=  0.00006152
 Iteration  8 RMS(Cart)=  0.00000376 RMS(Int)=  0.00006235
 Iteration  9 RMS(Cart)=  0.00000246 RMS(Int)=  0.00006290
 Iteration 10 RMS(Cart)=  0.00000163 RMS(Int)=  0.00006325
 Iteration 11 RMS(Cart)=  0.00000108 RMS(Int)=  0.00006349
 Iteration 12 RMS(Cart)=  0.00000072 RMS(Int)=  0.00006365
 Variable       Old X    -DE/DX   Delta X   Delta X   Delta X     New X
                                 (Linear)    (Quad)   (Total)
    R1        2.05987  -0.00860   0.00000  -0.02241  -0.02241   2.03747
    R2        2.05987  -0.00314   0.00000  -0.00817  -0.00817   2.05170
    R3        2.05970  -0.00320   0.00000  -0.00833  -0.00833   2.05137
    R4        2.89121  -0.00980   0.00000  -0.02996  -0.02996   2.86125
    R5        2.32242  -0.03890   0.00000  -0.03949  -0.03949   2.28293
    R6        2.52294   0.01237   0.00000   0.01954   0.01954   2.54248
    R7        1.90870  -0.01417   0.00000  -0.02821  -0.02821   1.88048
    R8        2.73817   0.00223   0.00000   0.00529   0.00529   2.74346
    R9        2.05975  -0.00779   0.00000  -0.02027  -0.02027   2.03947
   R10        2.88188   0.00464   0.00000   0.01397   0.01397   2.89586
   R11        2.87618   0.01016   0.00000   0.03034   0.03034   2.90652
   R12        2.05972  -0.00535   0.00000  -0.01392  -0.01392   2.04580
   R13        2.05984  -0.00762   0.00000  -0.01984  -0.01984   2.04001
   R14        2.05966  -0.00345   0.00000  -0.00898  -0.00898   2.05068
   R15        2.32252  -0.03955   0.00000  -0.04016  -0.04016   2.28236
   R16        2.52284   0.00822   0.00000   0.01297   0.01297   2.53581
   R17        1.90868  -0.01380   0.00000  -0.02747  -0.02747   1.88121
   R18        2.73811   0.00092   0.00000   0.00219   0.00219   2.74029
   R19        2.05976  -0.01014   0.00000  -0.02640  -0.02640   2.03335
   R20        2.05981  -0.00380   0.00000  -0.00989  -0.00989   2.04992
   R21        2.05974  -0.00412   0.00000  -0.01072  -0.01072   2.04902
    A1        1.91101   0.00048   0.00000   0.00081   0.00111   1.91212
    A2        1.91116   0.00035   0.00000  -0.00001   0.00030   1.91147
    A3        1.93901  -0.00776   0.00000  -0.04388  -0.04357   1.89544
    A4        1.91015  -0.00461   0.00000  -0.02105  -0.02169   1.88846
    A5        1.89612   0.00570   0.00000   0.03182   0.03163   1.92776
    A6        1.89610   0.00587   0.00000   0.03266   0.03248   1.92858
    A7        2.10322   0.00773   0.00000   0.02760   0.02730   2.13052
    A8        2.03502  -0.00605   0.00000  -0.02161  -0.02189   2.01312
    A9        2.14495  -0.00168   0.00000  -0.00599  -0.00626   2.13870
   A10        2.09432  -0.00459   0.00000  -0.01874  -0.01929   2.07503
   A11        2.12756   0.00880   0.00000   0.03545   0.03489   2.16245
   A12        2.06130  -0.00421   0.00000  -0.01671  -0.01729   2.04401
   A13        1.91114  -0.00121   0.00000  -0.05261  -0.05297   1.85816
   A14        1.93905  -0.00404   0.00000  -0.01139  -0.01148   1.92757
   A15        1.93900  -0.00483   0.00000  -0.01636  -0.01700   1.92201
   A16        1.89609   0.00024   0.00000   0.01419   0.01318   1.90928
   A17        1.89608  -0.00365   0.00000  -0.00745  -0.00969   1.88639
   A18        1.88137   0.01374   0.00000   0.07607   0.07590   1.95727
   A19        1.91115   0.00572   0.00000   0.03110   0.03093   1.94207
   A20        1.91106   0.00327   0.00000   0.01605   0.01594   1.92700
   A21        1.91110   0.00002   0.00000   0.00167   0.00158   1.91268
   A22        1.91011  -0.00501   0.00000  -0.03016  -0.03036   1.87975
   A23        1.91023  -0.00234   0.00000  -0.00938  -0.00952   1.90071
   A24        1.91015  -0.00168   0.00000  -0.00932  -0.00934   1.90081
   A25        2.10310   0.00794   0.00000   0.02834   0.02833   2.13143
   A26        2.03507  -0.01033   0.00000  -0.03689  -0.03690   1.99817
   A27        2.14501   0.00240   0.00000   0.00855   0.00854   2.15356
   A28        2.09435  -0.00725   0.00000  -0.03330  -0.03335   2.06100
   A29        2.12756   0.00857   0.00000   0.03452   0.03447   2.16204
   A30        2.06127  -0.00132   0.00000  -0.00122  -0.00127   2.06000
   A31        1.91121  -0.00402   0.00000  -0.02380  -0.02367   1.88755
   A32        1.91119   0.00456   0.00000   0.02588   0.02573   1.93693
   A33        1.91114   0.00404   0.00000   0.02274   0.02258   1.93373
   A34        1.91000  -0.00069   0.00000  -0.00544  -0.00529   1.90471
   A35        1.91015  -0.00062   0.00000  -0.00576  -0.00564   1.90451
   A36        1.91010  -0.00327   0.00000  -0.01365  -0.01406   1.89604
    D1        0.00007  -0.00063   0.00000  -0.02172  -0.02190  -0.02184
    D2       -3.14150   0.00060   0.00000   0.02116   0.02133  -3.12017
    D3        2.10327  -0.00116   0.00000  -0.02731  -0.02787   2.07540
    D4       -1.03830   0.00007   0.00000   0.01557   0.01537  -1.02293
    D5       -2.10331  -0.00006   0.00000  -0.01567  -0.01547  -2.11877
    D6        1.03831   0.00116   0.00000   0.02721   0.02777   1.06608
    D7       -0.00001   0.00171   0.00000  -0.00183  -0.00139  -0.00140
    D8       -3.14151   0.00146   0.00000   0.06274   0.06284  -3.07867
    D9       -3.14158   0.00296   0.00000   0.04217   0.04207  -3.09951
   D10        0.00011   0.00271   0.00000   0.10674   0.10630   0.10640
   D11        0.26173  -0.00001   0.00000  -0.05379  -0.05349   0.20824
   D12        2.35617  -0.00306   0.00000  -0.07753  -0.07685   2.27932
   D13       -1.83266   0.00837   0.00000   0.00000   0.00000  -1.83267
   D14       -2.87977  -0.00026   0.00000   0.00961   0.00969  -2.87009
   D15       -0.78533  -0.00330   0.00000  -0.01413  -0.01367  -0.79900
   D16        1.30902   0.00812   0.00000   0.06340   0.06318   1.37220
   D17        1.04724   0.00191   0.00000   0.03567   0.03591   1.08315
   D18        3.14157   0.00129   0.00000   0.02762   0.02792  -3.11370
   D19       -1.04726   0.00125   0.00000   0.02706   0.02728  -1.01999
   D20       -3.13259  -0.00193   0.00000  -0.02733  -0.02778   3.12282
   D21       -1.03826  -0.00255   0.00000  -0.03538  -0.03577  -1.07403
   D22        1.05609  -0.00260   0.00000  -0.03594  -0.03641   1.01968
   D23       -1.08102   0.00140   0.00000   0.01315   0.01332  -1.06770
   D24        1.01331   0.00078   0.00000   0.00511   0.00533   1.01864
   D25        3.10766   0.00073   0.00000   0.00454   0.00469   3.11235
   D26       -2.09439  -0.00204   0.00000  -0.00840  -0.00846  -2.10285
   D27        1.04722  -0.00159   0.00000   0.00000   0.00000   1.04722
   D28        2.08548   0.00481   0.00000   0.07165   0.07162   2.15709
   D29       -1.05609   0.00526   0.00000   0.08006   0.08007  -0.97602
   D30        0.03390  -0.00104   0.00000   0.01718   0.01723   0.05113
   D31       -3.10767  -0.00058   0.00000   0.02558   0.02568  -3.08199
   D32       -0.00011   0.00080   0.00000   0.02249   0.02241   0.02230
   D33        3.14159   0.00018   0.00000   0.00347   0.00360  -3.13800
   D34        3.14151   0.00127   0.00000   0.03111   0.03099  -3.11069
   D35        0.00002   0.00065   0.00000   0.01209   0.01217   0.01219
   D36        0.00004   0.00022   0.00000   0.00827   0.00835   0.00839
   D37        2.09436  -0.00030   0.00000   0.00288   0.00273   2.09709
   D38       -2.09443   0.00097   0.00000   0.01598   0.01626  -2.07817
   D39       -3.14145  -0.00039   0.00000  -0.01040  -0.01046   3.13128
   D40       -1.04712  -0.00091   0.00000  -0.01579  -0.01608  -1.06320
   D41        1.04727   0.00036   0.00000  -0.00269  -0.00255   1.04472
         Item               Value     Threshold  Converged?
 Maximum Force            0.039550     0.000450     NO 
 RMS     Force            0.007537     0.000300     NO 
 Maximum Displacement     0.257954     0.001800     NO 
 RMS     Displacement     0.081353     0.001200     NO 
 Predicted change in Energy=-7.741540D-03
 GradGradGradGradGradGradGradGradGradGradGradGradGradGradGradGradGradGrad

                          Input orientation:                          
 ---------------------------------------------------------------------
 Center     Atomic      Atomic             Coordinates (Angstroms)
 Number     Number       Type             X           Y           Z
 ---------------------------------------------------------------------
      1          1           0        1.385566    2.364167    1.873683
      2          6           0        1.703774    2.766026    0.925144
      3          1           0        0.967146    3.478589    0.566815
      4          1           0        1.780437    1.963236    0.198481
      5          6           0        3.045821    3.441523    1.112576
      6          8           0        3.590614    3.498117    2.189351
      7          7           0        3.560134    4.016431    0.010250
      8          1           0        3.047739    3.967058   -0.841370
      9          6           0        4.866473    4.647852   -0.039212
     10          1           0        5.375727    4.368825    0.870495
     11          6           0        5.662408    4.137244   -1.245066
     12          1           0        5.167690    4.384897   -2.175616
     13          1           0        6.643999    4.586054   -1.265605
     14          1           0        5.769863    3.059361   -1.180064
     15          6           0        4.714328    6.178326   -0.050961
     16          8           0        5.138186    6.858912   -0.954211
     17          7           0        4.086498    6.683097    1.022219
     18          1           0        3.792744    6.051550    1.733458
     19          6           0        3.830216    8.096885    1.217971
     20          1           0        4.218312    8.628827    0.366969
     21          1           0        2.766289    8.290531    1.303343
     22          1           0        4.320937    8.456390    2.115550
 ---------------------------------------------------------------------
                    Distance matrix (angstroms):
                    1          2          3          4          5
     1  H    0.000000
     2  C    1.078180   0.000000
     3  H    1.767743   1.085711   0.000000
     4  H    1.767192   1.085536   1.758808   0.000000
     5  C    2.120478   1.514106   2.149447   2.149907   0.000000
     6  O    2.499545   2.386281   3.084735   3.097767   1.208075
     7  N    3.306222   2.417977   2.706035   2.723667   1.345422
     8  H    3.564210   2.523745   2.559386   2.588947   2.023387
     9  C    4.581604   3.804460   4.115726   4.097228   2.469133
    10  H    4.576726   4.006892   4.507808   4.377736   2.519316
    11  C    5.582273   4.718139   5.075651   4.677589   3.590130
    12  H    5.897850   4.922821   5.097735   4.793147   4.025480
    13  H    6.514832   5.702430   6.067199   5.716377   4.462352
    14  H    5.388016   4.588139   5.127712   4.360894   3.580873
    15  C    5.415969   4.654031   4.659571   5.141685   3.409960
    16  O    6.502452   5.663822   5.580115   6.047381   4.508675
    17  N    5.164609   4.585874   4.495178   5.317288   3.405727
    18  H    4.405788   3.976409   3.995646   4.808310   2.784893
    19  C    6.266604   5.746786   5.472644   6.546953   4.722158
    20  H    7.038509   6.403662   6.093847   7.099417   5.370176
    21  H    6.111749   5.638450   5.189814   6.498252   4.860803
    22  H    6.766837   6.375488   6.198789   7.231206   5.270746
                    6          7          8          9         10
     6  O    0.000000
     7  N    2.240102   0.000000
     8  H    3.114464   0.995110   0.000000
     9  C    2.813574   1.451778   2.101126   0.000000
    10  H    2.384144   2.039750   2.917435   1.079242   0.000000
    11  C    4.061531   2.451524   2.651118   1.532423   2.147421
    12  H    4.725091   2.738250   2.539487   2.173500   3.053249
    13  H    4.737456   3.385632   3.673720   2.160430   2.493718
    14  H    4.036656   2.686211   2.889392   2.154289   2.464718
    15  C    3.669503   2.451470   2.879578   1.538063   2.135608
    16  O    4.855091   3.391185   3.570087   2.408285   3.096209
    17  N    3.428148   2.900388   3.453817   2.424298   2.653486
    18  H    2.601676   2.676801   3.395567   2.503122   2.466192
    19  C    4.706342   4.263993   4.680665   3.814467   4.050651
    20  H    5.480809   4.672756   4.956048   4.053795   4.443058
    21  H    4.942849   4.535439   4.834400   4.413880   4.730359
    22  H    5.012314   4.972358   5.524356   4.409713   4.401242
                   11         12         13         14         15
    11  C    0.000000
    12  H    1.082590   0.000000
    13  H    1.079525   1.745873   0.000000
    14  H    1.085174   1.763741   1.761313   0.000000
    15  C    2.547697   2.817106   2.781064   3.480944   0.000000
    16  O    2.786913   2.759249   2.744143   3.858318   1.207772
    17  N    3.755722   4.083730   4.021510   4.562372   1.341894
    18  H    4.003975   4.466438   4.389956   4.620693   2.012347
    19  C    5.010213   5.204241   5.139208   5.906729   2.464287
    20  H    4.985819   5.037559   4.989316   5.984946   2.534887
    21  H    5.668482   5.755333   5.946366   6.523335   3.176540
    22  H    5.634564   5.975630   5.639887   6.487556   3.168296
                   16         17         18         19         20
    16  O    0.000000
    17  N    2.245715   0.000000
    18  H    3.112172   0.995492   0.000000
    19  C    2.821655   1.450101   2.109627   0.000000
    20  H    2.392548   2.057326   2.948009   1.076004   0.000000
    21  H    3.573790   2.099005   2.500329   1.084771   1.760570
    22  H    3.555737   2.096402   2.491633   1.084296   1.760057
                   21         22
    21  H    0.000000
    22  H    1.761851   0.000000
 Stoichiometry    C6H12N2O2
 Framework group  C1[X(C6H12N2O2)]
 Deg. of freedom    60
 Full point group                 C1      NOp   1
 Largest Abelian subgroup         C1      NOp   1
 Largest concise Abelian subgroup C1      NOp   1
                         Standard orientation:                         
 ---------------------------------------------------------------------
 Center     Atomic      Atomic             Coordinates (Angstroms)
 Number     Number       Type             X           Y           Z
 ---------------------------------------------------------------------
      1          1           0        3.742903   -1.403606   -0.328257
      2          6           0        3.073979   -0.725211   -0.833028
      3          1           0        2.682102   -1.199600   -1.727542
      4          1           0        3.618099    0.165228   -1.132092
      5          6           0        1.947069   -0.365580    0.112094
      6          8           0        1.871401   -0.828238    1.225498
      7          7           0        1.013315    0.460862   -0.393134
      8          1           0        1.111406    0.781645   -1.330000
      9          6           0       -0.104106    0.984172    0.371835
     10          1           0        0.101770    0.759081    1.407070
     11          6           0       -0.211087    2.502327    0.192726
     12          1           0       -0.399110    2.763594   -0.840903
     13          1           0       -1.024813    2.894699    0.783714
     14          1           0        0.713609    2.972335    0.511527
     15          6           0       -1.402080    0.260702   -0.025018
     16          8           0       -2.354318    0.851160   -0.475923
     17          7           0       -1.385323   -1.065093    0.181539
     18          1           0       -0.567312   -1.466702    0.582254
     19          6           0       -2.496938   -1.944800   -0.123782
     20          1           0       -3.292317   -1.349020   -0.536340
     21          1           0       -2.207193   -2.700348   -0.846224
     22          1           0       -2.852779   -2.440724    0.772397
 ---------------------------------------------------------------------
 Rotational constants (GHZ):      1.7950000      0.9045081      0.6871708
 Standard basis: 6-31G(d) (6D, 7F)
 There are   174 symmetry adapted basis functions of A   symmetry.
 Integral buffers will be    131072 words long.
 Raffenetti 1 integral format.
 Two-electron integral symmetry is turned on.
   174 basis functions,   328 primitive gaussians,   174 cartesian basis functions
    39 alpha electrons       39 beta electrons
       nuclear repulsion energy       559.8008929887 Hartrees.
 NAtoms=   22 NActive=   22 NUniq=   22 SFac= 7.50D-01 NAtFMM=   80 NAOKFM=F Big=F
 One-electron integrals computed using PRISM.
 NBasis=   174 RedAO= T  NBF=   174
 NBsUse=   174 1.00D-06 NBFU=   174
 Initial guess read from the read-write file.
 B after Tr=     0.000000    0.000000    0.000000
         Rot=    1.000000    0.000000    0.000000    0.000000 Ang=   0.00 deg.
 Initial guess orbital symmetries:
       Occupied  (A) (A) (A) (A) (A) (A) (A) (A) (A) (A) (A) (A)
                 (A) (A) (A) (A) (A) (A) (A) (A) (A) (A) (A) (A)
                 (A) (A) (A) (A) (A) (A) (A) (A) (A) (A) (A) (A)
                 (A) (A) (A)
       Virtual   (A) (A) (A) (A) (A) (A) (A) (A) (A) (A) (A) (A)
                 (A) (A) (A) (A) (A) (A) (A) (A) (A) (A) (A) (A)
                 (A) (A) (A) (A) (A) (A) (A) (A) (A) (A) (A) (A)
                 (A) (A) (A) (A) (A) (A) (A) (A) (A) (A) (A) (A)
                 (A) (A) (A) (A) (A) (A) (A) (A) (A) (A) (A) (A)
                 (A) (A) (A) (A) (A) (A) (A) (A) (A) (A) (A) (A)
                 (A) (A) (A) (A) (A) (A) (A) (A) (A) (A) (A) (A)
                 (A) (A) (A) (A) (A) (A) (A) (A) (A) (A) (A) (A)
                 (A) (A) (A) (A) (A) (A) (A) (A) (A) (A) (A) (A)
                 (A) (A) (A) (A) (A) (A) (A) (A) (A) (A) (A) (A)
                 (A) (A) (A) (A) (A) (A) (A) (A) (A) (A) (A) (A)
                 (A) (A) (A)
 Harris functional with IExCor=  205 diagonalized for initial guess.
 ExpMin= 1.61D-01 ExpMax= 5.48D+03 ExpMxC= 8.25D+02 IAcc=1 IRadAn=         1 AccDes= 0.00D+00
 HarFok:  IExCor=  205 AccDes= 0.00D+00 IRadAn=         1 IDoV= 1
 ScaDFX=  1.000000  1.000000  1.000000  1.000000
 FoFCou: FMM=F IPFlag=           0 FMFlag=      100000 FMFlg1=           0
         NFxFlg=           0 DoJE=T BraDBF=F KetDBF=T FulRan=T
         Omega=  0.000000  0.000000  1.000000  0.000000  0.000000 ICntrl=     500 IOpCl=  0
         NMat0=    1 NMatS0=    1 NMatT0=    0 NMatD0=    1 NMtDS0=    0 NMtDT0=    0
         I1Cent=           4 NGrid=           0.
 Petite list used in FoFCou.
 Requested convergence on RMS density matrix=1.00D-08 within 128 cycles.
 Requested convergence on MAX density matrix=1.00D-06.
 Requested convergence on             energy=1.00D-06.
 No special actions if energy rises.
 Integral accuracy reduced to 1.0D-05 until final iterations.
 Initial convergence to 1.0D-05 achieved.  Increase integral accuracy.
 SCF Done:  E(RHF) =  -492.858199268     A.U. after   14 cycles
             Convg  =    0.5424D-08             -V/T =  2.0015
 Calling FoFJK, ICntrl=      2127 FMM=F ISym2X=0 I1Cent= 0 IOpClX= 0 NMat=1 NMatS=1 NMatT=0.
 ***** Axes restored to original set *****
 -------------------------------------------------------------------
 Center     Atomic                   Forces (Hartrees/Bohr)
 Number     Number              X              Y              Z
 -------------------------------------------------------------------
      1        1          -0.000782184   -0.000500344    0.000603393
      2        6           0.002205295   -0.000995968   -0.001414803
      3        1           0.000221564   -0.000345663    0.000080785
      4        1          -0.000691899    0.000129955    0.000098091
      5        6          -0.002649253    0.002336716    0.012778855
      6        8          -0.002359470   -0.000243857   -0.006206618
      7        7           0.002197579   -0.000656506   -0.005595219
      8        1          -0.000417052   -0.000748794   -0.000275570
      9        6           0.002222463   -0.000461531   -0.006397305
     10        1          -0.000152755    0.000187402    0.001348852
     11        6          -0.002841206    0.001607144    0.004470904
     12        1          -0.000401054    0.000799869   -0.000669682
     13        1           0.001395024    0.001080508   -0.000466314
     14        1          -0.000235323    0.000708701    0.000553727
     15        6           0.007340734    0.006215688   -0.009588823
     16        8          -0.003027713   -0.007351612    0.005125642
     17        7          -0.004346727    0.002026632    0.006903111
     18        1           0.000628449   -0.000860253    0.000604673
     19        6           0.001077832   -0.003408699   -0.000865603
     20        1           0.000402281    0.001212794   -0.000884032
     21        1          -0.000007989   -0.000513647   -0.000173846
     22        1           0.000221404   -0.000218536   -0.000030217
 -------------------------------------------------------------------
 Cartesian Forces:  Max     0.012778855 RMS     0.003288076

 GradGradGradGradGradGradGradGradGradGradGradGradGradGradGradGradGradGrad
 Berny optimization.
 Using GEDIIS/GDIIS optimizer.
 Internal  Forces:  Max     0.009038510 RMS     0.001845330
 Search for a local minimum.
 Step number   2 out of a maximum of  108
 All quantities printed in internal units (Hartrees-Bohrs-Radians)
 Mixed Optimization -- RFO/linear search
 Update second derivatives using D2CorX and points    1    2
 DE= -6.82D-03 DEPred=-7.74D-03 R= 8.81D-01
 SS=  1.41D+00  RLast= 3.00D-01 DXNew= 5.0454D-01 8.9982D-01
 Trust test= 8.81D-01 RLast= 3.00D-01 DXMaxT set to 5.05D-01
 Use linear search instead of GDIIS.
     Eigenvalues ---    0.00370   0.00435   0.00987   0.01044   0.01280
     Eigenvalues ---    0.01419   0.01648   0.02535   0.02552   0.03497
     Eigenvalues ---    0.05232   0.05613   0.05734   0.06041   0.07173
     Eigenvalues ---    0.07318   0.07457   0.07739   0.15683   0.15883
     Eigenvalues ---    0.15992   0.15999   0.16000   0.16000   0.16000
     Eigenvalues ---    0.16000   0.16000   0.16000   0.16000   0.16500
     Eigenvalues ---    0.17264   0.21943   0.22458   0.24116   0.24982
     Eigenvalues ---    0.25000   0.25509   0.29310   0.29973   0.31300
     Eigenvalues ---    0.34729   0.34809   0.34810   0.34812   0.34814
     Eigenvalues ---    0.34816   0.34817   0.34818   0.34820   0.36119
     Eigenvalues ---    0.38351   0.38802   0.45963   0.46590   0.56861
     Eigenvalues ---    0.58333   0.84037   0.915731000.000001000.00000
     Eigenvalues --- 1000.000001000.000001000.000001000.000001000.00000
     Eigenvalues --- 1000.000001000.000001000.000001000.000001000.00000
     Eigenvalues --- 1000.000001000.000001000.000001000.000001000.00000
     Eigenvalues --- 1000.000001000.000001000.000001000.000001000.00000
     Eigenvalues --- 1000.000001000.000001000.000001000.000001000.00000
     Eigenvalues --- 1000.000001000.000001000.000001000.000001000.00000
     Eigenvalues --- 1000.000001000.000001000.000001000.000001000.00000
     Eigenvalues --- 1000.000001000.000001000.00000
 RFO step:  Lambda=-1.37607333D-03 EMin= 3.69634208D-03
 Quartic linear search produced a step of  0.03013.
 Iteration  1 RMS(Cart)=  0.04521753 RMS(Int)=  0.00106860
 Iteration  2 RMS(Cart)=  0.00192729 RMS(Int)=  0.00016784
 Iteration  3 RMS(Cart)=  0.00000158 RMS(Int)=  0.00016784
 Iteration  4 RMS(Cart)=  0.00000000 RMS(Int)=  0.00016784
 Iteration  1 RMS(Cart)=  0.00003812 RMS(Int)=  0.00001079
 Iteration  2 RMS(Cart)=  0.00002075 RMS(Int)=  0.00001202
 Iteration  3 RMS(Cart)=  0.00001148 RMS(Int)=  0.00001362
 Iteration  4 RMS(Cart)=  0.00000650 RMS(Int)=  0.00001477
 Iteration  5 RMS(Cart)=  0.00000378 RMS(Int)=  0.00001551
 Iteration  6 RMS(Cart)=  0.00000227 RMS(Int)=  0.00001598
 Iteration  7 RMS(Cart)=  0.00000140 RMS(Int)=  0.00001628
 Iteration  8 RMS(Cart)=  0.00000089 RMS(Int)=  0.00001647
 Variable       Old X    -DE/DX   Delta X   Delta X   Delta X     New X
                                 (Linear)    (Quad)   (Total)
    R1        2.03747   0.00095  -0.00067   0.00132   0.00065   2.03812
    R2        2.05170  -0.00040  -0.00025  -0.00172  -0.00197   2.04973
    R3        2.05137  -0.00021  -0.00025  -0.00117  -0.00142   2.04995
    R4        2.86125   0.00000  -0.00090  -0.00196  -0.00287   2.85838
    R5        2.28293  -0.00661  -0.00119  -0.01003  -0.01122   2.27171
    R6        2.54248   0.00625   0.00059   0.01229   0.01288   2.55536
    R7        1.88048   0.00049  -0.00085  -0.00077  -0.00162   1.87887
    R8        2.74346   0.00250   0.00016   0.00701   0.00717   2.75063
    R9        2.03947   0.00102  -0.00061   0.00166   0.00105   2.04052
   R10        2.89586  -0.00554   0.00042  -0.01807  -0.01765   2.87821
   R11        2.90652  -0.00312   0.00091  -0.00860  -0.00769   2.89883
   R12        2.04580   0.00094  -0.00042   0.00186   0.00144   2.04724
   R13        2.04001   0.00173  -0.00060   0.00378   0.00319   2.04319
   R14        2.05068  -0.00069  -0.00027  -0.00263  -0.00290   2.04778
   R15        2.28236  -0.00904  -0.00121  -0.01280  -0.01401   2.26835
   R16        2.53581   0.00473   0.00039   0.00917   0.00956   2.54537
   R17        1.88121   0.00079  -0.00083  -0.00004  -0.00086   1.88034
   R18        2.74029  -0.00342   0.00007  -0.00898  -0.00892   2.73138
   R19        2.03335   0.00144  -0.00080   0.00252   0.00173   2.03508
   R20        2.04992  -0.00010  -0.00030  -0.00093  -0.00123   2.04869
   R21        2.04902   0.00000  -0.00032  -0.00069  -0.00102   2.04801
    A1        1.91212  -0.00035   0.00003  -0.00273  -0.00268   1.90944
    A2        1.91147  -0.00053   0.00001  -0.00180  -0.00180   1.90967
    A3        1.89544   0.00071  -0.00131   0.00224   0.00093   1.89637
    A4        1.88846  -0.00047  -0.00065  -0.00537  -0.00605   1.88241
    A5        1.92776  -0.00022   0.00095  -0.00017   0.00077   1.92853
    A6        1.92858   0.00085   0.00098   0.00774   0.00870   1.93728
    A7        2.13052   0.00087   0.00082   0.00611   0.00617   2.13669
    A8        2.01312  -0.00019  -0.00066  -0.00130  -0.00272   2.01040
    A9        2.13870  -0.00064  -0.00019  -0.00200  -0.00294   2.13576
   A10        2.07503  -0.00025  -0.00058  -0.00444  -0.00537   2.06966
   A11        2.16245  -0.00030   0.00105   0.00023   0.00092   2.16337
   A12        2.04401   0.00058  -0.00052   0.00168   0.00080   2.04481
   A13        1.85816  -0.00058  -0.00160  -0.00522  -0.00693   1.85124
   A14        1.92757   0.00101  -0.00035   0.01004   0.00975   1.93732
   A15        1.92201   0.00089  -0.00051   0.00478   0.00425   1.92626
   A16        1.90928   0.00097   0.00040   0.00872   0.00907   1.91835
   A17        1.88639  -0.00074  -0.00029  -0.00683  -0.00717   1.87922
   A18        1.95727  -0.00154   0.00229  -0.01147  -0.00920   1.94807
   A19        1.94207  -0.00041   0.00093  -0.00133  -0.00040   1.94167
   A20        1.92700   0.00034   0.00048   0.00275   0.00323   1.93023
   A21        1.91268  -0.00069   0.00005  -0.00318  -0.00314   1.90954
   A22        1.87975  -0.00022  -0.00091  -0.00552  -0.00644   1.87330
   A23        1.90071   0.00067  -0.00029   0.00443   0.00414   1.90485
   A24        1.90081   0.00034  -0.00028   0.00298   0.00270   1.90352
   A25        2.13143  -0.00149   0.00085  -0.00415  -0.00358   2.12785
   A26        1.99817  -0.00309  -0.00111  -0.01491  -0.01631   1.98185
   A27        2.15356   0.00457   0.00026   0.01940   0.01936   2.17291
   A28        2.06100   0.00039  -0.00100  -0.00140  -0.00245   2.05855
   A29        2.16204  -0.00185   0.00104  -0.00642  -0.00544   2.15660
   A30        2.06000   0.00146  -0.00004   0.00751   0.00742   2.06741
   A31        1.88755   0.00103  -0.00071   0.00563   0.00493   1.89247
   A32        1.93693  -0.00084   0.00078  -0.00405  -0.00328   1.93365
   A33        1.93373  -0.00041   0.00068  -0.00143  -0.00076   1.93297
   A34        1.90471  -0.00004  -0.00016  -0.00015  -0.00030   1.90441
   A35        1.90451  -0.00021  -0.00017  -0.00103  -0.00120   1.90331
   A36        1.89604   0.00048  -0.00042   0.00106   0.00062   1.89666
    D1       -0.02184   0.00061  -0.00066   0.03435   0.03377   0.01193
    D2       -3.12017  -0.00036   0.00064  -0.03715  -0.03657   3.12645
    D3        2.07540   0.00049  -0.00084   0.03230   0.03152   2.10692
    D4       -1.02293  -0.00048   0.00046  -0.03920  -0.03882  -1.06175
    D5       -2.11877   0.00030  -0.00047   0.03047   0.03008  -2.08869
    D6        1.06608  -0.00067   0.00084  -0.04103  -0.04026   1.02582
    D7       -0.00140   0.00173  -0.00004   0.05002   0.04992   0.04852
    D8       -3.07867   0.00113   0.00189   0.09810   0.09982  -2.97885
    D9       -3.09951   0.00071   0.00127  -0.02208  -0.02063  -3.12014
   D10        0.10640   0.00011   0.00320   0.02601   0.02927   0.13567
   D11        0.20824   0.00099  -0.00161  -0.00854  -0.01017   0.19807
   D12        2.27932   0.00236  -0.00232   0.00426   0.00189   2.28121
   D13       -1.83267   0.00173   0.00000   0.00000   0.00000  -1.83266
   D14       -2.87009   0.00043   0.00029   0.03896   0.03929  -2.83080
   D15       -0.79900   0.00179  -0.00041   0.05176   0.05135  -0.74765
   D16        1.37220   0.00116   0.00190   0.04751   0.04946   1.42166
   D17        1.08315   0.00020   0.00108  -0.00567  -0.00460   1.07855
   D18       -3.11370  -0.00011   0.00084  -0.01165  -0.01082  -3.12451
   D19       -1.01999   0.00009   0.00082  -0.00826  -0.00745  -1.02743
   D20        3.12282   0.00067  -0.00084  -0.00097  -0.00179   3.12102
   D21       -1.07403   0.00036  -0.00108  -0.00695  -0.00801  -1.08204
   D22        1.01968   0.00055  -0.00110  -0.00355  -0.00464   1.01504
   D23       -1.06770  -0.00059   0.00040  -0.01102  -0.01063  -1.07833
   D24        1.01864  -0.00090   0.00016  -0.01700  -0.01684   1.00180
   D25        3.11235  -0.00071   0.00014  -0.01360  -0.01347   3.09888
   D26       -2.10285   0.00021  -0.00025   0.04356   0.04310  -2.05975
   D27        1.04722   0.00025   0.00000   0.00000   0.00000   1.04723
   D28        2.15709   0.00084   0.00216   0.05108   0.05313   2.21022
   D29       -0.97602   0.00087   0.00241   0.00752   0.01003  -0.96599
   D30        0.05113   0.00108   0.00052   0.05189   0.05225   0.10337
   D31       -3.08199   0.00112   0.00077   0.00833   0.00915  -3.07284
   D32        0.02230   0.00033   0.00068   0.04058   0.04145   0.06375
   D33       -3.13800   0.00002   0.00011   0.02131   0.02168  -3.11632
   D34       -3.11069   0.00040   0.00093  -0.00348  -0.00281  -3.11350
   D35        0.01219   0.00009   0.00037  -0.02275  -0.02257  -0.01038
   D36        0.00839   0.00017   0.00025   0.00920   0.00947   0.01786
   D37        2.09709   0.00027   0.00008   0.01014   0.01024   2.10733
   D38       -2.07817   0.00003   0.00049   0.00780   0.00832  -2.06984
   D39        3.13128  -0.00016  -0.00032  -0.01015  -0.01049   3.12080
   D40       -1.06320  -0.00006  -0.00048  -0.00921  -0.00972  -1.07292
   D41        1.04472  -0.00030  -0.00008  -0.01154  -0.01164   1.03309
         Item               Value     Threshold  Converged?
 Maximum Force            0.009039     0.000450     NO 
 RMS     Force            0.001841     0.000300     NO 
 Maximum Displacement     0.186193     0.001800     NO 
 RMS     Displacement     0.044641     0.001200     NO 
 Predicted change in Energy=-7.200712D-04
 GradGradGradGradGradGradGradGradGradGradGradGradGradGradGradGradGradGrad

                          Input orientation:                          
 ---------------------------------------------------------------------
 Center     Atomic      Atomic             Coordinates (Angstroms)
 Number     Number       Type             X           Y           Z
 ---------------------------------------------------------------------
      1          1           0        1.396756    2.307331    1.852474
      2          6           0        1.714117    2.722424    0.908973
      3          1           0        0.941049    3.380060    0.526370
      4          1           0        1.854243    1.921089    0.191346
      5          6           0        3.000929    3.487427    1.125334
      6          8           0        3.531913    3.564436    2.201097
      7          7           0        3.528850    4.051211    0.015382
      8          1           0        3.032620    3.968426   -0.842199
      9          6           0        4.850212    4.659393   -0.037619
     10          1           0        5.345204    4.379218    0.880233
     11          6           0        5.641326    4.142829   -1.232226
     12          1           0        5.152279    4.394579   -2.165558
     13          1           0        6.627410    4.585672   -1.255583
     14          1           0        5.738572    3.065898   -1.161257
     15          6           0        4.733623    6.188844   -0.055693
     16          8           0        5.132197    6.844825   -0.978561
     17          7           0        4.113299    6.694174    1.027877
     18          1           0        3.844446    6.062542    1.748191
     19          6           0        3.860373    8.104394    1.218765
     20          1           0        4.230666    8.636198    0.358638
     21          1           0        2.798111    8.294126    1.323241
     22          1           0        4.366702    8.468803    2.104975
 ---------------------------------------------------------------------
                    Distance matrix (angstroms):
                    1          2          3          4          5
     1  H    0.000000
     2  C    1.078524   0.000000
     3  H    1.765495   1.084668   0.000000
     4  H    1.765737   1.084787   1.753500   0.000000
     5  C    2.120078   1.512590   2.147881   2.154213   0.000000
     6  O    2.502149   2.383894   3.090515   3.090997   1.202140
     7  N    3.310869   2.420214   2.721813   2.715270   1.352238
     8  H    3.563223   2.521424   2.567845   2.578445   2.025723
     9  C    4.585958   3.805651   4.151666   4.065287   2.479075
    10  H    4.563794   3.991314   4.529914   4.324786   2.520118
    11  C    5.558849   4.693108   5.076128   4.615699   3.599908
    12  H    5.882613   4.906098   5.100017   4.748703   4.034997
    13  H    6.496968   5.683084   6.079766   5.654796   4.475072
    14  H    5.339417   4.538730   5.095391   4.269442   3.591779
    15  C    5.462776   4.697240   4.755174   5.154182   3.419753
    16  O    6.523583   5.678050   5.642263   6.029663   4.498978
    17  N    5.225319   4.641661   4.614979   5.346537   3.395599
    18  H    4.483712   4.049566   4.137423   4.851423   2.780412
    19  C    6.330634   5.802412   5.596533   6.581292   4.697207
    20  H    7.093459   6.450474   6.202959   7.125171   5.348825
    21  H    6.171353   5.691268   5.313354   6.541229   4.815046
    22  H    6.844565   6.441079   6.334224   7.269593   5.257294
                    6          7          8          9         10
     6  O    0.000000
     7  N    2.239265   0.000000
     8  H    3.110330   0.994255   0.000000
     9  C    2.819342   1.455573   2.104383   0.000000
    10  H    2.386750   2.038308   2.912657   1.079799   0.000000
    11  C    4.070856   2.455092   2.643460   1.523084   2.146172
    12  H    4.731003   2.740424   2.534923   2.165525   3.051934
    13  H    4.751174   3.391471   3.670748   2.155760   2.499677
    14  H    4.052568   2.690389   2.870284   2.142655   2.459112
    15  C    3.663976   2.454792   2.905556   1.533995   2.127142
    16  O    4.840669   3.370893   3.563774   2.396039   3.095110
    17  N    3.392596   2.889979   3.477751   2.412189   2.626482
    18  H    2.557994   2.673515   3.428484   2.483850   2.416445
    19  C    4.656616   4.241029   4.694568   3.798199   4.024458
    20  H    5.441110   4.651073   4.966429   4.044235   4.431268
    21  H    4.866114   4.499645   4.843120   4.390256   4.691529
    22  H    4.975834   4.958176   5.542472   4.397283   4.379745
                   11         12         13         14         15
    11  C    0.000000
    12  H    1.083353   0.000000
    13  H    1.081211   1.743727   0.000000
    14  H    1.083639   1.765716   1.763134   0.000000
    15  C    2.528701   2.801105   2.756143   3.461934   0.000000
    16  O    2.761221   2.722696   2.723266   3.831626   1.200357
    17  N    3.735277   4.070091   3.997589   4.538525   1.346954
    18  H    3.974540   4.450838   4.353009   4.586118   2.015090
    19  C    4.987298   5.185112   5.114713   5.880355   2.460923
    20  H    4.971034   5.021182   4.975626   5.967588   2.532623
    21  H    5.643364   5.737621   5.921697   6.492566   3.174883
    22  H    5.610315   5.954317   5.610959   6.460781   3.162488
                   16         17         18         19         20
    16  O    0.000000
    17  N    2.255358   0.000000
[...]
     19          6           0        3.895446    8.105617    1.265687
     20          1           0        4.309417    8.649201    0.431729
     21          1           0        2.831574    8.310404    1.327207
     22          1           0        4.367795    8.449590    2.179288
 ---------------------------------------------------------------------
                    Distance matrix (angstroms):
                    1          2          3          4          5
     1  H    0.000000
     2  C    1.080252   0.000000
     3  H    1.769900   1.083925   0.000000
     4  H    1.757330   1.085560   1.758638   0.000000
     5  C    2.124405   1.511536   2.169717   2.127404   0.000000
     6  O    2.535037   2.368438   3.203357   2.894639   1.189810
     7  N    3.279237   2.424745   2.594338   2.903875   1.348810
     8  H    3.514147   2.529005   2.323589   2.910818   2.022577
     9  C    4.573772   3.799693   4.050704   4.172795   2.468762
    10  H    4.597426   3.972263   4.478866   4.278557   2.511531
    11  C    5.604374   4.673692   4.819110   4.769339   3.590861
    12  H    5.888392   4.894600   4.798969   5.023904   4.023142
    13  H    6.543680   5.663589   5.856925   5.770194   4.465733
    14  H    5.468277   4.511812   4.770949   4.362662   3.595427
    15  C    5.355219   4.718287   4.789714   5.330522   3.411437
    16  O    6.431095   5.723927   5.658560   6.291669   4.507104
    17  N    5.060487   4.677173   4.812565   5.471737   3.392161
    18  H    4.297282   4.048699   4.345700   4.865692   2.755401
    19  C    6.105895   5.842877   5.859634   6.731370   4.690686
    20  H    6.896379   6.510681   6.430791   7.348906   5.353066
    21  H    5.902221   5.742765   5.637307   6.722608   4.812122
    22  H    6.612131   6.459996   6.610463   7.335529   5.242458
                    6          7          8          9         10
     6  O    0.000000
     7  N    2.223075   0.000000
     8  H    3.094677   0.995195   0.000000
     9  C    2.799154   1.456567   2.104891   0.000000
    10  H    2.383780   2.043962   2.904923   1.081309   0.000000
    11  C    4.074415   2.452302   2.603118   1.522639   2.147530
    12  H    4.721597   2.731943   2.498669   2.164192   3.052966
    13  H    4.754278   3.388651   3.638756   2.153322   2.500841
    14  H    4.090610   2.698619   2.808957   2.148694   2.465197
    15  C    3.611386   2.456537   2.953936   1.535856   2.130685
    16  O    4.799789   3.390295   3.635538   2.403925   3.094034
    17  N    3.322314   2.895842   3.544908   2.417784   2.636728
    18  H    2.476054   2.658178   3.458992   2.489641   2.444557
    19  C    4.580765   4.238786   4.761945   3.801179   4.038199
    20  H    5.372010   4.660936   5.052912   4.046154   4.433098
    21  H    4.799258   4.483921   4.897246   4.380376   4.705423
    22  H    4.893273   4.959839   5.606499   4.418421   4.411728
                   11         12         13         14         15
    11  C    0.000000
    12  H    1.084092   0.000000
    13  H    1.081625   1.744321   0.000000
    14  H    1.084556   1.766838   1.763050   0.000000
    15  C    2.528216   2.799408   2.749234   3.466552   0.000000
    16  O    2.762429   2.734247   2.701778   3.835329   1.206877
    17  N    3.738267   4.068845   3.995747   4.549022   1.348264
    18  H    3.980772   4.442811   4.366575   4.601481   2.017073
    19  C    4.986068   5.174933   5.111228   5.886570   2.459494
    20  H    4.966155   5.016625   4.957759   5.968191   2.531350
    21  H    5.618894   5.693257   5.896393   6.480269   3.156490
    22  H    5.638384   5.972566   5.646303   6.493515   3.181899
                   16         17         18         19         20
    16  O    0.000000
    17  N    2.259668   0.000000
    18  H    3.122087   0.996518   0.000000
    19  C    2.830719   1.444800   2.112388   0.000000
    20  H    2.403153   2.058658   2.954255   1.078120   0.000000
    21  H    3.560362   2.094948   2.504743   1.085148   1.760876
    22  H    3.587123   2.091571   2.495412   1.084480   1.759891
                   21         22
    21  H    0.000000
    22  H    1.762211   0.000000
 Stoichiometry    C6H12N2O2
 Framework group  C1[X(C6H12N2O2)]
 Deg. of freedom    60
 Full point group                 C1      NOp   1
 Largest Abelian subgroup         C1      NOp   1
 Largest concise Abelian subgroup C1      NOp   1
                         Standard orientation:                         
 ---------------------------------------------------------------------
 Center     Atomic      Atomic             Coordinates (Angstroms)
 Number     Number       Type             X           Y           Z
 ---------------------------------------------------------------------
      1          1           0        3.579793   -1.589746   -0.539055
      2          6           0        3.160343   -0.618599   -0.757869
      3          1           0        2.948358   -0.541944   -1.818096
      4          1           0        3.894467    0.138766   -0.501160
      5          6           0        1.927408   -0.413142    0.092072
      6          8           0        1.777949   -0.969862    1.132924
      7          7           0        1.007923    0.440166   -0.403612
      8          1           0        1.188437    0.876452   -1.279673
      9          6           0       -0.098367    0.967454    0.383583
     10          1           0        0.110980    0.710972    1.412961
     11          6           0       -0.195339    2.479622    0.234008
     12          1           0       -0.381694    2.759209   -0.796700
     13          1           0       -1.014930    2.865274    0.825156
     14          1           0        0.727313    2.942726    0.566436
     15          6           0       -1.411828    0.277091   -0.012738
     16          8           0       -2.351444    0.894550   -0.451393
     17          7           0       -1.401861   -1.058088    0.174383
     18          1           0       -0.575690   -1.470381    0.549222
     19          6           0       -2.506666   -1.918890   -0.180403
     20          1           0       -3.310743   -1.306376   -0.555409
     21          1           0       -2.215897   -2.628360   -0.948290
     22          1           0       -2.858164   -2.469854    0.685037
 ---------------------------------------------------------------------
 Rotational constants (GHZ):      1.8330700      0.9065399      0.6840470

 **********************************************************************

            Population analysis using the SCF density.

 **********************************************************************

 Orbital symmetries:
       Occupied  (A) (A) (A) (A) (A) (A) (A) (A) (A) (A) (A) (A)
                 (A) (A) (A) (A) (A) (A) (A) (A) (A) (A) (A) (A)
                 (A) (A) (A) (A) (A) (A) (A) (A) (A) (A) (A) (A)
                 (A) (A) (A)
       Virtual   (A) (A) (A) (A) (A) (A) (A) (A) (A) (A) (A) (A)
                 (A) (A) (A) (A) (A) (A) (A) (A) (A) (A) (A) (A)
                 (A) (A) (A) (A) (A) (A) (A) (A) (A) (A) (A) (A)
                 (A) (A) (A) (A) (A) (A) (A) (A) (A) (A) (A) (A)
                 (A) (A) (A) (A) (A) (A) (A) (A) (A) (A) (A) (A)
                 (A) (A) (A) (A) (A) (A) (A) (A) (A) (A) (A) (A)
                 (A) (A) (A) (A) (A) (A) (A) (A) (A) (A) (A) (A)
                 (A) (A) (A) (A) (A) (A) (A) (A) (A) (A) (A) (A)
                 (A) (A) (A) (A) (A) (A) (A) (A) (A) (A) (A) (A)
                 (A) (A) (A) (A) (A) (A) (A) (A) (A) (A) (A) (A)
                 (A) (A) (A) (A) (A) (A) (A) (A) (A) (A) (A) (A)
                 (A) (A) (A)
 The electronic state is 1-A.
 Alpha  occ. eigenvalues --  -20.53540 -20.51941 -15.59622 -15.57642 -11.35895
 Alpha  occ. eigenvalues --  -11.34045 -11.27977 -11.25068 -11.24210 -11.22193
 Alpha  occ. eigenvalues --   -1.41345  -1.38307  -1.25264  -1.22275  -1.05885
 Alpha  occ. eigenvalues --   -0.99917  -0.96049  -0.87429  -0.80875  -0.78148
 Alpha  occ. eigenvalues --   -0.72770  -0.68734  -0.67141  -0.64183  -0.62618
 Alpha  occ. eigenvalues --   -0.61583  -0.60141  -0.59477  -0.58190  -0.55176
 Alpha  occ. eigenvalues --   -0.54583  -0.53409  -0.52979  -0.52516  -0.51077
 Alpha  occ. eigenvalues --   -0.43937  -0.43056  -0.38875  -0.37773
 Alpha virt. eigenvalues --    0.18635   0.20841   0.22130   0.25003   0.26025
 Alpha virt. eigenvalues --    0.27362   0.29262   0.29846   0.31623   0.31740
 Alpha virt. eigenvalues --    0.32670   0.33142   0.33865   0.34163   0.37538
 Alpha virt. eigenvalues --    0.39778   0.41489   0.44449   0.45476   0.49644
 Alpha virt. eigenvalues --    0.53057   0.57831   0.61725   0.71175   0.72303
 Alpha virt. eigenvalues --    0.73196   0.73891   0.76523   0.76610   0.79453
 Alpha virt. eigenvalues --    0.81171   0.81608   0.83362   0.86794   0.89239
 Alpha virt. eigenvalues --    0.90157   0.96578   0.97956   0.98945   0.99296
 Alpha virt. eigenvalues --    1.00406   1.01544   1.03977   1.07125   1.07790
 Alpha virt. eigenvalues --    1.09853   1.12329   1.13328   1.15394   1.16715
 Alpha virt. eigenvalues --    1.17014   1.17716   1.18092   1.19262   1.20332
 Alpha virt. eigenvalues --    1.21407   1.23286   1.23471   1.24215   1.25568
 Alpha virt. eigenvalues --    1.29966   1.35663   1.36625   1.42599   1.44536
 Alpha virt. eigenvalues --    1.48988   1.51604   1.54583   1.56165   1.61225
 Alpha virt. eigenvalues --    1.62918   1.65193   1.69817   1.73519   1.74738
 Alpha virt. eigenvalues --    1.79292   1.82129   1.88428   1.92893   1.96617
 Alpha virt. eigenvalues --    1.99486   2.02894   2.08754   2.10687   2.12112
 Alpha virt. eigenvalues --    2.13976   2.15816   2.16255   2.19800   2.21231
 Alpha virt. eigenvalues --    2.24514   2.27077   2.29373   2.31476   2.34905
 Alpha virt. eigenvalues --    2.38274   2.40083   2.42054   2.45206   2.49186
 Alpha virt. eigenvalues --    2.52223   2.55981   2.60226   2.62877   2.64686
 Alpha virt. eigenvalues --    2.66799   2.69152   2.70455   2.74774   2.75870
 Alpha virt. eigenvalues --    2.76618   2.84761   2.89643   2.90927   2.98687
 Alpha virt. eigenvalues --    3.02422   3.06054   3.10181   3.12085   3.28082
 Alpha virt. eigenvalues --    3.32870   3.38558   3.41111   3.56315   3.56587
 Alpha virt. eigenvalues --    4.37534   4.45365   4.46853   4.55136   4.64011
 Alpha virt. eigenvalues --    4.67919   4.70275   4.87180   4.95587   5.04772
          Condensed to atoms (all electrons):
              1          2          3          4          5          6
     1  H    0.464806   0.384164  -0.021341  -0.017717  -0.032043   0.002963
     2  C    0.384164   5.249796   0.377530   0.376899   0.375981  -0.069975
     3  H   -0.021341   0.377530   0.520121  -0.023651  -0.038309   0.002195
     4  H   -0.017717   0.376899  -0.023651   0.487350  -0.026605   0.000176
     5  C   -0.032043   0.375981  -0.038309  -0.026605   4.143824   0.597181
     6  O    0.002963  -0.069975   0.002195   0.000176   0.597181   8.165784
     7  N    0.003987  -0.116203   0.004983   0.000320   0.272665  -0.111338
     8  H    0.000019   0.000286   0.000722   0.000071  -0.017748   0.002471
     9  C   -0.000100   0.004468   0.000054  -0.000217  -0.021873   0.003794
    10  H   -0.000013   0.000526  -0.000010  -0.000012   0.000453   0.008005
    11  C    0.000000  -0.000123  -0.000017   0.000026   0.002436   0.000531
    12  H    0.000000  -0.000008   0.000000   0.000001  -0.000082  -0.000011
    13  H    0.000000   0.000003   0.000000   0.000000  -0.000043  -0.000001
    14  H    0.000000  -0.000027  -0.000001   0.000003  -0.000020   0.000001
    15  C    0.000009  -0.000236   0.000007  -0.000001  -0.002483  -0.002012
    16  O    0.000000   0.000000   0.000000   0.000000  -0.000011  -0.000003
    17  N    0.000002  -0.000016   0.000011   0.000000   0.002267  -0.003376
    18  H   -0.000005   0.000388  -0.000051   0.000000   0.002485   0.014852
    19  C    0.000000   0.000000   0.000000   0.000000  -0.000038   0.000054
    20  H    0.000000   0.000000   0.000000   0.000000  -0.000002   0.000000
    21  H    0.000000   0.000000   0.000000   0.000000  -0.000008  -0.000002
    22  H    0.000000   0.000000   0.000000   0.000000   0.000004  -0.000001
              7          8          9         10         11         12
     1  H    0.003987   0.000019  -0.000100  -0.000013   0.000000   0.000000
     2  C   -0.116203   0.000286   0.004468   0.000526  -0.000123  -0.000008
     3  H    0.004983   0.000722   0.000054  -0.000010  -0.000017   0.000000
     4  H    0.000320   0.000071  -0.000217  -0.000012   0.000026   0.000001
     5  C    0.272665  -0.017748  -0.021873   0.000453   0.002436  -0.000082
     6  O   -0.111338   0.002471   0.003794   0.008005   0.000531  -0.000011
     7  N    7.406842   0.323329   0.171104  -0.044635  -0.060750  -0.003498
     8  H    0.323329   0.321306  -0.023027   0.002766  -0.001746   0.003029
     9  C    0.171104  -0.023027   5.143851   0.404786   0.347633  -0.032130
    10  H   -0.044635   0.002766   0.404786   0.454622  -0.027258   0.003501
    11  C   -0.060750  -0.001746   0.347633  -0.027258   5.087932   0.389945
    12  H   -0.003498   0.003029  -0.032130   0.003501   0.389945   0.517081
    13  H    0.004029  -0.000016  -0.033818  -0.002100   0.395090  -0.021807
    14  H    0.000277   0.000080  -0.041757  -0.003445   0.389076  -0.028810
    15  C   -0.059675   0.000024   0.365344  -0.039826  -0.057910  -0.005365
    16  O    0.000547   0.000109  -0.080385   0.001440   0.005602   0.002868
    17  N    0.005588   0.000201  -0.129545   0.002194   0.004435   0.000006
    18  H   -0.005036  -0.000014   0.001698  -0.000254   0.000054  -0.000013
    19  C   -0.000320   0.000004   0.004417  -0.000173  -0.000087  -0.000002
    20  H   -0.000042   0.000000   0.000650  -0.000026  -0.000013  -0.000002
    21  H    0.000061  -0.000003  -0.000047   0.000003   0.000002   0.000000
    22  H   -0.000006   0.000000  -0.000116  -0.000002   0.000001   0.000000
             13         14         15         16         17         18
     1  H    0.000000   0.000000   0.000009   0.000000   0.000002  -0.000005
     2  C    0.000003  -0.000027  -0.000236   0.000000  -0.000016   0.000388
     3  H    0.000000  -0.000001   0.000007   0.000000   0.000011  -0.000051
     4  H    0.000000   0.000003  -0.000001   0.000000   0.000000   0.000000
     5  C   -0.000043  -0.000020  -0.002483  -0.000011   0.002267   0.002485
     6  O   -0.000001   0.000001  -0.002012  -0.000003  -0.003376   0.014852
     7  N    0.004029   0.000277  -0.059675   0.000547   0.005588  -0.005036
     8  H   -0.000016   0.000080   0.000024   0.000109   0.000201  -0.000014
     9  C   -0.033818  -0.041757   0.365344  -0.080385  -0.129545   0.001698
    10  H   -0.002100  -0.003445  -0.039826   0.001440   0.002194  -0.000254
    11  C    0.395090   0.389076  -0.057910   0.005602   0.004435   0.000054
    12  H   -0.021807  -0.028810  -0.005365   0.002868   0.000006  -0.000013
    13  H    0.485252  -0.023624  -0.000696   0.001204   0.000015   0.000004
    14  H   -0.023624   0.536580   0.005053   0.000340  -0.000037  -0.000005
    15  C   -0.000696   0.005053   4.138024   0.610397   0.311138  -0.018797
    16  O    0.001204   0.000340   0.610397   8.171687  -0.098240   0.002080
    17  N    0.000015  -0.000037   0.311138  -0.098240   7.328215   0.311781
    18  H    0.000004  -0.000005  -0.018797   0.002080   0.311781   0.295713
    19  C   -0.000001   0.000001  -0.025724  -0.003009   0.196442  -0.019313
    20  H    0.000000   0.000000  -0.001407   0.010163  -0.035440   0.002328
    21  H    0.000000   0.000000   0.000648   0.000295  -0.047119  -0.000917
    22  H    0.000000   0.000000   0.000839   0.000276  -0.045585  -0.001226
             19         20         21         22
     1  H    0.000000   0.000000   0.000000   0.000000
     2  C    0.000000   0.000000   0.000000   0.000000
     3  H    0.000000   0.000000   0.000000   0.000000
     4  H    0.000000   0.000000   0.000000   0.000000
     5  C   -0.000038  -0.000002  -0.000008   0.000004
     6  O    0.000054   0.000000  -0.000002  -0.000001
     7  N   -0.000320  -0.000042   0.000061  -0.000006
     8  H    0.000004   0.000000  -0.000003   0.000000
     9  C    0.004417   0.000650  -0.000047  -0.000116
    10  H   -0.000173  -0.000026   0.000003  -0.000002
    11  C   -0.000087  -0.000013   0.000002   0.000001
    12  H   -0.000002  -0.000002   0.000000   0.000000
    13  H   -0.000001   0.000000   0.000000   0.000000
    14  H    0.000001   0.000000   0.000000   0.000000
    15  C   -0.025724  -0.001407   0.000648   0.000839
    16  O   -0.003009   0.010163   0.000295   0.000276
    17  N    0.196442  -0.035440  -0.047119  -0.045585
    18  H   -0.019313   0.002328  -0.000917  -0.001226
    19  C    4.926879   0.399560   0.403038   0.403832
    20  H    0.399560   0.449511  -0.024679  -0.023640
    21  H    0.403038  -0.024679   0.542101  -0.038947
    22  H    0.403832  -0.023640  -0.038947   0.533689
 Mulliken atomic charges:
              1
     1  H    0.215270
     2  C   -0.583452
     3  H    0.177757
     4  H    0.203359
     5  C    0.741964
     6  O   -0.611286
     7  N   -0.792230
     8  H    0.388138
     9  C   -0.084785
    10  H    0.239458
    11  C   -0.474858
    12  H    0.175297
    13  H    0.196510
    14  H    0.166316
    15  C    0.782650
    16  O   -0.625362
    17  N   -0.802935
    18  H    0.414249
    19  C   -0.285558
    20  H    0.223041
    21  H    0.165575
    22  H    0.170883
 Sum of Mulliken atomic charges =   0.00000
 Mulliken charges with hydrogens summed into heavy atoms:
              1
     2  C    0.012934
     5  C    0.741964
     6  O   -0.611286
     7  N   -0.404092
     9  C    0.154673
    11  C    0.063265
    15  C    0.782650
    16  O   -0.625362
    17  N   -0.388686
    19  C    0.273940
 Sum of Mulliken charges with hydrogens summed into heavy atoms =   0.00000
 Electronic spatial extent (au):  <R**2>=           1753.7665
 Charge=              0.0000 electrons
 Dipole moment (field-independent basis, Debye):
    X=              2.7893    Y=             -0.2727    Z=             -1.7838  Tot=              3.3221
 Quadrupole moment (field-independent basis, Debye-Ang):
   XX=            -63.4066   YY=            -58.4103   ZZ=            -61.4182
   XY=              9.0428   XZ=             -8.6227   YZ=              3.2542
 Traceless Quadrupole moment (field-independent basis, Debye-Ang):
   XX=             -2.3282   YY=              2.6681   ZZ=             -0.3398
   XY=              9.0428   XZ=             -8.6227   YZ=              3.2542
 Octapole moment (field-independent basis, Debye-Ang**2):
  XXX=             30.9781  YYY=             -6.9704  ZZZ=             -5.2049  XYY=             -3.3075
  XXY=            -16.5085  XXZ=             -6.3359  XZZ=             -3.2002  YZZ=              5.2022
  YYZ=             -0.9713  XYZ=              0.9626
 Hexadecapole moment (field-independent basis, Debye-Ang**3):
 XXXX=          -1357.2902 YYYY=           -691.9293 ZZZZ=           -179.2274 XXXY=             44.0171
 XXXZ=            -23.3098 YYYX=              4.7871 YYYZ=             -1.6315 ZZZX=             -6.3699
 ZZZY=             -4.3157 XXYY=           -342.8433 XXZZ=           -272.6146 YYZZ=           -146.4360
 XXYZ=             18.2730 YYXZ=             -8.4375 ZZXY=              7.5407
 N-N= 5.610168866741D+02 E-N=-2.277405464420D+03  KE= 4.921714904901D+02


 TRUTH, IN SCIENCE, CAN BE DEFINED AS THE WORKING HYPOTHESIS 
 BEST FITTED TO OPEN THE WAY TO THE NEXT BETTER ONE.

                              -- KONRAD LORENZ
 Error termination request processed by link 9999.
 Error termination via Lnk1e in /home/steboss/Software/g09/l9999.exe at Sat Feb 11 17:22:22 2017.
 Job cpu time:  0 days  1 hours 50 minutes 17.5 seconds.
 File lengths (MBytes):  RWF=     25 Int=      0 D2E=      0 Chk=      3 Scr=      1
