 Entering Gaussian System, Link 0=g09
 Initial command:
 /home/steboss/Software/g09/l1.exe /tmp/Gau-32278.inp -scrdir=/tmp/
 Entering Link 1 = /home/steboss/Software/g09/l1.exe PID=     32280.
  
 Copyright (c) 1988,1990,1992,1993,1995,1998,2003,2009, Gaussian, Inc.
                  All Rights Reserved.
  
 This is part of the Gaussian(R) 09 program.  It is based on
 the Gaussian(R) 03 system (copyright 2003, Gaussian, Inc.),
 the Gaussian(R) 98 system (copyright 1998, Gaussian, Inc.),
 the Gaussian(R) 94 system (copyright 1995, Gaussian, Inc.),
 the Gaussian 92(TM) system (copyright 1992, Gaussian, Inc.),
 the Gaussian 90(TM) system (copyright 1990, Gaussian, Inc.),
 the Gaussian 88(TM) system (copyright 1988, Gaussian, Inc.),
 the Gaussian 86(TM) system (copyright 1986, Carnegie Mellon
 University), and the Gaussian 82(TM) system (copyright 1983,
 Carnegie Mellon University). Gaussian is a federally registered
 trademark of Gaussian, Inc.
  
 This software contains proprietary and confidential information,
 including trade secrets, belonging to Gaussian, Inc.
  
 This software is provided under written license and may be
 used, copied, transmitted, or stored only in accord with that
 written license.
  
 The following legend is applicable only to US Government
 contracts under FAR:
  
                    RESTRICTED RIGHTS LEGEND
  
 Use, reproduction and disclosure by the US Government is
 subject to restrictions as set forth in subparagraphs (a)
 and (c) of the Commercial Computer Software - Restricted
 Rights clause in FAR 52.227-19.
  
 Gaussian, Inc.
 340 Quinnipiac St., Bldg. 40, Wallingford CT 06492
  
  
 ---------------------------------------------------------------
 Warning -- This program may not be used in any manner that
 competes with the business of Gaussian, Inc. or will provide
 assistance to any competitor of Gaussian, Inc.  The licensee
 of this program is prohibited from giving any competitor of
 Gaussian, Inc. access to this program.  By using this program,
 the user acknowledges that Gaussian, Inc. is engaged in the
 business of creating and licensing software in the field of
 computational chemistry and represents and warrants to the
 licensee that it is not a competitor of Gaussian, Inc. and that
 it will not use this program in any manner prohibited above.
 ---------------------------------------------------------------
  

 Cite this work as:
 Gaussian 09, Revision A.02,
 M. J. Frisch, G. W. Trucks, H. B. Schlegel, G. E. Scuseria, 
 M. A. Robb, J. R. Cheeseman, G. Scalmani, V. Barone, B. Mennucci, 
 G. A. Petersson, H. Nakatsuji, M. Caricato, X. Li, H. P. Hratchian, 
 A. F. Izmaylov, J. Bloino, G. Zheng, J. L. Sonnenberg, M. Hada, 
 M. Ehara, K. Toyota, R. Fukuda, J. Hasegawa, M. Ishida, T. Nakajima, 
 Y. Honda, O. Kitao, H. Nakai, T. Vreven, J. A. Montgomery, Jr., 
 J. E. Peralta, F. Ogliaro, M. Bearpark, J. J. Heyd, E. Brothers, 
 K. N. Kudin, V. N. Staroverov, R. Kobayashi, J. Normand, 
 K. Raghavachari, A. Rendell, J. C. Burant, S. S. Iyengar, J. Tomasi, 
 M. Cossi, N. Rega, J. M. Millam, M. Klene, J. E. Knox, J. B. Cross, 
 V. Bakken, C. Adamo, J. Jaramillo, R. Gomperts, R. E. Stratmann, 
 O. Yazyev, A. J. Austin, R. Cammi, C. Pomelli, J. W. Ochterski, 
 R. L. Martin, K. Morokuma, V. G. Zakrzewski, G. A. Voth, 
 P. Salvador, J. J. Dannenberg, S. Dapprich, A. D. Daniels, 
 O. Farkas, J. B. Foresman, J. V. Ortiz, J. Cioslowski, 
 and D. J. Fox, Gaussian, Inc., Wallingford CT, 2009.
 
 ******************************************
 Gaussian 09:  EM64L-G09RevA.02 11-Jun-2009
                10-Feb-2017 
 ******************************************
 %chk=structure_90.chk
 %NProcShared=8
 Will use up to    8 processors via shared memory.
 -------------------------------------------
 # HF/6-31G* Opt=(ModRedundant) geom=nocrowd
 -------------------------------------------
 1/18=120,19=15,38=1/1,3;
 2/9=110,12=1,17=6,18=5,40=1/2;
 3/5=1,6=6,7=1,11=9,16=1,25=1,30=1,71=1/1,2,3;
 4//1;
 5/5=2,38=5/2;
 6/7=2,8=2,9=2,10=2,28=1/1;
 7//1,2,3,16;
 1/18=20,19=15/3(2);
 2/9=110,12=1/2;
 99//99;
 2/9=110,12=1/2;
 3/5=1,6=6,7=1,11=9,16=1,25=1,30=1,71=1/1,2,3;
 4/5=5,16=3/1;
 5/5=2,38=5/2;
 7//1,2,3,16;
 1/18=20,19=15/3(-5);
 2/9=110,12=1/2;
 6/7=2,8=2,9=2,10=2,19=2,28=1/1;
 99/9=1/99;
 ------------------
 Phi Psi fixed scan
 ------------------
 Symbolic Z-matrix:
 Charge =  0 Multiplicity = 1
 H                     1.3513    2.3068    1.9013 
 C                     1.6731    2.7486    0.9582 
 H                     0.9598    3.5143    0.6531 
 H                     1.7242    1.9746    0.1925 
 C                     3.0539    3.3932    1.0948 
 O                     3.6506    3.3681    2.1689 
 N                     3.5554    3.9697    0. 
 H                     3.0267    3.9647   -0.8606 
 C                     4.8533    4.6139    0. 
 H                     5.4076    4.3155    0.8898 
 C                     5.6613    4.2208   -1.2322 
 H                     5.1233    4.5214   -2.1312 
 H                     6.6305    4.7189   -1.2058 
 H                     5.8085    3.1409   -1.2414 
 C                     4.7127    6.1294    0. 
 O                     4.6551    6.7505   -1.0589 
 N                     4.6575    6.7246    1.1937 
 H                     4.7088    6.171     2.0369 
 C                     4.5242    8.1613    1.3276 
 H                     4.482     8.6165    0.3381 
 H                     3.6091    8.3926    1.8727 
 H                     5.3811    8.5569    1.8727 
 
 The following ModRedundant input section has been read:
 D    5    7    9   15 F                                                       
 D    7    9   15   17 F                                                       

 GradGradGradGradGradGradGradGradGradGradGradGradGradGradGradGradGradGrad
 Berny optimization.
 Initialization pass.
                           ----------------------------
                           !    Initial Parameters    !
                           ! (Angstroms and Degrees)  !
 --------------------------                            --------------------------
 ! Name  Definition              Value          Derivative Info.                !
 --------------------------------------------------------------------------------
 ! R1    R(1,2)                  1.09           estimate D2E/DX2                !
 ! R2    R(2,3)                  1.09           estimate D2E/DX2                !
 ! R3    R(2,4)                  1.0899         estimate D2E/DX2                !
 ! R4    R(2,5)                  1.53           estimate D2E/DX2                !
 ! R5    R(5,6)                  1.229          estimate D2E/DX2                !
 ! R6    R(5,7)                  1.3351         estimate D2E/DX2                !
 ! R7    R(7,8)                  1.01           estimate D2E/DX2                !
 ! R8    R(7,9)                  1.449          estimate D2E/DX2                !
 ! R9    R(9,10)                 1.09           estimate D2E/DX2                !
 ! R10   R(9,11)                 1.525          estimate D2E/DX2                !
 ! R11   R(9,15)                 1.522          estimate D2E/DX2                !
 ! R12   R(11,12)                1.09           estimate D2E/DX2                !
 ! R13   R(11,13)                1.09           estimate D2E/DX2                !
 ! R14   R(11,14)                1.0899         estimate D2E/DX2                !
 ! R15   R(15,16)                1.229          estimate D2E/DX2                !
 ! R16   R(15,17)                1.335          estimate D2E/DX2                !
 ! R17   R(17,18)                1.01           estimate D2E/DX2                !
 ! R18   R(17,19)                1.4491         estimate D2E/DX2                !
 ! R19   R(19,20)                1.09           estimate D2E/DX2                !
 ! R20   R(19,21)                1.09           estimate D2E/DX2                !
 ! R21   R(19,22)                1.0899         estimate D2E/DX2                !
 ! A1    A(1,2,3)              109.493          estimate D2E/DX2                !
 ! A2    A(1,2,4)              109.5017         estimate D2E/DX2                !
 ! A3    A(1,2,5)              111.0973         estimate D2E/DX2                !
 ! A4    A(3,2,4)              109.4436         estimate D2E/DX2                !
 ! A5    A(3,2,5)              108.6398         estimate D2E/DX2                !
 ! A6    A(4,2,5)              108.6387         estimate D2E/DX2                !
 ! A7    A(2,5,6)              120.5054         estimate D2E/DX2                !
 ! A8    A(2,5,7)              116.5979         estimate D2E/DX2                !
 ! A9    A(6,5,7)              122.8967         estimate D2E/DX2                !
 ! A10   A(5,7,8)              119.9959         estimate D2E/DX2                !
 ! A11   A(5,7,9)              121.9004         estimate D2E/DX2                !
 ! A12   A(8,7,9)              118.1037         estimate D2E/DX2                !
 ! A13   A(7,9,10)             109.5            estimate D2E/DX2                !
 ! A14   A(7,9,11)             111.0992         estimate D2E/DX2                !
 ! A15   A(7,9,15)             111.0966         estimate D2E/DX2                !
 ! A16   A(10,9,11)            108.6382         estimate D2E/DX2                !
 ! A17   A(10,9,15)            108.6373         estimate D2E/DX2                !
 ! A18   A(11,9,15)            107.7947         estimate D2E/DX2                !
 ! A19   A(9,11,12)            109.5007         estimate D2E/DX2                !
 ! A20   A(9,11,13)            109.4959         estimate D2E/DX2                !
 ! A21   A(9,11,14)            109.4978         estimate D2E/DX2                !
 ! A22   A(12,11,13)           109.441          estimate D2E/DX2                !
 ! A23   A(12,11,14)           109.4482         estimate D2E/DX2                !
 ! A24   A(13,11,14)           109.4436         estimate D2E/DX2                !
 ! A25   A(9,15,16)            120.501          estimate D2E/DX2                !
 ! A26   A(9,15,17)            116.5998         estimate D2E/DX2                !
 ! A27   A(16,15,17)           122.8992         estimate D2E/DX2                !
 ! A28   A(15,17,18)           120.001          estimate D2E/DX2                !
 ! A29   A(15,17,19)           121.9017         estimate D2E/DX2                !
 ! A30   A(18,17,19)           118.0973         estimate D2E/DX2                !
 ! A31   A(17,19,20)           109.4951         estimate D2E/DX2                !
 ! A32   A(17,19,21)           109.5019         estimate D2E/DX2                !
 ! A33   A(17,19,22)           109.497          estimate D2E/DX2                !
 ! A34   A(20,19,21)           109.443          estimate D2E/DX2                !
 ! A35   A(20,19,22)           109.4435         estimate D2E/DX2                !
 ! A36   A(21,19,22)           109.4467         estimate D2E/DX2                !
 ! D1    D(1,2,5,6)              0.0038         estimate D2E/DX2                !
 ! D2    D(1,2,5,7)           -179.9948         estimate D2E/DX2                !
 ! D3    D(3,2,5,6)            120.5082         estimate D2E/DX2                !
 ! D4    D(3,2,5,7)            -59.4904         estimate D2E/DX2                !
 ! D5    D(4,2,5,6)           -120.5106         estimate D2E/DX2                !
 ! D6    D(4,2,5,7)             59.4908         estimate D2E/DX2                !
 ! D7    D(2,5,7,8)             -0.0007         estimate D2E/DX2                !
 ! D8    D(2,5,7,9)           -179.9954         estimate D2E/DX2                !
 ! D9    D(6,5,7,8)           -179.9993         estimate D2E/DX2                !
 ! D10   D(6,5,7,9)              0.006          estimate D2E/DX2                !
 ! D11   D(5,7,9,10)            14.996          estimate D2E/DX2                !
 ! D12   D(5,7,9,11)           134.9986         estimate D2E/DX2                !
 ! D13   D(5,7,9,15)          -105.0038         Frozen                          !
 ! D14   D(8,7,9,10)          -164.9988         estimate D2E/DX2                !
 ! D15   D(8,7,9,11)           -44.9962         estimate D2E/DX2                !
 ! D16   D(8,7,9,15)            75.0013         estimate D2E/DX2                !
 ! D17   D(7,9,11,12)           60.0024         estimate D2E/DX2                !
 ! D18   D(7,9,11,13)          179.9986         estimate D2E/DX2                !
 ! D19   D(7,9,11,14)          -60.0038         estimate D2E/DX2                !
 ! D20   D(10,9,11,12)        -179.4843         estimate D2E/DX2                !
 ! D21   D(10,9,11,13)         -59.4881         estimate D2E/DX2                !
 ! D22   D(10,9,11,14)          60.5095         estimate D2E/DX2                !
 ! D23   D(15,9,11,12)         -61.938          estimate D2E/DX2                !
 ! D24   D(15,9,11,13)          58.0582         estimate D2E/DX2                !
 ! D25   D(15,9,11,14)         178.0558         estimate D2E/DX2                !
 ! D26   D(7,9,15,16)          -90.0012         estimate D2E/DX2                !
 ! D27   D(7,9,15,17)           90.0009         Frozen                          !
 ! D28   D(10,9,15,16)         149.4877         estimate D2E/DX2                !
 ! D29   D(10,9,15,17)         -30.5102         estimate D2E/DX2                !
 ! D30   D(11,9,15,16)          31.9408         estimate D2E/DX2                !
 ! D31   D(11,9,15,17)        -148.0571         estimate D2E/DX2                !
 ! D32   D(9,15,17,18)          -0.0048         estimate D2E/DX2                !
 ! D33   D(9,15,17,19)        -179.9994         estimate D2E/DX2                !
 ! D34   D(16,15,17,18)        179.9974         estimate D2E/DX2                !
 ! D35   D(16,15,17,19)          0.0028         estimate D2E/DX2                !
 ! D36   D(15,17,19,20)         -0.0031         estimate D2E/DX2                !
 ! D37   D(15,17,19,21)        119.9958         estimate D2E/DX2                !
 ! D38   D(15,17,19,22)       -119.9997         estimate D2E/DX2                !
 ! D39   D(18,17,19,20)       -179.9978         estimate D2E/DX2                !
 ! D40   D(18,17,19,21)        -59.9989         estimate D2E/DX2                !
 ! D41   D(18,17,19,22)         60.0057         estimate D2E/DX2                !
 --------------------------------------------------------------------------------
 Trust Radius=3.00D-01 FncErr=1.00D-07 GrdErr=1.00D-07
 Number of steps in this run= 108 maximum allowed number of steps= 132.
 GradGradGradGradGradGradGradGradGradGradGradGradGradGradGradGradGradGrad

                          Input orientation:                          
 ---------------------------------------------------------------------
 Center     Atomic      Atomic             Coordinates (Angstroms)
 Number     Number       Type             X           Y           Z
 ---------------------------------------------------------------------
      1          1           0        1.351300    2.306800    1.901300
      2          6           0        1.673100    2.748600    0.958200
      3          1           0        0.959800    3.514300    0.653100
      4          1           0        1.724200    1.974600    0.192500
      5          6           0        3.053900    3.393200    1.094800
      6          8           0        3.650600    3.368100    2.168900
      7          7           0        3.555400    3.969700    0.000000
      8          1           0        3.026700    3.964700   -0.860600
      9          6           0        4.853300    4.613900    0.000000
     10          1           0        5.407600    4.315500    0.889800
     11          6           0        5.661300    4.220800   -1.232200
     12          1           0        5.123300    4.521400   -2.131200
     13          1           0        6.630500    4.718900   -1.205800
     14          1           0        5.808500    3.140900   -1.241400
     15          6           0        4.712700    6.129400    0.000000
     16          8           0        4.655100    6.750500   -1.058900
     17          7           0        4.657500    6.724600    1.193700
     18          1           0        4.708800    6.171000    2.036900
     19          6           0        4.524200    8.161300    1.327600
     20          1           0        4.482000    8.616500    0.338100
     21          1           0        3.609100    8.392600    1.872700
     22          1           0        5.381100    8.556900    1.872700
 ---------------------------------------------------------------------
                    Distance matrix (angstroms):
                    1          2          3          4          5
     1  H    0.000000
     2  C    1.090037   0.000000
     3  H    1.780262   1.090036   0.000000
     4  H    1.780283   1.089947   1.779645   0.000000
     5  C    2.174754   1.529960   2.143600   2.143519   0.000000
     6  O    2.546517   2.400017   3.091833   3.091766   1.228972
     7  N    3.352348   2.439731   2.714971   2.714917   1.335081
     8  H    3.630935   2.572774   2.601197   2.601158   2.037386
     9  C    4.604526   3.809352   4.098171   4.098076   2.434448
    10  H    4.638058   4.050475   4.525580   4.419669   2.536250
    11  C    5.662007   4.782360   5.114450   4.751415   3.591432
    12  H    5.949243   4.958941   5.108944   4.841452   3.995288
    13  H    6.583483   5.756804   6.087972   5.792944   4.454471
    14  H    5.517148   4.700391   5.219047   4.483060   3.620678
    15  C    5.433804   4.646195   4.620557   5.121577   3.381863
    16  O    6.278881   5.382956   5.201844   5.741550   4.298108
    17  N    5.563148   4.977015   4.926587   5.671785   3.698586
    18  H    5.120863   4.700201   4.798745   5.469865   3.367851
    19  C    6.683681   6.128829   5.895295   6.885035   4.995073
    20  H    7.215067   6.535036   6.207863   7.193156   5.467625
    21  H    6.491182   6.036484   5.683663   6.896858   5.089929
    22  H    7.436656   6.951397   6.816387   7.715093   5.717061
                    6          7          8          9         10
     6  O    0.000000
     7  N    2.252801   0.000000
     8  H    3.150088   1.010040   0.000000
     9  C    2.775362   1.448978   2.120981   0.000000
    10  H    2.370804   2.083739   2.975844   1.089970   0.000000
    11  C    4.041966   2.452791   2.672974   1.525027   2.139209
    12  H    4.689329   2.702720   2.513975   2.150225   3.041326
    13  H    4.700326   3.386959   3.698020   2.150214   2.459625
    14  H    4.042066   2.702673   2.926101   2.150165   2.466256
    15  C    3.668373   2.450234   2.875614   1.522008   2.136554
    16  O    4.782086   3.172295   3.232908   2.392825   3.208257
    17  N    3.637438   3.198284   3.807454   2.432758   2.541411
    18  H    2.998910   3.213256   4.011574   2.567957   2.290642
    19  C    4.944262   4.502289   4.964089   3.801957   3.970169
    20  H    5.620388   4.750332   5.019365   4.033978   4.433927
    21  H    5.033394   4.803325   5.236069   4.397000   4.563271
    22  H    5.477774   5.280397   5.839729   4.396911   4.353880
                   11         12         13         14         15
    11  C    0.000000
    12  H    1.089957   0.000000
    13  H    1.090023   1.779613   0.000000
    14  H    1.089925   1.779613   1.779617   0.000000
    15  C    2.461892   2.701161   2.668599   3.416575   0.000000
    16  O    2.727976   2.517524   2.837461   3.793791   1.228964
    17  N    3.627895   4.015722   3.697724   4.483014   1.335002
    18  H    3.923971   4.501783   4.039385   4.597619   2.037328
    19  C    4.834575   5.056787   4.764948   5.783909   2.434476
    20  H    4.814433   4.824785   4.710729   5.851207   2.520556
    21  H    5.590693   5.771499   5.665871   6.489633   3.137995
    22  H    5.340476   5.690601   5.076259   6.262056   3.137917
                   16         17         18         19         20
    16  O    0.000000
    17  N    2.252750   0.000000
    18  H    3.150029   1.009995   0.000000
    19  C    2.775405   1.449070   2.120962   0.000000
    20  H    2.337419   2.083780   2.986274   1.089999   0.000000
    21  H    3.519217   2.083844   2.484312   1.089973   1.779630
    22  H    3.519153   2.083737   2.484244   1.089913   1.779587
                   21         22
    21  H    0.000000
    22  H    1.779601   0.000000
 Stoichiometry    C6H12N2O2
 Framework group  C1[X(C6H12N2O2)]
 Deg. of freedom    60
 Full point group                 C1      NOp   1
 Largest Abelian subgroup         C1      NOp   1
 Largest concise Abelian subgroup C1      NOp   1
                         Standard orientation:                         
 ---------------------------------------------------------------------
 Center     Atomic      Atomic             Coordinates (Angstroms)
 Number     Number       Type             X           Y           Z
 ---------------------------------------------------------------------
      1          1           0       -3.827948   -1.464294    0.445568
      2          6           0       -3.163207   -0.712015    0.870275
      3          1           0       -2.766272   -1.071679    1.819624
      4          1           0       -3.717540    0.211790    1.035450
      5          6           0       -1.992194   -0.418226   -0.069509
      6          8           0       -1.894185   -1.003200   -1.145878
      7          7           0       -1.106831    0.491112    0.344833
      8          1           0       -1.230279    0.945526    1.238393
      9          6           0        0.045394    0.857356   -0.453780
     10          1           0       -0.091398    0.500973   -1.474718
     11          6           0        0.231991    2.370567   -0.486663
     12          1           0        0.379325    2.741131    0.527724
     13          1           0        1.103808    2.616510   -1.092960
     14          1           0       -0.653446    2.836997   -0.918380
     15          6           0        1.319447    0.243709    0.109010
     16          8           0        1.987737    0.849590    0.943666
     17          7           0        1.655096   -0.963793   -0.350890
     18          1           0        1.073303   -1.422377   -1.037409
     19          6           0        2.844421   -1.653953    0.106266
     20          1           0        3.363667   -1.037084    0.839719
     21          1           0        2.561699   -2.601724    0.564348
     22          1           0        3.503697   -1.842746   -0.740860
 ---------------------------------------------------------------------
 Rotational constants (GHZ):      1.8813383      0.8415417      0.6859996
 Standard basis: 6-31G(d) (6D, 7F)
 There are   174 symmetry adapted basis functions of A   symmetry.
 Integral buffers will be    131072 words long.
 Raffenetti 1 integral format.
 Two-electron integral symmetry is turned on.
   174 basis functions,   328 primitive gaussians,   174 cartesian basis functions
    39 alpha electrons       39 beta electrons
       nuclear repulsion energy       557.1430175799 Hartrees.
 NAtoms=   22 NActive=   22 NUniq=   22 SFac= 7.50D-01 NAtFMM=   80 NAOKFM=F Big=F
 One-electron integrals computed using PRISM.
 NBasis=   174 RedAO= T  NBF=   174
 NBsUse=   174 1.00D-06 NBFU=   174
 Harris functional with IExCor=  205 diagonalized for initial guess.
 ExpMin= 1.61D-01 ExpMax= 5.48D+03 ExpMxC= 8.25D+02 IAcc=1 IRadAn=         1 AccDes= 0.00D+00
 HarFok:  IExCor=  205 AccDes= 0.00D+00 IRadAn=         1 IDoV= 1
 ScaDFX=  1.000000  1.000000  1.000000  1.000000
 FoFCou: FMM=F IPFlag=           0 FMFlag=      100000 FMFlg1=           0
         NFxFlg=           0 DoJE=T BraDBF=F KetDBF=T FulRan=T
         Omega=  0.000000  0.000000  1.000000  0.000000  0.000000 ICntrl=     500 IOpCl=  0
         NMat0=    1 NMatS0=    1 NMatT0=    0 NMatD0=    1 NMtDS0=    0 NMtDT0=    0
         I1Cent=           4 NGrid=           0.
 Petite list used in FoFCou.
 Initial guess orbital symmetries:
       Occupied  (A) (A) (A) (A) (A) (A) (A) (A) (A) (A) (A) (A)
                 (A) (A) (A) (A) (A) (A) (A) (A) (A) (A) (A) (A)
                 (A) (A) (A) (A) (A) (A) (A) (A) (A) (A) (A) (A)
                 (A) (A) (A)
       Virtual   (A) (A) (A) (A) (A) (A) (A) (A) (A) (A) (A) (A)
                 (A) (A) (A) (A) (A) (A) (A) (A) (A) (A) (A) (A)
                 (A) (A) (A) (A) (A) (A) (A) (A) (A) (A) (A) (A)
                 (A) (A) (A) (A) (A) (A) (A) (A) (A) (A) (A) (A)
                 (A) (A) (A) (A) (A) (A) (A) (A) (A) (A) (A) (A)
                 (A) (A) (A) (A) (A) (A) (A) (A) (A) (A) (A) (A)
                 (A) (A) (A) (A) (A) (A) (A) (A) (A) (A) (A) (A)
                 (A) (A) (A) (A) (A) (A) (A) (A) (A) (A) (A) (A)
                 (A) (A) (A) (A) (A) (A) (A) (A) (A) (A) (A) (A)
                 (A) (A) (A) (A) (A) (A) (A) (A) (A) (A) (A) (A)
                 (A) (A) (A) (A) (A) (A) (A) (A) (A) (A) (A) (A)
                 (A) (A) (A)
 The electronic state of the initial guess is 1-A.
 Requested convergence on RMS density matrix=1.00D-08 within 128 cycles.
 Requested convergence on MAX density matrix=1.00D-06.
 Requested convergence on             energy=1.00D-06.
 No special actions if energy rises.
 Integral accuracy reduced to 1.0D-05 until final iterations.
 Initial convergence to 1.0D-05 achieved.  Increase integral accuracy.
 SCF Done:  E(RHF) =  -492.852502690     A.U. after   15 cycles
             Convg  =    0.5212D-08             -V/T =  2.0021

 **********************************************************************

            Population analysis using the SCF density.

 **********************************************************************

 Orbital symmetries:
       Occupied  (A) (A) (A) (A) (A) (A) (A) (A) (A) (A) (A) (A)
                 (A) (A) (A) (A) (A) (A) (A) (A) (A) (A) (A) (A)
                 (A) (A) (A) (A) (A) (A) (A) (A) (A) (A) (A) (A)
                 (A) (A) (A)
       Virtual   (A) (A) (A) (A) (A) (A) (A) (A) (A) (A) (A) (A)
                 (A) (A) (A) (A) (A) (A) (A) (A) (A) (A) (A) (A)
                 (A) (A) (A) (A) (A) (A) (A) (A) (A) (A) (A) (A)
                 (A) (A) (A) (A) (A) (A) (A) (A) (A) (A) (A) (A)
                 (A) (A) (A) (A) (A) (A) (A) (A) (A) (A) (A) (A)
                 (A) (A) (A) (A) (A) (A) (A) (A) (A) (A) (A) (A)
                 (A) (A) (A) (A) (A) (A) (A) (A) (A) (A) (A) (A)
                 (A) (A) (A) (A) (A) (A) (A) (A) (A) (A) (A) (A)
                 (A) (A) (A) (A) (A) (A) (A) (A) (A) (A) (A) (A)
                 (A) (A) (A) (A) (A) (A) (A) (A) (A) (A) (A) (A)
                 (A) (A) (A) (A) (A) (A) (A) (A) (A) (A) (A) (A)
                 (A) (A) (A)
 The electronic state is 1-A.
 Alpha  occ. eigenvalues --  -20.52421 -20.51632 -15.60233 -15.59053 -11.35767
 Alpha  occ. eigenvalues --  -11.34332 -11.28053 -11.25760 -11.24208 -11.22169
 Alpha  occ. eigenvalues --   -1.38298  -1.37246  -1.24888  -1.23042  -1.05933
 Alpha  occ. eigenvalues --   -0.99295  -0.96195  -0.87223  -0.80944  -0.78811
 Alpha  occ. eigenvalues --   -0.73176  -0.67232  -0.66605  -0.64155  -0.62220
 Alpha  occ. eigenvalues --   -0.61937  -0.59576  -0.58348  -0.57221  -0.55795
 Alpha  occ. eigenvalues --   -0.54691  -0.53467  -0.51961  -0.51014  -0.50817
 Alpha  occ. eigenvalues --   -0.43170  -0.41952  -0.38613  -0.38538
 Alpha virt. eigenvalues --    0.18427   0.20826   0.22044   0.23341   0.26115
 Alpha virt. eigenvalues --    0.26973   0.28002   0.29763   0.31155   0.31928
 Alpha virt. eigenvalues --    0.32440   0.32859   0.33282   0.34304   0.36780
 Alpha virt. eigenvalues --    0.39358   0.40637   0.44298   0.45360   0.48860
 Alpha virt. eigenvalues --    0.52585   0.56429   0.62180   0.70519   0.72528
 Alpha virt. eigenvalues --    0.73226   0.74466   0.76519   0.77236   0.78793
 Alpha virt. eigenvalues --    0.80749   0.82264   0.83135   0.86267   0.89173
 Alpha virt. eigenvalues --    0.90466   0.94242   0.95688   0.97947   0.99001
 Alpha virt. eigenvalues --    1.00430   1.02083   1.03751   1.06656   1.08212
 Alpha virt. eigenvalues --    1.09524   1.10611   1.13404   1.14654   1.15380
 Alpha virt. eigenvalues --    1.16702   1.17235   1.17830   1.18205   1.19325
 Alpha virt. eigenvalues --    1.20605   1.21460   1.22296   1.24033   1.26342
 Alpha virt. eigenvalues --    1.32308   1.32978   1.36970   1.37360   1.43985
 Alpha virt. eigenvalues --    1.46619   1.49501   1.53428   1.58632   1.62216
 Alpha virt. eigenvalues --    1.63563   1.66023   1.68700   1.73010   1.77685
 Alpha virt. eigenvalues --    1.78409   1.81267   1.85676   1.89975   1.96416
 Alpha virt. eigenvalues --    2.00065   2.03205   2.08895   2.10556   2.11971
 Alpha virt. eigenvalues --    2.15013   2.16416   2.17027   2.19107   2.24469
 Alpha virt. eigenvalues --    2.25782   2.26655   2.27260   2.32426   2.34473
 Alpha virt. eigenvalues --    2.37762   2.39355   2.41883   2.47424   2.48556
 Alpha virt. eigenvalues --    2.52440   2.54086   2.57869   2.62828   2.63346
 Alpha virt. eigenvalues --    2.63799   2.67367   2.69719   2.71915   2.72959
 Alpha virt. eigenvalues --    2.75672   2.81550   2.87272   2.95435   2.98120
 Alpha virt. eigenvalues --    2.98939   3.03313   3.10602   3.14549   3.27536
 Alpha virt. eigenvalues --    3.28144   3.34467   3.38333   3.54249   3.55475
 Alpha virt. eigenvalues --    4.39378   4.42812   4.46612   4.58265   4.62259
 Alpha virt. eigenvalues --    4.66612   4.71418   4.83773   4.89088   5.05878
          Condensed to atoms (all electrons):
              1          2          3          4          5          6
     1  H    0.453271   0.385525  -0.018428  -0.018306  -0.030082   0.003522
     2  C    0.385525   5.255753   0.374505   0.373712   0.374592  -0.069687
     3  H   -0.018428   0.374505   0.509601  -0.023710  -0.034671   0.001259
     4  H   -0.018306   0.373712  -0.023710   0.511322  -0.034362   0.001328
     5  C   -0.030082   0.374592  -0.034671  -0.034362   4.178107   0.596057
     6  O    0.003522  -0.069687   0.001259   0.001328   0.596057   8.199665
     7  N    0.003762  -0.120219   0.003443   0.003421   0.246071  -0.105162
     8  H   -0.000010  -0.000779   0.000540   0.000589  -0.018053   0.002156
     9  C   -0.000077   0.004509  -0.000231  -0.000222  -0.022751   0.002509
    10  H   -0.000003   0.000422  -0.000011  -0.000025  -0.000953   0.007674
    11  C    0.000001  -0.000077  -0.000005   0.000012   0.002436   0.000443
    12  H    0.000000  -0.000008   0.000000   0.000002  -0.000097  -0.000012
    13  H    0.000000   0.000002   0.000000   0.000000  -0.000040  -0.000002
    14  H    0.000000  -0.000019   0.000000   0.000001   0.000032   0.000020
    15  C    0.000001  -0.000111   0.000030  -0.000003  -0.001868  -0.000224
    16  O    0.000000  -0.000001   0.000000   0.000000   0.000029  -0.000002
    17  N    0.000000  -0.000010   0.000005   0.000000   0.001540  -0.000964
    18  H   -0.000001   0.000062  -0.000010   0.000000   0.000681   0.004190
    19  C    0.000000   0.000000   0.000000   0.000000  -0.000027   0.000008
    20  H    0.000000   0.000000   0.000000   0.000000  -0.000001   0.000000
    21  H    0.000000   0.000000   0.000000   0.000000  -0.000004   0.000000
    22  H    0.000000   0.000000   0.000000   0.000000   0.000001   0.000000
              7          8          9         10         11         12
     1  H    0.003762  -0.000010  -0.000077  -0.000003   0.000001   0.000000
     2  C   -0.120219  -0.000779   0.004509   0.000422  -0.000077  -0.000008
     3  H    0.003443   0.000540  -0.000231  -0.000011  -0.000005   0.000000
     4  H    0.003421   0.000589  -0.000222  -0.000025   0.000012   0.000002
     5  C    0.246071  -0.018053  -0.022751  -0.000953   0.002436  -0.000097
     6  O   -0.105162   0.002156   0.002509   0.007674   0.000443  -0.000012
     7  N    7.390075   0.321560   0.186977  -0.033767  -0.063024  -0.002694
     8  H    0.321560   0.312072  -0.022186   0.002594  -0.001731   0.002907
     9  C    0.186977  -0.022186   5.114423   0.402180   0.353107  -0.032061
    10  H   -0.033767   0.002594   0.402180   0.458872  -0.033017   0.003670
    11  C   -0.063024  -0.001731   0.353107  -0.033017   5.108846   0.387543
    12  H   -0.002694   0.002907  -0.032061   0.003670   0.387543   0.499605
    13  H    0.004092  -0.000030  -0.037169  -0.001530   0.393129  -0.019296
    14  H    0.000222  -0.000029  -0.042845  -0.003839   0.388533  -0.027543
    15  C   -0.058113  -0.000169   0.345158  -0.047597  -0.063186  -0.007430
    16  O    0.001054   0.001114  -0.083568   0.002236   0.000147   0.006177
    17  N    0.002865  -0.000033  -0.106107   0.005472   0.002943   0.000257
    18  H   -0.000992  -0.000013   0.000442   0.001002   0.000054  -0.000012
    19  C   -0.000204   0.000004   0.004488  -0.000136  -0.000130  -0.000002
    20  H   -0.000021  -0.000001   0.000596  -0.000025  -0.000012  -0.000004
    21  H    0.000032   0.000000  -0.000112   0.000004  -0.000001   0.000000
    22  H   -0.000003   0.000000  -0.000095  -0.000020   0.000009   0.000000
             13         14         15         16         17         18
     1  H    0.000000   0.000000   0.000001   0.000000   0.000000  -0.000001
     2  C    0.000002  -0.000019  -0.000111  -0.000001  -0.000010   0.000062
     3  H    0.000000   0.000000   0.000030   0.000000   0.000005  -0.000010
     4  H    0.000000   0.000001  -0.000003   0.000000   0.000000   0.000000
     5  C   -0.000040   0.000032  -0.001868   0.000029   0.001540   0.000681
     6  O   -0.000002   0.000020  -0.000224  -0.000002  -0.000964   0.004190
     7  N    0.004092   0.000222  -0.058113   0.001054   0.002865  -0.000992
     8  H   -0.000030  -0.000029  -0.000169   0.001114  -0.000033  -0.000013
     9  C   -0.037169  -0.042845   0.345158  -0.083568  -0.106107   0.000442
    10  H   -0.001530  -0.003839  -0.047597   0.002236   0.005472   0.001002
    11  C    0.393129   0.388533  -0.063186   0.000147   0.002943   0.000054
    12  H   -0.019296  -0.027543  -0.007430   0.006177   0.000257  -0.000012
    13  H    0.506524  -0.023257  -0.000974  -0.000519   0.000003   0.000008
    14  H   -0.023257   0.533937   0.006133   0.000403  -0.000065  -0.000006
    15  C   -0.000974   0.006133   4.197307   0.583278   0.304546  -0.016736
    16  O   -0.000519   0.000403   0.583278   8.229893  -0.098019   0.002174
    17  N    0.000003  -0.000065   0.304546  -0.098019   7.300839   0.317938
    18  H    0.000008  -0.000006  -0.016736   0.002174   0.317938   0.305589
    19  C   -0.000006   0.000002  -0.028967  -0.004886   0.190182  -0.020847
    20  H   -0.000001   0.000000  -0.001706   0.010584  -0.032243   0.002203
    21  H    0.000000   0.000000   0.001066   0.000355  -0.047764  -0.001024
    22  H    0.000000   0.000000   0.000894   0.000408  -0.047394  -0.001031
             19         20         21         22
     1  H    0.000000   0.000000   0.000000   0.000000
     2  C    0.000000   0.000000   0.000000   0.000000
     3  H    0.000000   0.000000   0.000000   0.000000
     4  H    0.000000   0.000000   0.000000   0.000000
     5  C   -0.000027  -0.000001  -0.000004   0.000001
     6  O    0.000008   0.000000   0.000000   0.000000
     7  N   -0.000204  -0.000021   0.000032  -0.000003
     8  H    0.000004  -0.000001   0.000000   0.000000
     9  C    0.004488   0.000596  -0.000112  -0.000095
    10  H   -0.000136  -0.000025   0.000004  -0.000020
    11  C   -0.000130  -0.000012  -0.000001   0.000009
    12  H   -0.000002  -0.000004   0.000000   0.000000
    13  H   -0.000006  -0.000001   0.000000   0.000000
    14  H    0.000002   0.000000   0.000000   0.000000
    15  C   -0.028967  -0.001706   0.001066   0.000894
    16  O   -0.004886   0.010584   0.000355   0.000408
    17  N    0.190182  -0.032243  -0.047764  -0.047394
    18  H   -0.020847   0.002203  -0.001024  -0.001031
    19  C    4.952351   0.396395   0.402467   0.402361
    20  H    0.396395   0.435885  -0.022801  -0.022689
    21  H    0.402467  -0.022801   0.532998  -0.036241
    22  H    0.402361  -0.022689  -0.036241   0.533243
 Mulliken atomic charges:
              1
     1  H    0.220823
     2  C   -0.578172
     3  H    0.187682
     4  H    0.186242
     5  C    0.743363
     6  O   -0.642777
     7  N   -0.779377
     8  H    0.399500
     9  C   -0.066965
    10  H    0.236795
    11  C   -0.476020
    12  H    0.188999
    13  H    0.179067
    14  H    0.168318
    15  C    0.788671
    16  O   -0.650858
    17  N   -0.793992
    18  H    0.406329
    19  C   -0.293055
    20  H    0.233842
    21  H    0.171026
    22  H    0.170556
 Sum of Mulliken atomic charges =   0.00000
 Mulliken charges with hydrogens summed into heavy atoms:
              1
     2  C    0.016576
     5  C    0.743363
     6  O   -0.642777
     7  N   -0.379877
     9  C    0.169831
    11  C    0.060364
    15  C    0.788671
    16  O   -0.650858
    17  N   -0.387663
    19  C    0.282369
 Sum of Mulliken charges with hydrogens summed into heavy atoms =   0.00000
 Electronic spatial extent (au):  <R**2>=           1789.3270
 Charge=              0.0000 electrons
 Dipole moment (field-independent basis, Debye):
    X=             -1.1876    Y=             -0.3815    Z=              0.7899  Tot=              1.4764
 Quadrupole moment (field-independent basis, Debye-Ang):
   XX=            -60.4612   YY=            -59.5366   ZZ=            -62.4197
   XY=             -9.3527   XZ=            -12.0187   YZ=             -3.6327
 Traceless Quadrupole moment (field-independent basis, Debye-Ang):
   XX=              0.3447   YY=              1.2692   ZZ=             -1.6139
   XY=             -9.3527   XZ=            -12.0187   YZ=             -3.6327
 Octapole moment (field-independent basis, Debye-Ang**2):
  XXX=            -11.7693  YYY=             -5.8258  ZZZ=              2.4775  XYY=              4.3897
  XXY=            -13.8255  XXZ=              6.7096  XZZ=              1.6112  YZZ=              1.4821
  YYZ=              0.8159  XYZ=              0.7694
 Hexadecapole moment (field-independent basis, Debye-Ang**3):
 XXXX=          -1394.9342 YYYY=           -626.9011 ZZZZ=           -229.8486 XXXY=            -32.5021
 XXXZ=            -29.9219 YYYX=             -9.2001 YYYZ=              6.3602 ZZZX=             -9.5223
 ZZZY=              5.6880 XXYY=           -341.4860 XXZZ=           -299.9287 YYZZ=           -140.9214
 XXYZ=            -19.4445 YYXZ=            -12.6016 ZZXY=            -14.1181
 N-N= 5.571430175799D+02 E-N=-2.269511235290D+03  KE= 4.918399700724D+02
 Calling FoFJK, ICntrl=      2127 FMM=F ISym2X=0 I1Cent= 0 IOpClX= 0 NMat=1 NMatS=1 NMatT=0.
 ***** Axes restored to original set *****
 -------------------------------------------------------------------
 Center     Atomic                   Forces (Hartrees/Bohr)
 Number     Number              X              Y              Z
 -------------------------------------------------------------------
      1        1           0.006037719    0.004629993   -0.005739183
      2        6           0.007594284    0.004328430   -0.004174208
      3        1          -0.000224215   -0.005026019   -0.000592905
      4        1          -0.004284818    0.002447760    0.001667067
      5        6           0.001518571   -0.015080409    0.054873754
      6        8          -0.016752577    0.004673018   -0.035174199
      7        7          -0.000137957    0.004717643   -0.014547614
      8        1           0.007459669    0.001175840    0.012071517
      9        6           0.016569391    0.000820944   -0.004091029
     10        1          -0.010898283   -0.002195542   -0.004366092
     11        6          -0.002653848   -0.005853609   -0.001384761
     12        1           0.006768377   -0.001159904    0.002958158
     13        1          -0.004453562   -0.003056528   -0.003514150
     14        1           0.000955170    0.003853551   -0.000726253
     15        6          -0.006081778    0.021370426   -0.035381593
     16        8          -0.000372701   -0.019274413    0.032366894
     17        7           0.001609721   -0.001475390    0.012146773
     18        1          -0.001927879    0.004888721   -0.013350084
     19        6          -0.001053342    0.002885545    0.002165109
     20        1           0.000577606   -0.005783894    0.008504146
     21        1           0.004197464    0.002032334   -0.001851712
     22        1          -0.004447014    0.001081505   -0.001859635
 -------------------------------------------------------------------
 Cartesian Forces:  Max     0.054873754 RMS     0.012147453

 GradGradGradGradGradGradGradGradGradGradGradGradGradGradGradGradGradGrad
 Berny optimization.
 Internal  Forces:  Max     0.038970920 RMS     0.007251610
 Search for a local minimum.
 Step number   1 out of a maximum of  108
 All quantities printed in internal units (Hartrees-Bohrs-Radians)
 Mixed Optimization -- RFO/linear search
 Second derivative matrix not updated -- first step.
     Eigenvalues ---    0.00370   0.00435   0.00999   0.01043   0.01269
     Eigenvalues ---    0.01422   0.01660   0.02551   0.02552   0.03503
     Eigenvalues ---    0.05232   0.05841   0.05844   0.05844   0.07166
     Eigenvalues ---    0.07464   0.07685   0.07686   0.15421   0.16000
     Eigenvalues ---    0.16000   0.16000   0.16000   0.16000   0.16000
     Eigenvalues ---    0.16000   0.16000   0.16000   0.16000   0.16000
     Eigenvalues ---    0.16180   0.22000   0.22000   0.25000   0.25000
     Eigenvalues ---    0.25000   0.25000   0.29427   0.29887   0.30174
     Eigenvalues ---    0.34808   0.34808   0.34810   0.34813   0.34816
     Eigenvalues ---    0.34816   0.34818   0.34819   0.34821   0.34823
     Eigenvalues ---    0.38367   0.38379   0.45966   0.45973   0.58322
     Eigenvalues ---    0.58340   0.91516   0.915191000.000001000.00000
     Eigenvalues --- 1000.000001000.000001000.000001000.000001000.00000
     Eigenvalues --- 1000.000001000.000001000.000001000.000001000.00000
     Eigenvalues --- 1000.000001000.000001000.000001000.000001000.00000
     Eigenvalues --- 1000.000001000.000001000.000001000.000001000.00000
     Eigenvalues --- 1000.000001000.000001000.000001000.000001000.00000
     Eigenvalues --- 1000.000001000.000001000.000001000.000001000.00000
     Eigenvalues --- 1000.000001000.000001000.000001000.000001000.00000
     Eigenvalues --- 1000.000001000.000001000.00000
 RFO step:  Lambda=-1.22082740D-02 EMin= 3.69635118D-03
 Linear search not attempted -- first point.
 Iteration  1 RMS(Cart)=  0.07165276 RMS(Int)=  0.00169924
 Iteration  2 RMS(Cart)=  0.00270776 RMS(Int)=  0.00042654
 Iteration  3 RMS(Cart)=  0.00000347 RMS(Int)=  0.00042653
 Iteration  4 RMS(Cart)=  0.00000000 RMS(Int)=  0.00042653
 Iteration  1 RMS(Cart)=  0.00018407 RMS(Int)=  0.00005125
 Iteration  2 RMS(Cart)=  0.00009954 RMS(Int)=  0.00005704
 Iteration  3 RMS(Cart)=  0.00005455 RMS(Int)=  0.00006472
 Iteration  4 RMS(Cart)=  0.00003046 RMS(Int)=  0.00007029
 Iteration  5 RMS(Cart)=  0.00001744 RMS(Int)=  0.00007392
 Iteration  6 RMS(Cart)=  0.00001028 RMS(Int)=  0.00007624
 Iteration  7 RMS(Cart)=  0.00000625 RMS(Int)=  0.00007771
 Iteration  8 RMS(Cart)=  0.00000391 RMS(Int)=  0.00007866
 Iteration  9 RMS(Cart)=  0.00000251 RMS(Int)=  0.00007926
 Iteration 10 RMS(Cart)=  0.00000164 RMS(Int)=  0.00007966
 Iteration 11 RMS(Cart)=  0.00000108 RMS(Int)=  0.00007991
 Iteration 12 RMS(Cart)=  0.00000072 RMS(Int)=  0.00008008
 Variable       Old X    -DE/DX   Delta X   Delta X   Delta X     New X
                                 (Linear)    (Quad)   (Total)
    R1        2.05987  -0.00862   0.00000  -0.02394  -0.02394   2.03593
    R2        2.05987  -0.00322   0.00000  -0.00893  -0.00893   2.05094
    R3        2.05970  -0.00311   0.00000  -0.00863  -0.00863   2.05107
    R4        2.89121  -0.01013   0.00000  -0.03306  -0.03306   2.85814
    R5        2.32242  -0.03897   0.00000  -0.04202  -0.04202   2.28040
    R6        2.52294   0.01294   0.00000   0.02173   0.02173   2.54467
    R7        1.90870  -0.01420   0.00000  -0.03008  -0.03008   1.87861
    R8        2.73817  -0.00191   0.00000  -0.00483  -0.00483   2.73334
    R9        2.05975  -0.00851   0.00000  -0.02360  -0.02360   2.03614
   R10        2.88188   0.00408   0.00000   0.01313   0.01313   2.89501
   R11        2.87618   0.00639   0.00000   0.02036   0.02036   2.89654
   R12        2.05972  -0.00610   0.00000  -0.01693  -0.01693   2.04279
   R13        2.05984  -0.00544   0.00000  -0.01510  -0.01510   2.04474
   R14        2.05966  -0.00368   0.00000  -0.01022  -0.01022   2.04944
   R15        2.32241  -0.03761   0.00000  -0.04056  -0.04056   2.28185
   R16        2.52279   0.00681   0.00000   0.01143   0.01143   2.53422
   R17        1.90861  -0.01392   0.00000  -0.02950  -0.02950   1.87911
   R18        2.73835   0.00092   0.00000   0.00233   0.00233   2.74068
   R19        2.05980  -0.01016   0.00000  -0.02819  -0.02819   2.03161
   R20        2.05975  -0.00402   0.00000  -0.01115  -0.01115   2.04860
   R21        2.05964  -0.00403   0.00000  -0.01119  -0.01119   2.04845
    A1        1.91101   0.00056   0.00000   0.00100   0.00133   1.91234
    A2        1.91116   0.00037   0.00000   0.00017   0.00055   1.91171
    A3        1.93901  -0.00789   0.00000  -0.04792  -0.04755   1.89146
    A4        1.91015  -0.00455   0.00000  -0.02195  -0.02270   1.88745
    A5        1.89612   0.00552   0.00000   0.03299   0.03277   1.92889
    A6        1.89610   0.00602   0.00000   0.03609   0.03589   1.93199
    A7        2.10322   0.00792   0.00000   0.03020   0.03012   2.13333
    A8        2.03502  -0.00643   0.00000  -0.02451  -0.02458   2.01044
    A9        2.14495  -0.00149   0.00000  -0.00569  -0.00577   2.13919
   A10        2.09432  -0.00169   0.00000  -0.00645  -0.00656   2.08776
   A11        2.12756   0.00451   0.00000   0.01940   0.01929   2.14686
   A12        2.06130  -0.00281   0.00000  -0.01295  -0.01307   2.04823
   A13        1.91114  -0.00234   0.00000  -0.05345  -0.05347   1.85766
   A14        1.93905   0.00037   0.00000  -0.00279  -0.00197   1.93708
   A15        1.93900  -0.00774   0.00000  -0.04135  -0.04161   1.89739
   A16        1.89609  -0.00050   0.00000   0.01688   0.01528   1.91138
   A17        1.89608  -0.00011   0.00000   0.02261   0.01969   1.91577
   A18        1.88137   0.01059   0.00000   0.06154   0.06122   1.94259
   A19        1.91115   0.00453   0.00000   0.02718   0.02698   1.93812
   A20        1.91106   0.00330   0.00000   0.01625   0.01617   1.92723
   A21        1.91110   0.00083   0.00000   0.00692   0.00677   1.91786
   A22        1.91011  -0.00454   0.00000  -0.03053  -0.03067   1.87943
   A23        1.91023  -0.00181   0.00000  -0.00470  -0.00495   1.90529
   A24        1.91015  -0.00232   0.00000  -0.01517  -0.01520   1.89495
   A25        2.10314   0.00457   0.00000   0.01742   0.01733   2.12047
   A26        2.03505  -0.00932   0.00000  -0.03554  -0.03564   1.99941
   A27        2.14500   0.00475   0.00000   0.01812   0.01802   2.16302
   A28        2.09441  -0.00731   0.00000  -0.03596  -0.03606   2.05835
   A29        2.12759   0.00863   0.00000   0.03717   0.03707   2.16465
   A30        2.06119  -0.00132   0.00000  -0.00120  -0.00131   2.05988
   A31        1.91105  -0.00406   0.00000  -0.02577  -0.02562   1.88543
   A32        1.91117   0.00428   0.00000   0.02605   0.02589   1.93706
   A33        1.91108   0.00398   0.00000   0.02408   0.02392   1.93500
   A34        1.91014  -0.00056   0.00000  -0.00518  -0.00502   1.90512
   A35        1.91015  -0.00052   0.00000  -0.00546  -0.00532   1.90483
   A36        1.91021  -0.00312   0.00000  -0.01375  -0.01419   1.89602
    D1        0.00007  -0.00027   0.00000  -0.01185  -0.01196  -0.01190
    D2       -3.14150   0.00029   0.00000   0.01034   0.01042  -3.13108
    D3        2.10327  -0.00088   0.00000  -0.01893  -0.01946   2.08380
    D4       -1.03830  -0.00033   0.00000   0.00326   0.00292  -1.03538
    D5       -2.10331   0.00027   0.00000  -0.00574  -0.00539  -2.10869
    D6        1.03831   0.00082   0.00000   0.01645   0.01700   1.05531
    D7       -0.00001   0.00156   0.00000   0.01044   0.01073   0.01071
    D8       -3.14151   0.00061   0.00000   0.03939   0.03940  -3.10212
    D9       -3.14158   0.00212   0.00000   0.03321   0.03319  -3.10839
   D10        0.00011   0.00118   0.00000   0.06215   0.06186   0.06197
   D11        0.26173   0.00011   0.00000  -0.03273  -0.03183   0.22989
   D12        2.35617  -0.00180   0.00000  -0.04824  -0.04777   2.30840
   D13       -1.83266   0.00665   0.00000   0.00000   0.00000  -1.83267
   D14       -2.87977  -0.00082   0.00000  -0.00431  -0.00377  -2.88355
   D15       -0.78533  -0.00273   0.00000  -0.01982  -0.01971  -0.80505
   D16        1.30902   0.00572   0.00000   0.02842   0.02806   1.33708
   D17        1.04724   0.00084   0.00000   0.02601   0.02622   1.07346
   D18        3.14157   0.00008   0.00000   0.01522   0.01544  -3.12618
   D19       -1.04726  -0.00023   0.00000   0.01085   0.01097  -1.03629
   D20       -3.13259  -0.00215   0.00000  -0.03096  -0.03120   3.11939
   D21       -1.03826  -0.00291   0.00000  -0.04174  -0.04198  -1.08025
   D22        1.05609  -0.00322   0.00000  -0.04612  -0.04645   1.00964
   D23       -1.08102   0.00326   0.00000   0.03861   0.03872  -1.04230
   D24        1.01331   0.00250   0.00000   0.02783   0.02794   1.04125
   D25        3.10766   0.00219   0.00000   0.02345   0.02348   3.13114
   D26       -1.57082  -0.00271   0.00000   0.02484   0.02483  -1.54598
   D27        1.57081  -0.00414   0.00000   0.00000   0.00000   1.57081
   D28        2.60905   0.00505   0.00000   0.10196   0.10269   2.71174
   D29       -0.53250   0.00361   0.00000   0.07712   0.07786  -0.45465
   D30        0.55747  -0.00010   0.00000   0.03609   0.03534   0.59281
   D31       -2.58408  -0.00154   0.00000   0.01125   0.01050  -2.57358
   D32       -0.00008   0.00007   0.00000  -0.00799  -0.00782  -0.00790
   D33       -3.14158   0.00086   0.00000   0.01915   0.01901  -3.12257
   D34        3.14155  -0.00140   0.00000  -0.03348  -0.03335   3.10820
   D35        0.00005  -0.00062   0.00000  -0.00634  -0.00651  -0.00647
   D36       -0.00005  -0.00044   0.00000  -0.01422  -0.01432  -0.01437
   D37        2.09432  -0.00099   0.00000  -0.02040  -0.02074   2.07358
   D38       -2.09439   0.00025   0.00000  -0.00650  -0.00637  -2.10076
   D39       -3.14155   0.00033   0.00000   0.01243   0.01254  -3.12902
   D40       -1.04718  -0.00022   0.00000   0.00625   0.00612  -1.04106
   D41        1.04730   0.00102   0.00000   0.02015   0.02048   1.06778
         Item               Value     Threshold  Converged?
 Maximum Force            0.038971     0.000450     NO 
 RMS     Force            0.007233     0.000300     NO 
 Maximum Displacement     0.208148     0.001800     NO 
 RMS     Displacement     0.071925     0.001200     NO 
 Predicted change in Energy=-6.607802D-03
 GradGradGradGradGradGradGradGradGradGradGradGradGradGradGradGradGradGrad

                          Input orientation:                          
 ---------------------------------------------------------------------
 Center     Atomic      Atomic             Coordinates (Angstroms)
 Number     Number       Type             X           Y           Z
 ---------------------------------------------------------------------
      1          1           0        1.399667    2.395673    1.896704
      2          6           0        1.705638    2.800141    0.946171
      3          1           0        0.977124    3.531362    0.610789
      4          1           0        1.748829    2.003834    0.209910
      5          6           0        3.063339    3.444360    1.116996
      6          8           0        3.634591    3.469655    2.179652
      7          7           0        3.573525    4.009232    0.006180
      8          1           0        3.052339    3.987095   -0.840077
      9          6           0        4.879509    4.629679   -0.033612
     10          1           0        5.386445    4.331249    0.869117
     11          6           0        5.677436    4.151154   -1.250687
     12          1           0        5.178545    4.418685   -2.171606
     13          1           0        6.657864    4.608753   -1.263070
     14          1           0        5.799352    3.074217   -1.211666
     15          6           0        4.700503    6.151901   -0.048549
     16          8           0        4.576323    6.762332   -1.082965
     17          7           0        4.665230    6.720886    1.165297
     18          1           0        4.748322    6.128837    1.959887
     19          6           0        4.481323    8.141746    1.390510
     20          1           0        4.398611    8.622490    0.432468
     21          1           0        3.579924    8.330720    1.962332
     22          1           0        5.325560    8.560199    1.926418
 ---------------------------------------------------------------------
                    Distance matrix (angstroms):
                    1          2          3          4          5
     1  H    0.000000
     2  C    1.077369   0.000000
     3  H    1.766893   1.085310   0.000000
     4  H    1.766557   1.085380   1.757718   0.000000
     5  C    2.115536   1.512465   2.148512   2.150779   0.000000
     6  O    2.495672   2.385495   3.086627   3.095902   1.206734
     7  N    3.302016   2.415468   2.708359   2.718941   1.346582
     8  H    3.571263   2.532419   2.572785   2.595176   2.030964
     9  C    4.563573   3.792182   4.104894   4.093351   2.455067
    10  H    4.549372   3.987301   4.488726   4.368485   2.498968
    11  C    5.593486   4.735673   5.093345   4.709382   3.597080
    12  H    5.909623   4.939768   5.116737   4.823493   4.029679
    13  H    6.521543   5.716325   6.078069   5.749252   4.465550
    14  H    5.429513   4.635718   5.175346   4.424177   3.611847
    15  C    5.365517   4.603584   4.600598   5.097611   3.371881
    16  O    6.167437   5.296904   5.124666   5.684149   4.258860
    17  N    5.468668   4.917261   4.907410   5.627499   3.647467
    18  H    5.015376   4.622312   4.773769   5.392126   3.279643
    19  C    6.539892   6.036109   5.843202   6.821605   4.914359
    20  H    7.064765   6.435507   6.136608   7.132845   5.391157
    21  H    6.323180   5.927296   5.624506   6.815671   4.985777
    22  H    7.308549   6.873354   6.777091   7.663245   5.651957
                    6          7          8          9         10
     6  O    0.000000
     7  N    2.240279   0.000000
     8  H    3.118577   0.994120   0.000000
     9  C    2.791775   1.446420   2.098058   0.000000
    10  H    2.351348   2.033479   2.913389   1.077481   0.000000
    11  C    4.050293   2.454852   2.662076   1.531974   2.147249
    12  H    4.713587   2.736146   2.545583   2.169092   3.049076
    13  H    4.721234   3.388741   3.683095   2.162071   2.497946
    14  H    4.042722   2.704017   2.918476   2.157171   2.465823
    15  C    3.646298   2.421592   2.833609   1.532784   2.151140
    16  O    4.730037   3.125924   3.175446   2.396096   3.221349
    17  N    3.558319   3.144590   3.754538   2.420010   2.513611
    18  H    2.891356   3.112852   3.911932   2.497743   2.197340
    19  C    4.813328   4.451757   4.927335   3.810681   3.951073
    20  H    5.494369   4.705809   4.991864   4.048584   4.425068
    21  H    4.866227   4.743610   5.196048   4.401184   4.522654
    22  H    5.370022   5.241016   5.808124   4.414710   4.359542
                   11         12         13         14         15
    11  C    0.000000
    12  H    1.080999   0.000000
    13  H    1.082030   1.746410   0.000000
    14  H    1.084518   1.764789   1.759115   0.000000
    15  C    2.530320   2.782073   2.772657   3.468782   0.000000
    16  O    2.838808   2.653392   3.000526   3.887744   1.207503
    17  N    3.669477   4.086386   3.785322   4.498264   1.341049
    18  H    3.883589   4.492098   4.042827   4.527043   2.009138
    19  C    4.932689   5.199612   4.925531   5.847082   2.465444
    20  H    4.945832   5.006144   4.908071   5.953871   2.535020
    21  H    5.673783   5.911772   5.807751   6.529238   3.169636
    22  H    5.445869   5.828169   5.249933   6.337827   3.176648
                   16         17         18         19         20
    16  O    0.000000
    17  N    2.250402   0.000000
    18  H    3.112852   0.994384   0.000000
    19  C    2.833705   1.450305   2.108858   0.000000
    20  H    2.405890   2.055291   2.945100   1.075082   0.000000
    21  H    3.567420   2.098742   2.492679   1.084072   1.759506
    22  H    3.584700   2.097239   2.499169   1.083991   1.759262
                   21         22
    21  H    0.000000
    22  H    1.761020   0.000000
 Stoichiometry    C6H12N2O2
 Framework group  C1[X(C6H12N2O2)]
 Deg. of freedom    60
 Full point group                 C1      NOp   1
 Largest Abelian subgroup         C1      NOp   1
 Largest concise Abelian subgroup C1      NOp   1
                         Standard orientation:                         
 ---------------------------------------------------------------------
 Center     Atomic      Atomic             Coordinates (Angstroms)
 Number     Number       Type             X           Y           Z
 ---------------------------------------------------------------------
      1          1           0       -3.722354   -1.508572    0.433523
      2          6           0       -3.103432   -0.739241    0.864555
      3          1           0       -2.732547   -1.069263    1.829660
      4          1           0       -3.694303    0.158117    1.018405
      5          6           0       -1.954106   -0.466974   -0.080151
      6          8           0       -1.818664   -1.066594   -1.118573
      7          7           0       -1.081544    0.471218    0.334231
      8          1           0       -1.220459    0.918283    1.211220
      9          6           0        0.051478    0.897880   -0.457195
     10          1           0       -0.107776    0.511868   -1.450471
     11          6           0        0.139298    2.426417   -0.510186
     12          1           0        0.277077    2.841852    0.478241
     13          1           0        0.980323    2.735474   -1.116776
     14          1           0       -0.767569    2.833197   -0.944123
     15          6           0        1.325079    0.287249    0.138200
     16          8           0        1.947653    0.849306    1.006852
     17          7           0        1.655042   -0.912126   -0.362835
     18          1           0        1.062101   -1.306085   -1.057109
     19          6           0        2.805008   -1.683380    0.068594
     20          1           0        3.320806   -1.117699    0.823417
     21          1           0        2.499220   -2.636385    0.485111
     22          1           0        3.479125   -1.867839   -0.760005
 ---------------------------------------------------------------------
 Rotational constants (GHZ):      1.8178227      0.8675372      0.6961526
 Standard basis: 6-31G(d) (6D, 7F)
 There are   174 symmetry adapted basis functions of A   symmetry.
 Integral buffers will be    131072 words long.
 Raffenetti 1 integral format.
 Two-electron integral symmetry is turned on.
   174 basis functions,   328 primitive gaussians,   174 cartesian basis functions
    39 alpha electrons       39 beta electrons
       nuclear repulsion energy       558.7393938710 Hartrees.
 NAtoms=   22 NActive=   22 NUniq=   22 SFac= 7.50D-01 NAtFMM=   80 NAOKFM=F Big=F
 One-electron integrals computed using PRISM.
 NBasis=   174 RedAO= T  NBF=   174
 NBsUse=   174 1.00D-06 NBFU=   174
 Initial guess read from the read-write file.
 B after Tr=     0.000000    0.000000    0.000000
         Rot=    1.000000    0.000000    0.000000    0.000000 Ang=   0.00 deg.
 Initial guess orbital symmetries:
       Occupied  (A) (A) (A) (A) (A) (A) (A) (A) (A) (A) (A) (A)
                 (A) (A) (A) (A) (A) (A) (A) (A) (A) (A) (A) (A)
                 (A) (A) (A) (A) (A) (A) (A) (A) (A) (A) (A) (A)
                 (A) (A) (A)
       Virtual   (A) (A) (A) (A) (A) (A) (A) (A) (A) (A) (A) (A)
                 (A) (A) (A) (A) (A) (A) (A) (A) (A) (A) (A) (A)
                 (A) (A) (A) (A) (A) (A) (A) (A) (A) (A) (A) (A)
                 (A) (A) (A) (A) (A) (A) (A) (A) (A) (A) (A) (A)
                 (A) (A) (A) (A) (A) (A) (A) (A) (A) (A) (A) (A)
                 (A) (A) (A) (A) (A) (A) (A) (A) (A) (A) (A) (A)
                 (A) (A) (A) (A) (A) (A) (A) (A) (A) (A) (A) (A)
                 (A) (A) (A) (A) (A) (A) (A) (A) (A) (A) (A) (A)
                 (A) (A) (A) (A) (A) (A) (A) (A) (A) (A) (A) (A)
                 (A) (A) (A) (A) (A) (A) (A) (A) (A) (A) (A) (A)
                 (A) (A) (A) (A) (A) (A) (A) (A) (A) (A) (A) (A)
                 (A) (A) (A)
 Harris functional with IExCor=  205 diagonalized for initial guess.
 ExpMin= 1.61D-01 ExpMax= 5.48D+03 ExpMxC= 8.25D+02 IAcc=1 IRadAn=         1 AccDes= 0.00D+00
 HarFok:  IExCor=  205 AccDes= 0.00D+00 IRadAn=         1 IDoV= 1
 ScaDFX=  1.000000  1.000000  1.000000  1.000000
 FoFCou: FMM=F IPFlag=           0 FMFlag=      100000 FMFlg1=           0
         NFxFlg=           0 DoJE=T BraDBF=F KetDBF=T FulRan=T
         Omega=  0.000000  0.000000  1.000000  0.000000  0.000000 ICntrl=     500 IOpCl=  0
         NMat0=    1 NMatS0=    1 NMatT0=    0 NMatD0=    1 NMtDS0=    0 NMtDT0=    0
         I1Cent=           4 NGrid=           0.
 Petite list used in FoFCou.
 Requested convergence on RMS density matrix=1.00D-08 within 128 cycles.
 Requested convergence on MAX density matrix=1.00D-06.
 Requested convergence on             energy=1.00D-06.
 No special actions if energy rises.
 Integral accuracy reduced to 1.0D-05 until final iterations.
 Initial convergence to 1.0D-05 achieved.  Increase integral accuracy.
 SCF Done:  E(RHF) =  -492.858643962     A.U. after   13 cycles
             Convg  =    0.9150D-08             -V/T =  2.0015
 Calling FoFJK, ICntrl=      2127 FMM=F ISym2X=0 I1Cent= 0 IOpClX= 0 NMat=1 NMatS=1 NMatT=0.
 ***** Axes restored to original set *****
 -------------------------------------------------------------------
 Center     Atomic                   Forces (Hartrees/Bohr)
 Number     Number              X              Y              Z
 -------------------------------------------------------------------
      1        1          -0.001357912   -0.000903229    0.001062739
      2        6           0.001268156   -0.000547820   -0.000911384
      3        1           0.000060732   -0.000098089    0.000053021
      4        1          -0.000254088    0.000108240    0.000054610
      5        6          -0.001495736    0.001674647    0.011010257
      6        8          -0.002250656   -0.000441551   -0.004853483
      7        7           0.001812382   -0.001366951   -0.004833333
      8        1          -0.001383735    0.000020822   -0.000672621
      9        6           0.005440266    0.000680862   -0.006235964
     10        1           0.000241524   -0.000318459    0.000821197
     11        6          -0.002558366    0.000918742    0.004047120
     12        1          -0.000815567    0.000819257   -0.000918813
     13        1           0.001271698    0.000743772   -0.000080212
     14        1          -0.000287228    0.000185935    0.000480276
     15        6          -0.000029904    0.003255706   -0.009223088
     16        8           0.000342587   -0.004378814    0.005295561
     17        7           0.001779633    0.003874232    0.006839086
     18        1          -0.001118942   -0.001138385    0.000767399
     19        6          -0.000512048   -0.003713549   -0.000887558
     20        1          -0.000251256    0.001593262   -0.001729884
     21        1          -0.000393314   -0.000444412   -0.000063464
     22        1           0.000491770   -0.000524217   -0.000021460
 -------------------------------------------------------------------
 Cartesian Forces:  Max     0.011010257 RMS     0.002815647

 GradGradGradGradGradGradGradGradGradGradGradGradGradGradGradGradGradGrad
 Berny optimization.
 Using GEDIIS/GDIIS optimizer.
 Internal  Forces:  Max     0.006906293 RMS     0.001603524
 Search for a local minimum.
 Step number   2 out of a maximum of  108
 All quantities printed in internal units (Hartrees-Bohrs-Radians)
 Mixed Optimization -- RFO/linear search
 Update second derivatives using D2CorX and points    1    2
 DE= -6.14D-03 DEPred=-6.61D-03 R= 9.29D-01
 SS=  1.41D+00  RLast= 2.79D-01 DXNew= 5.0454D-01 8.3730D-01
 Trust test= 9.29D-01 RLast= 2.79D-01 DXMaxT set to 5.05D-01
 Use linear search instead of GDIIS.
     Eigenvalues ---    0.00370   0.00435   0.01013   0.01043   0.01257
     Eigenvalues ---    0.01425   0.01636   0.02550   0.02553   0.03591
     Eigenvalues ---    0.05127   0.05627   0.05718   0.06016   0.07158
     Eigenvalues ---    0.07335   0.07452   0.07749   0.15268   0.15815
     Eigenvalues ---    0.15996   0.15997   0.16000   0.16000   0.16000
     Eigenvalues ---    0.16000   0.16000   0.16000   0.16000   0.16404
     Eigenvalues ---    0.16795   0.21981   0.22540   0.24493   0.24995
     Eigenvalues ---    0.24998   0.25128   0.29336   0.30042   0.30721
     Eigenvalues ---    0.34723   0.34809   0.34810   0.34811   0.34816
     Eigenvalues ---    0.34817   0.34818   0.34820   0.34822   0.35804
     Eigenvalues ---    0.38370   0.39143   0.45970   0.46633   0.56620
     Eigenvalues ---    0.58340   0.84087   0.915571000.000001000.00000
     Eigenvalues --- 1000.000001000.000001000.000001000.000001000.00000
     Eigenvalues --- 1000.000001000.000001000.000001000.000001000.00000
     Eigenvalues --- 1000.000001000.000001000.000001000.000001000.00000
     Eigenvalues --- 1000.000001000.000001000.000001000.000001000.00000
     Eigenvalues --- 1000.000001000.000001000.000001000.000001000.00000
     Eigenvalues --- 1000.000001000.000001000.000001000.000001000.00000
     Eigenvalues --- 1000.000001000.000001000.000001000.000001000.00000
     Eigenvalues --- 1000.000001000.000001000.00000
 RFO step:  Lambda=-7.98397917D-04 EMin= 3.69634250D-03
 Quartic linear search produced a step of  0.00716.
 Iteration  1 RMS(Cart)=  0.01730391 RMS(Int)=  0.00020441
 Iteration  2 RMS(Cart)=  0.00040165 RMS(Int)=  0.00009160
 Iteration  3 RMS(Cart)=  0.00000003 RMS(Int)=  0.00009160
 Iteration  1 RMS(Cart)=  0.00000179 RMS(Int)=  0.00000081
 Iteration  2 RMS(Cart)=  0.00000110 RMS(Int)=  0.00000089
 Iteration  3 RMS(Cart)=  0.00000069 RMS(Int)=  0.00000103
 Variable       Old X    -DE/DX   Delta X   Delta X   Delta X     New X
                                 (Linear)    (Quad)   (Total)
    R1        2.03593   0.00166  -0.00017   0.00347   0.00330   2.03923
    R2        2.05094  -0.00012  -0.00006  -0.00085  -0.00092   2.05002
    R3        2.05107  -0.00013  -0.00006  -0.00084  -0.00091   2.05016
    R4        2.85814   0.00084  -0.00024   0.00103   0.00079   2.85894
    R5        2.28040  -0.00535  -0.00030  -0.00822  -0.00852   2.27187
    R6        2.54467   0.00691   0.00016   0.01312   0.01327   2.55794
    R7        1.87861   0.00130  -0.00022   0.00116   0.00095   1.87956
    R8        2.73334   0.00394  -0.00003   0.01005   0.01002   2.74336
    R9        2.03614   0.00089  -0.00017   0.00126   0.00109   2.03723
   R10        2.89501  -0.00488   0.00009  -0.01567  -0.01558   2.87943
   R11        2.89654  -0.00151   0.00015  -0.00390  -0.00376   2.89279
   R12        2.04279   0.00136  -0.00012   0.00299   0.00287   2.04566
   R13        2.04474   0.00147  -0.00011   0.00340   0.00329   2.04803
   R14        2.04944  -0.00020  -0.00007  -0.00114  -0.00122   2.04823
   R15        2.28185  -0.00679  -0.00029  -0.00972  -0.01001   2.27184
   R16        2.53422   0.00429   0.00008   0.00803   0.00811   2.54233
   R17        1.87911   0.00120  -0.00021   0.00098   0.00077   1.87988
   R18        2.74068  -0.00336   0.00002  -0.00867  -0.00866   2.73202
   R19        2.03161   0.00227  -0.00020   0.00500   0.00479   2.03640
   R20        2.04860   0.00022  -0.00008   0.00000  -0.00008   2.04852
   R21        2.04845   0.00017  -0.00008  -0.00013  -0.00021   2.04824
    A1        1.91234  -0.00055   0.00001  -0.00299  -0.00298   1.90937
    A2        1.91171  -0.00057   0.00000  -0.00204  -0.00206   1.90966
    A3        1.89146   0.00149  -0.00034   0.00765   0.00731   1.89877
    A4        1.88745  -0.00019  -0.00016  -0.00425  -0.00442   1.88304
    A5        1.92889  -0.00031   0.00023  -0.00093  -0.00069   1.92820
    A6        1.93199   0.00011   0.00026   0.00242   0.00267   1.93466
    A7        2.13333   0.00011   0.00022   0.00239   0.00225   2.13558
    A8        2.01044   0.00005  -0.00018  -0.00083  -0.00136   2.00908
    A9        2.13919  -0.00015  -0.00004  -0.00057  -0.00097   2.13822
   A10        2.08776  -0.00046  -0.00005  -0.00364  -0.00369   2.08408
   A11        2.14686  -0.00033   0.00014  -0.00045  -0.00031   2.14654
   A12        2.04823   0.00081  -0.00009   0.00413   0.00403   2.05226
   A13        1.85766  -0.00051  -0.00038   0.00004  -0.00034   1.85732
   A14        1.93708   0.00139  -0.00001   0.00219   0.00213   1.93921
   A15        1.89739  -0.00100  -0.00030  -0.01010  -0.01041   1.88698
   A16        1.91138   0.00025   0.00011   0.00665   0.00674   1.91812
   A17        1.91577  -0.00014   0.00014   0.00645   0.00658   1.92234
   A18        1.94259  -0.00002   0.00044  -0.00499  -0.00457   1.93802
   A19        1.93812  -0.00057   0.00019  -0.00251  -0.00232   1.93580
   A20        1.92723   0.00018   0.00012   0.00203   0.00215   1.92938
   A21        1.91786  -0.00064   0.00005  -0.00323  -0.00319   1.91468
   A22        1.87943   0.00012  -0.00022  -0.00171  -0.00193   1.87750
   A23        1.90529   0.00063  -0.00004   0.00367   0.00363   1.90892
   A24        1.89495   0.00032  -0.00011   0.00193   0.00182   1.89677
   A25        2.12047  -0.00061   0.00012  -0.00165  -0.00159   2.11888
   A26        1.99941  -0.00116  -0.00026  -0.00676  -0.00708   1.99233
   A27        2.16302   0.00176   0.00013   0.00794   0.00799   2.17101
   A28        2.05835   0.00084  -0.00026   0.00086   0.00024   2.05860
   A29        2.16465  -0.00234   0.00027  -0.00888  -0.00897   2.15568
   A30        2.05988   0.00149  -0.00001   0.00689   0.00652   2.06640
   A31        1.88543   0.00124  -0.00018   0.00700   0.00683   1.89225
   A32        1.93706  -0.00073   0.00019  -0.00344  -0.00326   1.93380
   A33        1.93500  -0.00104   0.00017  -0.00557  -0.00541   1.92959
   A34        1.90512  -0.00015  -0.00004  -0.00044  -0.00047   1.90465
   A35        1.90483  -0.00003  -0.00004   0.00008   0.00005   1.90489
   A36        1.89602   0.00071  -0.00010   0.00244   0.00232   1.89834
    D1       -0.01190   0.00039  -0.00009   0.02193   0.02187   0.00997
    D2       -3.13108  -0.00026   0.00007  -0.02657  -0.02650   3.12560
    D3        2.08380   0.00046  -0.00014   0.02250   0.02237   2.10618
    D4       -1.03538  -0.00019   0.00002  -0.02600  -0.02600  -1.06138
    D5       -2.10869   0.00009  -0.00004   0.01816   0.01813  -2.09056
    D6        1.05531  -0.00057   0.00012  -0.03034  -0.03024   1.02507
    D7        0.01071   0.00123   0.00008   0.04109   0.04114   0.05185
    D8       -3.10212   0.00016   0.00028   0.03929   0.03954  -3.06257
    D9       -3.10839   0.00057   0.00024  -0.00763  -0.00736  -3.11574
   D10        0.06197  -0.00050   0.00044  -0.00943  -0.00896   0.05301
   D11        0.22989   0.00082  -0.00023   0.00239   0.00218   0.23208
   D12        2.30840   0.00157  -0.00034   0.01163   0.01129   2.31969
   D13       -1.83267   0.00178   0.00000   0.00000   0.00000  -1.83267
   D14       -2.88355  -0.00020  -0.00003   0.00075   0.00073  -2.88282
   D15       -0.80505   0.00055  -0.00014   0.00999   0.00984  -0.79521
   D16        1.33708   0.00076   0.00020  -0.00165  -0.00145   1.33563
   D17        1.07346  -0.00016   0.00019   0.00058   0.00076   1.07423
   D18       -3.12618  -0.00027   0.00011  -0.00185  -0.00175  -3.12793
   D19       -1.03629  -0.00016   0.00008  -0.00024  -0.00017  -1.03646
   D20        3.11939   0.00019  -0.00022   0.00602   0.00580   3.12520
   D21       -1.08025   0.00009  -0.00030   0.00359   0.00329  -1.07696
   D22        1.00964   0.00019  -0.00033   0.00520   0.00487   1.01451
   D23       -1.04230   0.00017   0.00028   0.01535   0.01564  -1.02666
   D24        1.04125   0.00006   0.00020   0.01292   0.01312   1.05437
   D25        3.13114   0.00017   0.00017   0.01453   0.01470  -3.13735
   D26       -1.54598  -0.00076   0.00018   0.02024   0.02036  -1.52562
   D27        1.57081  -0.00146   0.00000   0.00000   0.00000   1.57081
   D28        2.71174   0.00050   0.00074   0.02234   0.02306   2.73481
   D29       -0.45465  -0.00021   0.00056   0.00210   0.00270  -0.45195
   D30        0.59281   0.00030   0.00025   0.01289   0.01313   0.60594
   D31       -2.57358  -0.00041   0.00008  -0.00735  -0.00723  -2.58081
   D32       -0.00790  -0.00008  -0.00006  -0.01657  -0.01653  -0.02443
   D33       -3.12257   0.00076   0.00014   0.03388   0.03400  -3.08858
   D34        3.10820  -0.00084  -0.00024  -0.03753  -0.03775   3.07045
   D35       -0.00647   0.00000  -0.00005   0.01291   0.01277   0.00631
   D36       -0.01437  -0.00047  -0.00010  -0.02797  -0.02810  -0.04247
   D37        2.07358  -0.00030  -0.00015  -0.02615  -0.02634   2.04724
   D38       -2.10076  -0.00059  -0.00005  -0.02914  -0.02920  -2.12996
   D39       -3.12902   0.00038   0.00009   0.02261   0.02272  -3.10629
   D40       -1.04106   0.00055   0.00004   0.02442   0.02448  -1.01658
   D41        1.06778   0.00026   0.00015   0.02144   0.02162   1.08940
         Item               Value     Threshold  Converged?
 Maximum Force            0.006906     0.000450     NO 
 RMS     Force            0.001583     0.000300     NO 
 Maximum Displacement     0.062686     0.001800     NO 
 RMS     Displacement     0.017442     0.001200     NO 
 Predicted change in Energy=-4.064218D-04
 GradGradGradGradGradGradGradGradGradGradGradGradGradGradGradGradGradGrad

                          Input orientation:                          
 ---------------------------------------------------------------------
 Center     Atomic      Atomic             Coordinates (Angstroms)
 Number     Number       Type             X           Y           Z
 ---------------------------------------------------------------------
      1          1           0        1.398469    2.383252    1.893501
      2          6           0        1.708096    2.802220    0.948469
      3          1           0        0.967781    3.520730    0.613022
      4          1           0        1.767031    2.013207    0.206179
      5          6           0        3.052214    3.472572    1.129567
      6          8           0        3.627758    3.485647    2.184991
      7          7           0        3.572532    4.028114    0.010243
      8          1           0        3.046541    4.010296   -0.833730
      9          6           0        4.892825    4.630151   -0.033056
     10          1           0        5.396600    4.324990    0.869880
     11          6           0        5.674556    4.151463   -1.250230
     12          1           0        5.173924    4.435268   -2.167108
     13          1           0        6.663033    4.595556   -1.266169
     14          1           0        5.778995    3.073159   -1.216538
     15          6           0        4.721939    6.151249   -0.053004
     16          8           0        4.579841    6.752164   -1.084511
     17          7           0        4.691807    6.717829    1.166841
     18          1           0        4.758693    6.121015    1.959902
     19          6           0        4.475299    8.130394    1.385702
     20          1           0        4.393259    8.614882    0.426639
     21          1           0        3.563268    8.297548    1.947294
     22          1           0        5.305540    8.562493    1.932316
 ---------------------------------------------------------------------
                    Distance matrix (angstroms):
                    1          2          3          4          5
     1  H    0.000000
     2  C    1.079115   0.000000
     3  H    1.766062   1.084826   0.000000
     4  H    1.766304   1.084901   1.754123   0.000000
     5  C    2.122518   1.512885   2.148022   2.152692   0.000000
     6  O    2.503991   2.383519   3.089950   3.089673   1.202224
     7  N    3.313425   2.420580   2.721307   2.712577   1.353604
     8  H    3.577876   2.535176   2.579537   2.589772   2.035611
     9  C    4.579378   3.800951   4.129674   4.083652   2.465671
    10  H    4.561052   3.991249   4.508575   4.354148   2.508027
    11  C    5.594152   4.731547   5.101300   4.686365   3.605691
    12  H    5.912139   4.938182   5.124173   4.806849   4.036893
    13  H    6.526365   5.715950   6.092824   5.727754   4.476456
    14  H    5.416393   4.618753   5.166758   4.386738   3.619264
    15  C    5.388147   4.615430   4.632162   5.091369   3.370722
    16  O    6.170662   5.289800   5.135247   5.659990   4.241640
    17  N    5.492055   4.927699   4.939285   5.622335   3.636118
    18  H    5.026568   4.619907   4.790259   5.375841   3.258187
    19  C    6.538683   6.019803   5.843691   6.793082   4.877098
    20  H    7.067790   6.424130   6.141582   7.108290   5.360585
    21  H    6.298265   5.885401   5.597752   6.763940   4.920392
    22  H    7.310932   6.862237   6.780565   7.641579   5.623983
                    6          7          8          9         10
     6  O    0.000000
     7  N    2.242064   0.000000
     8  H    3.118612   0.994622   0.000000
     9  C    2.798217   1.451722   2.105721   0.000000
    10  H    2.358562   2.038218   2.919605   1.078057   0.000000
    11  C    4.053818   2.454080   2.664557   1.523731   2.145283
    12  H    4.715207   2.733329   2.546421   2.161290   3.047137
    13  H    4.728139   3.391521   3.688977   2.157638   2.497952
    14  H    4.045783   2.699149   2.913944   2.147126   2.463016
    15  C    3.648463   2.415127   2.828457   1.530796   2.154554
    16  O    4.718711   3.103805   3.151466   2.388818   3.221477
    17  N    3.551877   3.134496   3.746988   2.416311   2.512090
    18  H    2.876603   3.096512   3.897561   2.492499   2.195627
    19  C    4.788618   4.419907   4.893101   3.799856   3.949173
    20  H    5.476024   4.678186   4.960282   4.042149   4.427903
    21  H    4.818200   4.688318   5.136305   4.374850   4.505901
    22  H    5.352864   5.220946   5.785895   4.415465   4.369610
                   11         12         13         14         15
    11  C    0.000000
    12  H    1.082517   0.000000
    13  H    1.083771   1.747807   0.000000
    14  H    1.083874   1.767777   1.761158   0.000000
    15  C    2.517930   2.760130   2.767634   3.456272   0.000000
    16  O    2.826571   2.625444   3.003938   3.871754   1.202206
    17  N    3.659817   4.069120   3.782765   4.488439   1.345341
    18  H    3.875937   4.477318   4.044883   4.518873   2.013468
    19  C    4.921204   5.173442   4.930891   5.834973   2.459212
    20  H    4.937177   4.980576   4.916549   5.943988   2.531319
    21  H    5.645504   5.868537   5.799969   6.497193   3.154411
    22  H    5.451784   5.818641   5.273489   6.346040   3.177449
                   16         17         18         19         20
    16  O    0.000000
    17  N    2.254396   0.000000
    18  H    3.114288   0.994790   0.000000
    19  C    2.830619   1.445724   2.108939   0.000000
    20  H    2.405849   2.058116   2.950222   1.077618   0.000000
    21  H    3.551546   2.092420   2.483243   1.084032   1.761243
    22  H    3.592377   2.089355   2.502122   1.083880   1.761267
                   21         22
    21  H    0.000000
    22  H    1.762365   0.000000
 Stoichiometry    C6H12N2O2
 Framework group  C1[X(C6H12N2O2)]
[...]
    12  H    5.906823   4.942947   4.800861   5.180177   4.038020
    13  H    6.561505   5.703896   5.855919   5.905929   4.470086
    14  H    5.550890   4.591418   4.791174   4.540348   3.617806
    15  C    5.219779   4.637544   4.686773   5.322211   3.365219
    16  O    5.989478   5.342307   5.166454   6.033688   4.255013
    17  N    5.285957   4.956658   5.162669   5.741284   3.634095
    18  H    4.752473   4.539414   4.935816   5.290630   3.174049
    19  C    6.192523   5.996486   6.079652   6.891322   4.830167
    20  H    7.080820   6.778023   6.781908   7.633873   5.584833
    21  H    5.917810   5.796652   5.742295   6.778288   4.848131
    22  H    6.578423   6.516799   6.727974   7.403668   5.326722
                    6          7          8          9         10
     6  O    0.000000
     7  N    2.242002   0.000000
     8  H    3.119843   0.994779   0.000000
     9  C    2.794103   1.454359   2.109072   0.000000
    10  H    2.359534   2.041953   2.919345   1.078615   0.000000
    11  C    4.064722   2.454448   2.648498   1.523133   2.148211
    12  H    4.724162   2.736168   2.538194   2.160705   3.049488
    13  H    4.732470   3.391578   3.678767   2.155452   2.495748
    14  H    4.077585   2.700477   2.880934   2.150518   2.474224
    15  C    3.615807   2.414034   2.852491   1.530409   2.151019
    16  O    4.699216   3.121295   3.202791   2.394522   3.219121
    17  N    3.507256   3.138286   3.778674   2.421734   2.512553
    18  H    2.768167   3.039204   3.854459   2.501898   2.235505
    19  C    4.713465   4.375263   4.868345   3.789040   3.957900
    20  H    5.554982   4.918264   5.310484   4.137988   4.414053
    21  H    4.886483   4.451368   4.800407   4.191863   4.511746
    22  H    4.977940   5.084101   5.694242   4.483427   4.416240
                   11         12         13         14         15
    11  C    0.000000
    12  H    1.082905   0.000000
    13  H    1.084043   1.748351   0.000000
    14  H    1.084326   1.768023   1.760907   0.000000
    15  C    2.520422   2.758516   2.772855   3.460518   0.000000
    16  O    2.831666   2.630725   3.003285   3.879023   1.201830
    17  N    3.666846   4.071517   3.790919   4.499178   1.348410
    18  H    3.911823   4.489020   4.115182   4.557300   2.012469
    19  C    4.920417   5.149286   4.955886   5.838112   2.438984
    20  H    4.995246   5.117941   4.861894   6.002281   2.662250
    21  H    5.371968   5.449618   5.578932   6.274751   2.862929
    22  H    5.682169   6.043407   5.646483   6.534404   3.303335
                   16         17         18         19         20
    16  O    0.000000
    17  N    2.249030   0.000000
    18  H    3.103522   0.996199   0.000000
    19  C    2.782693   1.446871   2.110381   0.000000
    20  H    2.616687   2.074449   2.928289   1.079888   0.000000
    21  H    3.028232   2.110145   2.671899   1.085459   1.756248
    22  H    3.803399   2.067218   2.334272   1.081937   1.760231
                   21         22
    21  H    0.000000
    22  H    1.764111   0.000000
 Stoichiometry    C6H12N2O2
 Framework group  C1[X(C6H12N2O2)]
 Deg. of freedom    60
 Full point group                 C1      NOp   1
 Largest Abelian subgroup         C1      NOp   1
 Largest concise Abelian subgroup C1      NOp   1
                         Standard orientation:                         
 ---------------------------------------------------------------------
 Center     Atomic      Atomic             Coordinates (Angstroms)
 Number     Number       Type             X           Y           Z
 ---------------------------------------------------------------------
      1          1           0       -3.424361   -1.733155    0.777684
      2          6           0       -3.134002   -0.693472    0.830852
      3          1           0       -2.947381   -0.418931    1.862390
      4          1           0       -3.957431   -0.092476    0.458553
      5          6           0       -1.933096   -0.474917   -0.062178
      6          8           0       -1.781481   -1.092854   -1.084244
      7          7           0       -1.055873    0.466782    0.353670
      8          1           0       -1.207966    0.929632    1.220978
      9          6           0        0.061282    0.913564   -0.463343
     10          1           0       -0.117118    0.537285   -1.458329
     11          6           0        0.148364    2.434045   -0.485378
     12          1           0        0.322612    2.825211    0.509262
     13          1           0        0.971652    2.756265   -1.112689
     14          1           0       -0.771117    2.852267   -0.879597
     15          6           0        1.339088    0.292739    0.105815
     16          8           0        1.983042    0.835792    0.963027
     17          7           0        1.657366   -0.907279   -0.420367
     18          1           0        0.972333   -1.356992   -0.986849
     19          6           0        2.733288   -1.708409    0.121868
     20          1           0        3.608278   -1.090888    0.260491
     21          1           0        2.471067   -2.150650    1.077841
     22          1           0        2.966951   -2.498891   -0.578937
 ---------------------------------------------------------------------
 Rotational constants (GHZ):      1.8252202      0.8783511      0.6982931

 **********************************************************************

            Population analysis using the SCF density.

 **********************************************************************

 Orbital symmetries:
       Occupied  (A) (A) (A) (A) (A) (A) (A) (A) (A) (A) (A) (A)
                 (A) (A) (A) (A) (A) (A) (A) (A) (A) (A) (A) (A)
                 (A) (A) (A) (A) (A) (A) (A) (A) (A) (A) (A) (A)
                 (A) (A) (A)
       Virtual   (A) (A) (A) (A) (A) (A) (A) (A) (A) (A) (A) (A)
                 (A) (A) (A) (A) (A) (A) (A) (A) (A) (A) (A) (A)
                 (A) (A) (A) (A) (A) (A) (A) (A) (A) (A) (A) (A)
                 (A) (A) (A) (A) (A) (A) (A) (A) (A) (A) (A) (A)
                 (A) (A) (A) (A) (A) (A) (A) (A) (A) (A) (A) (A)
                 (A) (A) (A) (A) (A) (A) (A) (A) (A) (A) (A) (A)
                 (A) (A) (A) (A) (A) (A) (A) (A) (A) (A) (A) (A)
                 (A) (A) (A) (A) (A) (A) (A) (A) (A) (A) (A) (A)
                 (A) (A) (A) (A) (A) (A) (A) (A) (A) (A) (A) (A)
                 (A) (A) (A) (A) (A) (A) (A) (A) (A) (A) (A) (A)
                 (A) (A) (A) (A) (A) (A) (A) (A) (A) (A) (A) (A)
                 (A) (A) (A)
 The electronic state is 1-A.
 Alpha  occ. eigenvalues --  -20.53042 -20.52195 -15.59602 -15.58058 -11.35834
 Alpha  occ. eigenvalues --  -11.33992 -11.27821 -11.25347 -11.23993 -11.22274
 Alpha  occ. eigenvalues --   -1.40004  -1.38839  -1.24852  -1.22731  -1.05845
 Alpha  occ. eigenvalues --   -0.99760  -0.96081  -0.87534  -0.80728  -0.78371
 Alpha  occ. eigenvalues --   -0.72849  -0.68109  -0.66867  -0.64379  -0.62403
 Alpha  occ. eigenvalues --   -0.61750  -0.60165  -0.59028  -0.57927  -0.55940
 Alpha  occ. eigenvalues --   -0.54842  -0.53643  -0.52224  -0.51776  -0.51604
 Alpha  occ. eigenvalues --   -0.43503  -0.42667  -0.38828  -0.38430
 Alpha virt. eigenvalues --    0.18563   0.21292   0.21929   0.24194   0.26177
 Alpha virt. eigenvalues --    0.27063   0.28218   0.30244   0.31220   0.32063
 Alpha virt. eigenvalues --    0.32613   0.33407   0.34116   0.35107   0.37731
 Alpha virt. eigenvalues --    0.39898   0.41100   0.43536   0.44693   0.48462
 Alpha virt. eigenvalues --    0.52435   0.58831   0.62909   0.70877   0.72684
 Alpha virt. eigenvalues --    0.73369   0.74531   0.76238   0.76560   0.78241
 Alpha virt. eigenvalues --    0.80286   0.81705   0.82564   0.86859   0.88589
 Alpha virt. eigenvalues --    0.91522   0.96184   0.97128   0.98608   0.99673
 Alpha virt. eigenvalues --    1.02187   1.02963   1.03997   1.07294   1.07389
 Alpha virt. eigenvalues --    1.09650   1.12289   1.13536   1.14233   1.15390
 Alpha virt. eigenvalues --    1.16839   1.18007   1.18308   1.19720   1.20168
 Alpha virt. eigenvalues --    1.22078   1.22295   1.23216   1.24354   1.25711
 Alpha virt. eigenvalues --    1.30798   1.34393   1.36970   1.38241   1.42316
 Alpha virt. eigenvalues --    1.44655   1.50796   1.52597   1.55802   1.59659
 Alpha virt. eigenvalues --    1.64609   1.65819   1.71125   1.72386   1.75868
 Alpha virt. eigenvalues --    1.78691   1.79514   1.86037   1.94178   1.96858
 Alpha virt. eigenvalues --    2.01107   2.02886   2.08832   2.11032   2.11608
 Alpha virt. eigenvalues --    2.14679   2.16742   2.19256   2.19849   2.22631
 Alpha virt. eigenvalues --    2.25411   2.27611   2.29007   2.32850   2.33653
 Alpha virt. eigenvalues --    2.36741   2.39592   2.42462   2.45858   2.51117
 Alpha virt. eigenvalues --    2.54288   2.55736   2.56177   2.61758   2.62275
 Alpha virt. eigenvalues --    2.67609   2.69321   2.71442   2.72368   2.76128
 Alpha virt. eigenvalues --    2.78768   2.85269   2.88140   2.93661   2.97407
 Alpha virt. eigenvalues --    2.99950   3.05337   3.10292   3.15552   3.28642
 Alpha virt. eigenvalues --    3.30287   3.37435   3.40382   3.54776   3.55847
 Alpha virt. eigenvalues --    4.38517   4.43555   4.48009   4.59244   4.62548
 Alpha virt. eigenvalues --    4.67500   4.75281   4.85848   4.91632   5.05966
          Condensed to atoms (all electrons):
              1          2          3          4          5          6
     1  H    0.467663   0.383992  -0.022121  -0.018225  -0.030961   0.002313
     2  C    0.383992   5.250186   0.376028   0.377651   0.371133  -0.072093
     3  H   -0.022121   0.376028   0.523610  -0.023181  -0.038200   0.002482
     4  H   -0.018225   0.377651  -0.023181   0.484181  -0.026028   0.000119
     5  C   -0.030961   0.371133  -0.038200  -0.026028   4.141659   0.598435
     6  O    0.002313  -0.072093   0.002482   0.000119   0.598435   8.178228
     7  N    0.003533  -0.112056   0.005217   0.000178   0.271157  -0.104356
     8  H   -0.000002  -0.000019   0.001084   0.000063  -0.015818   0.002300
     9  C   -0.000095   0.004719   0.000051  -0.000191  -0.025182   0.000765
    10  H   -0.000014   0.000459  -0.000011  -0.000009  -0.000772   0.008461
    11  C    0.000000  -0.000120  -0.000017   0.000022   0.002559   0.000415
    12  H    0.000000  -0.000009   0.000000   0.000001  -0.000084  -0.000010
    13  H    0.000000   0.000003   0.000000   0.000000  -0.000046  -0.000001
    14  H    0.000000  -0.000012  -0.000001  -0.000002   0.000018   0.000010
    15  C    0.000011  -0.000165  -0.000007  -0.000003  -0.001851  -0.000113
    16  O    0.000000  -0.000001   0.000000   0.000000   0.000033   0.000000
    17  N    0.000001  -0.000008   0.000002   0.000000   0.001835  -0.002094
    18  H   -0.000002   0.000116  -0.000009   0.000000   0.000955   0.007892
    19  C    0.000000  -0.000001   0.000000   0.000000  -0.000045   0.000009
    20  H    0.000000   0.000000   0.000000   0.000000   0.000000   0.000000
    21  H    0.000000   0.000000   0.000000   0.000000  -0.000007   0.000002
    22  H    0.000000   0.000000   0.000000   0.000000   0.000001  -0.000001
              7          8          9         10         11         12
     1  H    0.003533  -0.000002  -0.000095  -0.000014   0.000000   0.000000
     2  C   -0.112056  -0.000019   0.004719   0.000459  -0.000120  -0.000009
     3  H    0.005217   0.001084   0.000051  -0.000011  -0.000017   0.000000
     4  H    0.000178   0.000063  -0.000191  -0.000009   0.000022   0.000001
     5  C    0.271157  -0.015818  -0.025182  -0.000772   0.002559  -0.000084
     6  O   -0.104356   0.002300   0.000765   0.008461   0.000415  -0.000010
     7  N    7.394824   0.321106   0.183497  -0.040334  -0.062205  -0.002804
     8  H    0.321106   0.314387  -0.021757   0.002891  -0.001666   0.002701
     9  C    0.183497  -0.021757   5.114498   0.406690   0.351308  -0.032029
    10  H   -0.040334   0.002891   0.406690   0.457291  -0.029697   0.003464
    11  C   -0.062205  -0.001666   0.351308  -0.029697   5.100635   0.389202
    12  H   -0.002804   0.002701  -0.032029   0.003464   0.389202   0.500531
    13  H    0.004054  -0.000027  -0.035818  -0.001612   0.392606  -0.022285
    14  H    0.000355   0.000031  -0.041452  -0.003741   0.391085  -0.027486
    15  C   -0.066061   0.000018   0.359507  -0.047261  -0.057221  -0.006023
    16  O    0.001033   0.001143  -0.081054   0.002093   0.003551   0.005569
    17  N    0.003017  -0.000032  -0.113034   0.006049   0.003247   0.000240
    18  H   -0.001704  -0.000027  -0.000155   0.000289   0.000152  -0.000014
    19  C   -0.000337   0.000004   0.005318  -0.000058  -0.000142  -0.000004
    20  H   -0.000013  -0.000001   0.000099  -0.000028   0.000013  -0.000001
    21  H    0.000095   0.000001  -0.000193   0.000017  -0.000005   0.000000
    22  H   -0.000003   0.000000  -0.000005  -0.000023   0.000002   0.000000
             13         14         15         16         17         18
     1  H    0.000000   0.000000   0.000011   0.000000   0.000001  -0.000002
     2  C    0.000003  -0.000012  -0.000165  -0.000001  -0.000008   0.000116
     3  H    0.000000  -0.000001  -0.000007   0.000000   0.000002  -0.000009
     4  H    0.000000  -0.000002  -0.000003   0.000000   0.000000   0.000000
     5  C   -0.000046   0.000018  -0.001851   0.000033   0.001835   0.000955
     6  O   -0.000001   0.000010  -0.000113   0.000000  -0.002094   0.007892
     7  N    0.004054   0.000355  -0.066061   0.001033   0.003017  -0.001704
     8  H   -0.000027   0.000031   0.000018   0.001143  -0.000032  -0.000027
     9  C   -0.035818  -0.041452   0.359507  -0.081054  -0.113034  -0.000155
    10  H   -0.001612  -0.003741  -0.047261   0.002093   0.006049   0.000289
    11  C    0.392606   0.391085  -0.057221   0.003551   0.003247   0.000152
    12  H   -0.022285  -0.027486  -0.006023   0.005569   0.000240  -0.000014
    13  H    0.506185  -0.023441  -0.001072   0.000043   0.000001   0.000005
    14  H   -0.023441   0.527802   0.005222   0.000168  -0.000062  -0.000005
    15  C   -0.001072   0.005222   4.183979   0.604264   0.295724  -0.018033
    16  O    0.000043   0.000168   0.604264   8.173014  -0.102944   0.002338
    17  N    0.000001  -0.000062   0.295724  -0.102944   7.307781   0.317518
    18  H    0.000005  -0.000005  -0.018033   0.002338   0.317518   0.306310
    19  C   -0.000005   0.000002  -0.032346   0.007101   0.203695  -0.022016
    20  H   -0.000002   0.000000  -0.003306   0.004118  -0.038174   0.002504
    21  H    0.000000   0.000000  -0.002400   0.001143  -0.048670   0.000878
    22  H    0.000000   0.000000   0.004107   0.000312  -0.038381  -0.003859
             19         20         21         22
     1  H    0.000000   0.000000   0.000000   0.000000
     2  C   -0.000001   0.000000   0.000000   0.000000
     3  H    0.000000   0.000000   0.000000   0.000000
     4  H    0.000000   0.000000   0.000000   0.000000
     5  C   -0.000045   0.000000  -0.000007   0.000001
     6  O    0.000009   0.000000   0.000002  -0.000001
     7  N   -0.000337  -0.000013   0.000095  -0.000003
     8  H    0.000004  -0.000001   0.000001   0.000000
     9  C    0.005318   0.000099  -0.000193  -0.000005
    10  H   -0.000058  -0.000028   0.000017  -0.000023
    11  C   -0.000142   0.000013  -0.000005   0.000002
    12  H   -0.000004  -0.000001   0.000000   0.000000
    13  H   -0.000005  -0.000002   0.000000   0.000000
    14  H    0.000002   0.000000   0.000000   0.000000
    15  C   -0.032346  -0.003306  -0.002400   0.004107
    16  O    0.007101   0.004118   0.001143   0.000312
    17  N    0.203695  -0.038174  -0.048670  -0.038381
    18  H   -0.022016   0.002504   0.000878  -0.003859
    19  C    4.908710   0.402940   0.405153   0.398867
    20  H    0.402940   0.484956  -0.032723  -0.024023
    21  H    0.405153  -0.032723   0.537745  -0.033193
    22  H    0.398867  -0.024023  -0.033193   0.524482
 Mulliken atomic charges:
              1
     1  H    0.213906
     2  C   -0.579805
     3  H    0.175070
     4  H    0.205423
     5  C    0.751207
     6  O   -0.622761
     7  N   -0.798192
     8  H    0.393619
     9  C   -0.075485
    10  H    0.235857
    11  C   -0.483724
    12  H    0.189042
    13  H    0.181412
    14  H    0.171507
    15  C    0.783030
    16  O   -0.621926
    17  N   -0.795712
    18  H    0.406867
    19  C   -0.276847
    20  H    0.203641
    21  H    0.172156
    22  H    0.171716
 Sum of Mulliken atomic charges =   0.00000
 Mulliken charges with hydrogens summed into heavy atoms:
              1
     2  C    0.014594
     5  C    0.751207
     6  O   -0.622761
     7  N   -0.404573
     9  C    0.160372
    11  C    0.058237
    15  C    0.783030
    16  O   -0.621926
    17  N   -0.388845
    19  C    0.270666
 Sum of Mulliken charges with hydrogens summed into heavy atoms =   0.00000
 Electronic spatial extent (au):  <R**2>=           1759.5514
 Charge=              0.0000 electrons
 Dipole moment (field-independent basis, Debye):
    X=             -1.8507    Y=             -0.0815    Z=              0.6880  Tot=              1.9761
 Quadrupole moment (field-independent basis, Debye-Ang):
   XX=            -59.9937   YY=            -58.8179   ZZ=            -62.8002
   XY=             -8.7580   XZ=            -10.6616   YZ=             -3.9957
 Traceless Quadrupole moment (field-independent basis, Debye-Ang):
   XX=              0.5435   YY=              1.7194   ZZ=             -2.2630
   XY=             -8.7580   XZ=            -10.6616   YZ=             -3.9957
 Octapole moment (field-independent basis, Debye-Ang**2):
  XXX=            -17.3945  YYY=             -5.2851  ZZZ=              2.9323  XYY=              6.4245
  XXY=            -12.4691  XXZ=              4.4393  XZZ=             -1.9070  YZZ=              2.0349
  YYZ=              0.5913  XYZ=              0.9415
 Hexadecapole moment (field-independent basis, Debye-Ang**3):
 XXXX=          -1328.2904 YYYY=           -646.2401 ZZZZ=           -223.4917 XXXY=            -31.8216
 XXXZ=            -25.7716 YYYX=             -8.6390 YYYZ=              6.7195 ZZZX=             -7.5901
 ZZZY=              5.8750 XXYY=           -334.2420 XXZZ=           -291.6260 YYZZ=           -144.9904
 XXYZ=            -21.2770 YYXZ=            -14.3839 ZZXY=            -12.9403
 N-N= 5.596764619855D+02 E-N=-2.274724248461D+03  KE= 4.921285421502D+02
 1\1\GINC-RODAN\FOpt\RHF\6-31G(d)\C6H12N2O2\STEBOSS\10-Feb-2017\0\\# HF
 /6-31G* Opt=(ModRedundant) geom=nocrowd\\Phi Psi fixed scan\\0,1\H,1.2
 19398862,2.8712394083,1.9481742121\C,1.7519326905,2.7831865928,1.01183
 48068\H,1.142011507,3.1757405226,0.2067461835\H,1.9337877513,1.7299609
 643,0.82346637\C,3.0835772785,3.4889732829,1.1384530102\O,3.6902577079
 ,3.5176708389,2.1779569112\N,3.5512809936,4.0672345853,0.008801175\H,2
 .9996851347,4.0435500897,-0.8187049798\C,4.8833845553,4.6434866956,-0.
 083899845\H,5.4247418445,4.30500285,0.785450762\C,5.589854473,4.185125
 4721,-1.3530485733\H,5.0532812807,4.5146574765,-2.2340593842\H,6.58835
 43882,4.6043450205,-1.4020501741\H,5.6678716793,3.1036635519,-1.363841
 5713\C,4.7412709733,6.1668408878,-0.0472014461\O,4.5874394907,6.815689
 908,-1.0470647456\N,4.7837363691,6.7004225817,1.1904157347\H,4.7306566
 577,6.0738697914,1.963091286\C,4.4955057775,8.0995785666,1.4200299961\
 H,5.0414431458,8.7017181275,0.7090179943\H,3.4379659519,8.3208797825,1
 .3158364977\H,4.8125614875,8.3613630032,2.4207957802\\Version=EM64L-G0
 9RevA.02\State=1-A\HF=-492.8597569\RMSD=5.386e-09\RMSF=8.786e-04\Dipol
 e=-0.5516288,-0.547617,-0.016207\Quadrupole=4.349226,0.5640824,-4.9133
 083,2.1210481,1.3776934,9.3959929\PG=C01 [X(C6H12N2O2)]\\@


 WHEN ALL ELSE FAILS, LOOK AT THE SCHRODINGER EQUATION.
     -- RUSSELL T. PACK, APRIL 1978
 Job cpu time:  0 days  0 hours 20 minutes  2.5 seconds.
 File lengths (MBytes):  RWF=     25 Int=      0 D2E=      0 Chk=      3 Scr=      1
 Normal termination of Gaussian 09 at Fri Feb 10 14:28:40 2017.
