 Entering Gaussian System, Link 0=g09
 Initial command:
 /home/steboss/Software/g09/l1.exe /tmp/Gau-16001.inp -scrdir=/tmp/
 Entering Link 1 = /home/steboss/Software/g09/l1.exe PID=     16003.
  
 Copyright (c) 1988,1990,1992,1993,1995,1998,2003,2009, Gaussian, Inc.
                  All Rights Reserved.
  
 This is part of the Gaussian(R) 09 program.  It is based on
 the Gaussian(R) 03 system (copyright 2003, Gaussian, Inc.),
 the Gaussian(R) 98 system (copyright 1998, Gaussian, Inc.),
 the Gaussian(R) 94 system (copyright 1995, Gaussian, Inc.),
 the Gaussian 92(TM) system (copyright 1992, Gaussian, Inc.),
 the Gaussian 90(TM) system (copyright 1990, Gaussian, Inc.),
 the Gaussian 88(TM) system (copyright 1988, Gaussian, Inc.),
 the Gaussian 86(TM) system (copyright 1986, Carnegie Mellon
 University), and the Gaussian 82(TM) system (copyright 1983,
 Carnegie Mellon University). Gaussian is a federally registered
 trademark of Gaussian, Inc.
  
 This software contains proprietary and confidential information,
 including trade secrets, belonging to Gaussian, Inc.
  
 This software is provided under written license and may be
 used, copied, transmitted, or stored only in accord with that
 written license.
  
 The following legend is applicable only to US Government
 contracts under FAR:
  
                    RESTRICTED RIGHTS LEGEND
  
 Use, reproduction and disclosure by the US Government is
 subject to restrictions as set forth in subparagraphs (a)
 and (c) of the Commercial Computer Software - Restricted
 Rights clause in FAR 52.227-19.
  
 Gaussian, Inc.
 340 Quinnipiac St., Bldg. 40, Wallingford CT 06492
  
  
 ---------------------------------------------------------------
 Warning -- This program may not be used in any manner that
 competes with the business of Gaussian, Inc. or will provide
 assistance to any competitor of Gaussian, Inc.  The licensee
 of this program is prohibited from giving any competitor of
 Gaussian, Inc. access to this program.  By using this program,
 the user acknowledges that Gaussian, Inc. is engaged in the
 business of creating and licensing software in the field of
 computational chemistry and represents and warrants to the
 licensee that it is not a competitor of Gaussian, Inc. and that
 it will not use this program in any manner prohibited above.
 ---------------------------------------------------------------
  

 Cite this work as:
 Gaussian 09, Revision A.02,
 M. J. Frisch, G. W. Trucks, H. B. Schlegel, G. E. Scuseria, 
 M. A. Robb, J. R. Cheeseman, G. Scalmani, V. Barone, B. Mennucci, 
 G. A. Petersson, H. Nakatsuji, M. Caricato, X. Li, H. P. Hratchian, 
 A. F. Izmaylov, J. Bloino, G. Zheng, J. L. Sonnenberg, M. Hada, 
 M. Ehara, K. Toyota, R. Fukuda, J. Hasegawa, M. Ishida, T. Nakajima, 
 Y. Honda, O. Kitao, H. Nakai, T. Vreven, J. A. Montgomery, Jr., 
 J. E. Peralta, F. Ogliaro, M. Bearpark, J. J. Heyd, E. Brothers, 
 K. N. Kudin, V. N. Staroverov, R. Kobayashi, J. Normand, 
 K. Raghavachari, A. Rendell, J. C. Burant, S. S. Iyengar, J. Tomasi, 
 M. Cossi, N. Rega, J. M. Millam, M. Klene, J. E. Knox, J. B. Cross, 
 V. Bakken, C. Adamo, J. Jaramillo, R. Gomperts, R. E. Stratmann, 
 O. Yazyev, A. J. Austin, R. Cammi, C. Pomelli, J. W. Ochterski, 
 R. L. Martin, K. Morokuma, V. G. Zakrzewski, G. A. Voth, 
 P. Salvador, J. J. Dannenberg, S. Dapprich, A. D. Daniels, 
 O. Farkas, J. B. Foresman, J. V. Ortiz, J. Cioslowski, 
 and D. J. Fox, Gaussian, Inc., Wallingford CT, 2009.
 
 ******************************************
 Gaussian 09:  EM64L-G09RevA.02 11-Jun-2009
                10-Feb-2017 
 ******************************************
 %chk=structure_15.chk
 %NProcShared=8
 Will use up to    8 processors via shared memory.
 -------------------------------------------
 # HF/6-31G* Opt=(ModRedundant) geom=nocrowd
 -------------------------------------------
 1/18=120,19=15,38=1/1,3;
 2/9=110,12=1,17=6,18=5,40=1/2;
 3/5=1,6=6,7=1,11=9,16=1,25=1,30=1,71=1/1,2,3;
 4//1;
 5/5=2,38=5/2;
 6/7=2,8=2,9=2,10=2,28=1/1;
 7//1,2,3,16;
 1/18=20,19=15/3(2);
 2/9=110,12=1/2;
 99//99;
 2/9=110,12=1/2;
 3/5=1,6=6,7=1,11=9,16=1,25=1,30=1,71=1/1,2,3;
 4/5=5,16=3/1;
 5/5=2,38=5/2;
 7//1,2,3,16;
 1/18=20,19=15/3(-5);
 2/9=110,12=1/2;
 6/7=2,8=2,9=2,10=2,19=2,28=1/1;
 99/9=1/99;
 ------------------
 Phi Psi fixed scan
 ------------------
 Symbolic Z-matrix:
 Charge =  0 Multiplicity = 1
 H                     1.3513    2.3068    1.9013 
 C                     1.6731    2.7486    0.9582 
 H                     0.9598    3.5143    0.6531 
 H                     1.7242    1.9746    0.1925 
 C                     3.0539    3.3932    1.0948 
 O                     3.6506    3.3681    2.1689 
 N                     3.5554    3.9697    0. 
 H                     3.0267    3.9647   -0.8606 
 C                     4.8533    4.6139    0. 
 H                     5.4076    4.3155    0.8898 
 C                     5.6613    4.2208   -1.2322 
 H                     5.1233    4.5214   -2.1312 
 H                     6.6305    4.7189   -1.2058 
 H                     5.8085    3.1409   -1.2414 
 C                     4.7127    6.1294    0. 
 O                     5.6735    6.845    -0.2741 
 N                     3.5094    6.6181    0.309 
 H                     2.7497    5.9893    0.5272 
 C                     3.2474    8.0428    0.3436 
 H                     4.1568    8.5863    0.0875 
 H                     2.4646    8.2864   -0.3748 
 H                     2.9233    8.3289    1.3442 
 
 The following ModRedundant input section has been read:
 D    5    7    9   15 F                                                       
 D    7    9   15   17 F                                                       

 GradGradGradGradGradGradGradGradGradGradGradGradGradGradGradGradGradGrad
 Berny optimization.
 Initialization pass.
                           ----------------------------
                           !    Initial Parameters    !
                           ! (Angstroms and Degrees)  !
 --------------------------                            --------------------------
 ! Name  Definition              Value          Derivative Info.                !
 --------------------------------------------------------------------------------
 ! R1    R(1,2)                  1.09           estimate D2E/DX2                !
 ! R2    R(2,3)                  1.09           estimate D2E/DX2                !
 ! R3    R(2,4)                  1.0899         estimate D2E/DX2                !
 ! R4    R(2,5)                  1.53           estimate D2E/DX2                !
 ! R5    R(5,6)                  1.229          estimate D2E/DX2                !
 ! R6    R(5,7)                  1.3351         estimate D2E/DX2                !
 ! R7    R(7,8)                  1.01           estimate D2E/DX2                !
 ! R8    R(7,9)                  1.449          estimate D2E/DX2                !
 ! R9    R(9,10)                 1.09           estimate D2E/DX2                !
 ! R10   R(9,11)                 1.525          estimate D2E/DX2                !
 ! R11   R(9,15)                 1.522          estimate D2E/DX2                !
 ! R12   R(11,12)                1.09           estimate D2E/DX2                !
 ! R13   R(11,13)                1.09           estimate D2E/DX2                !
 ! R14   R(11,14)                1.0899         estimate D2E/DX2                !
 ! R15   R(15,16)                1.229          estimate D2E/DX2                !
 ! R16   R(15,17)                1.335          estimate D2E/DX2                !
 ! R17   R(17,18)                1.01           estimate D2E/DX2                !
 ! R18   R(17,19)                1.449          estimate D2E/DX2                !
 ! R19   R(19,20)                1.0899         estimate D2E/DX2                !
 ! R20   R(19,21)                1.0901         estimate D2E/DX2                !
 ! R21   R(19,22)                1.09           estimate D2E/DX2                !
 ! A1    A(1,2,3)              109.493          estimate D2E/DX2                !
 ! A2    A(1,2,4)              109.5017         estimate D2E/DX2                !
 ! A3    A(1,2,5)              111.0973         estimate D2E/DX2                !
 ! A4    A(3,2,4)              109.4436         estimate D2E/DX2                !
 ! A5    A(3,2,5)              108.6398         estimate D2E/DX2                !
 ! A6    A(4,2,5)              108.6387         estimate D2E/DX2                !
 ! A7    A(2,5,6)              120.5054         estimate D2E/DX2                !
 ! A8    A(2,5,7)              116.5979         estimate D2E/DX2                !
 ! A9    A(6,5,7)              122.8967         estimate D2E/DX2                !
 ! A10   A(5,7,8)              119.9959         estimate D2E/DX2                !
 ! A11   A(5,7,9)              121.9004         estimate D2E/DX2                !
 ! A12   A(8,7,9)              118.1037         estimate D2E/DX2                !
 ! A13   A(7,9,10)             109.5            estimate D2E/DX2                !
 ! A14   A(7,9,11)             111.0992         estimate D2E/DX2                !
 ! A15   A(7,9,15)             111.0966         estimate D2E/DX2                !
 ! A16   A(10,9,11)            108.6382         estimate D2E/DX2                !
 ! A17   A(10,9,15)            108.6373         estimate D2E/DX2                !
 ! A18   A(11,9,15)            107.7947         estimate D2E/DX2                !
 ! A19   A(9,11,12)            109.5007         estimate D2E/DX2                !
 ! A20   A(9,11,13)            109.4959         estimate D2E/DX2                !
 ! A21   A(9,11,14)            109.4978         estimate D2E/DX2                !
 ! A22   A(12,11,13)           109.441          estimate D2E/DX2                !
 ! A23   A(12,11,14)           109.4482         estimate D2E/DX2                !
 ! A24   A(13,11,14)           109.4436         estimate D2E/DX2                !
 ! A25   A(9,15,16)            120.502          estimate D2E/DX2                !
 ! A26   A(9,15,17)            116.6004         estimate D2E/DX2                !
 ! A27   A(16,15,17)           122.8976         estimate D2E/DX2                !
 ! A28   A(15,17,18)           120.0041         estimate D2E/DX2                !
 ! A29   A(15,17,19)           121.8993         estimate D2E/DX2                !
 ! A30   A(18,17,19)           118.0965         estimate D2E/DX2                !
 ! A31   A(17,19,20)           109.5002         estimate D2E/DX2                !
 ! A32   A(17,19,21)           109.5019         estimate D2E/DX2                !
 ! A33   A(17,19,22)           109.4971         estimate D2E/DX2                !
 ! A34   A(20,19,21)           109.4439         estimate D2E/DX2                !
 ! A35   A(20,19,22)           109.4447         estimate D2E/DX2                !
 ! A36   A(21,19,22)           109.4395         estimate D2E/DX2                !
 ! D1    D(1,2,5,6)              0.0038         estimate D2E/DX2                !
 ! D2    D(1,2,5,7)           -179.9948         estimate D2E/DX2                !
 ! D3    D(3,2,5,6)            120.5082         estimate D2E/DX2                !
 ! D4    D(3,2,5,7)            -59.4904         estimate D2E/DX2                !
 ! D5    D(4,2,5,6)           -120.5106         estimate D2E/DX2                !
 ! D6    D(4,2,5,7)             59.4908         estimate D2E/DX2                !
 ! D7    D(2,5,7,8)             -0.0007         estimate D2E/DX2                !
 ! D8    D(2,5,7,9)           -179.9954         estimate D2E/DX2                !
 ! D9    D(6,5,7,8)           -179.9993         estimate D2E/DX2                !
 ! D10   D(6,5,7,9)              0.006          estimate D2E/DX2                !
 ! D11   D(5,7,9,10)            14.996          estimate D2E/DX2                !
 ! D12   D(5,7,9,11)           134.9986         estimate D2E/DX2                !
 ! D13   D(5,7,9,15)          -105.0038         Frozen                          !
 ! D14   D(8,7,9,10)          -164.9988         estimate D2E/DX2                !
 ! D15   D(8,7,9,11)           -44.9962         estimate D2E/DX2                !
 ! D16   D(8,7,9,15)            75.0013         estimate D2E/DX2                !
 ! D17   D(7,9,11,12)           60.0024         estimate D2E/DX2                !
 ! D18   D(7,9,11,13)          179.9986         estimate D2E/DX2                !
 ! D19   D(7,9,11,14)          -60.0038         estimate D2E/DX2                !
 ! D20   D(10,9,11,12)        -179.4843         estimate D2E/DX2                !
 ! D21   D(10,9,11,13)         -59.4881         estimate D2E/DX2                !
 ! D22   D(10,9,11,14)          60.5095         estimate D2E/DX2                !
 ! D23   D(15,9,11,12)         -61.938          estimate D2E/DX2                !
 ! D24   D(15,9,11,13)          58.0582         estimate D2E/DX2                !
 ! D25   D(15,9,11,14)         178.0558         estimate D2E/DX2                !
 ! D26   D(7,9,15,16)         -164.9978         estimate D2E/DX2                !
 ! D27   D(7,9,15,17)           15.0024         Frozen                          !
 ! D28   D(10,9,15,16)          74.4911         estimate D2E/DX2                !
 ! D29   D(10,9,15,17)        -105.5087         estimate D2E/DX2                !
 ! D30   D(11,9,15,16)         -43.0558         estimate D2E/DX2                !
 ! D31   D(11,9,15,17)         136.9444         estimate D2E/DX2                !
 ! D32   D(9,15,17,18)          -0.0058         estimate D2E/DX2                !
 ! D33   D(9,15,17,19)        -179.9981         estimate D2E/DX2                !
 ! D34   D(16,15,17,18)        179.9944         estimate D2E/DX2                !
 ! D35   D(16,15,17,19)          0.0022         estimate D2E/DX2                !
 ! D36   D(15,17,19,20)         -0.0031         estimate D2E/DX2                !
 ! D37   D(15,17,19,21)        120.0            estimate D2E/DX2                !
 ! D38   D(15,17,19,22)       -120.0042         estimate D2E/DX2                !
 ! D39   D(18,17,19,20)       -179.9955         estimate D2E/DX2                !
 ! D40   D(18,17,19,21)        -59.9924         estimate D2E/DX2                !
 ! D41   D(18,17,19,22)         60.0034         estimate D2E/DX2                !
 --------------------------------------------------------------------------------
 Trust Radius=3.00D-01 FncErr=1.00D-07 GrdErr=1.00D-07
 Number of steps in this run= 108 maximum allowed number of steps= 132.
 GradGradGradGradGradGradGradGradGradGradGradGradGradGradGradGradGradGrad

                          Input orientation:                          
 ---------------------------------------------------------------------
 Center     Atomic      Atomic             Coordinates (Angstroms)
 Number     Number       Type             X           Y           Z
 ---------------------------------------------------------------------
      1          1           0        1.351300    2.306800    1.901300
      2          6           0        1.673100    2.748600    0.958200
      3          1           0        0.959800    3.514300    0.653100
      4          1           0        1.724200    1.974600    0.192500
      5          6           0        3.053900    3.393200    1.094800
      6          8           0        3.650600    3.368100    2.168900
      7          7           0        3.555400    3.969700    0.000000
      8          1           0        3.026700    3.964700   -0.860600
      9          6           0        4.853300    4.613900    0.000000
     10          1           0        5.407600    4.315500    0.889800
     11          6           0        5.661300    4.220800   -1.232200
     12          1           0        5.123300    4.521400   -2.131200
     13          1           0        6.630500    4.718900   -1.205800
     14          1           0        5.808500    3.140900   -1.241400
     15          6           0        4.712700    6.129400    0.000000
     16          8           0        5.673500    6.845000   -0.274100
     17          7           0        3.509400    6.618100    0.309000
     18          1           0        2.749700    5.989300    0.527200
     19          6           0        3.247400    8.042800    0.343600
     20          1           0        4.156800    8.586300    0.087500
     21          1           0        2.464600    8.286400   -0.374800
     22          1           0        2.923300    8.328900    1.344200
 ---------------------------------------------------------------------
                    Distance matrix (angstroms):
                    1          2          3          4          5
     1  H    0.000000
     2  C    1.090037   0.000000
     3  H    1.780262   1.090036   0.000000
     4  H    1.780283   1.089947   1.779645   0.000000
     5  C    2.174754   1.529960   2.143600   2.143519   0.000000
     6  O    2.546517   2.400017   3.091833   3.091766   1.228972
     7  N    3.352348   2.439731   2.714971   2.714917   1.335081
     8  H    3.630935   2.572774   2.601197   2.601158   2.037386
     9  C    4.604526   3.809352   4.098171   4.098076   2.434448
    10  H    4.638058   4.050475   4.525580   4.419669   2.536250
    11  C    5.662007   4.782360   5.114450   4.751415   3.591432
    12  H    5.949243   4.958941   5.108944   4.841452   3.995288
    13  H    6.583483   5.756804   6.087972   5.792944   4.454471
    14  H    5.517148   4.700391   5.219047   4.483060   3.620678
    15  C    5.433804   4.646195   4.620557   5.121577   3.381863
    16  O    6.633931   5.856813   5.845702   6.287725   4.544350
    17  N    5.077413   4.332031   4.031431   4.976204   3.350364
    18  H    4.171868   3.441942   3.056995   4.157101   2.674779
    19  C    6.238856   5.557401   5.082934   6.258276   4.713865
    20  H    7.112863   6.403563   6.022117   7.045789   5.403640
    21  H    6.494281   5.750703   5.108223   6.380348   5.142996
    22  H    6.248779   5.731644   5.245315   6.568210   4.943722
                    6          7          8          9         10
     6  O    0.000000
     7  N    2.252801   0.000000
     8  H    3.150088   1.010040   0.000000
     9  C    2.775362   1.448978   2.120981   0.000000
    10  H    2.370804   2.083739   2.975844   1.089970   0.000000
    11  C    4.041966   2.452791   2.672974   1.525027   2.139209
    12  H    4.689329   2.702720   2.513975   2.150225   3.041326
    13  H    4.700326   3.386959   3.698020   2.150214   2.459625
    14  H    4.042066   2.702673   2.926101   2.150165   2.466256
    15  C    3.668373   2.450234   2.875614   1.522008   2.136554
    16  O    4.706294   3.581735   3.955460   2.392836   2.797094
    17  N    3.747221   2.666762   2.939642   2.432769   3.040141
    18  H    3.221411   2.237382   2.470167   2.568034   3.161885
    19  C    5.034591   4.099155   4.257899   3.801885   4.342530
    20  H    5.640751   4.656429   4.851310   4.033947   4.521937
    21  H    5.662745   4.468134   4.385094   4.397001   5.101814
    22  H    5.081204   4.605328   4.890611   4.396931   4.741899
                   11         12         13         14         15
    11  C    0.000000
    12  H    1.089957   0.000000
    13  H    1.090023   1.779613   0.000000
    14  H    1.089925   1.779613   1.779617   0.000000
    15  C    2.461892   2.701161   2.668599   3.416575   0.000000
    16  O    2.793659   3.025005   2.510820   3.830699   1.228963
    17  N    3.571137   3.599361   3.955104   4.447530   1.335005
    18  H    3.834122   3.854322   4.435968   4.538456   2.037385
    19  C    4.787248   4.695093   4.989421   5.753267   2.434392
    20  H    4.802366   4.730768   4.769549   5.843498   2.520523
    21  H    5.242435   4.932429   5.547282   6.197486   3.138005
    22  H    5.568749   5.604950   5.768703   6.474956   3.137933
                   16         17         18         19         20
    16  O    0.000000
    17  N    2.252736   0.000000
    18  H    3.150065   1.010022   0.000000
    19  C    2.775291   1.449004   2.120914   0.000000
    20  H    2.337362   2.083747   2.986248   1.089949   0.000000
    21  H    3.519206   2.083846   2.484261   1.090053   1.779663
    22  H    3.519155   2.083744   2.484221   1.089997   1.779627
                   21         22
    21  H    0.000000
    22  H    1.779655   0.000000
 Stoichiometry    C6H12N2O2
 Framework group  C1[X(C6H12N2O2)]
 Deg. of freedom    60
 Full point group                 C1      NOp   1
 Largest Abelian subgroup         C1      NOp   1
 Largest concise Abelian subgroup C1      NOp   1
                         Standard orientation:                         
 ---------------------------------------------------------------------
 Center     Atomic      Atomic             Coordinates (Angstroms)
 Number     Number       Type             X           Y           Z
 ---------------------------------------------------------------------
      1          1           0        3.825306   -1.329345    0.023254
      2          6           0        3.057063   -0.903691   -0.622348
      3          1           0        2.596547   -1.696846   -1.211422
      4          1           0        3.508650   -0.170775   -1.290844
      5          6           0        1.968847   -0.210447    0.199828
      6          8           0        2.034470   -0.185791    1.426799
      7          7           0        0.969411    0.351275   -0.484306
      8          1           0        0.959348    0.304751   -1.493224
      9          6           0       -0.121161    1.037728    0.178244
     10          1           0        0.151426    1.238874    1.214233
     11          6           0       -0.434449    2.362427   -0.509309
     12          1           0       -0.718036    2.176582   -1.545188
     13          1           0       -1.256690    2.855791    0.009016
     14          1           0        0.447012    3.002980   -0.483701
     15          6           0       -1.388437    0.194931    0.163581
     16          8           0       -2.477424    0.701365    0.424315
     17          7           0       -1.244038   -1.096375   -0.142879
     18          1           0       -0.327550   -1.466894   -0.350030
     19          6           0       -2.373392   -2.002962   -0.190530
     20          1           0       -3.286286   -1.460143    0.054337
     21          1           0       -2.459525   -2.424650   -1.192017
     22          1           0       -2.225018   -2.807131    0.530159
 ---------------------------------------------------------------------
 Rotational constants (GHZ):      1.8593539      0.8867613      0.6991856
 Standard basis: 6-31G(d) (6D, 7F)
 There are   174 symmetry adapted basis functions of A   symmetry.
 Integral buffers will be    131072 words long.
 Raffenetti 1 integral format.
 Two-electron integral symmetry is turned on.
   174 basis functions,   328 primitive gaussians,   174 cartesian basis functions
    39 alpha electrons       39 beta electrons
       nuclear repulsion energy       560.8542743334 Hartrees.
 NAtoms=   22 NActive=   22 NUniq=   22 SFac= 7.50D-01 NAtFMM=   80 NAOKFM=F Big=F
 One-electron integrals computed using PRISM.
 NBasis=   174 RedAO= T  NBF=   174
 NBsUse=   174 1.00D-06 NBFU=   174
 Harris functional with IExCor=  205 diagonalized for initial guess.
 ExpMin= 1.61D-01 ExpMax= 5.48D+03 ExpMxC= 8.25D+02 IAcc=1 IRadAn=         1 AccDes= 0.00D+00
 HarFok:  IExCor=  205 AccDes= 0.00D+00 IRadAn=         1 IDoV= 1
 ScaDFX=  1.000000  1.000000  1.000000  1.000000
 FoFCou: FMM=F IPFlag=           0 FMFlag=      100000 FMFlg1=           0
         NFxFlg=           0 DoJE=T BraDBF=F KetDBF=T FulRan=T
         Omega=  0.000000  0.000000  1.000000  0.000000  0.000000 ICntrl=     500 IOpCl=  0
         NMat0=    1 NMatS0=    1 NMatT0=    0 NMatD0=    1 NMtDS0=    0 NMtDT0=    0
         I1Cent=           4 NGrid=           0.
 Petite list used in FoFCou.
 Initial guess orbital symmetries:
       Occupied  (A) (A) (A) (A) (A) (A) (A) (A) (A) (A) (A) (A)
                 (A) (A) (A) (A) (A) (A) (A) (A) (A) (A) (A) (A)
                 (A) (A) (A) (A) (A) (A) (A) (A) (A) (A) (A) (A)
                 (A) (A) (A)
       Virtual   (A) (A) (A) (A) (A) (A) (A) (A) (A) (A) (A) (A)
                 (A) (A) (A) (A) (A) (A) (A) (A) (A) (A) (A) (A)
                 (A) (A) (A) (A) (A) (A) (A) (A) (A) (A) (A) (A)
                 (A) (A) (A) (A) (A) (A) (A) (A) (A) (A) (A) (A)
                 (A) (A) (A) (A) (A) (A) (A) (A) (A) (A) (A) (A)
                 (A) (A) (A) (A) (A) (A) (A) (A) (A) (A) (A) (A)
                 (A) (A) (A) (A) (A) (A) (A) (A) (A) (A) (A) (A)
                 (A) (A) (A) (A) (A) (A) (A) (A) (A) (A) (A) (A)
                 (A) (A) (A) (A) (A) (A) (A) (A) (A) (A) (A) (A)
                 (A) (A) (A) (A) (A) (A) (A) (A) (A) (A) (A) (A)
                 (A) (A) (A) (A) (A) (A) (A) (A) (A) (A) (A) (A)
                 (A) (A) (A)
 The electronic state of the initial guess is 1-A.
 Requested convergence on RMS density matrix=1.00D-08 within 128 cycles.
 Requested convergence on MAX density matrix=1.00D-06.
 Requested convergence on             energy=1.00D-06.
 No special actions if energy rises.
 Integral accuracy reduced to 1.0D-05 until final iterations.
 Initial convergence to 1.0D-05 achieved.  Increase integral accuracy.
 SCF Done:  E(RHF) =  -492.848336299     A.U. after   15 cycles
             Convg  =    0.5874D-08             -V/T =  2.0020

 **********************************************************************

            Population analysis using the SCF density.

 **********************************************************************

 Orbital symmetries:
       Occupied  (A) (A) (A) (A) (A) (A) (A) (A) (A) (A) (A) (A)
                 (A) (A) (A) (A) (A) (A) (A) (A) (A) (A) (A) (A)
                 (A) (A) (A) (A) (A) (A) (A) (A) (A) (A) (A) (A)
                 (A) (A) (A)
       Virtual   (A) (A) (A) (A) (A) (A) (A) (A) (A) (A) (A) (A)
                 (A) (A) (A) (A) (A) (A) (A) (A) (A) (A) (A) (A)
                 (A) (A) (A) (A) (A) (A) (A) (A) (A) (A) (A) (A)
                 (A) (A) (A) (A) (A) (A) (A) (A) (A) (A) (A) (A)
                 (A) (A) (A) (A) (A) (A) (A) (A) (A) (A) (A) (A)
                 (A) (A) (A) (A) (A) (A) (A) (A) (A) (A) (A) (A)
                 (A) (A) (A) (A) (A) (A) (A) (A) (A) (A) (A) (A)
                 (A) (A) (A) (A) (A) (A) (A) (A) (A) (A) (A) (A)
                 (A) (A) (A) (A) (A) (A) (A) (A) (A) (A) (A) (A)
                 (A) (A) (A) (A) (A) (A) (A) (A) (A) (A) (A) (A)
                 (A) (A) (A) (A) (A) (A) (A) (A) (A) (A) (A) (A)
                 (A) (A) (A)
 The electronic state is 1-A.
 Alpha  occ. eigenvalues --  -20.52819 -20.51408 -15.60757 -15.59188 -11.36215
 Alpha  occ. eigenvalues --  -11.34436 -11.28268 -11.25946 -11.24923 -11.22622
 Alpha  occ. eigenvalues --   -1.38684  -1.37171  -1.26072  -1.22757  -1.06362
 Alpha  occ. eigenvalues --   -0.99824  -0.96395  -0.87676  -0.81708  -0.79091
 Alpha  occ. eigenvalues --   -0.73817  -0.67521  -0.67433  -0.63722  -0.62456
 Alpha  occ. eigenvalues --   -0.62141  -0.59789  -0.58793  -0.57703  -0.55712
 Alpha  occ. eigenvalues --   -0.55001  -0.54328  -0.52690  -0.52004  -0.49825
 Alpha  occ. eigenvalues --   -0.43666  -0.42281  -0.39044  -0.38370
 Alpha virt. eigenvalues --    0.18626   0.18977   0.20069   0.23537   0.25692
 Alpha virt. eigenvalues --    0.27186   0.28559   0.29463   0.31117   0.31544
 Alpha virt. eigenvalues --    0.31932   0.32432   0.33096   0.34461   0.36741
 Alpha virt. eigenvalues --    0.38321   0.40979   0.42236   0.47488   0.48757
 Alpha virt. eigenvalues --    0.52925   0.56750   0.62914   0.71246   0.72039
 Alpha virt. eigenvalues --    0.74257   0.74685   0.75327   0.76093   0.77917
 Alpha virt. eigenvalues --    0.80053   0.82106   0.82389   0.88282   0.88617
 Alpha virt. eigenvalues --    0.91305   0.93856   0.96400   0.97522   0.99596
 Alpha virt. eigenvalues --    1.00320   1.01560   1.04178   1.05022   1.09466
 Alpha virt. eigenvalues --    1.10157   1.11023   1.12594   1.13361   1.15443
 Alpha virt. eigenvalues --    1.16046   1.16437   1.17418   1.18785   1.18841
 Alpha virt. eigenvalues --    1.19724   1.21990   1.23440   1.26679   1.27955
 Alpha virt. eigenvalues --    1.31485   1.33360   1.35346   1.36999   1.43710
 Alpha virt. eigenvalues --    1.46771   1.50039   1.54248   1.57145   1.60741
 Alpha virt. eigenvalues --    1.63441   1.64483   1.69597   1.71173   1.75520
 Alpha virt. eigenvalues --    1.81143   1.82013   1.88156   1.89814   1.94041
 Alpha virt. eigenvalues --    2.00740   2.04778   2.09395   2.10351   2.12108
 Alpha virt. eigenvalues --    2.12928   2.13744   2.17897   2.20247   2.20589
 Alpha virt. eigenvalues --    2.26155   2.27485   2.27829   2.31622   2.34956
 Alpha virt. eigenvalues --    2.38718   2.39635   2.42195   2.45017   2.46946
 Alpha virt. eigenvalues --    2.51400   2.53270   2.57407   2.61874   2.62807
 Alpha virt. eigenvalues --    2.64257   2.66938   2.67581   2.71332   2.74280
 Alpha virt. eigenvalues --    2.76789   2.82474   2.86171   2.92782   2.97986
 Alpha virt. eigenvalues --    3.02504   3.04210   3.06123   3.12706   3.21997
 Alpha virt. eigenvalues --    3.31710   3.33385   3.41491   3.52748   3.56941
 Alpha virt. eigenvalues --    4.38896   4.45903   4.50675   4.56030   4.60060
 Alpha virt. eigenvalues --    4.64913   4.68317   4.81316   4.89773   5.10829
          Condensed to atoms (all electrons):
              1          2          3          4          5          6
     1  H    0.446661   0.385474  -0.018604  -0.017581  -0.029584   0.003623
     2  C    0.385474   5.263624   0.372251   0.374641   0.373126  -0.071181
     3  H   -0.018604   0.372251   0.526044  -0.024358  -0.035417   0.001416
     4  H   -0.017581   0.374641  -0.024358   0.507043  -0.034710   0.001250
     5  C   -0.029584   0.373126  -0.035417  -0.034710   4.205333   0.607446
     6  O    0.003623  -0.071181   0.001416   0.001250   0.607446   8.168837
     7  N    0.003815  -0.125128   0.003457   0.003786   0.225119  -0.107182
     8  H   -0.000022  -0.000771   0.000579   0.000619  -0.018435   0.002289
     9  C   -0.000061   0.004336  -0.000246  -0.000257  -0.020689   0.002578
    10  H   -0.000003   0.000441  -0.000014  -0.000025  -0.001024   0.010060
    11  C    0.000001  -0.000083  -0.000006   0.000014   0.002329   0.000375
    12  H    0.000000  -0.000007   0.000000   0.000001  -0.000095  -0.000011
    13  H    0.000000   0.000002   0.000000   0.000000  -0.000035  -0.000002
    14  H    0.000000  -0.000019   0.000000   0.000002   0.000040   0.000019
    15  C    0.000001  -0.000160   0.000027   0.000000  -0.002190  -0.000027
    16  O    0.000000   0.000000   0.000000   0.000000  -0.000011   0.000001
    17  N    0.000000  -0.000077   0.000018   0.000002   0.002359  -0.000096
    18  H   -0.000005  -0.000086   0.000485  -0.000002   0.000911  -0.000405
    19  C    0.000000   0.000000  -0.000002   0.000000  -0.000054   0.000001
    20  H    0.000000   0.000000   0.000000   0.000000  -0.000001   0.000000
    21  H    0.000000   0.000000   0.000000   0.000000   0.000004   0.000000
    22  H    0.000000   0.000000   0.000000   0.000000  -0.000007   0.000002
              7          8          9         10         11         12
     1  H    0.003815  -0.000022  -0.000061  -0.000003   0.000001   0.000000
     2  C   -0.125128  -0.000771   0.004336   0.000441  -0.000083  -0.000007
     3  H    0.003457   0.000579  -0.000246  -0.000014  -0.000006   0.000000
     4  H    0.003786   0.000619  -0.000257  -0.000025   0.000014   0.000001
     5  C    0.225119  -0.018435  -0.020689  -0.001024   0.002329  -0.000095
     6  O   -0.107182   0.002289   0.002578   0.010060   0.000375  -0.000011
     7  N    7.520204   0.320533   0.119899  -0.031577  -0.064943  -0.002279
     8  H    0.320533   0.320456  -0.022338   0.002387  -0.001918   0.003310
     9  C    0.119899  -0.022338   5.156918   0.396016   0.345043  -0.037957
    10  H   -0.031577   0.002387   0.396016   0.408540  -0.028560   0.003465
    11  C   -0.064943  -0.001918   0.345043  -0.028560   5.123268   0.386864
    12  H   -0.002279   0.003310  -0.037957   0.003465   0.386864   0.546589
    13  H    0.003961  -0.000038  -0.033575  -0.001472   0.391686  -0.019388
    14  H   -0.000337   0.000057  -0.042956  -0.003278   0.390421  -0.027389
    15  C   -0.051506   0.000355   0.375582  -0.028149  -0.063683  -0.006292
    16  O    0.002482  -0.000041  -0.079299   0.001052   0.001103   0.000445
    17  N   -0.016680   0.001598  -0.108479  -0.000189   0.001609   0.000251
    18  H    0.009832  -0.000119  -0.003144   0.000137   0.000208  -0.000031
    19  C   -0.000217  -0.000047   0.004242  -0.000095  -0.000124  -0.000027
    20  H   -0.000064   0.000000   0.000620  -0.000013  -0.000018  -0.000004
    21  H    0.000009  -0.000015  -0.000039  -0.000003   0.000015  -0.000002
    22  H   -0.000002   0.000005  -0.000116   0.000016  -0.000003   0.000001
             13         14         15         16         17         18
     1  H    0.000000   0.000000   0.000001   0.000000   0.000000  -0.000005
     2  C    0.000002  -0.000019  -0.000160   0.000000  -0.000077  -0.000086
     3  H    0.000000   0.000000   0.000027   0.000000   0.000018   0.000485
     4  H    0.000000   0.000002   0.000000   0.000000   0.000002  -0.000002
     5  C   -0.000035   0.000040  -0.002190  -0.000011   0.002359   0.000911
     6  O   -0.000002   0.000019  -0.000027   0.000001  -0.000096  -0.000405
     7  N    0.003961  -0.000337  -0.051506   0.002482  -0.016680   0.009832
     8  H   -0.000038   0.000057   0.000355  -0.000041   0.001598  -0.000119
     9  C   -0.033575  -0.042956   0.375582  -0.079299  -0.108479  -0.003144
    10  H   -0.001472  -0.003278  -0.028149   0.001052  -0.000189   0.000137
    11  C    0.391686   0.390421  -0.063683   0.001103   0.001609   0.000208
    12  H   -0.019388  -0.027389  -0.006292   0.000445   0.000251  -0.000031
    13  H    0.456929  -0.021659  -0.003057   0.005811   0.000314  -0.000021
    14  H   -0.021659   0.525305   0.005943   0.000234  -0.000057  -0.000009
    15  C   -0.003057   0.005943   4.137830   0.580323   0.314941  -0.017549
    16  O    0.005811   0.000234   0.580323   8.227632  -0.095810   0.002388
    17  N    0.000314  -0.000057   0.314941  -0.095810   7.312809   0.317935
    18  H   -0.000021  -0.000009  -0.017549   0.002388   0.317935   0.314876
    19  C   -0.000002   0.000003  -0.027966  -0.005196   0.189926  -0.023200
    20  H   -0.000001   0.000000  -0.001716   0.010957  -0.032345   0.002196
    21  H    0.000000   0.000000   0.000621   0.000391  -0.048672  -0.000755
    22  H    0.000000   0.000000   0.001129   0.000358  -0.047055  -0.001087
             19         20         21         22
     1  H    0.000000   0.000000   0.000000   0.000000
     2  C    0.000000   0.000000   0.000000   0.000000
     3  H   -0.000002   0.000000   0.000000   0.000000
     4  H    0.000000   0.000000   0.000000   0.000000
     5  C   -0.000054  -0.000001   0.000004  -0.000007
     6  O    0.000001   0.000000   0.000000   0.000002
     7  N   -0.000217  -0.000064   0.000009  -0.000002
     8  H   -0.000047   0.000000  -0.000015   0.000005
     9  C    0.004242   0.000620  -0.000039  -0.000116
    10  H   -0.000095  -0.000013  -0.000003   0.000016
    11  C   -0.000124  -0.000018   0.000015  -0.000003
    12  H   -0.000027  -0.000004  -0.000002   0.000001
    13  H   -0.000002  -0.000001   0.000000   0.000000
    14  H    0.000003   0.000000   0.000000   0.000000
    15  C   -0.027966  -0.001716   0.000621   0.001129
    16  O   -0.005196   0.010957   0.000391   0.000358
    17  N    0.189926  -0.032345  -0.048672  -0.047055
    18  H   -0.023200   0.002196  -0.000755  -0.001087
    19  C    4.952287   0.396324   0.402361   0.402724
    20  H    0.396324   0.432125  -0.023068  -0.021858
    21  H    0.402361  -0.023068   0.542321  -0.036848
    22  H    0.402724  -0.021858  -0.036848   0.528421
 Mulliken atomic charges:
              1
     1  H    0.226285
     2  C   -0.576381
     3  H    0.174369
     4  H    0.189574
     5  C    0.725586
     6  O   -0.618991
     7  N   -0.813180
     8  H    0.391554
     9  C   -0.056078
    10  H    0.272287
    11  C   -0.483599
    12  H    0.152556
    13  H    0.220549
    14  H    0.173680
    15  C    0.785542
    16  O   -0.652822
    17  N   -0.792303
    18  H    0.397444
    19  C   -0.290938
    20  H    0.236865
    21  H    0.163680
    22  H    0.174321
 Sum of Mulliken atomic charges =   0.00000
 Mulliken charges with hydrogens summed into heavy atoms:
              1
     2  C    0.013847
     5  C    0.725586
     6  O   -0.618991
     7  N   -0.421625
     9  C    0.216208
    11  C    0.063186
    15  C    0.785542
    16  O   -0.652822
    17  N   -0.394859
    19  C    0.283928
 Sum of Mulliken charges with hydrogens summed into heavy atoms =   0.00000
 Electronic spatial extent (au):  <R**2>=           1742.9503
 Charge=              0.0000 electrons
 Dipole moment (field-independent basis, Debye):
    X=              2.2695    Y=             -1.9605    Z=             -4.7946  Tot=              5.6553
 Quadrupole moment (field-independent basis, Debye-Ang):
   XX=            -68.6152   YY=            -55.6487   ZZ=            -63.3327
   XY=              4.7917   XZ=             -5.6892   YZ=              1.1660
 Traceless Quadrupole moment (field-independent basis, Debye-Ang):
   XX=             -6.0830   YY=              6.8835   ZZ=             -0.8005
   XY=              4.7917   XZ=             -5.6892   YZ=              1.1660
 Octapole moment (field-independent basis, Debye-Ang**2):
  XXX=             29.0408  YYY=             -6.1331  ZZZ=             -8.1770  XYY=             -2.0004
  XXY=            -21.5908  XXZ=            -20.2232  XZZ=             -8.1619  YZZ=              1.9124
  YYZ=              1.6720  XYZ=              2.6619
 Hexadecapole moment (field-independent basis, Debye-Ang**3):
 XXXX=          -1380.9504 YYYY=           -654.1925 ZZZZ=           -211.3000 XXXY=             32.8174
 XXXZ=            -10.6501 YYYX=              4.4036 YYYZ=              7.1902 ZZZX=            -15.1311
 ZZZY=              3.3296 XXYY=           -327.1068 XXZZ=           -288.6296 YYZZ=           -146.4898
 XXYZ=             -4.5848 YYXZ=              2.2589 ZZXY=              4.1796
 N-N= 5.608542743334D+02 E-N=-2.276696268772D+03  KE= 4.918634108324D+02
 Calling FoFJK, ICntrl=      2127 FMM=F ISym2X=0 I1Cent= 0 IOpClX= 0 NMat=1 NMatS=1 NMatT=0.
 ***** Axes restored to original set *****
 -------------------------------------------------------------------
 Center     Atomic                   Forces (Hartrees/Bohr)
 Number     Number              X              Y              Z
 -------------------------------------------------------------------
      1        1           0.005890889    0.004847479   -0.005822649
      2        6           0.007656767    0.004361366   -0.003798758
      3        1          -0.001240692   -0.005227041   -0.000800904
      4        1          -0.004325948    0.002619581    0.001617998
      5        6           0.003921152   -0.021325481    0.061705250
      6        8          -0.019949171    0.003450053   -0.040485329
      7        7           0.001550447    0.000955612   -0.015783626
      8        1           0.007584742   -0.002275053    0.011725978
      9        6           0.006811543    0.003767647   -0.007709728
     10        1          -0.009929847    0.002654404   -0.003431441
     11        6           0.003763786   -0.004850403    0.000130818
     12        1           0.005021456   -0.002027955   -0.000374114
     13        1          -0.007494380   -0.003104381   -0.002662183
     14        1          -0.000374412    0.004026795   -0.001986533
     15        6           0.034469259    0.024897538   -0.002121237
     16        8          -0.029537354   -0.024850439    0.008975235
     17        7          -0.014732725    0.001107299    0.001485969
     18        1           0.016313937    0.011325066   -0.002976643
     19        6          -0.001197184    0.002560086    0.001351445
     20        1          -0.007553230   -0.006398658    0.002219397
     21        1           0.002640777    0.001946093    0.003509944
     22        1           0.000710189    0.001540393   -0.004768887
 -------------------------------------------------------------------
 Cartesian Forces:  Max     0.061705250 RMS     0.013250056

 GradGradGradGradGradGradGradGradGradGradGradGradGradGradGradGradGradGrad
 Berny optimization.
 Internal  Forces:  Max     0.045139814 RMS     0.008189185
 Search for a local minimum.
 Step number   1 out of a maximum of  108
 All quantities printed in internal units (Hartrees-Bohrs-Radians)
 Mixed Optimization -- RFO/linear search
 Second derivative matrix not updated -- first step.
     Eigenvalues ---    0.00370   0.00435   0.00999   0.01044   0.01269
     Eigenvalues ---    0.01422   0.01660   0.02551   0.02552   0.03503
     Eigenvalues ---    0.05232   0.05841   0.05844   0.05844   0.07166
     Eigenvalues ---    0.07464   0.07685   0.07686   0.15421   0.16000
     Eigenvalues ---    0.16000   0.16000   0.16000   0.16000   0.16000
     Eigenvalues ---    0.16000   0.16000   0.16000   0.16000   0.16000
     Eigenvalues ---    0.16180   0.22000   0.22000   0.25000   0.25000
     Eigenvalues ---    0.25000   0.25000   0.29427   0.29887   0.30174
     Eigenvalues ---    0.34807   0.34808   0.34808   0.34810   0.34813
     Eigenvalues ---    0.34816   0.34818   0.34819   0.34819   0.34821
     Eigenvalues ---    0.38376   0.38379   0.45966   0.45969   0.58322
     Eigenvalues ---    0.58339   0.91516   0.915201000.000001000.00000
     Eigenvalues --- 1000.000001000.000001000.000001000.000001000.00000
     Eigenvalues --- 1000.000001000.000001000.000001000.000001000.00000
     Eigenvalues --- 1000.000001000.000001000.000001000.000001000.00000
     Eigenvalues --- 1000.000001000.000001000.000001000.000001000.00000
     Eigenvalues --- 1000.000001000.000001000.000001000.000001000.00000
     Eigenvalues --- 1000.000001000.000001000.000001000.000001000.00000
     Eigenvalues --- 1000.000001000.000001000.000001000.000001000.00000
     Eigenvalues --- 1000.000001000.000001000.00000
 RFO step:  Lambda=-1.62234669D-02 EMin= 3.69635118D-03
 Linear search not attempted -- first point.
 Maximum step size (   0.300) exceeded in Quadratic search.
    -- Step size scaled by   0.962
 Iteration  1 RMS(Cart)=  0.13966255 RMS(Int)=  0.00310442
 Iteration  2 RMS(Cart)=  0.00527379 RMS(Int)=  0.00053622
 Iteration  3 RMS(Cart)=  0.00000886 RMS(Int)=  0.00053619
 Iteration  4 RMS(Cart)=  0.00000000 RMS(Int)=  0.00053619
 Iteration  1 RMS(Cart)=  0.00027525 RMS(Int)=  0.00010701
 Iteration  2 RMS(Cart)=  0.00014725 RMS(Int)=  0.00011914
 Iteration  3 RMS(Cart)=  0.00008214 RMS(Int)=  0.00013468
 Iteration  4 RMS(Cart)=  0.00004841 RMS(Int)=  0.00014563
 Iteration  5 RMS(Cart)=  0.00003020 RMS(Int)=  0.00015268
 Iteration  6 RMS(Cart)=  0.00001972 RMS(Int)=  0.00015716
 Iteration  7 RMS(Cart)=  0.00001326 RMS(Int)=  0.00016003
 Iteration  8 RMS(Cart)=  0.00000906 RMS(Int)=  0.00016188
 Iteration  9 RMS(Cart)=  0.00000624 RMS(Int)=  0.00016309
 Iteration 10 RMS(Cart)=  0.00000431 RMS(Int)=  0.00016389
 Iteration 11 RMS(Cart)=  0.00000298 RMS(Int)=  0.00016443
 Iteration 12 RMS(Cart)=  0.00000206 RMS(Int)=  0.00016478
 Iteration 13 RMS(Cart)=  0.00000142 RMS(Int)=  0.00016502
 Iteration 14 RMS(Cart)=  0.00000098 RMS(Int)=  0.00016519
 Variable       Old X    -DE/DX   Delta X   Delta X   Delta X     New X
                                 (Linear)    (Quad)   (Total)
    R1        2.05987  -0.00874   0.00000  -0.02309  -0.02309   2.03678
    R2        2.05987  -0.00264   0.00000  -0.00696  -0.00696   2.05291
    R3        2.05970  -0.00320   0.00000  -0.00845  -0.00845   2.05125
    R4        2.89121  -0.00920   0.00000  -0.02851  -0.02851   2.86270
    R5        2.32242  -0.04514   0.00000  -0.04664  -0.04664   2.27578
    R6        2.52294   0.01807   0.00000   0.02901   0.02901   2.55195
    R7        1.90870  -0.01395   0.00000  -0.02821  -0.02821   1.88049
    R8        2.73817   0.00462   0.00000   0.01112   0.01112   2.74930
    R9        2.05975  -0.00858   0.00000  -0.02265  -0.02265   2.03709
   R10        2.88188   0.00597   0.00000   0.01824   0.01824   2.90013
   R11        2.87618   0.01197   0.00000   0.03623   0.03623   2.91241
   R12        2.05972  -0.00273   0.00000  -0.00721  -0.00721   2.05251
   R13        2.05984  -0.00815   0.00000  -0.02152  -0.02152   2.03833
   R14        2.05966  -0.00402   0.00000  -0.01062  -0.01062   2.04904
   R15        2.32240  -0.03956   0.00000  -0.04087  -0.04087   2.28153
   R16        2.52279   0.00805   0.00000   0.01292   0.01292   2.53572
   R17        1.90867  -0.01996   0.00000  -0.04037  -0.04037   1.86830
   R18        2.73822   0.00069   0.00000   0.00165   0.00165   2.73987
   R19        2.05970  -0.01001   0.00000  -0.02644  -0.02644   2.03326
   R20        2.05990  -0.00377   0.00000  -0.00997  -0.00997   2.04993
   R21        2.05980  -0.00418   0.00000  -0.01105  -0.01105   2.04875
    A1        1.91101   0.00000   0.00000  -0.00172  -0.00133   1.90969
    A2        1.91116   0.00042   0.00000   0.00018   0.00049   1.91166
    A3        1.93901  -0.00794   0.00000  -0.04528  -0.04492   1.89409
    A4        1.91015  -0.00505   0.00000  -0.02353  -0.02429   1.88586
    A5        1.89612   0.00680   0.00000   0.03817   0.03797   1.93409
    A6        1.89610   0.00581   0.00000   0.03254   0.03230   1.92840
    A7        2.10322   0.00711   0.00000   0.02570   0.02569   2.12890
    A8        2.03502  -0.00681   0.00000  -0.02463  -0.02464   2.01038
    A9        2.14495  -0.00030   0.00000  -0.00108  -0.00109   2.14386
   A10        2.09432  -0.00539   0.00000  -0.02313  -0.02372   2.07060
   A11        2.12756   0.00906   0.00000   0.03692   0.03632   2.16389
   A12        2.06130  -0.00368   0.00000  -0.01380  -0.01441   2.04689
   A13        1.91114  -0.00441   0.00000  -0.05997  -0.05885   1.85229
   A14        1.93905  -0.00779   0.00000  -0.02247  -0.02596   1.91309
   A15        1.93900   0.01230   0.00000   0.08575   0.08615   2.02516
   A16        1.89609   0.00453   0.00000   0.01032   0.00949   1.90559
   A17        1.89608  -0.00561   0.00000  -0.04215  -0.04069   1.85539
   A18        1.88137   0.00095   0.00000   0.02794   0.02677   1.90815
   A19        1.91115   0.00587   0.00000   0.03132   0.03117   1.94232
   A20        1.91106   0.00118   0.00000   0.00582   0.00576   1.91682
   A21        1.91110   0.00147   0.00000   0.00939   0.00926   1.92036
   A22        1.91011  -0.00399   0.00000  -0.02454  -0.02462   1.88549
   A23        1.91023  -0.00347   0.00000  -0.01768  -0.01790   1.89233
   A24        1.91015  -0.00107   0.00000  -0.00435  -0.00439   1.90576
   A25        2.10316  -0.00849   0.00000  -0.03067  -0.03075   2.07241
   A26        2.03506   0.01176   0.00000   0.04250   0.04241   2.07747
   A27        2.14497  -0.00327   0.00000  -0.01183  -0.01193   2.13304
   A28        2.09447  -0.00417   0.00000  -0.01893  -0.01904   2.07543
   A29        2.12754   0.00556   0.00000   0.02264   0.02252   2.15007
   A30        2.06117  -0.00139   0.00000  -0.00371  -0.00382   2.05735
   A31        1.91114  -0.00396   0.00000  -0.02375  -0.02362   1.88752
   A32        1.91117   0.00424   0.00000   0.02434   0.02419   1.93536
   A33        1.91108   0.00400   0.00000   0.02277   0.02262   1.93371
   A34        1.91016  -0.00062   0.00000  -0.00526  -0.00513   1.90503
   A35        1.91017  -0.00062   0.00000  -0.00573  -0.00560   1.90457
   A36        1.91008  -0.00304   0.00000  -0.01239  -0.01279   1.89729
    D1        0.00007  -0.00016   0.00000  -0.00406  -0.00406  -0.00399
    D2       -3.14150   0.00012   0.00000   0.00510   0.00516  -3.13634
    D3        2.10327  -0.00068   0.00000  -0.00953  -0.01002   2.09324
    D4       -1.03830  -0.00040   0.00000  -0.00037  -0.00080  -1.03911
    D5       -2.10331   0.00048   0.00000   0.00270   0.00310  -2.10020
    D6        1.03831   0.00075   0.00000   0.01186   0.01232   1.05063
    D7       -0.00001  -0.00049   0.00000  -0.02102  -0.02088  -0.02089
    D8       -3.14151   0.00168   0.00000   0.04549   0.04544  -3.09607
    D9       -3.14158  -0.00021   0.00000  -0.01163  -0.01158   3.13003
   D10        0.00011   0.00196   0.00000   0.05489   0.05475   0.05485
   D11        0.26173  -0.00112   0.00000  -0.03725  -0.03825   0.22348
   D12        2.35617  -0.00327   0.00000  -0.07758  -0.07698   2.27919
   D13       -1.83266   0.00095   0.00000   0.00000   0.00000  -1.83267
   D14       -2.87977   0.00101   0.00000   0.02805   0.02724  -2.85254
   D15       -0.78533  -0.00113   0.00000  -0.01228  -0.01149  -0.79682
   D16        1.30902   0.00309   0.00000   0.06530   0.06549   1.37451
   D17        1.04724   0.00631   0.00000   0.06357   0.06323   1.11047
   D18        3.14157   0.00575   0.00000   0.05628   0.05591  -3.08570
   D19       -1.04726   0.00606   0.00000   0.06027   0.05984  -0.98742
   D20       -3.13259  -0.00103   0.00000  -0.01788  -0.01796   3.13263
   D21       -1.03826  -0.00160   0.00000  -0.02517  -0.02529  -1.06355
   D22        1.05609  -0.00129   0.00000  -0.02118  -0.02135   1.03474
   D23       -1.08102  -0.00472   0.00000  -0.04695  -0.04642  -1.12744
   D24        1.01331  -0.00528   0.00000  -0.05425  -0.05374   0.95957
   D25        3.10766  -0.00497   0.00000  -0.05026  -0.04981   3.05785
   D26       -2.87975  -0.00001   0.00000  -0.02404  -0.02460  -2.90435
   D27        0.26184   0.00067   0.00000   0.00000   0.00000   0.26184
   D28        1.30012   0.00146   0.00000   0.02436   0.02429   1.32440
   D29       -1.84147   0.00214   0.00000   0.04841   0.04889  -1.79259
   D30       -0.75146  -0.00141   0.00000   0.01950   0.02099  -0.73048
   D31        2.39013  -0.00073   0.00000   0.04355   0.04558   2.43572
   D32       -0.00010   0.00027   0.00000   0.00500   0.00452   0.00442
   D33       -3.14156  -0.00071   0.00000  -0.02388  -0.02421   3.11741
   D34        3.14149   0.00096   0.00000   0.02968   0.03001  -3.11168
   D35        0.00004  -0.00002   0.00000   0.00079   0.00128   0.00132
   D36       -0.00005   0.00044   0.00000   0.01389   0.01394   0.01389
   D37        2.09440  -0.00015   0.00000   0.00780   0.00764   2.10203
   D38       -2.09447   0.00118   0.00000   0.02150   0.02176  -2.07271
   D39       -3.14151  -0.00053   0.00000  -0.01446  -0.01451   3.12716
   D40       -1.04706  -0.00112   0.00000  -0.02055  -0.02081  -1.06788
   D41        1.04726   0.00021   0.00000  -0.00685  -0.00669   1.04057
         Item               Value     Threshold  Converged?
 Maximum Force            0.045140     0.000450     NO 
 RMS     Force            0.008271     0.000300     NO 
 Maximum Displacement     0.501329     0.001800     NO 
 RMS     Displacement     0.138890     0.001200     NO 
 Predicted change in Energy=-8.830551D-03
 GradGradGradGradGradGradGradGradGradGradGradGradGradGradGradGradGradGrad

                          Input orientation:                          
 ---------------------------------------------------------------------
 Center     Atomic      Atomic             Coordinates (Angstroms)
 Number     Number       Type             X           Y           Z
 ---------------------------------------------------------------------
      1          1           0        1.428575    2.131553    1.859690
      2          6           0        1.720506    2.573927    0.921194
      3          1           0        0.939950    3.249008    0.581841
      4          1           0        1.839775    1.795182    0.174477
      5          6           0        3.024475    3.317643    1.124664
      6          8           0        3.574188    3.359981    2.195340
      7          7           0        3.512528    3.933056    0.026148
      8          1           0        3.011991    3.848704   -0.829771
      9          6           0        4.775871    4.653749   -0.008463
     10          1           0        5.295365    4.391177    0.898858
     11          6           0        5.601729    4.187956   -1.215211
     12          1           0        5.103808    4.428133   -2.150142
     13          1           0        6.562134    4.678946   -1.212705
     14          1           0        5.749962    3.114712   -1.171776
     15          6           0        4.677120    6.191713   -0.020950
     16          8           0        5.661049    6.834392   -0.297545
     17          7           0        3.511395    6.772010    0.302914
     18          1           0        2.743355    6.198838    0.545897
     19          6           0        3.326037    8.209253    0.348907
     20          1           0        4.255168    8.675990    0.072226
     21          1           0        2.551041    8.521608   -0.342870
     22          1           0        3.050877    8.530070    1.347277
 ---------------------------------------------------------------------
                    Distance matrix (angstroms):
                    1          2          3          4          5
     1  H    0.000000
     2  C    1.077819   0.000000
     3  H    1.766453   1.086352   0.000000
     4  H    1.766968   1.085476   1.757624   0.000000
     5  C    2.119899   1.514875   2.155136   2.150409   0.000000
     6  O    2.495066   2.382743   3.091100   3.088798   1.204293
     7  N    3.309102   2.420678   2.719352   2.718568   1.350433
     8  H    3.562164   2.521680   2.577913   2.568960   2.025339
     9  C    4.588667   3.811191   4.127474   4.101894   2.477205
    10  H    4.580520   4.010300   4.513832   4.382353   2.521984
    11  C    5.576650   4.715210   5.083620   4.670000   3.588133
    12  H    5.904267   4.931320   5.117790   4.794809   4.034993
    13  H    6.502481   5.694383   6.072402   5.704476   4.453254
    14  H    5.369429   4.572689   5.121466   4.340866   3.569747
    15  C    5.529445   4.766296   4.794717   5.236240   3.507698
    16  O    6.684624   5.929988   5.993085   6.341812   4.619710
    17  N    5.319355   4.605806   4.370545   5.251631   3.583994
    18  H    4.471858   3.785109   3.457609   4.510721   2.952166
    19  C    6.543796   5.887455   5.509237   6.586327   4.961913
    20  H    7.349443   6.661864   6.379852   7.293154   5.597688
    21  H    6.851569   6.136982   5.590260   6.783683   5.427619
    22  H    6.620836   6.117767   5.738599   6.942691   5.217246
                    6          7          8          9         10
     6  O    0.000000
     7  N    2.244462   0.000000
     8  H    3.115479   0.995114   0.000000
     9  C    2.823938   1.454865   2.105687   0.000000
    10  H    2.388865   2.037156   2.914830   1.077984   0.000000
    11  C    4.053186   2.443502   2.640151   1.534680   2.145797
    12  H    4.729048   2.741078   2.540633   2.178356   3.055235
    13  H    4.720409   3.375086   3.665987   2.154430   2.479156
    14  H    4.016418   2.666612   2.855205   2.161200   2.474580
    15  C    3.761264   2.541657   2.986058   1.541182   2.114285
    16  O    4.758255   3.624730   4.026799   2.371141   2.744887
    17  N    3.902199   2.852412   3.174602   2.486540   3.034149
    18  H    3.386747   2.448578   2.736377   2.612611   3.147217
    19  C    5.194836   4.292413   4.527946   3.856337   4.331096
    20  H    5.764659   4.800943   5.065746   4.056608   4.486084
    21  H    5.842236   4.702705   4.720760   4.474598   5.112109
    22  H    5.265253   4.805314   5.162969   4.454156   4.729613
                   11         12         13         14         15
    11  C    0.000000
    12  H    1.086143   0.000000
    13  H    1.078636   1.751688   0.000000
    14  H    1.084303   1.760622   1.762989   0.000000
    15  C    2.509223   2.797451   2.694813   3.455911   0.000000
    16  O    2.801651   3.087510   2.509067   3.822068   1.207334
    17  N    3.653974   3.747935   3.998128   4.534503   1.341845
    18  H    3.913496   3.996969   4.470551   4.637017   2.015147
    19  C    4.878121   4.868530   5.037263   5.843136   2.456153
    20  H    4.859338   4.868614   4.790564   5.891500   2.521579
    21  H    5.371053   5.151639   5.622413   6.336774   3.170529
    22  H    5.650411   5.768219   5.806341   6.554143   3.159846
                   16         17         18         19         20
    16  O    0.000000
    17  N    2.232813   0.000000
    18  H    3.102944   0.988662   0.000000
    19  C    2.785754   1.449876   2.102401   0.000000
    20  H    2.346213   2.057075   2.940446   1.075956   0.000000
    21  H    3.538489   2.097715   2.494423   1.084777   1.760735
    22  H    3.520478   2.096080   2.484235   1.084149   1.759933
                   21         22
    21  H    0.000000
    22  H    1.762528   0.000000
 Stoichiometry    C6H12N2O2
 Framework group  C1[X(C6H12N2O2)]
 Deg. of freedom    60
 Full point group                 C1      NOp   1
 Largest Abelian subgroup         C1      NOp   1
 Largest concise Abelian subgroup C1      NOp   1
                         Standard orientation:                         
 ---------------------------------------------------------------------
 Center     Atomic      Atomic             Coordinates (Angstroms)
 Number     Number       Type             X           Y           Z
 ---------------------------------------------------------------------
      1          1           0        3.868753   -1.357572   -0.000981
      2          6           0        3.138986   -0.895152   -0.645420
      3          1           0        2.738625   -1.638256   -1.329282
      4          1           0        3.615728   -0.118070   -1.234589
      5          6           0        2.039507   -0.308361    0.215782
      6          8           0        2.055612   -0.394486    1.416884
      7          7           0        1.043738    0.303045   -0.461192
      8          1           0        1.098726    0.346904   -1.453817
      9          6           0       -0.077148    0.977972    0.174984
     10          1           0        0.184856    1.077437    1.215901
     11          6           0       -0.251941    2.374596   -0.436682
     12          1           0       -0.508385    2.314306   -1.490393
     13          1           0       -1.046040    2.899415    0.070692
     14          1           0        0.668025    2.940261   -0.339727
     15          6           0       -1.425393    0.232272    0.137478
     16          8           0       -2.431297    0.836904    0.420734
     17          7           0       -1.439872   -1.071351   -0.180175
     18          1           0       -0.583954   -1.524368   -0.379253
     19          6           0       -2.651734   -1.866574   -0.214118
     20          1           0       -3.479427   -1.226970    0.037898
     21          1           0       -2.812737   -2.284207   -1.202249
     22          1           0       -2.599403   -2.678612    0.502286
 ---------------------------------------------------------------------
 Rotational constants (GHZ):      1.8979485      0.8301173      0.6661414
 Standard basis: 6-31G(d) (6D, 7F)
 There are   174 symmetry adapted basis functions of A   symmetry.
 Integral buffers will be    131072 words long.
 Raffenetti 1 integral format.
 Two-electron integral symmetry is turned on.
   174 basis functions,   328 primitive gaussians,   174 cartesian basis functions
    39 alpha electrons       39 beta electrons
       nuclear repulsion energy       556.0096315538 Hartrees.
 NAtoms=   22 NActive=   22 NUniq=   22 SFac= 7.50D-01 NAtFMM=   80 NAOKFM=F Big=F
 One-electron integrals computed using PRISM.
 NBasis=   174 RedAO= T  NBF=   174
 NBsUse=   174 1.00D-06 NBFU=   174
 Initial guess read from the read-write file.
 B after Tr=     0.000000    0.000000    0.000000
         Rot=    1.000000    0.000000    0.000000    0.000000 Ang=   0.00 deg.
 Initial guess orbital symmetries:
       Occupied  (A) (A) (A) (A) (A) (A) (A) (A) (A) (A) (A) (A)
                 (A) (A) (A) (A) (A) (A) (A) (A) (A) (A) (A) (A)
                 (A) (A) (A) (A) (A) (A) (A) (A) (A) (A) (A) (A)
                 (A) (A) (A)
       Virtual   (A) (A) (A) (A) (A) (A) (A) (A) (A) (A) (A) (A)
                 (A) (A) (A) (A) (A) (A) (A) (A) (A) (A) (A) (A)
                 (A) (A) (A) (A) (A) (A) (A) (A) (A) (A) (A) (A)
                 (A) (A) (A) (A) (A) (A) (A) (A) (A) (A) (A) (A)
                 (A) (A) (A) (A) (A) (A) (A) (A) (A) (A) (A) (A)
                 (A) (A) (A) (A) (A) (A) (A) (A) (A) (A) (A) (A)
                 (A) (A) (A) (A) (A) (A) (A) (A) (A) (A) (A) (A)
                 (A) (A) (A) (A) (A) (A) (A) (A) (A) (A) (A) (A)
                 (A) (A) (A) (A) (A) (A) (A) (A) (A) (A) (A) (A)
                 (A) (A) (A) (A) (A) (A) (A) (A) (A) (A) (A) (A)
                 (A) (A) (A) (A) (A) (A) (A) (A) (A) (A) (A) (A)
                 (A) (A) (A)
 Harris functional with IExCor=  205 diagonalized for initial guess.
 ExpMin= 1.61D-01 ExpMax= 5.48D+03 ExpMxC= 8.25D+02 IAcc=1 IRadAn=         1 AccDes= 0.00D+00
 HarFok:  IExCor=  205 AccDes= 0.00D+00 IRadAn=         1 IDoV= 1
 ScaDFX=  1.000000  1.000000  1.000000  1.000000
 FoFCou: FMM=F IPFlag=           0 FMFlag=      100000 FMFlg1=           0
         NFxFlg=           0 DoJE=T BraDBF=F KetDBF=T FulRan=T
         Omega=  0.000000  0.000000  1.000000  0.000000  0.000000 ICntrl=     500 IOpCl=  0
         NMat0=    1 NMatS0=    1 NMatT0=    0 NMatD0=    1 NMtDS0=    0 NMtDT0=    0
         I1Cent=           4 NGrid=           0.
 Petite list used in FoFCou.
 Requested convergence on RMS density matrix=1.00D-08 within 128 cycles.
 Requested convergence on MAX density matrix=1.00D-06.
 Requested convergence on             energy=1.00D-06.
 No special actions if energy rises.
 Integral accuracy reduced to 1.0D-05 until final iterations.
 Initial convergence to 1.0D-05 achieved.  Increase integral accuracy.
 SCF Done:  E(RHF) =  -492.855190377     A.U. after   14 cycles
             Convg  =    0.7189D-08             -V/T =  2.0016
 Calling FoFJK, ICntrl=      2127 FMM=F ISym2X=0 I1Cent= 0 IOpClX= 0 NMat=1 NMatS=1 NMatT=0.
 ***** Axes restored to original set *****
 -------------------------------------------------------------------
 Center     Atomic                   Forces (Hartrees/Bohr)
 Number     Number              X              Y              Z
 -------------------------------------------------------------------
      1        1          -0.000693729   -0.000714635    0.000769889
      2        6           0.001242354    0.000514287   -0.001795494
      3        1           0.000321622   -0.000418394    0.000006677
      4        1          -0.000522636   -0.000066122    0.000089569
      5        6           0.000855146   -0.003032377    0.015132844
      6        8          -0.003301727   -0.000023237   -0.007594245
      7        7           0.001172982    0.013131540   -0.005205456
      8        1          -0.000227553   -0.001488987   -0.000360317
      9        6          -0.001283026   -0.003495786   -0.006652658
     10        1           0.000902537    0.001276940    0.001909073
     11        6           0.000723777    0.000898816    0.003010359
     12        1          -0.000528435    0.000254690   -0.000098163
     13        1           0.000612687    0.000355071   -0.000915414
     14        1          -0.000534498    0.000260057    0.000749749
     15        6           0.009537384    0.005059204   -0.000409777
     16        8          -0.002884639   -0.005786979    0.000617024
     17        7          -0.004946807   -0.000257587   -0.001142229
     18        1          -0.002262210   -0.004138362    0.001462782
     19        6           0.001031607   -0.002244607    0.000519455
     20        1           0.000655510    0.000886170   -0.000175330
     21        1           0.000017780   -0.000632696   -0.000143860
     22        1           0.000111875   -0.000337006    0.000225521
 -------------------------------------------------------------------
 Cartesian Forces:  Max     0.015132844 RMS     0.003508794

 GradGradGradGradGradGradGradGradGradGradGradGradGradGradGradGradGradGrad
 Berny optimization.
 Using GEDIIS/GDIIS optimizer.
 Internal  Forces:  Max     0.012914344 RMS     0.002664449
 Search for a local minimum.
 Step number   2 out of a maximum of  108
 All quantities printed in internal units (Hartrees-Bohrs-Radians)
 Mixed Optimization -- RFO/linear search
 Update second derivatives using D2CorX and points    1    2
 DE= -6.85D-03 DEPred=-8.83D-03 R= 7.76D-01
 SS=  1.41D+00  RLast= 3.00D-01 DXNew= 5.0454D-01 8.9950D-01
 Trust test= 7.76D-01 RLast= 3.00D-01 DXMaxT set to 5.05D-01
 Use linear search instead of GDIIS.
     Eigenvalues ---    0.00370   0.00435   0.01004   0.01044   0.01254
     Eigenvalues ---    0.01416   0.01653   0.02545   0.02552   0.03205
     Eigenvalues ---    0.05458   0.05629   0.05736   0.05978   0.07134
     Eigenvalues ---    0.07314   0.07459   0.07743   0.15506   0.15969
     Eigenvalues ---    0.15998   0.16000   0.16000   0.16000   0.16000
     Eigenvalues ---    0.16000   0.16000   0.16000   0.16042   0.16807
     Eigenvalues ---    0.17949   0.21768   0.22010   0.24462   0.24996
     Eigenvalues ---    0.24999   0.27464   0.29399   0.29924   0.32252
     Eigenvalues ---    0.34767   0.34807   0.34809   0.34811   0.34812
     Eigenvalues ---    0.34816   0.34818   0.34818   0.34820   0.36412
     Eigenvalues ---    0.38362   0.39076   0.45861   0.48291   0.56292
     Eigenvalues ---    0.58367   0.83641   0.915491000.000001000.00000
     Eigenvalues --- 1000.000001000.000001000.000001000.000001000.00000
     Eigenvalues --- 1000.000001000.000001000.000001000.000001000.00000
     Eigenvalues --- 1000.000001000.000001000.000001000.000001000.00000
     Eigenvalues --- 1000.000001000.000001000.000001000.000001000.00000
     Eigenvalues --- 1000.000001000.000001000.000001000.000001000.00000
     Eigenvalues --- 1000.000001000.000001000.000001000.000001000.00000
     Eigenvalues --- 1000.000001000.000001000.000001000.000001000.00000
     Eigenvalues --- 1000.000001000.000001000.00000
 RFO step:  Lambda=-2.23159288D-03 EMin= 3.69633858D-03
 Quartic linear search produced a step of -0.09195.
 Iteration  1 RMS(Cart)=  0.05478666 RMS(Int)=  0.00068092
 Iteration  2 RMS(Cart)=  0.00125979 RMS(Int)=  0.00014543
 Iteration  3 RMS(Cart)=  0.00000046 RMS(Int)=  0.00014543
 Iteration  1 RMS(Cart)=  0.00008496 RMS(Int)=  0.00002924
 Iteration  2 RMS(Cart)=  0.00004420 RMS(Int)=  0.00003265
 Iteration  3 RMS(Cart)=  0.00002319 RMS(Int)=  0.00003676
 Iteration  4 RMS(Cart)=  0.00001237 RMS(Int)=  0.00003943
 Iteration  5 RMS(Cart)=  0.00000679 RMS(Int)=  0.00004100
 Iteration  6 RMS(Cart)=  0.00000388 RMS(Int)=  0.00004190
 Iteration  7 RMS(Cart)=  0.00000233 RMS(Int)=  0.00004242
 Iteration  8 RMS(Cart)=  0.00000147 RMS(Int)=  0.00004272
 Iteration  9 RMS(Cart)=  0.00000096 RMS(Int)=  0.00004290
 Variable       Old X    -DE/DX   Delta X   Delta X   Delta X     New X
                                 (Linear)    (Quad)   (Total)
    R1        2.03678   0.00115   0.00212  -0.00224  -0.00012   2.03666
    R2        2.05291  -0.00049   0.00064  -0.00285  -0.00221   2.05070
    R3        2.05125  -0.00007   0.00078  -0.00210  -0.00132   2.04993
    R4        2.86270   0.00016   0.00262  -0.00595  -0.00333   2.85937
    R5        2.27578  -0.00826   0.00429  -0.01872  -0.01443   2.26135
    R6        2.55195   0.00784  -0.00267   0.01871   0.01604   2.56799
    R7        1.88049   0.00055   0.00259  -0.00530  -0.00271   1.87779
    R8        2.74930  -0.00289  -0.00102  -0.00427  -0.00529   2.74400
    R9        2.03709   0.00173   0.00208  -0.00064   0.00144   2.03853
   R10        2.90013  -0.00255  -0.00168  -0.00355  -0.00523   2.89490
   R11        2.91241  -0.00752  -0.00333  -0.01426  -0.01759   2.89482
   R12        2.05251   0.00038   0.00066  -0.00064   0.00002   2.05254
   R13        2.03833   0.00071   0.00198  -0.00304  -0.00106   2.03726
   R14        2.04904  -0.00030   0.00098  -0.00318  -0.00220   2.04683
   R15        2.28153  -0.00557   0.00376  -0.01476  -0.01100   2.27053
   R16        2.53572   0.00196  -0.00119   0.00596   0.00477   2.54049
   R17        1.86830   0.00452   0.00371  -0.00027   0.00345   1.87175
   R18        2.73987  -0.00253  -0.00015  -0.00556  -0.00572   2.73415
   R19        2.03326   0.00100   0.00243  -0.00340  -0.00097   2.03229
   R20        2.04993  -0.00010   0.00092  -0.00252  -0.00161   2.04833
   R21        2.04875   0.00008   0.00102  -0.00229  -0.00128   2.04747
    A1        1.90969  -0.00025   0.00012  -0.00158  -0.00149   1.90819
    A2        1.91166  -0.00052  -0.00005  -0.00228  -0.00235   1.90931
    A3        1.89409   0.00063   0.00413  -0.00629  -0.00219   1.89190
    A4        1.88586  -0.00040   0.00223  -0.00838  -0.00610   1.87976
    A5        1.93409  -0.00010  -0.00349   0.00773   0.00425   1.93834
    A6        1.92840   0.00062  -0.00297   0.01071   0.00775   1.93615
    A7        2.12890   0.00129  -0.00236   0.01049   0.00805   2.13696
    A8        2.01038  -0.00122   0.00227  -0.00991  -0.00772   2.00266
    A9        2.14386  -0.00006   0.00010  -0.00040  -0.00038   2.14349
   A10        2.07060  -0.00030   0.00218  -0.00889  -0.00708   2.06352
   A11        2.16389  -0.00087  -0.00334   0.00402   0.00029   2.16418
   A12        2.04689   0.00112   0.00133   0.00145   0.00237   2.04926
   A13        1.85229   0.00125   0.00541  -0.00362   0.00110   1.85339
   A14        1.91309   0.00380   0.00239   0.01567   0.01858   1.93167
   A15        2.02516  -0.00701  -0.00792  -0.02199  -0.03026   1.99490
   A16        1.90559  -0.00137  -0.00087   0.00916   0.00839   1.91398
   A17        1.85539  -0.00004   0.00374  -0.02033  -0.01705   1.83834
   A18        1.90815   0.00327  -0.00246   0.02062   0.01853   1.92668
   A19        1.94232  -0.00072  -0.00287   0.00192  -0.00094   1.94138
   A20        1.91682   0.00147  -0.00053   0.01090   0.01038   1.92720
   A21        1.92036  -0.00136  -0.00085  -0.00588  -0.00672   1.91363
   A22        1.88549  -0.00032   0.00226  -0.00676  -0.00449   1.88100
   A23        1.89233   0.00074   0.00165  -0.00269  -0.00104   1.89129
   A24        1.90576   0.00022   0.00040   0.00237   0.00278   1.90855
   A25        2.07241   0.00266   0.00283   0.00256   0.00538   2.07779
   A26        2.07747  -0.01291  -0.00390  -0.03690  -0.04080   2.03667
   A27        2.13304   0.01026   0.00110   0.03412   0.03522   2.16826
   A28        2.07543  -0.00180   0.00175  -0.01461  -0.01298   2.06245
   A29        2.15007   0.00009  -0.00207   0.00529   0.00309   2.15316
   A30        2.05735   0.00170   0.00035   0.00849   0.00870   2.06605
   A31        1.88752   0.00101   0.00217   0.00089   0.00306   1.89057
   A32        1.93536  -0.00098  -0.00222  -0.00040  -0.00261   1.93275
   A33        1.93371  -0.00055  -0.00208   0.00177  -0.00029   1.93342
   A34        1.90503   0.00006   0.00047  -0.00038   0.00009   1.90511
   A35        1.90457  -0.00009   0.00052  -0.00106  -0.00055   1.90401
   A36        1.89729   0.00057   0.00118  -0.00088   0.00033   1.89763
    D1       -0.00399   0.00025   0.00037   0.01472   0.01512   0.01112
    D2       -3.13634  -0.00014  -0.00047  -0.00741  -0.00791   3.13893
    D3        2.09324   0.00028   0.00092   0.01349   0.01447   2.10771
    D4       -1.03911  -0.00011   0.00007  -0.00864  -0.00856  -1.04766
    D5       -2.10020   0.00012  -0.00029   0.01498   0.01469  -2.08551
    D6        1.05063  -0.00027  -0.00113  -0.00714  -0.00834   1.04229
    D7       -0.02089   0.00021   0.00192  -0.00172   0.00028  -0.02061
    D8       -3.09607   0.00109  -0.00418   0.06119   0.05686  -3.03922
    D9        3.13003  -0.00019   0.00106  -0.02412  -0.02289   3.10714
   D10        0.05485   0.00069  -0.00503   0.03879   0.03368   0.08853
   D11        0.22348  -0.00166   0.00352  -0.04096  -0.03737   0.18611
   D12        2.27919  -0.00062   0.00708  -0.02410  -0.01696   2.26223
   D13       -1.83267   0.00160   0.00000   0.00000   0.00000  -1.83266
   D14       -2.85254  -0.00074  -0.00250   0.02152   0.01911  -2.83342
   D15       -0.79682   0.00030   0.00106   0.03838   0.03952  -0.75730
   D16        1.37451   0.00252  -0.00602   0.06249   0.05648   1.43099
   D17        1.11047  -0.00254  -0.00581  -0.02223  -0.02791   1.08256
   D18       -3.08570  -0.00244  -0.00514  -0.02232  -0.02733  -3.11303
   D19       -0.98742  -0.00209  -0.00550  -0.01621  -0.02158  -1.00900
   D20        3.13263   0.00032   0.00165  -0.01264  -0.01099   3.12164
   D21       -1.06355   0.00042   0.00233  -0.01273  -0.01040  -1.07395
   D22        1.03474   0.00076   0.00196  -0.00662  -0.00466   1.03008
   D23       -1.12744   0.00133   0.00427  -0.02038  -0.01624  -1.14369
   D24        0.95957   0.00143   0.00494  -0.02047  -0.01566   0.94391
   D25        3.05785   0.00178   0.00458  -0.01436  -0.00992   3.04793
   D26       -2.90435  -0.00168   0.00226  -0.00943  -0.00695  -2.91130
   D27        0.26184  -0.00179   0.00000   0.00000   0.00001   0.26184
   D28        1.32440   0.00088  -0.00223   0.02237   0.01997   1.34437
   D29       -1.79259   0.00078  -0.00450   0.03180   0.02692  -1.76567
   D30       -0.73048   0.00083  -0.00193   0.01215   0.01010  -0.72038
   D31        2.43572   0.00073  -0.00419   0.02158   0.01705   2.45277
   D32        0.00442   0.00011  -0.00042   0.00777   0.00728   0.01170
   D33        3.11741  -0.00044   0.00223  -0.02701  -0.02464   3.09277
   D34       -3.11168   0.00013  -0.00276   0.01805   0.01515  -3.09653
   D35        0.00132  -0.00043  -0.00012  -0.01672  -0.01677  -0.01545
   D36        0.01389   0.00034  -0.00128   0.01880   0.01759   0.03148
   D37        2.10203   0.00046  -0.00070   0.01866   0.01805   2.12008
   D38       -2.07271   0.00015  -0.00200   0.01848   0.01653  -2.05617
   D39        3.12716  -0.00026   0.00133  -0.01599  -0.01473   3.11243
   D40       -1.06788  -0.00014   0.00191  -0.01613  -0.01427  -1.08214
   D41        1.04057  -0.00045   0.00062  -0.01631  -0.01578   1.02478
         Item               Value     Threshold  Converged?
 Maximum Force            0.012919     0.000450     NO 
 RMS     Force            0.002669     0.000300     NO 
 Maximum Displacement     0.172955     0.001800     NO 
 RMS     Displacement     0.055399     0.001200     NO 
 Predicted change in Energy=-1.228412D-03
 GradGradGradGradGradGradGradGradGradGradGradGradGradGradGradGradGradGrad

                          Input orientation:                          
 ---------------------------------------------------------------------
 Center     Atomic      Atomic             Coordinates (Angstroms)
 Number     Number       Type             X           Y           Z
 ---------------------------------------------------------------------
      1          1           0        1.418825    2.198698    1.856661
      2          6           0        1.720576    2.629862    0.916128
      3          1           0        0.936500    3.287011    0.554188
      4          1           0        1.853411    1.840448    0.184061
      5          6           0        3.010938    3.390202    1.131435
      6          8           0        3.552668    3.446486    2.196961
      7          7           0        3.511792    3.987356    0.018231
      8          1           0        3.021235    3.871950   -0.838178
      9          6           0        4.796349    4.662483   -0.032836
     10          1           0        5.301791    4.417417    0.888122
     11          6           0        5.622495    4.163970   -1.222678
     12          1           0        5.126193    4.380175   -2.164311
     13          1           0        6.586209    4.646869   -1.240148
     14          1           0        5.759418    3.092167   -1.147337
     15          6           0        4.704626    6.191512   -0.049976
     16          8           0        5.682084    6.831486   -0.330404
     17          7           0        3.521216    6.729378    0.292899
     18          1           0        2.784662    6.116935    0.544821
     19          6           0        3.291102    8.155007    0.382383
     20          1           0        4.197268    8.661956    0.102315
     21          1           0        2.493138    8.457686   -0.285852
     22          1           0        3.024401    8.438547    1.393516
 ---------------------------------------------------------------------
                    Distance matrix (angstroms):
                    1          2          3          4          5
     1  H    0.000000
     2  C    1.077756   0.000000
     3  H    1.764511   1.085182   0.000000
     4  H    1.764879   1.084777   1.752217   0.000000
     5  C    2.116710   1.513113   2.155726   2.153863   0.000000
     6  O    2.495209   2.379910   3.093294   3.085223   1.196656
     7  N    3.310534   2.420220   2.722106   2.717893   1.358922
     8  H    3.553822   2.512387   2.574288   2.556518   2.027698
     9  C    4.587821   3.806897   4.139439   4.083113   2.482320
    10  H    4.575829   4.002654   4.521625   4.362086   2.522375
    11  C    5.569153   4.706692   5.087716   4.645822   3.600110
    12  H    5.888262   4.914359   5.112609   4.761950   4.039342
    13  H    6.502740   5.691418   6.081782   5.683639   4.470590
    14  H    5.353787   4.558932   5.117977   4.312344   3.582704
    15  C    5.511290   4.745868   4.795822   5.207299   3.480179
    16  O    6.664935   5.907710   5.988854   6.311409   4.595044
    17  N    5.233780   4.520702   4.312646   5.166726   3.480462
    18  H    4.351898   3.664673   3.379980   4.391551   2.798283
    19  C    6.415336   5.768766   5.410273   6.479193   4.831453
    20  H    7.250598   6.571336   6.302922   7.213412   5.500714
    21  H    6.702197   6.000429   5.464858   6.664677   5.287363
    22  H    6.459729   5.972326   5.621576   6.809472   5.055161
                    6          7          8          9         10
     6  O    0.000000
     7  N    2.245234   0.000000
     8  H    3.110548   0.993681   0.000000
     9  C    2.827964   1.452064   2.103461   0.000000
    10  H    2.390648   2.036113   2.911800   1.078745   0.000000
    11  C    4.061145   2.454814   2.645688   1.531913   2.150014
    12  H    4.729530   2.743007   2.539245   2.175243   3.057706
    13  H    4.738883   3.386815   3.670302   2.159038   2.496379
    14  H    4.022389   2.685467   2.863789   2.153022   2.471599
    15  C    3.729732   2.507151   2.972446   1.531873   2.093811
    16  O    4.730773   3.594550   4.012083   2.361705   2.730780
    17  N    3.795236   2.755760   3.113553   2.450331   2.978238
    18  H    3.232753   2.311087   2.647379   2.548726   3.056494
    19  C    5.052848   4.189347   4.461746   3.825690   4.274134
    20  H    5.657223   4.725339   5.021129   4.046350   4.455735
    21  H    5.692020   4.594995   4.648971   4.446613   5.058708
    22  H    5.083823   4.684235   5.082743   4.408280   4.648808
                   11         12         13         14         15
    11  C    0.000000
    12  H    1.086155   0.000000
    13  H    1.078074   1.748386   0.000000
    14  H    1.083137   1.759027   1.763320   0.000000
    15  C    2.515678   2.815861   2.709757   3.452930   0.000000
    16  O    2.813422   3.111456   2.533303   3.828298   1.201512
    17  N    3.646048   3.759333   4.010145   4.507009   1.344367
    18  H    3.871875   3.979761   4.449603   4.567471   2.011369
    19  C    4.892851   4.909436   5.079111   5.836521   2.457702
    20  H    4.900893   4.932965   4.861087   5.918149   2.526598
    21  H    5.395046   5.204583   5.673292   6.340311   3.175195
    22  H    5.645048   5.791894   5.830907   6.520738   3.155311
[...]
    12  H    5.883129   4.882882   4.806059   4.982230   4.020694
    13  H    6.544865   5.666737   5.870097   5.768360   4.465327
    14  H    5.465580   4.520644   4.808992   4.362380   3.589331
    15  C    5.431031   4.779793   4.847095   5.378214   3.474580
    16  O    6.603938   5.939285   6.018900   6.470892   4.596404
    17  N    5.096714   4.602169   4.518307   5.413883   3.490032
    18  H    4.185683   3.775544   3.687100   4.675482   2.802951
    19  C    6.258780   5.887363   5.737962   6.769790   4.838939
    20  H    7.095505   6.612528   6.387074   7.428007   5.562655
    21  H    6.196149   5.929836   5.658149   6.895477   5.100804
    22  H    6.638237   6.370949   6.375928   7.253272   5.205796
                    6          7          8          9         10
     6  O    0.000000
     7  N    2.246782   0.000000
     8  H    3.111677   0.995333   0.000000
     9  C    2.818957   1.452625   2.102469   0.000000
    10  H    2.393515   2.043843   2.902196   1.081693   0.000000
    11  C    4.075036   2.451571   2.597889   1.527709   2.144451
    12  H    4.727487   2.725588   2.485882   2.169841   3.053127
    13  H    4.753887   3.383516   3.630676   2.152985   2.494750
    14  H    4.067976   2.699990   2.801796   2.153909   2.460394
    15  C    3.683182   2.508320   3.028220   1.533188   2.095847
    16  O    4.699974   3.601523   4.057546   2.373703   2.746491
    17  N    3.735740   2.768266   3.218708   2.459076   2.989952
    18  H    3.118175   2.356829   2.831590   2.566924   3.039838
    19  C    4.951517   4.210539   4.609872   3.813281   4.235795
    20  H    5.773386   4.724650   4.993550   4.159358   4.701925
    21  H    5.283135   4.611316   4.913246   4.523093   4.989493
    22  H    5.066066   4.742232   5.306078   4.193948   4.358225
                   11         12         13         14         15
    11  C    0.000000
    12  H    1.086896   0.000000
    13  H    1.079655   1.751487   0.000000
    14  H    1.084258   1.761973   1.764724   0.000000
    15  C    2.514009   2.823765   2.691587   3.453690   0.000000
    16  O    2.823408   3.131636   2.524868   3.835422   1.202755
    17  N    3.649200   3.767241   3.993974   4.519797   1.345080
    18  H    3.911259   4.046389   4.460953   4.616244   2.013124
    19  C    4.886007   4.938524   5.032087   5.835474   2.430651
    20  H    4.943067   4.853761   4.952733   5.976927   2.672545
    21  H    5.654414   5.611143   5.931458   6.557725   3.300059
    22  H    5.340147   5.576256   5.355215   6.254066   2.831645
                   16         17         18         19         20
    16  O    0.000000
    17  N    2.238909   0.000000
    18  H    3.099946   0.992002   0.000000
    19  C    2.756382   1.447001   2.112032   0.000000
    20  H    2.620281   2.077659   2.915543   1.080095   0.000000
    21  H    3.786998   2.066494   2.319724   1.082117   1.760820
    22  H    2.961492   2.107165   2.701889   1.084702   1.755501
                   21         22
    21  H    0.000000
    22  H    1.764245   0.000000
 Stoichiometry    C6H12N2O2
 Framework group  C1[X(C6H12N2O2)]
 Deg. of freedom    60
 Full point group                 C1      NOp   1
 Largest Abelian subgroup         C1      NOp   1
 Largest concise Abelian subgroup C1      NOp   1
                         Standard orientation:                         
 ---------------------------------------------------------------------
 Center     Atomic      Atomic             Coordinates (Angstroms)
 Number     Number       Type             X           Y           Z
 ---------------------------------------------------------------------
      1          1           0        3.674738   -1.597924   -0.158297
      2          6           0        3.188993   -0.753257   -0.624761
      3          1           0        2.917007   -1.004416   -1.643900
      4          1           0        3.892266    0.073327   -0.654998
      5          6           0        1.992939   -0.351134    0.211681
      6          8           0        1.922261   -0.594915    1.383551
      7          7           0        1.013340    0.311619   -0.460381
      8          1           0        1.171803    0.532824   -1.417797
      9          6           0       -0.092327    0.982768    0.200814
     10          1           0        0.145757    1.004028    1.255766
     11          6           0       -0.239631    2.413696   -0.313623
     12          1           0       -0.438937    2.425929   -1.382019
     13          1           0       -1.063283    2.904296    0.182929
     14          1           0        0.672692    2.969278   -0.127586
     15          6           0       -1.429495    0.238897    0.104363
     16          8           0       -2.452088    0.805582    0.386836
     17          7           0       -1.390829   -1.049017   -0.281674
     18          1           0       -0.504719   -1.488312   -0.358465
     19          6           0       -2.577348   -1.876110   -0.238045
     20          1           0       -3.393932   -1.369192   -0.730822
     21          1           0       -2.373424   -2.803906   -0.756301
     22          1           0       -2.877718   -2.098644    0.780207
 ---------------------------------------------------------------------
 Rotational constants (GHZ):      1.9058923      0.8516398      0.6753648

 **********************************************************************

            Population analysis using the SCF density.

 **********************************************************************

 Orbital symmetries:
       Occupied  (A) (A) (A) (A) (A) (A) (A) (A) (A) (A) (A) (A)
                 (A) (A) (A) (A) (A) (A) (A) (A) (A) (A) (A) (A)
                 (A) (A) (A) (A) (A) (A) (A) (A) (A) (A) (A) (A)
                 (A) (A) (A)
       Virtual   (A) (A) (A) (A) (A) (A) (A) (A) (A) (A) (A) (A)
                 (A) (A) (A) (A) (A) (A) (A) (A) (A) (A) (A) (A)
                 (A) (A) (A) (A) (A) (A) (A) (A) (A) (A) (A) (A)
                 (A) (A) (A) (A) (A) (A) (A) (A) (A) (A) (A) (A)
                 (A) (A) (A) (A) (A) (A) (A) (A) (A) (A) (A) (A)
                 (A) (A) (A) (A) (A) (A) (A) (A) (A) (A) (A) (A)
                 (A) (A) (A) (A) (A) (A) (A) (A) (A) (A) (A) (A)
                 (A) (A) (A) (A) (A) (A) (A) (A) (A) (A) (A) (A)
                 (A) (A) (A) (A) (A) (A) (A) (A) (A) (A) (A) (A)
                 (A) (A) (A) (A) (A) (A) (A) (A) (A) (A) (A) (A)
                 (A) (A) (A) (A) (A) (A) (A) (A) (A) (A) (A) (A)
                 (A) (A) (A)
 The electronic state is 1-A.
 Alpha  occ. eigenvalues --  -20.53457 -20.51740 -15.59826 -15.58127 -11.36077
 Alpha  occ. eigenvalues --  -11.33976 -11.28029 -11.25444 -11.24397 -11.22485
 Alpha  occ. eigenvalues --   -1.40414  -1.38684  -1.25406  -1.22470  -1.05914
 Alpha  occ. eigenvalues --   -0.99976  -0.96048  -0.87863  -0.80904  -0.78595
 Alpha  occ. eigenvalues --   -0.73205  -0.68404  -0.67163  -0.63697  -0.62526
 Alpha  occ. eigenvalues --   -0.62187  -0.59785  -0.59235  -0.58406  -0.55580
 Alpha  occ. eigenvalues --   -0.55067  -0.54445  -0.53182  -0.52294  -0.49772
 Alpha  occ. eigenvalues --   -0.44086  -0.42883  -0.39245  -0.38032
 Alpha virt. eigenvalues --    0.19094   0.19638   0.21207   0.24559   0.25973
 Alpha virt. eigenvalues --    0.27710   0.28409   0.29454   0.30483   0.31444
 Alpha virt. eigenvalues --    0.32549   0.33080   0.33712   0.34990   0.37447
 Alpha virt. eigenvalues --    0.38862   0.41501   0.42962   0.47435   0.48811
 Alpha virt. eigenvalues --    0.53307   0.57929   0.63481   0.71438   0.72711
 Alpha virt. eigenvalues --    0.74180   0.75343   0.75855   0.76638   0.77931
 Alpha virt. eigenvalues --    0.80150   0.81917   0.82631   0.88154   0.89415
 Alpha virt. eigenvalues --    0.91163   0.95404   0.96438   0.97495   1.00943
 Alpha virt. eigenvalues --    1.01995   1.02726   1.04645   1.05285   1.07987
 Alpha virt. eigenvalues --    1.10381   1.11389   1.13076   1.14421   1.16280
 Alpha virt. eigenvalues --    1.16621   1.17696   1.18450   1.19472   1.19828
 Alpha virt. eigenvalues --    1.21423   1.22635   1.23696   1.25756   1.27152
 Alpha virt. eigenvalues --    1.30834   1.32183   1.35503   1.37178   1.41405
 Alpha virt. eigenvalues --    1.46369   1.48766   1.51812   1.56583   1.59535
 Alpha virt. eigenvalues --    1.61610   1.66530   1.72336   1.72867   1.73908
 Alpha virt. eigenvalues --    1.80657   1.80967   1.87205   1.90692   1.94941
 Alpha virt. eigenvalues --    1.99387   2.03823   2.09246   2.10665   2.12445
 Alpha virt. eigenvalues --    2.13705   2.15052   2.18064   2.21487   2.23490
 Alpha virt. eigenvalues --    2.24435   2.27132   2.29312   2.34896   2.36095
 Alpha virt. eigenvalues --    2.36862   2.38659   2.40873   2.45265   2.48261
 Alpha virt. eigenvalues --    2.51350   2.55965   2.56063   2.60735   2.61336
 Alpha virt. eigenvalues --    2.65752   2.68833   2.71977   2.73285   2.75440
 Alpha virt. eigenvalues --    2.80042   2.83986   2.88682   2.94126   2.96728
 Alpha virt. eigenvalues --    3.02976   3.04522   3.06444   3.13111   3.23381
 Alpha virt. eigenvalues --    3.34412   3.36898   3.42749   3.53161   3.57544
 Alpha virt. eigenvalues --    4.38170   4.46124   4.51289   4.54896   4.61453
 Alpha virt. eigenvalues --    4.65011   4.71535   4.80831   4.91784   5.09798
          Condensed to atoms (all electrons):
              1          2          3          4          5          6
     1  H    0.461356   0.383962  -0.021468  -0.017137  -0.031351   0.003032
     2  C    0.383962   5.271345   0.374258   0.376781   0.371073  -0.073412
     3  H   -0.021468   0.374258   0.525030  -0.024056  -0.036110   0.002272
     4  H   -0.017137   0.376781  -0.024056   0.486167  -0.026756   0.000215
     5  C   -0.031351   0.371073  -0.036110  -0.026756   4.154878   0.618775
     6  O    0.003032  -0.073412   0.002272   0.000215   0.618775   8.134488
     7  N    0.004031  -0.120831   0.004997   0.000527   0.253866  -0.107749
     8  H    0.000019  -0.000117   0.000697   0.000115  -0.018551   0.002414
     9  C   -0.000080   0.004561   0.000027  -0.000254  -0.021655   0.003091
    10  H   -0.000011   0.000496  -0.000012  -0.000014  -0.000162   0.009857
    11  C    0.000000  -0.000101  -0.000016   0.000029   0.002421   0.000416
    12  H    0.000000  -0.000011   0.000000   0.000001  -0.000051  -0.000009
    13  H    0.000000   0.000003   0.000000   0.000000  -0.000046  -0.000002
    14  H    0.000000  -0.000021  -0.000001   0.000003  -0.000001   0.000008
    15  C    0.000004  -0.000172  -0.000004   0.000000  -0.001843  -0.000204
    16  O    0.000000   0.000000   0.000000   0.000000  -0.000002   0.000002
    17  N    0.000002   0.000005   0.000008  -0.000001   0.001470  -0.000349
    18  H   -0.000009   0.000085  -0.000003   0.000002   0.002739   0.000575
    19  C    0.000000   0.000000   0.000000   0.000000  -0.000047  -0.000002
    20  H    0.000000   0.000000   0.000000   0.000000   0.000000   0.000000
    21  H    0.000000   0.000000   0.000000   0.000000   0.000001  -0.000001
    22  H    0.000000   0.000000   0.000000   0.000000  -0.000004   0.000002
              7          8          9         10         11         12
     1  H    0.004031   0.000019  -0.000080  -0.000011   0.000000   0.000000
     2  C   -0.120831  -0.000117   0.004561   0.000496  -0.000101  -0.000011
     3  H    0.004997   0.000697   0.000027  -0.000012  -0.000016   0.000000
     4  H    0.000527   0.000115  -0.000254  -0.000014   0.000029   0.000001
     5  C    0.253866  -0.018551  -0.021655  -0.000162   0.002421  -0.000051
     6  O   -0.107749   0.002414   0.003091   0.009857   0.000416  -0.000009
     7  N    7.484615   0.323022   0.131586  -0.040834  -0.063260  -0.002698
     8  H    0.323022   0.324384  -0.022796   0.002753  -0.002065   0.003307
     9  C    0.131586  -0.022796   5.116738   0.402463   0.345897  -0.036004
    10  H   -0.040834   0.002753   0.402463   0.433417  -0.027603   0.003426
    11  C   -0.063260  -0.002065   0.345897  -0.027603   5.120304   0.386948
    12  H   -0.002698   0.003307  -0.036004   0.003426   0.386948   0.542443
    13  H    0.004003  -0.000020  -0.033130  -0.001486   0.392692  -0.021282
    14  H   -0.000257   0.000090  -0.041616  -0.003660   0.391782  -0.028982
    15  C   -0.049287   0.000036   0.388931  -0.035585  -0.056734  -0.005524
    16  O    0.002202  -0.000029  -0.079201   0.001266   0.000926   0.000700
    17  N   -0.003366   0.000690  -0.112304   0.000168   0.002268   0.000164
    18  H    0.004409  -0.000078  -0.001830   0.000082   0.000251  -0.000024
    19  C   -0.000118  -0.000010   0.004424  -0.000136  -0.000125  -0.000015
    20  H   -0.000034  -0.000001   0.000146  -0.000014   0.000022  -0.000003
    21  H   -0.000008  -0.000001   0.000046   0.000000   0.000001   0.000000
    22  H   -0.000002   0.000001  -0.000228   0.000042  -0.000010   0.000001
             13         14         15         16         17         18
     1  H    0.000000   0.000000   0.000004   0.000000   0.000002  -0.000009
     2  C    0.000003  -0.000021  -0.000172   0.000000   0.000005   0.000085
     3  H    0.000000  -0.000001  -0.000004   0.000000   0.000008  -0.000003
     4  H    0.000000   0.000003   0.000000   0.000000  -0.000001   0.000002
     5  C   -0.000046  -0.000001  -0.001843  -0.000002   0.001470   0.002739
     6  O   -0.000002   0.000008  -0.000204   0.000002  -0.000349   0.000575
     7  N    0.004003  -0.000257  -0.049287   0.002202  -0.003366   0.004409
     8  H   -0.000020   0.000090   0.000036  -0.000029   0.000690  -0.000078
     9  C   -0.033130  -0.041616   0.388931  -0.079201  -0.112304  -0.001830
    10  H   -0.001486  -0.003660  -0.035585   0.001266   0.000168   0.000082
    11  C    0.392692   0.391782  -0.056734   0.000926   0.002268   0.000251
    12  H   -0.021282  -0.028982  -0.005524   0.000700   0.000164  -0.000024
    13  H    0.456725  -0.021808  -0.002714   0.006016   0.000276  -0.000017
    14  H   -0.021808   0.526929   0.005259   0.000139  -0.000048  -0.000005
    15  C   -0.002714   0.005259   4.137077   0.594733   0.308411  -0.019330
    16  O    0.006016   0.000139   0.594733   8.185206  -0.103064   0.002473
    17  N    0.000276  -0.000048   0.308411  -0.103064   7.297536   0.322897
    18  H   -0.000017  -0.000005  -0.019330   0.002473   0.322897   0.311290
    19  C   -0.000005   0.000002  -0.031562   0.006805   0.203475  -0.023441
    20  H   -0.000001   0.000000  -0.003687   0.003931  -0.039072   0.002624
    21  H    0.000000   0.000000   0.004202   0.000365  -0.038731  -0.003976
    22  H    0.000000   0.000000  -0.002419   0.001445  -0.047498   0.000906
             19         20         21         22
     1  H    0.000000   0.000000   0.000000   0.000000
     2  C    0.000000   0.000000   0.000000   0.000000
     3  H    0.000000   0.000000   0.000000   0.000000
     4  H    0.000000   0.000000   0.000000   0.000000
     5  C   -0.000047   0.000000   0.000001  -0.000004
     6  O   -0.000002   0.000000  -0.000001   0.000002
     7  N   -0.000118  -0.000034  -0.000008  -0.000002
     8  H   -0.000010  -0.000001  -0.000001   0.000001
     9  C    0.004424   0.000146   0.000046  -0.000228
    10  H   -0.000136  -0.000014   0.000000   0.000042
    11  C   -0.000125   0.000022   0.000001  -0.000010
    12  H   -0.000015  -0.000003   0.000000   0.000001
    13  H   -0.000005  -0.000001   0.000000   0.000000
    14  H    0.000002   0.000000   0.000000   0.000000
    15  C   -0.031562  -0.003687   0.004202  -0.002419
    16  O    0.006805   0.003931   0.000365   0.001445
    17  N    0.203475  -0.039072  -0.038731  -0.047498
    18  H   -0.023441   0.002624  -0.003976   0.000906
    19  C    4.905994   0.403202   0.398186   0.406103
    20  H    0.403202   0.489186  -0.025237  -0.032582
    21  H    0.398186  -0.025237   0.531616  -0.032104
    22  H    0.406103  -0.032582  -0.032104   0.525779
 Mulliken atomic charges:
              1
     1  H    0.217651
     2  C   -0.587904
     3  H    0.174382
     4  H    0.204379
     5  C    0.731355
     6  O   -0.593418
     7  N   -0.824814
     8  H    0.386140
     9  C   -0.048814
    10  H    0.255546
    11  C   -0.494042
    12  H    0.157612
    13  H    0.220796
    14  H    0.172187
    15  C    0.770411
    16  O   -0.623914
    17  N   -0.792934
    18  H    0.400380
    19  C   -0.272729
    20  H    0.201520
    21  H    0.165640
    22  H    0.180570
 Sum of Mulliken atomic charges =   0.00000
 Mulliken charges with hydrogens summed into heavy atoms:
              1
     2  C    0.008507
     5  C    0.731355
     6  O   -0.593418
     7  N   -0.438674
     9  C    0.206733
    11  C    0.056553
    15  C    0.770411
    16  O   -0.623914
    17  N   -0.392554
    19  C    0.275000
 Sum of Mulliken charges with hydrogens summed into heavy atoms =   0.00000
 Electronic spatial extent (au):  <R**2>=           1786.5759
 Charge=              0.0000 electrons
 Dipole moment (field-independent basis, Debye):
    X=              2.7896    Y=             -1.0718    Z=             -4.1666  Tot=              5.1275
 Quadrupole moment (field-independent basis, Debye-Ang):
   XX=            -65.2973   YY=            -56.2991   ZZ=            -63.1348
   XY=              7.2748   XZ=             -5.2516   YZ=              1.6146
 Traceless Quadrupole moment (field-independent basis, Debye-Ang):
   XX=             -3.7202   YY=              5.2779   ZZ=             -1.5577
   XY=              7.2748   XZ=             -5.2516   YZ=              1.6146
 Octapole moment (field-independent basis, Debye-Ang**2):
  XXX=             33.6470  YYY=             -8.0545  ZZZ=             -6.1263  XYY=             -2.1323
  XXY=            -19.0127  XXZ=            -19.3338  XZZ=             -6.8463  YZZ=              4.6255
  YYZ=             -1.2662  XYZ=              5.1833
 Hexadecapole moment (field-independent basis, Debye-Ang**3):
 XXXX=          -1442.7073 YYYY=           -637.5268 ZZZZ=           -198.2819 XXXY=             44.1959
 XXXZ=             -2.1911 YYYX=              2.7996 YYYZ=              7.9189 ZZZX=            -17.1393
 ZZZY=              0.8396 XXYY=           -338.8626 XXZZ=           -293.6070 YYZZ=           -143.7954
 XXYZ=              1.9813 YYXZ=              1.9722 ZZXY=              6.4071
 N-N= 5.583480477675D+02 E-N=-2.271954833816D+03  KE= 4.921248699436D+02
 1\1\GINC-RODAN\FOpt\RHF\6-31G(d)\C6H12N2O2\STEBOSS\10-Feb-2017\0\\# HF
 /6-31G* Opt=(ModRedundant) geom=nocrowd\\Phi Psi fixed scan\\0,1\H,1.1
 435942314,2.4942847658,1.7521600949\C,1.7218561042,2.5550970159,0.8417
 130442\H,1.1005372419,2.9345797641,0.0381850666\H,2.0481180113,1.55452
 47178,0.5749608241\C,2.9395136869,3.419648586,1.0901994344\O,3.4058651
 322,3.5663059806,2.1850562667\N,3.4673898185,4.0076909217,-0.017084057
 9\H,3.0631248943,3.7881295363,-0.8997218475\C,4.7582536077,4.673800397
 8,-0.0265087118\H,5.239478223,4.427882007,0.9105119611\C,5.6172047995,
 4.1684635414,-1.1844093171\H,5.1386593263,4.3649560562,-2.1403006132\H
 ,6.5739143803,4.6688234278,-1.1835285486\H,5.7722376165,3.0994434045,-
 1.0907265357\C,4.6772943582,6.2046934443,-0.0483744144\O,5.6561726183,
 6.8527603382,-0.3099574835\N,3.4911258286,6.7626271893,0.2532142107\H,
 2.7707878865,6.1737644943,0.5973379145\C,3.3624884575,8.1937739396,0.4
 237565947\H,3.8041108661,8.7030564134,-0.4201663748\H,2.3111014185,8.4
 442851307,0.4767437196\H,3.8540714922,8.5390089274,1.3269387731\\Versi
 on=EM64L-G09RevA.02\State=1-A\HF=-492.857207\RMSD=4.998e-09\RMSF=9.657
 e-05\Dipole=-1.6190524,-0.7495114,-0.9415202\Quadrupole=0.835939,2.842
 2204,-3.6781594,-3.4409082,1.5422185,5.7238675\PG=C01 [X(C6H12N2O2)]\\
 @


 THE ATTENTION SPAN OF A COMPUTER IS AS LONG
 AS ITS EXTENSION CORD.
 Job cpu time:  0 days  0 hours 27 minutes 40.8 seconds.
 File lengths (MBytes):  RWF=     25 Int=      0 D2E=      0 Chk=      3 Scr=      1
 Normal termination of Gaussian 09 at Fri Feb 10 14:04:54 2017.
