 Entering Gaussian System, Link 0=g09
 Initial command:
 /home/steboss/Software/g09/l1.exe /tmp/Gau-24730.inp -scrdir=/tmp/
 Entering Link 1 = /home/steboss/Software/g09/l1.exe PID=     24732.
  
 Copyright (c) 1988,1990,1992,1993,1995,1998,2003,2009, Gaussian, Inc.
                  All Rights Reserved.
  
 This is part of the Gaussian(R) 09 program.  It is based on
 the Gaussian(R) 03 system (copyright 2003, Gaussian, Inc.),
 the Gaussian(R) 98 system (copyright 1998, Gaussian, Inc.),
 the Gaussian(R) 94 system (copyright 1995, Gaussian, Inc.),
 the Gaussian 92(TM) system (copyright 1992, Gaussian, Inc.),
 the Gaussian 90(TM) system (copyright 1990, Gaussian, Inc.),
 the Gaussian 88(TM) system (copyright 1988, Gaussian, Inc.),
 the Gaussian 86(TM) system (copyright 1986, Carnegie Mellon
 University), and the Gaussian 82(TM) system (copyright 1983,
 Carnegie Mellon University). Gaussian is a federally registered
 trademark of Gaussian, Inc.
  
 This software contains proprietary and confidential information,
 including trade secrets, belonging to Gaussian, Inc.
  
 This software is provided under written license and may be
 used, copied, transmitted, or stored only in accord with that
 written license.
  
 The following legend is applicable only to US Government
 contracts under FAR:
  
                    RESTRICTED RIGHTS LEGEND
  
 Use, reproduction and disclosure by the US Government is
 subject to restrictions as set forth in subparagraphs (a)
 and (c) of the Commercial Computer Software - Restricted
 Rights clause in FAR 52.227-19.
  
 Gaussian, Inc.
 340 Quinnipiac St., Bldg. 40, Wallingford CT 06492
  
  
 ---------------------------------------------------------------
 Warning -- This program may not be used in any manner that
 competes with the business of Gaussian, Inc. or will provide
 assistance to any competitor of Gaussian, Inc.  The licensee
 of this program is prohibited from giving any competitor of
 Gaussian, Inc. access to this program.  By using this program,
 the user acknowledges that Gaussian, Inc. is engaged in the
 business of creating and licensing software in the field of
 computational chemistry and represents and warrants to the
 licensee that it is not a competitor of Gaussian, Inc. and that
 it will not use this program in any manner prohibited above.
 ---------------------------------------------------------------
  

 Cite this work as:
 Gaussian 09, Revision A.02,
 M. J. Frisch, G. W. Trucks, H. B. Schlegel, G. E. Scuseria, 
 M. A. Robb, J. R. Cheeseman, G. Scalmani, V. Barone, B. Mennucci, 
 G. A. Petersson, H. Nakatsuji, M. Caricato, X. Li, H. P. Hratchian, 
 A. F. Izmaylov, J. Bloino, G. Zheng, J. L. Sonnenberg, M. Hada, 
 M. Ehara, K. Toyota, R. Fukuda, J. Hasegawa, M. Ishida, T. Nakajima, 
 Y. Honda, O. Kitao, H. Nakai, T. Vreven, J. A. Montgomery, Jr., 
 J. E. Peralta, F. Ogliaro, M. Bearpark, J. J. Heyd, E. Brothers, 
 K. N. Kudin, V. N. Staroverov, R. Kobayashi, J. Normand, 
 K. Raghavachari, A. Rendell, J. C. Burant, S. S. Iyengar, J. Tomasi, 
 M. Cossi, N. Rega, J. M. Millam, M. Klene, J. E. Knox, J. B. Cross, 
 V. Bakken, C. Adamo, J. Jaramillo, R. Gomperts, R. E. Stratmann, 
 O. Yazyev, A. J. Austin, R. Cammi, C. Pomelli, J. W. Ochterski, 
 R. L. Martin, K. Morokuma, V. G. Zakrzewski, G. A. Voth, 
 P. Salvador, J. J. Dannenberg, S. Dapprich, A. D. Daniels, 
 O. Farkas, J. B. Foresman, J. V. Ortiz, J. Cioslowski, 
 and D. J. Fox, Gaussian, Inc., Wallingford CT, 2009.
 
 ******************************************
 Gaussian 09:  EM64L-G09RevA.02 11-Jun-2009
                30-Dec-2016 
 ******************************************
 %chk=structure_180.chk
 ----------------------------------------------------------------------
 # b3lyp/6-31G* Opt=(ModRedundant, maxcycles=1000, calcfc) geom=nocrowd
 ----------------------------------------------------------------------
 1/6=1000,10=4,14=-1,18=120,19=15,26=3,38=1/1,3;
 2/9=110,12=1,17=6,18=5,40=1/2;
 3/5=1,6=6,7=1,11=2,16=1,25=1,30=1,71=2,74=-5/1,2,3;
 4//1;
 5/5=2,38=5/2;
 8/6=4,10=90,11=11/1;
 11/6=1,8=1,9=11,15=111,16=1/1,2,10;
 10/6=1,7=6,13=1/2;
 6/7=2,8=2,9=2,10=2,28=1/1;
 7/10=1,18=20,25=1/1,2,3,16;
 1/6=1000,10=4,14=-1,18=20,19=15/3(2);
 2/9=110,12=1/2;
 99//99;
 2/9=110,12=1/2;
 3/5=1,6=6,7=1,11=2,16=1,25=1,30=1,71=1,74=-5/1,2,3;
 4/5=5,16=3/1;
 5/5=2,38=5/2;
 7//1,2,3,16;
 1/6=1000,14=-1,18=20,19=15/3(-5);
 2/9=110,12=1/2;
 6/7=2,8=2,9=2,10=2,19=2,28=1/1;
 99/9=1/99;
 ------------------
 Phi Psi fixed scan
 ------------------
 Symbolic Z-matrix:
 Charge =  0 Multiplicity = 1
 H                     5.8461    1.        3.846 
 C                     5.8461    2.09      3.846 
 H                     6.7359    2.4538    4.3598 
 H                     4.9562    2.4538    4.3598 
 C                     5.846     2.6408    2.4186 
 O                     5.846     1.8774    1.4555 
 N                     5.846     3.9696    2.2907 
 H                     5.846     4.5561    3.1129 
 C                     5.846     4.6139    0.9928 
 H                     6.7359    4.3155    0.4385 
 C                     4.6139    4.2208    0.1847 
 H                     3.7149    4.5214    0.7228 
 H                     4.6403    4.7189   -0.7844 
 H                     4.6047    3.1409    0.0375 
 C                     5.846     6.1294    1.1334 
 O                     5.8461    6.6527    2.2454 
 N                     5.846     6.8349    0. 
 H                     5.846     6.3592   -0.8909 
 C                     5.8461    8.2839    0. 
 H                     5.3323    8.6477   -0.8898 
 C                     5.1347    8.8329    1.2322 
 H                     5.6431    8.4846    2.1312 
 H                     5.1499    9.9224    1.2058 
 H                     4.1019    8.4846    1.2414 
 C                     7.266     8.8318    0. 
 O                     8.2292    8.0684    0. 
 N                     7.394     10.1607   0. 
 H                     6.5717    10.7472   0. 
 C                     8.6919    10.8049   0. 
 H                     9.2462    10.5065   0.8898 
 C                     9.4999    10.4118  -1.2322 
 H                     8.9619    10.7124  -2.1312 
 H                     10.4691   10.9099  -1.2058 
 H                     9.6471    9.3319   -1.2414 
 C                     8.5513    12.3204   0. 
 O                     7.4392    12.8437   0. 
 N                     9.6846    13.0259   0. 
 H                     10.5756   12.5502   0. 
 C                     9.6846    14.4749   0. 
 H                     8.6572    14.8387   0. 
 H                     10.1984   14.8387   0.8898 
 H                     10.1984   14.8387  -0.8898 
 
 The following ModRedundant input section has been read:
 D   15   17   19   25 F                                                       
 D   17   19   25   27 F                                                       

 GradGradGradGradGradGradGradGradGradGradGradGradGradGradGradGradGradGrad
 Berny optimization.
 Initialization pass.
                           ----------------------------
                           !    Initial Parameters    !
                           ! (Angstroms and Degrees)  !
 --------------------------                            --------------------------
 ! Name  Definition              Value          Derivative Info.                !
 --------------------------------------------------------------------------------
 ! R1    R(1,2)                  1.09           calculate D2E/DX2 analytically  !
 ! R2    R(2,3)                  1.09           calculate D2E/DX2 analytically  !
 ! R3    R(2,4)                  1.0901         calculate D2E/DX2 analytically  !
 ! R4    R(2,5)                  1.53           calculate D2E/DX2 analytically  !
 ! R5    R(5,6)                  1.229          calculate D2E/DX2 analytically  !
 ! R6    R(5,7)                  1.3349         calculate D2E/DX2 analytically  !
 ! R7    R(7,8)                  1.0099         calculate D2E/DX2 analytically  !
 ! R8    R(7,9)                  1.449          calculate D2E/DX2 analytically  !
 ! R9    R(9,10)                 1.0901         calculate D2E/DX2 analytically  !
 ! R10   R(9,11)                 1.525          calculate D2E/DX2 analytically  !
 ! R11   R(9,15)                 1.522          calculate D2E/DX2 analytically  !
 ! R12   R(11,12)                1.09           calculate D2E/DX2 analytically  !
 ! R13   R(11,13)                1.0899         calculate D2E/DX2 analytically  !
 ! R14   R(11,14)                1.0899         calculate D2E/DX2 analytically  !
 ! R15   R(15,16)                1.229          calculate D2E/DX2 analytically  !
 ! R16   R(15,17)                1.335          calculate D2E/DX2 analytically  !
 ! R17   R(17,18)                1.0099         calculate D2E/DX2 analytically  !
 ! R18   R(17,19)                1.449          calculate D2E/DX2 analytically  !
 ! R19   R(19,20)                1.09           calculate D2E/DX2 analytically  !
 ! R20   R(19,21)                1.5251         calculate D2E/DX2 analytically  !
 ! R21   R(19,25)                1.5219         calculate D2E/DX2 analytically  !
 ! R22   R(21,22)                1.0899         calculate D2E/DX2 analytically  !
 ! R23   R(21,23)                1.0899         calculate D2E/DX2 analytically  !
 ! R24   R(21,24)                1.09           calculate D2E/DX2 analytically  !
 ! R25   R(25,26)                1.229          calculate D2E/DX2 analytically  !
 ! R26   R(25,27)                1.3351         calculate D2E/DX2 analytically  !
 ! R27   R(27,28)                1.01           calculate D2E/DX2 analytically  !
 ! R28   R(27,29)                1.449          calculate D2E/DX2 analytically  !
 ! R29   R(29,30)                1.09           calculate D2E/DX2 analytically  !
 ! R30   R(29,31)                1.525          calculate D2E/DX2 analytically  !
 ! R31   R(29,35)                1.522          calculate D2E/DX2 analytically  !
 ! R32   R(31,32)                1.09           calculate D2E/DX2 analytically  !
 ! R33   R(31,33)                1.09           calculate D2E/DX2 analytically  !
 ! R34   R(31,34)                1.0899         calculate D2E/DX2 analytically  !
 ! R35   R(35,36)                1.2291         calculate D2E/DX2 analytically  !
 ! R36   R(35,37)                1.335          calculate D2E/DX2 analytically  !
 ! R37   R(37,38)                1.01           calculate D2E/DX2 analytically  !
 ! R38   R(37,39)                1.449          calculate D2E/DX2 analytically  !
 ! R39   R(39,40)                1.0899         calculate D2E/DX2 analytically  !
 ! R40   R(39,41)                1.09           calculate D2E/DX2 analytically  !
 ! R41   R(39,42)                1.09           calculate D2E/DX2 analytically  !
 ! A1    A(1,2,3)              109.4974         calculate D2E/DX2 analytically  !
 ! A2    A(1,2,4)              109.4959         calculate D2E/DX2 analytically  !
 ! A3    A(1,2,5)              111.1004         calculate D2E/DX2 analytically  !
 ! A4    A(3,2,4)              109.4423         calculate D2E/DX2 analytically  !
 ! A5    A(3,2,5)              108.643          calculate D2E/DX2 analytically  !
 ! A6    A(4,2,5)              108.6351         calculate D2E/DX2 analytically  !
 ! A7    A(2,5,6)              120.4975         calculate D2E/DX2 analytically  !
 ! A8    A(2,5,7)              116.5983         calculate D2E/DX2 analytically  !
 ! A9    A(6,5,7)              122.9041         calculate D2E/DX2 analytically  !
 ! A10   A(5,7,8)              120.0035         calculate D2E/DX2 analytically  !
 ! A11   A(5,7,9)              121.8985         calculate D2E/DX2 analytically  !
 ! A12   A(8,7,9)              118.098          calculate D2E/DX2 analytically  !
 ! A13   A(7,9,10)             109.4968         calculate D2E/DX2 analytically  !
 ! A14   A(7,9,11)             111.1015         calculate D2E/DX2 analytically  !
 ! A15   A(7,9,15)             111.1002         calculate D2E/DX2 analytically  !
 ! A16   A(10,9,11)            108.6364         calculate D2E/DX2 analytically  !
 ! A17   A(10,9,15)            108.6359         calculate D2E/DX2 analytically  !
 ! A18   A(11,9,15)            107.7954         calculate D2E/DX2 analytically  !
 ! A19   A(9,11,12)            109.492          calculate D2E/DX2 analytically  !
 ! A20   A(9,11,13)            109.4986         calculate D2E/DX2 analytically  !
 ! A21   A(9,11,14)            109.4987         calculate D2E/DX2 analytically  !
 ! A22   A(12,11,13)           109.4439         calculate D2E/DX2 analytically  !
 ! A23   A(12,11,14)           109.4481         calculate D2E/DX2 analytically  !
 ! A24   A(13,11,14)           109.446          calculate D2E/DX2 analytically  !
 ! A25   A(9,15,16)            120.5018         calculate D2E/DX2 analytically  !
 ! A26   A(9,15,17)            116.6003         calculate D2E/DX2 analytically  !
 ! A27   A(16,15,17)           122.8979         calculate D2E/DX2 analytically  !
 ! A28   A(15,17,18)           119.9991         calculate D2E/DX2 analytically  !
 ! A29   A(15,17,19)           121.9008         calculate D2E/DX2 analytically  !
 ! A30   A(18,17,19)           118.1002         calculate D2E/DX2 analytically  !
 ! A31   A(17,19,20)           109.4954         calculate D2E/DX2 analytically  !
 ! A32   A(17,19,21)           111.0974         calculate D2E/DX2 analytically  !
 ! A33   A(17,19,25)           111.1042         calculate D2E/DX2 analytically  !
 ! A34   A(20,19,21)           108.6349         calculate D2E/DX2 analytically  !
 ! A35   A(20,19,25)           108.6399         calculate D2E/DX2 analytically  !
 ! A36   A(21,19,25)           107.7944         calculate D2E/DX2 analytically  !
 ! A37   A(19,21,22)           109.4996         calculate D2E/DX2 analytically  !
 ! A38   A(19,21,23)           109.4977         calculate D2E/DX2 analytically  !
 ! A39   A(19,21,24)           109.4988         calculate D2E/DX2 analytically  !
 ! A40   A(22,21,23)           109.4452         calculate D2E/DX2 analytically  !
 ! A41   A(22,21,24)           109.4447         calculate D2E/DX2 analytically  !
 ! A42   A(23,21,24)           109.4412         calculate D2E/DX2 analytically  !
 ! A43   A(19,25,26)           120.5006         calculate D2E/DX2 analytically  !
 ! A44   A(19,25,27)           116.602          calculate D2E/DX2 analytically  !
 ! A45   A(26,25,27)           122.8974         calculate D2E/DX2 analytically  !
 ! A46   A(25,27,28)           119.9963         calculate D2E/DX2 analytically  !
 ! A47   A(25,27,29)           121.8988         calculate D2E/DX2 analytically  !
 ! A48   A(28,27,29)           118.1048         calculate D2E/DX2 analytically  !
 ! A49   A(27,29,30)           109.5            calculate D2E/DX2 analytically  !
 ! A50   A(27,29,31)           111.0992         calculate D2E/DX2 analytically  !
 ! A51   A(27,29,35)           111.0966         calculate D2E/DX2 analytically  !
 ! A52   A(30,29,31)           108.6382         calculate D2E/DX2 analytically  !
 ! A53   A(30,29,35)           108.6373         calculate D2E/DX2 analytically  !
 ! A54   A(31,29,35)           107.7947         calculate D2E/DX2 analytically  !
 ! A55   A(29,31,32)           109.5007         calculate D2E/DX2 analytically  !
 ! A56   A(29,31,33)           109.4959         calculate D2E/DX2 analytically  !
 ! A57   A(29,31,34)           109.4978         calculate D2E/DX2 analytically  !
 ! A58   A(32,31,33)           109.441          calculate D2E/DX2 analytically  !
 ! A59   A(32,31,34)           109.4482         calculate D2E/DX2 analytically  !
 ! A60   A(33,31,34)           109.4436         calculate D2E/DX2 analytically  !
 ! A61   A(29,35,36)           120.4998         calculate D2E/DX2 analytically  !
 ! A62   A(29,35,37)           116.6026         calculate D2E/DX2 analytically  !
 ! A63   A(36,35,37)           122.8976         calculate D2E/DX2 analytically  !
 ! A64   A(35,37,38)           119.9995         calculate D2E/DX2 analytically  !
 ! A65   A(35,37,39)           121.903          calculate D2E/DX2 analytically  !
 ! A66   A(38,37,39)           118.0975         calculate D2E/DX2 analytically  !
 ! A67   A(37,39,40)           109.4989         calculate D2E/DX2 analytically  !
 ! A68   A(37,39,41)           109.4974         calculate D2E/DX2 analytically  !
 ! A69   A(37,39,42)           109.4974         calculate D2E/DX2 analytically  !
 ! A70   A(40,39,41)           109.4472         calculate D2E/DX2 analytically  !
 ! A71   A(40,39,42)           109.4472         calculate D2E/DX2 analytically  !
 ! A72   A(41,39,42)           109.4392         calculate D2E/DX2 analytically  !
 ! D1    D(1,2,5,6)             -0.0037         calculate D2E/DX2 analytically  !
 ! D2    D(1,2,5,7)           -179.9996         calculate D2E/DX2 analytically  !
 ! D3    D(3,2,5,6)            120.5102         calculate D2E/DX2 analytically  !
 ! D4    D(3,2,5,7)            -59.4858         calculate D2E/DX2 analytically  !
 ! D5    D(4,2,5,6)           -120.5105         calculate D2E/DX2 analytically  !
 ! D6    D(4,2,5,7)             59.4936         calculate D2E/DX2 analytically  !
 ! D7    D(2,5,7,8)             -0.0042         calculate D2E/DX2 analytically  !
 ! D8    D(2,5,7,9)            179.9958         calculate D2E/DX2 analytically  !
 ! D9    D(6,5,7,8)            180.0            calculate D2E/DX2 analytically  !
 ! D10   D(6,5,7,9)              0.0            calculate D2E/DX2 analytically  !
 ! D11   D(5,7,9,10)           -60.0019         calculate D2E/DX2 analytically  !
 ! D12   D(5,7,9,11)            59.9977         calculate D2E/DX2 analytically  !
 ! D13   D(5,7,9,15)           180.0            calculate D2E/DX2 analytically  !
 ! D14   D(8,7,9,10)           119.9981         calculate D2E/DX2 analytically  !
 ! D15   D(8,7,9,11)          -120.0023         calculate D2E/DX2 analytically  !
 ! D16   D(8,7,9,15)             0.0            calculate D2E/DX2 analytically  !
 ! D17   D(7,9,11,12)           60.0038         calculate D2E/DX2 analytically  !
 ! D18   D(7,9,11,13)          179.9998         calculate D2E/DX2 analytically  !
 ! D19   D(7,9,11,14)          -59.9974         calculate D2E/DX2 analytically  !
 ! D20   D(10,9,11,12)        -179.4868         calculate D2E/DX2 analytically  !
 ! D21   D(10,9,11,13)         -59.4908         calculate D2E/DX2 analytically  !
 ! D22   D(10,9,11,14)          60.512          calculate D2E/DX2 analytically  !
 ! D23   D(15,9,11,12)         -61.9429         calculate D2E/DX2 analytically  !
 ! D24   D(15,9,11,13)          58.0532         calculate D2E/DX2 analytically  !
 ! D25   D(15,9,11,14)         178.056          calculate D2E/DX2 analytically  !
 ! D26   D(7,9,15,16)            0.0054         calculate D2E/DX2 analytically  !
 ! D27   D(7,9,15,17)          180.0            calculate D2E/DX2 analytically  !
 ! D28   D(10,9,15,16)        -120.5029         calculate D2E/DX2 analytically  !
 ! D29   D(10,9,15,17)          59.4917         calculate D2E/DX2 analytically  !
 ! D30   D(11,9,15,16)         121.9528         calculate D2E/DX2 analytically  !
 ! D31   D(11,9,15,17)         -58.0526         calculate D2E/DX2 analytically  !
 ! D32   D(9,15,17,18)           0.0            calculate D2E/DX2 analytically  !
 ! D33   D(9,15,17,19)        -179.9953         calculate D2E/DX2 analytically  !
 ! D34   D(16,15,17,18)        179.9944         calculate D2E/DX2 analytically  !
 ! D35   D(16,15,17,19)         -0.0009         calculate D2E/DX2 analytically  !
 ! D36   D(15,17,19,20)       -149.9977         calculate D2E/DX2 analytically  !
 ! D37   D(15,17,19,21)        -30.0034         calculate D2E/DX2 analytically  !
 ! D38   D(15,17,19,25)         89.9975         frozen, calculate D2E/DX2 analyt!
 ! D39   D(18,17,19,20)         30.0069         calculate D2E/DX2 analytically  !
 ! D40   D(18,17,19,21)        150.0012         calculate D2E/DX2 analytically  !
 ! D41   D(18,17,19,25)        -89.9979         calculate D2E/DX2 analytically  !
 ! D42   D(17,19,21,22)         60.0039         calculate D2E/DX2 analytically  !
 ! D43   D(17,19,21,23)       -179.9943         calculate D2E/DX2 analytically  !
 ! D44   D(17,19,21,24)        -59.998          calculate D2E/DX2 analytically  !
 ! D45   D(20,19,21,22)       -179.4919         calculate D2E/DX2 analytically  !
 ! D46   D(20,19,21,23)        -59.4901         calculate D2E/DX2 analytically  !
 ! D47   D(20,19,21,24)         60.5062         calculate D2E/DX2 analytically  !
 ! D48   D(25,19,21,22)        -61.9445         calculate D2E/DX2 analytically  !
 ! D49   D(25,19,21,23)         58.0573         calculate D2E/DX2 analytically  !
 ! D50   D(25,19,21,24)        178.0536         calculate D2E/DX2 analytically  !
 ! D51   D(17,19,25,26)          0.0            calculate D2E/DX2 analytically  !
 ! D52   D(17,19,25,27)        180.0            frozen, calculate D2E/DX2 analyt!
 ! D53   D(20,19,25,26)       -120.5117         calculate D2E/DX2 analytically  !
 ! D54   D(20,19,25,27)         59.4883         calculate D2E/DX2 analytically  !
 ! D55   D(21,19,25,26)        121.9442         calculate D2E/DX2 analytically  !
 ! D56   D(21,19,25,27)        -58.0558         calculate D2E/DX2 analytically  !
 ! D57   D(19,25,27,28)          0.0            calculate D2E/DX2 analytically  !
 ! D58   D(19,25,27,29)        180.0            calculate D2E/DX2 analytically  !
 ! D59   D(26,25,27,28)        180.0            calculate D2E/DX2 analytically  !
 ! D60   D(26,25,27,29)          0.0            calculate D2E/DX2 analytically  !
 ! D61   D(25,27,29,30)        -60.0002         calculate D2E/DX2 analytically  !
 ! D62   D(25,27,29,31)         60.0024         calculate D2E/DX2 analytically  !
 ! D63   D(25,27,29,35)        180.0            calculate D2E/DX2 analytically  !
 ! D64   D(28,27,29,30)        119.9998         calculate D2E/DX2 analytically  !
 ! D65   D(28,27,29,31)       -119.9976         calculate D2E/DX2 analytically  !
 ! D66   D(28,27,29,35)          0.0            calculate D2E/DX2 analytically  !
 ! D67   D(27,29,31,32)         60.0024         calculate D2E/DX2 analytically  !
 ! D68   D(27,29,31,33)        179.9986         calculate D2E/DX2 analytically  !
 ! D69   D(27,29,31,34)        -60.0038         calculate D2E/DX2 analytically  !
 ! D70   D(30,29,31,32)       -179.4843         calculate D2E/DX2 analytically  !
 ! D71   D(30,29,31,33)        -59.4881         calculate D2E/DX2 analytically  !
 ! D72   D(30,29,31,34)         60.5095         calculate D2E/DX2 analytically  !
 ! D73   D(35,29,31,32)        -61.938          calculate D2E/DX2 analytically  !
 ! D74   D(35,29,31,33)         58.0582         calculate D2E/DX2 analytically  !
 ! D75   D(35,29,31,34)        178.0558         calculate D2E/DX2 analytically  !
 ! D76   D(27,29,35,36)          0.0            calculate D2E/DX2 analytically  !
 ! D77   D(27,29,35,37)        180.0            calculate D2E/DX2 analytically  !
 ! D78   D(30,29,35,36)       -120.5111         calculate D2E/DX2 analytically  !
 ! D79   D(30,29,35,37)         59.4889         calculate D2E/DX2 analytically  !
 ! D80   D(31,29,35,36)        121.942          calculate D2E/DX2 analytically  !
 ! D81   D(31,29,35,37)        -58.058          calculate D2E/DX2 analytically  !
 ! D82   D(29,35,37,38)          0.0            calculate D2E/DX2 analytically  !
 ! D83   D(29,35,37,39)        180.0            calculate D2E/DX2 analytically  !
 ! D84   D(36,35,37,38)        180.0            calculate D2E/DX2 analytically  !
 ! D85   D(36,35,37,39)          0.0            calculate D2E/DX2 analytically  !
 ! D86   D(35,37,39,40)          0.0            calculate D2E/DX2 analytically  !
 ! D87   D(35,37,39,41)        120.0036         calculate D2E/DX2 analytically  !
 ! D88   D(35,37,39,42)       -120.0036         calculate D2E/DX2 analytically  !
 ! D89   D(38,37,39,40)        180.0            calculate D2E/DX2 analytically  !
 ! D90   D(38,37,39,41)        -59.9964         calculate D2E/DX2 analytically  !
 ! D91   D(38,37,39,42)         59.9964         calculate D2E/DX2 analytically  !
 --------------------------------------------------------------------------------
 Trust Radius=3.00D-01 FncErr=1.00D-07 GrdErr=1.00D-06
 Number of steps in this run= 252 maximum allowed number of steps= 252.
 GradGradGradGradGradGradGradGradGradGradGradGradGradGradGradGradGradGrad

                          Input orientation:                          
 ---------------------------------------------------------------------
 Center     Atomic      Atomic             Coordinates (Angstroms)
 Number     Number       Type             X           Y           Z
 ---------------------------------------------------------------------
      1          1           0        5.846100    1.000000    3.846000
      2          6           0        5.846100    2.090000    3.846000
      3          1           0        6.735900    2.453800    4.359800
      4          1           0        4.956200    2.453800    4.359800
      5          6           0        5.846000    2.640800    2.418600
      6          8           0        5.846000    1.877400    1.455500
      7          7           0        5.846000    3.969600    2.290700
      8          1           0        5.846000    4.556100    3.112900
      9          6           0        5.846000    4.613900    0.992800
     10          1           0        6.735900    4.315500    0.438500
     11          6           0        4.613900    4.220800    0.184700
     12          1           0        3.714900    4.521400    0.722800
     13          1           0        4.640300    4.718900   -0.784400
     14          1           0        4.604700    3.140900    0.037500
     15          6           0        5.846000    6.129400    1.133400
     16          8           0        5.846100    6.652700    2.245400
     17          7           0        5.846000    6.834900    0.000000
     18          1           0        5.846000    6.359200   -0.890900
     19          6           0        5.846100    8.283900    0.000000
     20          1           0        5.332300    8.647700   -0.889800
     21          6           0        5.134700    8.832900    1.232200
     22          1           0        5.643100    8.484600    2.131200
     23          1           0        5.149900    9.922400    1.205800
     24          1           0        4.101900    8.484600    1.241400
     25          6           0        7.266000    8.831800    0.000000
     26          8           0        8.229200    8.068400    0.000000
     27          7           0        7.394000   10.160700    0.000000
     28          1           0        6.571700   10.747200    0.000000
     29          6           0        8.691900   10.804900    0.000000
     30          1           0        9.246200   10.506500    0.889800
     31          6           0        9.499900   10.411800   -1.232200
     32          1           0        8.961900   10.712400   -2.131200
     33          1           0       10.469100   10.909900   -1.205800
     34          1           0        9.647100    9.331900   -1.241400
     35          6           0        8.551300   12.320400    0.000000
     36          8           0        7.439200   12.843700    0.000000
     37          7           0        9.684600   13.025900    0.000000
     38          1           0       10.575600   12.550200    0.000000
     39          6           0        9.684600   14.474900    0.000000
     40          1           0        8.657200   14.838700    0.000000
     41          1           0       10.198400   14.838700    0.889800
     42          1           0       10.198400   14.838700   -0.889800
 ---------------------------------------------------------------------
                    Distance matrix (angstroms):
                    1          2          3          4          5
     1  H    0.000000
     2  C    1.090000   0.000000
     3  H    1.780244   1.089993   0.000000
     4  H    1.780294   1.090075   1.779700   0.000000
     5  C    2.174786   1.529984   2.143630   2.143588   0.000000
     6  O    2.546433   2.399935   3.091782   3.091753   1.228959
     7  N    3.352235   2.439642   2.714912   2.714879   1.334941
     8  H    3.630879   2.572758   2.601220   2.601186   2.037260
     9  C    4.604457   3.809307   4.098127   4.098105   2.434344
    10  H    4.836873   4.166011   4.340797   4.691466   2.741776
    11  C    5.029611   4.411773   5.005660   4.546528   3.000796
    12  H    5.166880   4.495342   5.160347   4.363893   3.309680
    13  H    6.060097   5.459457   5.998751   5.629677   4.003926
    14  H    4.541938   4.141272   4.867895   4.390665   2.731403
    15  C    5.802495   4.865691   4.971078   4.971060   3.717804
    16  O    5.874942   4.835303   4.784683   4.784702   4.015637
    17  N    6.988403   6.107847   6.244503   6.244489   4.841498
    18  H    7.152569   6.376856   6.604084   6.604070   4.977880
    19  C    8.236924   7.290824   7.334144   7.334156   6.139561
    20  H    9.009945   8.105259   8.239708   8.127986   6.876936
    21  C    8.288086   7.266687   7.282763   7.106804   6.344730
    22  H    7.681210   6.623644   6.521612   6.465991   5.854380
    23  H    9.330840   8.294687   8.260938   8.109576   7.414657
    24  H    8.114519   7.121593   7.282371   6.842865   6.211094
    25  C    8.839962   7.890482   7.743884   8.063617   6.796654
    26  O    8.392447   7.497476   7.263714   7.825862   6.402196
    27  N   10.055155   9.073252   8.879035   9.184064   8.049523
    28  H   10.503624   9.500806   9.370982   9.507796   8.490582
    29  C   10.909920   9.941820   9.621573  10.134307   8.977823
    30  H   10.520140   9.546584   9.120772   9.761710   8.704472
    31  C   11.301343  10.411087  10.111376  10.735243   9.331011
    32  H   11.822260  10.944447  10.737441  11.242028   9.775492
    33  H   12.045702  11.166174  10.789732  11.527081  10.143340
    34  H   10.476154   9.631945   9.335780  10.034254   8.521431
    35  C   12.258111  11.259259  10.938616  11.370242  10.337453
    36  O   12.554000  11.531338  11.289487  11.537901  10.605993
    37  N   13.196517  12.211458  11.809826  12.374770  11.332907
    38  H   13.060130  12.106844  11.648538  12.350012  11.243440
    39  C   14.529237  13.524480  13.122863  13.633505  12.674005
    40  H   14.635697  13.609679  13.269702  13.641518  12.749166
    41  H   14.805109  13.791700  13.319743  13.889108  13.041065
    42  H   15.260404  14.279344  13.890031  14.436922  13.367036
                    6          7          8          9         10
     6  O    0.000000
     7  N    2.252745   0.000000
     8  H    3.149985   1.009948   0.000000
     9  C    2.775342   1.449023   2.120888   0.000000
    10  H    2.787569   2.083798   2.828821   1.090052   0.000000
    11  C    2.936754   2.452837   3.194503   1.525000   2.139221
    12  H    3.474071   2.702662   3.202401   2.150126   3.041326
    13  H    3.813789   3.386946   4.082789   2.150158   2.459625
    14  H    2.268916   2.702680   3.605787   2.150152   2.466272
    15  C    4.264183   2.450322   2.528575   1.522008   2.136596
    16  O    4.840189   2.683482   2.268984   2.392846   3.085310
    17  N    5.166748   3.668413   3.857859   2.432795   2.707689
    18  H    5.058866   3.979041   4.391080   2.567956   2.595368
    19  C    6.569758   4.884720   4.856608   3.801914   4.090504
    20  H    7.183403   5.680149   5.746885   4.481028   4.743673
    21  C    6.995341   5.027729   4.725886   4.285233   4.858056
    22  H    6.644760   4.522370   4.054382   4.039733   4.630425
    23  H    8.078919   6.090763   5.737487   5.358180   5.877199
    24  H    6.836872   4.952589   4.688018   4.252764   4.996399
    25  C    7.245589   5.559199   5.476144   4.559905   4.568397
    26  O    6.791657   5.265654   5.263653   4.312640   4.062817
    27  N    8.551482   6.780364   6.595301   5.843710   5.898452
    28  H    9.017676   7.190953   6.967532   6.255371   6.448721
    29  C    9.482504   7.750341   7.539018   6.885730   6.791946
    30  H    9.292080   7.500329   7.204915   6.804021   6.695802
    31  C    9.664921   8.201448   8.155986   7.205363   6.898972
    32  H   10.031474   8.644500   8.666571   7.527278   7.244223
    33  H   10.490073   9.042474   8.966326   8.114586   7.754135
    34  H    8.791541   7.461793   7.497770   6.457518   6.038329
    35  C   10.885466   9.072035   8.791652   8.227663   8.219877
    36  O   11.176605   9.302432   8.995151   8.441182   8.568378
    37  N   11.880336  10.099442   9.806248   9.299583   9.206421
    38  H   11.764194  10.061964   9.796167   9.291912   9.096475
    39  C   13.249541  11.416807  11.081859  10.628256  10.587753
    40  H   13.342287  11.458075  11.105172  10.650588  10.706139
    41  H   13.684250  11.791660  11.384965  11.113079  11.087394
    42  H   13.872243  12.132448  11.861571  11.270941  11.157555
                   11         12         13         14         15
    11  C    0.000000
    12  H    1.090006   0.000000
    13  H    1.089934   1.779613   0.000000
    14  H    1.089925   1.779652   1.779570   0.000000
    15  C    2.461881   2.701082   2.668554   3.416571   0.000000
    16  O    3.417446   3.376798   3.791204   4.329969   1.228978
    17  N    2.895808   3.227431   2.558603   3.897162   1.335038
    18  H    2.692163   3.243936   2.038538   3.572143   2.037302
    19  C    4.249849   4.384160   3.844277   5.290834   2.434433
    20  H    4.611734   4.716229   3.990669   5.631530   3.270942
    21  C    4.758146   4.567751   4.608265   5.840126   2.797252
    22  H    4.798761   4.626932   4.866912   5.832408   2.565880
    23  H    5.817060   5.609217   5.594372   6.902964   3.857026
    24  H    4.422527   4.015678   4.309784   5.500665   2.932664
    25  C    5.322506   5.631367   4.942219   6.282537   3.256372
    26  O    5.282853   5.786411   4.971382   6.117080   3.274746
    27  N    6.560906   6.771995   6.149092   7.553754   4.464558
    28  H    6.816230   6.887985   6.378557   7.856608   4.809918
    29  C    7.746907   8.048313   7.353240   8.685822   5.589637
    30  H    7.839987   8.151355   7.583770   8.747685   5.547946
    31  C    8.013057   8.484401   7.498356   8.856698   6.106226
    32  H    8.149194   8.602605   7.510801   9.000892   6.431978
    33  H    8.997828   9.494822   8.513576   9.812968   7.049687
    34  H    7.313700   7.886063   6.823244   8.086400   5.508543
    35  C    9.007816   9.205303   8.584521   9.992011   6.850673
    36  O    9.075838   9.146230   8.629108  10.108418   6.993190
    37  N   10.162475  10.415675   9.750205  11.113956   7.973779
    38  H   10.244749  10.585522   9.857603  11.143966   8.054836
    39  C   11.440834  11.628926  11.010894  12.420400   9.255637
    40  H   11.363195  11.462785  10.916095  12.379931   9.221678
    41  H   12.017637  12.186482  11.666438  12.994400   9.739334
    42  H   12.044957  12.291580  11.546165  12.999534   9.944276
                   16         17         18         19         20
    16  O    0.000000
    17  N    2.252780   0.000000
    18  H    3.150003   1.009947   0.000000
    19  C    2.775362   1.449000   2.120890   0.000000
    20  H    3.751466   2.083717   2.345447   1.089993   0.000000
    21  C    2.507177   2.452808   3.336569   1.525060   2.139212
    22  H    1.846648   2.702719   3.700214   2.150233   3.041322
    23  H    3.500914   3.386911   4.192505   2.150193   2.459608
    24  H    2.721416   2.702678   3.479355   2.150253   2.466272
    25  C    3.436046   2.450308   2.987282   1.521943   2.136547
    26  O    3.567239   2.683499   3.065079   2.392824   3.085346
    27  N    4.443409   3.668412   4.200168   2.432771   2.707678
    28  H    4.725806   3.979037   4.535955   2.567945   2.595334
    29  C    5.511911   4.884675   5.353232   3.801844   4.090497
    30  H    5.315083   5.082691   5.650872   4.158410   4.684093
    31  C    6.290850   5.259612   5.467270   4.404149   4.538521
    32  H    6.733795   5.411640   5.495228   4.488634   4.356381
    33  H    7.169844   6.279541   6.494697   5.451785   5.621754
    34  H    5.812356   4.714281   4.838198   4.133640   4.382836
    35  C    6.669539   6.116319   6.606683   4.859160   4.964114
    36  O    6.775564   6.216427   6.736522   4.830087   4.778827
    37  N    7.771331   7.284458   7.744252   6.100873   6.237218
    38  H    7.886095   7.418475   7.841639   6.369418   6.596472
    39  C    8.997928   8.550114   9.021815   7.284405   7.327381
    40  H    8.941739   8.483140   8.977665   7.132159   7.083444
    41  H    9.369672   9.154012   9.696195   7.918312   8.073065
    42  H    9.786858   9.154012   9.531280   7.918312   7.874478
                   21         22         23         24         25
    21  C    0.000000
    22  H    1.089947   0.000000
    23  H    1.089926   1.779573   0.000000
    24  H    1.089988   1.779618   1.779562   0.000000
    25  C    2.461861   2.701179   2.668565   3.416599   0.000000
    26  O    3.417412   3.376855   3.791221   4.330000   1.229038
    27  N    2.895826   3.227534   2.558657   3.897218   1.335050
    28  H    2.692179   3.244021   2.038569   3.572162   2.037354
    29  C    4.249797   4.384175   3.844285   5.290838   2.434402
    30  H    4.452259   4.314103   4.149783   5.538549   2.741816
    31  C    5.255584   5.468223   5.010574   6.242692   3.000838
    32  H    5.430694   5.843422   5.127476   6.321165   3.309796
    33  H    6.222025   6.348852   5.923247   7.239620   4.004036
    34  H    5.170053   5.303241   5.153861   6.134448   2.731449
    35  C    5.035288   5.264314   4.332884   6.004298   3.717839
    36  O    4.787019   5.173948   3.902415   5.628534   4.015637
    37  N    6.308816   6.441983   5.625760   7.302809   4.841498
    38  H    6.703732   6.738002   6.147968   7.744609   4.977946
    39  C    7.352011   7.533885   6.537791   8.281987   6.139561
    40  H    7.070782   7.348564   6.158337   7.916212   6.165897
    41  H    7.863074   7.916212   7.053879   8.812804   6.743409
    42  H    8.137172   8.381634   7.351796   9.060017   6.743409
                   26         27         28         29         30
    26  O    0.000000
    27  N    2.252838   0.000000
    28  H    3.150123   1.010029   0.000000
    29  C    2.775342   1.448978   2.120985   0.000000
    30  H    2.787537   2.083739   2.828892   1.089970   0.000000
    31  C    2.936753   2.452791   3.194552   1.525027   2.139209
    32  H    3.474133   2.702720   3.202543   2.150225   3.041326
    33  H    3.813821   3.386959   4.082910   2.150214   2.459625
    34  H    2.268909   2.702673   3.605861   2.150165   2.466256
    35  C    4.264183   2.450234   2.528591   1.522008   2.136554
    36  O    4.840206   2.683381   2.268891   2.392898   3.085368
    37  N    5.166720   3.668272   3.857800   2.432754   2.707640
    38  H    5.058866   3.978981   4.391130   2.567956   2.595334
    39  C    6.569736   4.884585   4.856531   3.801888   4.090494
    40  H    6.783815   4.845550   4.592350   4.033949   4.461684
    41  H    7.106789   5.526309   5.539411   4.396911   4.435611
    42  H    7.106789   5.526309   5.539411   4.396911   4.779291
                   31         32         33         34         35
    31  C    0.000000
    32  H    1.089957   0.000000
    33  H    1.090023   1.779613   0.000000
    34  H    1.089925   1.779613   1.779617   0.000000
    35  C    2.461892   2.701161   2.668599   3.416575   0.000000
    36  O    3.417446   3.376843   3.791283   4.329969   1.229068
    37  N    2.895850   3.227474   2.558681   3.897193   1.334953
    38  H    2.692248   3.244002   2.038598   3.572204   2.037302
    39  C    4.249849   4.384144   3.844297   5.290834   2.434387
    40  H    4.671820   4.654160   4.491370   5.731127   2.520526
    41  H    4.958652   5.261343   4.460974   5.930497   3.137916
    42  H    4.494728   4.482896   3.950773   5.545485   3.137916
                   36         37         38         39         40
    36  O    0.000000
    37  N    2.252780   0.000000
    38  H    3.150103   1.010035   0.000000
    39  C    2.775362   1.449000   2.120932   0.000000
    40  H    2.337424   2.083697   2.986217   1.089909   0.000000
    41  H    3.519226   2.083741   2.484201   1.089993   1.779618
    42  H    3.519226   2.083741   2.484201   1.089993   1.779618
                   41         42
    41  H    0.000000
    42  H    1.779600   0.000000
 Stoichiometry    C12H22N4O4
 Framework group  C1[X(C12H22N4O4)]
 Deg. of freedom   120
 Full point group                 C1      NOp   1
 Largest Abelian subgroup         C1      NOp   1
 Largest concise Abelian subgroup C1      NOp   1
                         Standard orientation:                         
 ---------------------------------------------------------------------
 Center     Atomic      Atomic             Coordinates (Angstroms)
 Number     Number       Type             X           Y           Z
 ---------------------------------------------------------------------
      1          1           0       -7.366739   -1.540714    1.280683
      2          6           0       -6.365568   -1.219999    1.568602
      3          1           0       -5.851347   -2.039516    2.070652
      4          1           0       -6.436886   -0.367939    2.244746
      5          6           0       -5.546637   -0.805538    0.344500
      6          8           0       -6.036602   -0.859922   -0.781252
      7          7           0       -4.298076   -0.391953    0.572776
      8          1           0       -3.939693   -0.364714    1.516606
      9          6           0       -3.421633    0.027035   -0.502382
     10          1           0       -3.281363   -0.798623   -1.200111
     11          6           0       -4.010842    1.211454   -1.261070
     12          1           0       -4.148533    2.049170   -0.577414
     13          1           0       -3.332110    1.504511   -2.061942
     14          1           0       -4.973480    0.928370   -1.686661
     15          6           0       -2.060473    0.448095    0.032838
     16          8           0       -1.823665    0.405420    1.238030
     17          7           0       -1.163895    0.856014   -0.868315
     18          1           0       -1.405440    0.873519   -1.848795
     19          6           0        0.167053    1.282265   -0.485577
     20          1           0        0.527307    2.029170   -1.192991
     21          6           0        0.167015    1.894179    0.911337
     22          1           0       -0.182797    1.155280    1.632201
     23          1           0        1.178518    2.205137    1.172306
     24          1           0       -0.494720    2.760125    0.929193
     25          6           0        1.137464    0.109840   -0.479749
     26          8           0        0.753179   -1.019460   -0.775620
     27          7           0        2.400180    0.380625   -0.141247
     28          1           0        2.668339    1.325535    0.094114
     29          6           0        3.418903   -0.648877   -0.098047
     30          1           0        3.132044   -1.414579    0.622680
     31          6           0        3.593919   -1.305652   -1.463231
     32          1           0        3.890179   -0.552986   -2.193799
     33          1           0        4.364513   -2.074078   -1.401138
     34          1           0        2.652472   -1.760026   -1.771709
     35          6           0        4.764640   -0.070908    0.316020
     36          8           0        4.879402    1.127601    0.563035
     37          7           0        5.785513   -0.927773    0.391513
     38          1           0        5.641728   -1.904608    0.178699
     39          6           0        7.116428   -0.501428    0.774260
     40          1           0        7.112556    0.570596    0.970859
     41          1           0        7.424479   -1.034248    1.673866
     42          1           0        7.814773   -0.719692   -0.033676
 ---------------------------------------------------------------------
 Rotational constants (GHZ):      1.0496014      0.1016142      0.1005844
 Standard basis: 6-31G(d) (6D, 7F)
 There are   344 symmetry adapted basis functions of A   symmetry.
 Integral buffers will be    131072 words long.
 Raffenetti 2 integral format.
 Two-electron integral symmetry is turned on.
   344 basis functions,   648 primitive gaussians,   344 cartesian basis functions
    77 alpha electrons       77 beta electrons
       nuclear repulsion energy      1600.0516486125 Hartrees.
 NAtoms=   42 NActive=   42 NUniq=   42 SFac= 7.50D-01 NAtFMM=   80 NAOKFM=F Big=F
 One-electron integrals computed using PRISM.
 NBasis=   344 RedAO= T  NBF=   344
 NBsUse=   344 1.00D-06 NBFU=   344
 Harris functional with IExCor=  402 diagonalized for initial guess.
 ExpMin= 1.61D-01 ExpMax= 5.48D+03 ExpMxC= 8.25D+02 IAcc=1 IRadAn=         1 AccDes= 0.00D+00
 HarFok:  IExCor=  402 AccDes= 0.00D+00 IRadAn=         1 IDoV= 1
 ScaDFX=  1.000000  1.000000  1.000000  1.000000
 FoFCou: FMM=F IPFlag=           0 FMFlag=      100000 FMFlg1=           0
         NFxFlg=           0 DoJE=T BraDBF=F KetDBF=T FulRan=T
         Omega=  0.000000  0.000000  1.000000  0.000000  0.000000 ICntrl=     500 IOpCl=  0
         NMat0=    1 NMatS0=    1 NMatT0=    0 NMatD0=    1 NMtDS0=    0 NMtDT0=    0
         I1Cent=           4 NGrid=           0.
 Petite list used in FoFCou.
 Initial guess orbital symmetries:
       Occupied  (A) (A) (A) (A) (A) (A) (A) (A) (A) (A) (A) (A)
                 (A) (A) (A) (A) (A) (A) (A) (A) (A) (A) (A) (A)
                 (A) (A) (A) (A) (A) (A) (A) (A) (A) (A) (A) (A)
                 (A) (A) (A) (A) (A) (A) (A) (A) (A) (A) (A) (A)
                 (A) (A) (A) (A) (A) (A) (A) (A) (A) (A) (A) (A)
                 (A) (A) (A) (A) (A) (A) (A) (A) (A) (A) (A) (A)
                 (A) (A) (A) (A) (A)
       Virtual   (A) (A) (A) (A) (A) (A) (A) (A) (A) (A) (A) (A)
                 (A) (A) (A) (A) (A) (A) (A) (A) (A) (A) (A) (A)
                 (A) (A) (A) (A) (A) (A) (A) (A) (A) (A) (A) (A)
                 (A) (A) (A) (A) (A) (A) (A) (A) (A) (A) (A) (A)
                 (A) (A) (A) (A) (A) (A) (A) (A) (A) (A) (A) (A)
                 (A) (A) (A) (A) (A) (A) (A) (A) (A) (A) (A) (A)
                 (A) (A) (A) (A) (A) (A) (A) (A) (A) (A) (A) (A)
                 (A) (A) (A) (A) (A) (A) (A) (A) (A) (A) (A) (A)
                 (A) (A) (A) (A) (A) (A) (A) (A) (A) (A) (A) (A)
                 (A) (A) (A) (A) (A) (A) (A) (A) (A) (A) (A) (A)
                 (A) (A) (A) (A) (A) (A) (A) (A) (A) (A) (A) (A)
                 (A) (A) (A) (A) (A) (A) (A) (A) (A) (A) (A) (A)
                 (A) (A) (A) (A) (A) (A) (A) (A) (A) (A) (A) (A)
                 (A) (A) (A) (A) (A) (A) (A) (A) (A) (A) (A) (A)
                 (A) (A) (A) (A) (A) (A) (A) (A) (A) (A) (A) (A)
                 (A) (A) (A) (A) (A) (A) (A) (A) (A) (A) (A) (A)
                 (A) (A) (A) (A) (A) (A) (A) (A) (A) (A) (A) (A)
                 (A) (A) (A) (A) (A) (A) (A) (A) (A) (A) (A) (A)
                 (A) (A) (A) (A) (A) (A) (A) (A) (A) (A) (A) (A)
                 (A) (A) (A) (A) (A) (A) (A) (A) (A) (A) (A) (A)
                 (A) (A) (A) (A) (A) (A) (A) (A) (A) (A) (A) (A)
                 (A) (A) (A) (A) (A) (A) (A) (A) (A) (A) (A) (A)
                 (A) (A) (A)
 The electronic state of the initial guess is 1-A.
 Requested convergence on RMS density matrix=1.00D-08 within 128 cycles.
 Requested convergence on MAX density matrix=1.00D-06.
 Requested convergence on             energy=1.00D-06.
 No special actions if energy rises.
 Integral accuracy reduced to 1.0D-05 until final iterations.
 Initial convergence to 1.0D-05 achieved.  Increase integral accuracy.
 SCF Done:  E(RB3LYP) =  -990.470008588     A.U. after   14 cycles
             Convg  =    0.6329D-08             -V/T =  2.0086
 Range of M.O.s used for correlation:     1   344
 NBasis=   344 NAE=    77 NBE=    77 NFC=     0 NFV=     0
 NROrb=    344 NOA=    77 NOB=    77 NVA=   267 NVB=   267
 Symmetrizing basis deriv contribution to polar:
 IMax=3 JMax=2 DiffMx= 0.00D+00
 G2DrvN: will do    43 centers at a time, making    1 passes doing MaxLOS=2.
 Calling FoFCou, ICntrl=  3107 FMM=F I1Cent=   0 AccDes= 0.00D+00.
 FoFDir/FoFCou used for L=0 through L=2.
 End of G2Drv Frequency-dependent properties file   721 does not exist.
 End of G2Drv Frequency-dependent properties file   722 does not exist.
          IDoAtm=111111111111111111111111111111111111111111
          Differentiating once with respect to nuclear coordinates.
          There are   129 degrees of freedom in the 1st order CPHF.  IDoFFX=5.
    123 vectors produced by pass  0 Test12= 2.06D-10 1.00D-07 XBig12= 1.89D-01 8.97D-02.
 AX will form   123 AO Fock derivatives at one time.
    123 vectors produced by pass  1 Test12= 2.06D-10 1.00D-07 XBig12= 3.43D-02 5.61D-02.
    123 vectors produced by pass  2 Test12= 2.06D-10 1.00D-07 XBig12= 3.75D-05 9.83D-04.
    123 vectors produced by pass  3 Test12= 2.06D-10 1.00D-07 XBig12= 9.48D-08 7.19D-05.
     69 vectors produced by pass  4 Test12= 2.06D-10 1.00D-07 XBig12= 9.33D-11 1.83D-06.
 Inverted reduced A of dimension   561 with in-core refinement.
 End of Minotr Frequency-dependent properties file   721 does not exist.
 End of Minotr Frequency-dependent properties file   722 does not exist.

 **********************************************************************

            Population analysis using the SCF density.

 **********************************************************************

 Orbital symmetries:
       Occupied  (A) (A) (A) (A) (A) (A) (A) (A) (A) (A) (A) (A)
                 (A) (A) (A) (A) (A) (A) (A) (A) (A) (A) (A) (A)
                 (A) (A) (A) (A) (A) (A) (A) (A) (A) (A) (A) (A)
                 (A) (A) (A) (A) (A) (A) (A) (A) (A) (A) (A) (A)
                 (A) (A) (A) (A) (A) (A) (A) (A) (A) (A) (A) (A)
                 (A) (A) (A) (A) (A) (A) (A) (A) (A) (A) (A) (A)
                 (A) (A) (A) (A) (A)
       Virtual   (A) (A) (A) (A) (A) (A) (A) (A) (A) (A) (A) (A)
                 (A) (A) (A) (A) (A) (A) (A) (A) (A) (A) (A) (A)
                 (A) (A) (A) (A) (A) (A) (A) (A) (A) (A) (A) (A)
                 (A) (A) (A) (A) (A) (A) (A) (A) (A) (A) (A) (A)
                 (A) (A) (A) (A) (A) (A) (A) (A) (A) (A) (A) (A)
                 (A) (A) (A) (A) (A) (A) (A) (A) (A) (A) (A) (A)
                 (A) (A) (A) (A) (A) (A) (A) (A) (A) (A) (A) (A)
                 (A) (A) (A) (A) (A) (A) (A) (A) (A) (A) (A) (A)
                 (A) (A) (A) (A) (A) (A) (A) (A) (A) (A) (A) (A)
                 (A) (A) (A) (A) (A) (A) (A) (A) (A) (A) (A) (A)
                 (A) (A) (A) (A) (A) (A) (A) (A) (A) (A) (A) (A)
                 (A) (A) (A) (A) (A) (A) (A) (A) (A) (A) (A) (A)
                 (A) (A) (A) (A) (A) (A) (A) (A) (A) (A) (A) (A)
                 (A) (A) (A) (A) (A) (A) (A) (A) (A) (A) (A) (A)
                 (A) (A) (A) (A) (A) (A) (A) (A) (A) (A) (A) (A)
                 (A) (A) (A) (A) (A) (A) (A) (A) (A) (A) (A) (A)
                 (A) (A) (A) (A) (A) (A) (A) (A) (A) (A) (A) (A)
                 (A) (A) (A) (A) (A) (A) (A) (A) (A) (A) (A) (A)
                 (A) (A) (A) (A) (A) (A) (A) (A) (A) (A) (A) (A)
                 (A) (A) (A) (A) (A) (A) (A) (A) (A) (A) (A) (A)
                 (A) (A) (A) (A) (A) (A) (A) (A) (A) (A) (A) (A)
                 (A) (A) (A) (A) (A) (A) (A) (A) (A) (A) (A) (A)
                 (A) (A) (A)
 The electronic state is 1-A.
 Alpha  occ. eigenvalues --  -19.12218 -19.11390 -19.10718 -19.09229 -14.37784
 Alpha  occ. eigenvalues --  -14.36983 -14.36123 -14.34880 -10.29609 -10.29081
 Alpha  occ. eigenvalues --  -10.28057 -10.27206 -10.24196 -10.24030 -10.23104
 Alpha  occ. eigenvalues --  -10.22838 -10.18438 -10.17979 -10.17499 -10.16885
 Alpha  occ. eigenvalues --   -1.04966  -1.04678  -1.03118  -1.01735  -0.94062
 Alpha  occ. eigenvalues --   -0.93673  -0.92922  -0.91643  -0.80622  -0.78487
 Alpha  occ. eigenvalues --   -0.75742  -0.71964  -0.71709  -0.66878  -0.66186
 Alpha  occ. eigenvalues --   -0.64262  -0.61010  -0.59241  -0.58098  -0.57054
 Alpha  occ. eigenvalues --   -0.56386  -0.53695  -0.50617  -0.49866  -0.48693
 Alpha  occ. eigenvalues --   -0.47602  -0.46721  -0.45904  -0.45013  -0.44501
 Alpha  occ. eigenvalues --   -0.43914  -0.43747  -0.42533  -0.42366  -0.41081
 Alpha  occ. eigenvalues --   -0.40768  -0.40496  -0.40375  -0.39067  -0.38735
 Alpha  occ. eigenvalues --   -0.38519  -0.38000  -0.37823  -0.37065  -0.36888
 Alpha  occ. eigenvalues --   -0.36527  -0.36221  -0.34628  -0.33743  -0.26957
 Alpha  occ. eigenvalues --   -0.26856  -0.26245  -0.25442  -0.24584  -0.24499
 Alpha  occ. eigenvalues --   -0.23880  -0.22990
 Alpha virt. eigenvalues --    0.01838   0.02394   0.02914   0.04462   0.05778
 Alpha virt. eigenvalues --    0.06310   0.09176   0.10294   0.11243   0.13169
 Alpha virt. eigenvalues --    0.13574   0.13734   0.14393   0.14619   0.14689
 Alpha virt. eigenvalues --    0.15209   0.15819   0.15952   0.16626   0.17567
 Alpha virt. eigenvalues --    0.17743   0.18304   0.18841   0.19144   0.19944
 Alpha virt. eigenvalues --    0.20091   0.20363   0.20722   0.21641   0.22457
 Alpha virt. eigenvalues --    0.23597   0.24505   0.24908   0.25606   0.27282
 Alpha virt. eigenvalues --    0.28360   0.32039   0.34010   0.34898   0.34966
 Alpha virt. eigenvalues --    0.37723   0.40280   0.42062   0.43062   0.44649
 Alpha virt. eigenvalues --    0.49813   0.50161   0.50732   0.51383   0.52035
 Alpha virt. eigenvalues --    0.52488   0.53469   0.53670   0.54261   0.54809
 Alpha virt. eigenvalues --    0.55890   0.56249   0.56582   0.57772   0.58172
 Alpha virt. eigenvalues --    0.59228   0.61087   0.61726   0.62481   0.63052
 Alpha virt. eigenvalues --    0.64010   0.65975   0.66175   0.67690   0.68217
 Alpha virt. eigenvalues --    0.69170   0.69612   0.70235   0.71156   0.73029
 Alpha virt. eigenvalues --    0.73904   0.74468   0.74733   0.75705   0.76684
 Alpha virt. eigenvalues --    0.78218   0.79727   0.80234   0.80258   0.83269
 Alpha virt. eigenvalues --    0.83473   0.84464   0.84747   0.85947   0.86039
 Alpha virt. eigenvalues --    0.86709   0.87421   0.87945   0.88082   0.88439
 Alpha virt. eigenvalues --    0.89321   0.89708   0.89733   0.90235   0.90652
 Alpha virt. eigenvalues --    0.91977   0.92477   0.92597   0.92758   0.94280
 Alpha virt. eigenvalues --    0.94638   0.95278   0.95581   0.95893   0.96752
 Alpha virt. eigenvalues --    0.98321   0.99719   1.01232   1.02144   1.02188
 Alpha virt. eigenvalues --    1.03626   1.04761   1.06752   1.08032   1.08610
 Alpha virt. eigenvalues --    1.10709   1.11084   1.13564   1.15198   1.16911
 Alpha virt. eigenvalues --    1.20838   1.24125   1.24564   1.25669   1.28780
 Alpha virt. eigenvalues --    1.30028   1.30430   1.32086   1.32471   1.34205
 Alpha virt. eigenvalues --    1.35278   1.36763   1.38285   1.39862   1.40348
 Alpha virt. eigenvalues --    1.44886   1.45824   1.47151   1.48131   1.48545
 Alpha virt. eigenvalues --    1.49567   1.50587   1.51404   1.54278   1.60767
 Alpha virt. eigenvalues --    1.63913   1.64724   1.66525   1.67278   1.70446
 Alpha virt. eigenvalues --    1.72996   1.73848   1.75081   1.76206   1.77676
 Alpha virt. eigenvalues --    1.78412   1.79463   1.80552   1.80995   1.82702
 Alpha virt. eigenvalues --    1.83343   1.83467   1.84070   1.84290   1.84765
 Alpha virt. eigenvalues --    1.85767   1.86811   1.88271   1.89107   1.90360
 Alpha virt. eigenvalues --    1.91960   1.92464   1.93044   1.93766   1.94487
 Alpha virt. eigenvalues --    1.95959   1.96753   1.99323   2.01223   2.02398
 Alpha virt. eigenvalues --    2.02941   2.04890   2.05362   2.05812   2.07514
 Alpha virt. eigenvalues --    2.08462   2.09039   2.12928   2.14175   2.15257
 Alpha virt. eigenvalues --    2.17016   2.19478   2.20339   2.21186   2.24395
 Alpha virt. eigenvalues --    2.24929   2.26401   2.27780   2.28193   2.28770
 Alpha virt. eigenvalues --    2.29713   2.30504   2.32254   2.33668   2.34358
 Alpha virt. eigenvalues --    2.35589   2.37650   2.39477   2.40920   2.44176
 Alpha virt. eigenvalues --    2.44487   2.45607   2.46481   2.47916   2.51797
 Alpha virt. eigenvalues --    2.53982   2.56325   2.59118   2.60524   2.62044
 Alpha virt. eigenvalues --    2.63011   2.64897   2.66081   2.68572   2.71435
 Alpha virt. eigenvalues --    2.72115   2.73859   2.78447   2.81958   2.84925
 Alpha virt. eigenvalues --    2.88650   2.90719   2.94200   2.96124   2.98383
 Alpha virt. eigenvalues --    2.98884   3.02983   3.05017   3.15632   3.16986
 Alpha virt. eigenvalues --    3.23669   3.24747   3.95449   3.98104   4.01847
 Alpha virt. eigenvalues --    4.05218   4.07360   4.09004   4.12719   4.15426
 Alpha virt. eigenvalues --    4.21180   4.22941   4.28055   4.29426   4.30717
 Alpha virt. eigenvalues --    4.40624   4.44576   4.45903   4.51217   4.58248
 Alpha virt. eigenvalues --    4.64018   4.67576
          Condensed to atoms (all electrons):
              1          2          3          4          5          6
     1  H    0.506898   0.360178  -0.021634  -0.021733  -0.018220   0.005104
     2  C    0.360178   5.326908   0.351263   0.351347   0.357452  -0.079393
     3  H   -0.021634   0.351263   0.549486  -0.026669  -0.025038   0.001454
     4  H   -0.021733   0.351347  -0.026669   0.553337  -0.026582   0.001298
     5  C   -0.018220   0.357452  -0.025038  -0.026582   4.335731   0.593211
     6  O    0.005104  -0.079393   0.001454   0.001298   0.593211   8.085302
     7  N    0.004611  -0.135426   0.004228   0.004625   0.228768  -0.108046
     8  H   -0.000146  -0.001124   0.001155   0.000860  -0.016298   0.003087
     9  C   -0.000146   0.007363  -0.000275   0.000007  -0.021356   0.013473
    10  H    0.000002   0.000148  -0.000019  -0.000002  -0.001335   0.004896
    11  C    0.000014  -0.000752   0.000017   0.000031  -0.006335  -0.018557
    12  H    0.000000  -0.000004  -0.000001   0.000002   0.000917  -0.000162
    13  H    0.000000   0.000007   0.000000  -0.000001   0.000344   0.000330
    14  H    0.000000   0.000614  -0.000008  -0.000055   0.003021   0.023710
    15  C    0.000000  -0.000040  -0.000016  -0.000014   0.006526   0.000818
    16  O    0.000000  -0.000047   0.000000  -0.000001   0.000499  -0.000005
    17  N    0.000000   0.000001   0.000000   0.000000  -0.000072  -0.000003
    18  H    0.000000   0.000000   0.000000   0.000000   0.000002   0.000003
    19  C    0.000000   0.000000   0.000000   0.000000   0.000001   0.000000
    20  H    0.000000   0.000000   0.000000   0.000000   0.000000   0.000000
    21  C    0.000000   0.000000   0.000000   0.000000   0.000000   0.000000
    22  H    0.000000   0.000000   0.000000   0.000000   0.000000   0.000000
    23  H    0.000000   0.000000   0.000000   0.000000   0.000000   0.000000
    24  H    0.000000   0.000000   0.000000   0.000000   0.000000   0.000000
    25  C    0.000000   0.000000   0.000000   0.000000   0.000000   0.000000
    26  O    0.000000   0.000000   0.000000   0.000000   0.000000   0.000000
    27  N    0.000000   0.000000   0.000000   0.000000   0.000000   0.000000
    28  H    0.000000   0.000000   0.000000   0.000000   0.000000   0.000000
    29  C    0.000000   0.000000   0.000000   0.000000   0.000000   0.000000
    30  H    0.000000   0.000000   0.000000   0.000000   0.000000   0.000000
    31  C    0.000000   0.000000   0.000000   0.000000   0.000000   0.000000
    32  H    0.000000   0.000000   0.000000   0.000000   0.000000   0.000000
    33  H    0.000000   0.000000   0.000000   0.000000   0.000000   0.000000
    34  H    0.000000   0.000000   0.000000   0.000000   0.000000   0.000000
    35  C    0.000000   0.000000   0.000000   0.000000   0.000000   0.000000
    36  O    0.000000   0.000000   0.000000   0.000000   0.000000   0.000000
    37  N    0.000000   0.000000   0.000000   0.000000   0.000000   0.000000
    38  H    0.000000   0.000000   0.000000   0.000000   0.000000   0.000000
    39  C    0.000000   0.000000   0.000000   0.000000   0.000000   0.000000
    40  H    0.000000   0.000000   0.000000   0.000000   0.000000   0.000000
    41  H    0.000000   0.000000   0.000000   0.000000   0.000000   0.000000
    42  H    0.000000   0.000000   0.000000   0.000000   0.000000   0.000000
              7          8          9         10         11         12
     1  H    0.004611  -0.000146  -0.000146   0.000002   0.000014   0.000000
     2  C   -0.135426  -0.001124   0.007363   0.000148  -0.000752  -0.000004
     3  H    0.004228   0.001155  -0.000275  -0.000019   0.000017  -0.000001
     4  H    0.004625   0.000860   0.000007  -0.000002   0.000031   0.000002
     5  C    0.228768  -0.016298  -0.021356  -0.001335  -0.006335   0.000917
     6  O   -0.108046   0.003087   0.013473   0.004896  -0.018557  -0.000162
     7  N    7.195995   0.290934   0.247844  -0.048131  -0.055402   0.000240
     8  H    0.290934   0.388963  -0.051212   0.004001   0.004625   0.000633
     9  C    0.247844  -0.051212   5.075894   0.372963   0.345800  -0.037371
    10  H   -0.048131   0.004001   0.372963   0.567605  -0.050282   0.006106
    11  C   -0.055402   0.004625   0.345800  -0.050282   5.207829   0.367287
    12  H    0.000240   0.000633  -0.037371   0.006106   0.367287   0.566286
    13  H    0.005219  -0.000127  -0.036133  -0.000128   0.350972  -0.027234
    14  H   -0.010694  -0.000310  -0.021139  -0.005695   0.359589  -0.025776
    15  C   -0.026033   0.000744   0.318285  -0.032947  -0.046892  -0.002984
    16  O   -0.009275   0.030265  -0.078570   0.000860  -0.000779   0.000903
    17  N    0.003249   0.001293  -0.117925   0.000367   0.003152  -0.000376
    18  H    0.000069  -0.000045   0.000446   0.001080   0.000615  -0.000093
    19  C   -0.000062  -0.000006   0.003933  -0.000357   0.000455  -0.000074
    20  H    0.000001   0.000000  -0.000153   0.000001   0.000027   0.000001
    21  C    0.000007   0.000043  -0.000389   0.000016  -0.000133   0.000008
    22  H   -0.000005  -0.000003   0.000599  -0.000025  -0.000005  -0.000011
    23  H    0.000000  -0.000001   0.000024   0.000000  -0.000001   0.000000
    24  H    0.000002   0.000002  -0.000240   0.000000   0.000063   0.000045
    25  C    0.000000   0.000000  -0.000300   0.000029   0.000014   0.000002
    26  O    0.000000   0.000000  -0.000222   0.000164   0.000004   0.000000
    27  N    0.000000   0.000000  -0.000001   0.000000   0.000000   0.000000
    28  H    0.000000   0.000000   0.000000   0.000000   0.000000   0.000000
    29  C    0.000000   0.000000   0.000000   0.000000   0.000000   0.000000
    30  H    0.000000   0.000000   0.000000   0.000000   0.000000   0.000000
    31  C    0.000000   0.000000   0.000000   0.000000   0.000000   0.000000
    32  H    0.000000   0.000000   0.000000   0.000000   0.000000   0.000000
    33  H    0.000000   0.000000   0.000000   0.000000   0.000000   0.000000
    34  H    0.000000   0.000000   0.000000   0.000000   0.000000   0.000000
    35  C    0.000000   0.000000   0.000000   0.000000   0.000000   0.000000
    36  O    0.000000   0.000000   0.000000   0.000000   0.000000   0.000000
    37  N    0.000000   0.000000   0.000000   0.000000   0.000000   0.000000
    38  H    0.000000   0.000000   0.000000   0.000000   0.000000   0.000000
    39  C    0.000000   0.000000   0.000000   0.000000   0.000000   0.000000
    40  H    0.000000   0.000000   0.000000   0.000000   0.000000   0.000000
    41  H    0.000000   0.000000   0.000000   0.000000   0.000000   0.000000
    42  H    0.000000   0.000000   0.000000   0.000000   0.000000   0.000000
             13         14         15         16         17         18
     1  H    0.000000   0.000000   0.000000   0.000000   0.000000   0.000000
     2  C    0.000007   0.000614  -0.000040  -0.000047   0.000001   0.000000
     3  H    0.000000  -0.000008  -0.000016   0.000000   0.000000   0.000000
     4  H   -0.000001  -0.000055  -0.000014  -0.000001   0.000000   0.000000
     5  C    0.000344   0.003021   0.006526   0.000499  -0.000072   0.000002
     6  O    0.000330   0.023710   0.000818  -0.000005  -0.000003   0.000003
     7  N    0.005219  -0.010694  -0.026033  -0.009275   0.003249   0.000069
     8  H   -0.000127  -0.000310   0.000744   0.030265   0.001293  -0.000045
     9  C   -0.036133  -0.021139   0.318285  -0.078570  -0.117925   0.000446
    10  H   -0.000128  -0.005695  -0.032947   0.000860   0.000367   0.001080
    11  C    0.350972   0.359589  -0.046892  -0.000779   0.003152   0.000615
    12  H   -0.027234  -0.025776  -0.002984   0.000903  -0.000376  -0.000093
    13  H    0.604653  -0.021426  -0.008359  -0.000028   0.003842   0.007034
    14  H   -0.021426   0.483510   0.004230  -0.000083   0.000145  -0.000200
    15  C   -0.008359   0.004230   4.372480   0.552310   0.271581  -0.022250
    16  O   -0.000028  -0.000083   0.552310   8.176508  -0.097157   0.003721
    17  N    0.003842   0.000145   0.271581  -0.097157   7.079950   0.306285
    18  H    0.007034  -0.000200  -0.022250   0.003721   0.306285   0.394317
    19  C    0.000207   0.000001  -0.038670  -0.001085   0.277808  -0.031106
    20  H    0.000002  -0.000001   0.004109   0.000011  -0.039015  -0.003345
    21  C   -0.000021   0.000000  -0.004985  -0.045291  -0.042310   0.004894
    22  H   -0.000001   0.000000  -0.000867   0.016009  -0.006185  -0.000215
    23  H    0.000000   0.000000   0.000875   0.002679   0.003983  -0.000116
    24  H    0.000011   0.000000   0.000504  -0.002152  -0.000277  -0.000091
    25  C    0.000002   0.000000   0.002744  -0.000191  -0.062802   0.001113
    26  O   -0.000002   0.000000   0.009122  -0.000837  -0.004381   0.001140
    27  N    0.000000   0.000000   0.000354   0.000007   0.003288   0.000047
    28  H    0.000000   0.000000  -0.000014   0.000004   0.000094  -0.000003
    29  C    0.000000   0.000000  -0.000009   0.000002  -0.000110  -0.000001
    30  H    0.000000   0.000000   0.000002   0.000000   0.000001   0.000000
    31  C    0.000000   0.000000   0.000001   0.000000   0.000005   0.000001
    32  H    0.000000   0.000000   0.000000   0.000000   0.000000   0.000000
    33  H    0.000000   0.000000   0.000000   0.000000   0.000000   0.000000
    34  H    0.000000   0.000000  -0.000003   0.000000  -0.000004   0.000000
    35  C    0.000000   0.000000   0.000000   0.000000   0.000000   0.000000
    36  O    0.000000   0.000000   0.000000   0.000000   0.000000   0.000000
    37  N    0.000000   0.000000   0.000000   0.000000   0.000000   0.000000
    38  H    0.000000   0.000000   0.000000   0.000000   0.000000   0.000000
    39  C    0.000000   0.000000   0.000000   0.000000   0.000000   0.000000
    40  H    0.000000   0.000000   0.000000   0.000000   0.000000   0.000000
    41  H    0.000000   0.000000   0.000000   0.000000   0.000000   0.000000
    42  H    0.000000   0.000000   0.000000   0.000000   0.000000   0.000000
             19         20         21         22         23         24
     1  H    0.000000   0.000000   0.000000   0.000000   0.000000   0.000000
     2  C    0.000000   0.000000   0.000000   0.000000   0.000000   0.000000
     3  H    0.000000   0.000000   0.000000   0.000000   0.000000   0.000000
     4  H    0.000000   0.000000   0.000000   0.000000   0.000000   0.000000
     5  C    0.000001   0.000000   0.000000   0.000000   0.000000   0.000000
     6  O    0.000000   0.000000   0.000000   0.000000   0.000000   0.000000
     7  N   -0.000062   0.000001   0.000007  -0.000005   0.000000   0.000002
     8  H   -0.000006   0.000000   0.000043  -0.000003  -0.000001   0.000002
     9  C    0.003933  -0.000153  -0.000389   0.000599   0.000024  -0.000240
    10  H   -0.000357   0.000001   0.000016  -0.000025   0.000000   0.000000
    11  C    0.000455   0.000027  -0.000133  -0.000005  -0.000001   0.000063
    12  H   -0.000074   0.000001   0.000008  -0.000011   0.000000   0.000045
    13  H    0.000207   0.000002  -0.000021  -0.000001   0.000000   0.000011
    14  H    0.000001  -0.000001   0.000000   0.000000   0.000000   0.000000
    15  C   -0.038670   0.004109  -0.004985  -0.000867   0.000875   0.000504
    16  O   -0.001085   0.000011  -0.045291   0.016009   0.002679  -0.002152
    17  N    0.277808  -0.039015  -0.042310  -0.006185   0.003983  -0.000277
    18  H   -0.031106  -0.003345   0.004894  -0.000215  -0.000116  -0.000091
    19  C    5.131350   0.371810   0.358175  -0.028613  -0.032658  -0.030556
    20  H    0.371810   0.590115  -0.038247   0.004762  -0.003427  -0.005721
    21  C    0.358175  -0.038247   5.201020   0.369752   0.340756   0.368647
    22  H   -0.028613   0.004762   0.369752   0.457211  -0.021563  -0.024137
    23  H   -0.032658  -0.003427   0.340756  -0.021563   0.605867  -0.026453
    24  H   -0.030556  -0.005721   0.368647  -0.024137  -0.026453   0.566141
    25  C    0.306608  -0.042076  -0.050813  -0.002413  -0.010805   0.005113
    26  O   -0.087103   0.001407  -0.000881   0.000853  -0.000053  -0.000085
    27  N   -0.130483   0.002432   0.002169  -0.000352   0.005164   0.000237
    28  H    0.000583   0.000842   0.001222  -0.000069   0.006331  -0.000290
    29  C    0.006805  -0.000136   0.000062  -0.000057   0.000435   0.000009
    30  H    0.000329  -0.000001  -0.000092   0.000013  -0.000024  -0.000002
    31  C   -0.001032   0.000036   0.000018   0.000001   0.000006   0.000000
    32  H    0.000039   0.000004  -0.000001   0.000000  -0.000001   0.000000
    33  H    0.000012  -0.000001   0.000000   0.000000   0.000000   0.000000
    34  H    0.000601  -0.000049  -0.000004  -0.000001   0.000000   0.000000
    35  C   -0.000013  -0.000015  -0.000055  -0.000003  -0.000061   0.000001
    36  O   -0.000069  -0.000001  -0.000006   0.000001  -0.000102   0.000000
    37  N    0.000000   0.000000   0.000000   0.000000  -0.000001   0.000000
    38  H    0.000000   0.000000   0.000000   0.000000   0.000000   0.000000
    39  C    0.000000   0.000000   0.000000   0.000000   0.000000   0.000000
    40  H    0.000000   0.000000   0.000000   0.000000   0.000000   0.000000
    41  H    0.000000   0.000000   0.000000   0.000000   0.000000   0.000000
    42  H    0.000000   0.000000   0.000000   0.000000   0.000000   0.000000
             25         26         27         28         29         30
     1  H    0.000000   0.000000   0.000000   0.000000   0.000000   0.000000
     2  C    0.000000   0.000000   0.000000   0.000000   0.000000   0.000000
     3  H    0.000000   0.000000   0.000000   0.000000   0.000000   0.000000
     4  H    0.000000   0.000000   0.000000   0.000000   0.000000   0.000000
     5  C    0.000000   0.000000   0.000000   0.000000   0.000000   0.000000
     6  O    0.000000   0.000000   0.000000   0.000000   0.000000   0.000000
     7  N    0.000000   0.000000   0.000000   0.000000   0.000000   0.000000
     8  H    0.000000   0.000000   0.000000   0.000000   0.000000   0.000000
     9  C   -0.000300  -0.000222  -0.000001   0.000000   0.000000   0.000000
    10  H    0.000029   0.000164   0.000000   0.000000   0.000000   0.000000
    11  C    0.000014   0.000004   0.000000   0.000000   0.000000   0.000000
    12  H    0.000002   0.000000   0.000000   0.000000   0.000000   0.000000
    13  H    0.000002  -0.000002   0.000000   0.000000   0.000000   0.000000
    14  H    0.000000   0.000000   0.000000   0.000000   0.000000   0.000000
    15  C    0.002744   0.009122   0.000354  -0.000014  -0.000009   0.000002
    16  O   -0.000191  -0.000837   0.000007   0.000004   0.000002   0.000000
    17  N   -0.062802  -0.004381   0.003288   0.000094  -0.000110   0.000001
    18  H    0.001113   0.001140   0.000047  -0.000003  -0.000001   0.000000
    19  C    0.306608  -0.087103  -0.130483   0.000583   0.006805   0.000329
    20  H   -0.042076   0.001407   0.002432   0.000842  -0.000136  -0.000001
    21  C   -0.050813  -0.000881   0.002169   0.001222   0.000062  -0.000092
    22  H   -0.002413   0.000853  -0.000352  -0.000069  -0.000057   0.000013
    23  H   -0.010805  -0.000053   0.005164   0.006331   0.000435  -0.000024
    24  H    0.005113  -0.000085   0.000237  -0.000290   0.000009  -0.000002
    25  C    4.419860   0.592422   0.240695  -0.019712  -0.025143  -0.001338
    26  O    0.592422   8.108388  -0.107511   0.003030   0.011981   0.004848
    27  N    0.240695  -0.107511   7.208303   0.283776   0.252007  -0.048718
    28  H   -0.019712   0.003030   0.283776   0.381131  -0.051207   0.004513
    29  C   -0.025143   0.011981   0.252007  -0.051207   5.091328   0.370587
    30  H   -0.001338   0.004848  -0.048718   0.004513   0.370587   0.575705
    31  C   -0.006237  -0.017750  -0.054836   0.003782   0.348115  -0.050227
    32  H    0.000881  -0.000132  -0.000033   0.000735  -0.037435   0.006179
    33  H    0.000336   0.000297   0.005200  -0.000100  -0.035810  -0.000056
    34  H    0.003226   0.021952  -0.010141  -0.000340  -0.021483  -0.006066
    35  C    0.006337   0.000658  -0.025377   0.000274   0.308186  -0.033115
    36  O    0.000804  -0.000004  -0.009155   0.033375  -0.090210   0.001286
    37  N   -0.000063  -0.000001   0.003322   0.001296  -0.122214   0.000582
    38  H    0.000001   0.000003   0.000052  -0.000052   0.000908   0.001036
    39  C    0.000001   0.000000  -0.000069  -0.000011   0.005814  -0.000273
    40  H    0.000000   0.000000  -0.000001  -0.000033   0.001196  -0.000035
    41  H    0.000000   0.000000   0.000000   0.000000  -0.000193   0.000021
    42  H    0.000000   0.000000   0.000001   0.000000  -0.000030  -0.000006
             31         32         33         34         35         36
     1  H    0.000000   0.000000   0.000000   0.000000   0.000000   0.000000
     2  C    0.000000   0.000000   0.000000   0.000000   0.000000   0.000000
     3  H    0.000000   0.000000   0.000000   0.000000   0.000000   0.000000
     4  H    0.000000   0.000000   0.000000   0.000000   0.000000   0.000000
     5  C    0.000000   0.000000   0.000000   0.000000   0.000000   0.000000
     6  O    0.000000   0.000000   0.000000   0.000000   0.000000   0.000000
     7  N    0.000000   0.000000   0.000000   0.000000   0.000000   0.000000
     8  H    0.000000   0.000000   0.000000   0.000000   0.000000   0.000000
     9  C    0.000000   0.000000   0.000000   0.000000   0.000000   0.000000
    10  H    0.000000   0.000000   0.000000   0.000000   0.000000   0.000000
    11  C    0.000000   0.000000   0.000000   0.000000   0.000000   0.000000
    12  H    0.000000   0.000000   0.000000   0.000000   0.000000   0.000000
    13  H    0.000000   0.000000   0.000000   0.000000   0.000000   0.000000
    14  H    0.000000   0.000000   0.000000   0.000000   0.000000   0.000000
    15  C    0.000001   0.000000   0.000000  -0.000003   0.000000   0.000000
    16  O    0.000000   0.000000   0.000000   0.000000   0.000000   0.000000
    17  N    0.000005   0.000000   0.000000  -0.000004   0.000000   0.000000
    18  H    0.000001   0.000000   0.000000   0.000000   0.000000   0.000000
    19  C   -0.001032   0.000039   0.000012   0.000601  -0.000013  -0.000069
    20  H    0.000036   0.000004  -0.000001  -0.000049  -0.000015  -0.000001
    21  C    0.000018  -0.000001   0.000000  -0.000004  -0.000055  -0.000006
    22  H    0.000001   0.000000   0.000000  -0.000001  -0.000003   0.000001
    23  H    0.000006  -0.000001   0.000000   0.000000  -0.000061  -0.000102
    24  H    0.000000   0.000000   0.000000   0.000000   0.000001   0.000000
    25  C   -0.006237   0.000881   0.000336   0.003226   0.006337   0.000804
    26  O   -0.017750  -0.000132   0.000297   0.021952   0.000658  -0.000004
    27  N   -0.054836  -0.000033   0.005200  -0.010141  -0.025377  -0.009155
    28  H    0.003782   0.000735  -0.000100  -0.000340   0.000274   0.033375
    29  C    0.348115  -0.037435  -0.035810  -0.021483   0.308186  -0.090210
    30  H   -0.050227   0.006179  -0.000056  -0.006066  -0.033115   0.001286
    31  C    5.199293   0.367903   0.352726   0.361667  -0.044764  -0.000686
    32  H    0.367903   0.562954  -0.026614  -0.026233  -0.002806   0.000993
    33  H    0.352726  -0.026614   0.599443  -0.021683  -0.007981  -0.000022
    34  H    0.361667  -0.026233  -0.021683   0.485409   0.003768  -0.000091
    35  C   -0.044764  -0.002806  -0.007981   0.003768   4.362969   0.597956
    36  O   -0.000686   0.000993  -0.000022  -0.000091   0.597956   8.088930
    37  N    0.002810  -0.000483   0.003382   0.000227   0.273416  -0.101263
    38  H    0.000677  -0.000103   0.006950  -0.000196  -0.021395   0.003603
    39  C    0.000023  -0.000074   0.000071   0.000005  -0.024499  -0.009047
    40  H   -0.000070  -0.000007  -0.000006   0.000001  -0.001288   0.020913
    41  H   -0.000005   0.000001   0.000004   0.000000   0.001327   0.000567
    42  H    0.000012   0.000002   0.000000  -0.000002   0.001365   0.000570
             37         38         39         40         41         42
     1  H    0.000000   0.000000   0.000000   0.000000   0.000000   0.000000
     2  C    0.000000   0.000000   0.000000   0.000000   0.000000   0.000000
     3  H    0.000000   0.000000   0.000000   0.000000   0.000000   0.000000
     4  H    0.000000   0.000000   0.000000   0.000000   0.000000   0.000000
     5  C    0.000000   0.000000   0.000000   0.000000   0.000000   0.000000
     6  O    0.000000   0.000000   0.000000   0.000000   0.000000   0.000000
     7  N    0.000000   0.000000   0.000000   0.000000   0.000000   0.000000
     8  H    0.000000   0.000000   0.000000   0.000000   0.000000   0.000000
     9  C    0.000000   0.000000   0.000000   0.000000   0.000000   0.000000
    10  H    0.000000   0.000000   0.000000   0.000000   0.000000   0.000000
    11  C    0.000000   0.000000   0.000000   0.000000   0.000000   0.000000
    12  H    0.000000   0.000000   0.000000   0.000000   0.000000   0.000000
    13  H    0.000000   0.000000   0.000000   0.000000   0.000000   0.000000
    14  H    0.000000   0.000000   0.000000   0.000000   0.000000   0.000000
    15  C    0.000000   0.000000   0.000000   0.000000   0.000000   0.000000
    16  O    0.000000   0.000000   0.000000   0.000000   0.000000   0.000000
    17  N    0.000000   0.000000   0.000000   0.000000   0.000000   0.000000
    18  H    0.000000   0.000000   0.000000   0.000000   0.000000   0.000000
    19  C    0.000000   0.000000   0.000000   0.000000   0.000000   0.000000
    20  H    0.000000   0.000000   0.000000   0.000000   0.000000   0.000000
    21  C    0.000000   0.000000   0.000000   0.000000   0.000000   0.000000
    22  H    0.000000   0.000000   0.000000   0.000000   0.000000   0.000000
    23  H   -0.000001   0.000000   0.000000   0.000000   0.000000   0.000000
    24  H    0.000000   0.000000   0.000000   0.000000   0.000000   0.000000
    25  C   -0.000063   0.000001   0.000001   0.000000   0.000000   0.000000
    26  O   -0.000001   0.000003   0.000000   0.000000   0.000000   0.000000
    27  N    0.003322   0.000052  -0.000069  -0.000001   0.000000   0.000001
    28  H    0.001296  -0.000052  -0.000011  -0.000033   0.000000   0.000000
    29  C   -0.122214   0.000908   0.005814   0.001196  -0.000193  -0.000030
    30  H    0.000582   0.001036  -0.000273  -0.000035   0.000021  -0.000006
    31  C    0.002810   0.000677   0.000023  -0.000070  -0.000005   0.000012
    32  H   -0.000483  -0.000103  -0.000074  -0.000007   0.000001   0.000002
    33  H    0.003382   0.006950   0.000071  -0.000006   0.000004   0.000000
    34  H    0.000227  -0.000196   0.000005   0.000001   0.000000  -0.000002
    35  C    0.273416  -0.021395  -0.024499  -0.001288   0.001327   0.001365
    36  O   -0.101263   0.003603  -0.009047   0.020913   0.000567   0.000570
    37  N    7.083010   0.303160   0.265650  -0.036640  -0.043172  -0.044289
    38  H    0.303160   0.400793  -0.030606   0.003677  -0.001460  -0.000240
[...]
    30  H    0.000000   0.000000   0.000000   0.000000  -0.000001  -0.000003
    31  C    0.000000   0.000000   0.000000   0.000000   0.000002   0.000002
    32  H    0.000000   0.000000   0.000000   0.000000   0.000000   0.000000
    33  H    0.000000   0.000000   0.000000   0.000000   0.000000   0.000000
    34  H    0.000000   0.000000  -0.000001   0.000000   0.000001  -0.000001
    35  C    0.000000   0.000000   0.000000   0.000000   0.000000   0.000000
    36  O    0.000000   0.000000   0.000000   0.000000   0.000000   0.000000
    37  N    0.000000   0.000000   0.000000   0.000000   0.000000   0.000000
    38  H    0.000000   0.000000   0.000000   0.000000   0.000000   0.000000
    39  C    0.000000   0.000000   0.000000   0.000000   0.000000   0.000000
    40  H    0.000000   0.000000   0.000000   0.000000   0.000000   0.000000
    41  H    0.000000   0.000000   0.000000   0.000000   0.000000   0.000000
    42  H    0.000000   0.000000   0.000000   0.000000   0.000000   0.000000
             19         20         21         22         23         24
     1  H    0.000000   0.000000   0.000000   0.000000   0.000000   0.000000
     2  C    0.000000   0.000000   0.000000   0.000000   0.000000   0.000000
     3  H    0.000000   0.000000   0.000000   0.000000   0.000000   0.000000
     4  H    0.000000   0.000000   0.000000   0.000000   0.000000   0.000000
     5  C    0.000002   0.000000   0.000000   0.000000   0.000000   0.000000
     6  O    0.000000   0.000000   0.000000   0.000000   0.000000   0.000000
     7  N   -0.000075   0.000001   0.000005  -0.000001   0.000000   0.000001
     8  H   -0.000020   0.000000  -0.000006  -0.000006   0.000000   0.000001
     9  C    0.004321  -0.000198   0.000205   0.000138   0.000011  -0.000111
    10  H   -0.000338   0.000000  -0.000006  -0.000005   0.000000   0.000000
    11  C    0.000006   0.000026  -0.000034   0.000000   0.000000   0.000008
    12  H   -0.000023   0.000000  -0.000005  -0.000002   0.000000   0.000011
    13  H    0.000053  -0.000010  -0.000007   0.000000   0.000000   0.000005
    14  H    0.000004  -0.000001   0.000000   0.000000   0.000000   0.000000
    15  C   -0.029491   0.004308  -0.003514   0.002371   0.000403   0.000252
    16  O    0.000403   0.000008  -0.001435   0.008444   0.000706  -0.000635
    17  N    0.273787  -0.043251  -0.038780  -0.004181   0.003509  -0.002073
    18  H   -0.037655  -0.003242   0.004960  -0.000110  -0.000112  -0.000029
    19  C    5.095861   0.374528   0.351994  -0.030661  -0.027420  -0.025740
    20  H    0.374528   0.589677  -0.038454   0.004634  -0.005118  -0.003910
    21  C    0.351994  -0.038454   5.104694   0.378078   0.351132   0.371117
    22  H   -0.030661   0.004634   0.378078   0.497915  -0.026895  -0.025671
    23  H   -0.027420  -0.005118   0.351132  -0.026895   0.587040  -0.027989
    24  H   -0.025740  -0.003910   0.371117  -0.025671  -0.027989   0.542812
    25  C    0.310692  -0.047206  -0.032127  -0.002933  -0.006552   0.003561
    26  O   -0.082348   0.000410   0.000723   0.000304  -0.000036  -0.000060
    27  N   -0.118421   0.002641   0.003418   0.000348   0.001717   0.000071
    28  H   -0.001140   0.000282   0.002742  -0.000021   0.005870  -0.000205
    29  C    0.006249  -0.000265   0.000016  -0.000060   0.000136   0.000005
    30  H    0.000716  -0.000010  -0.000086  -0.000007   0.000006   0.000000
    31  C   -0.000620   0.000069   0.000013   0.000001  -0.000004   0.000000
    32  H    0.000026  -0.000003  -0.000001   0.000000   0.000000   0.000000
    33  H    0.000007  -0.000001   0.000000   0.000000   0.000000   0.000000
    34  H    0.000177  -0.000038   0.000000   0.000000   0.000000   0.000000
    35  C   -0.000024  -0.000011  -0.000037  -0.000002  -0.000028   0.000000
    36  O   -0.000062  -0.000001  -0.000069   0.000003  -0.000038   0.000000
    37  N    0.000000   0.000000   0.000000   0.000000   0.000000   0.000000
    38  H    0.000000   0.000000   0.000000   0.000000   0.000000   0.000000
    39  C    0.000000   0.000000   0.000000   0.000000   0.000000   0.000000
    40  H    0.000000   0.000000   0.000000   0.000000   0.000000   0.000000
    41  H    0.000000   0.000000   0.000000   0.000000   0.000000   0.000000
    42  H    0.000000   0.000000   0.000000   0.000000   0.000000   0.000000
             25         26         27         28         29         30
     1  H    0.000000   0.000000   0.000000   0.000000   0.000000   0.000000
     2  C    0.000000   0.000000   0.000000   0.000000   0.000000   0.000000
     3  H    0.000000   0.000000   0.000000   0.000000   0.000000   0.000000
     4  H    0.000000   0.000000   0.000000   0.000000   0.000000   0.000000
     5  C    0.000000   0.000000   0.000000   0.000000   0.000000   0.000000
     6  O    0.000000   0.000000   0.000000   0.000000   0.000000   0.000000
     7  N    0.000002   0.000000   0.000000   0.000000   0.000000   0.000000
     8  H    0.000000   0.000001   0.000000   0.000000   0.000000   0.000000
     9  C   -0.000291  -0.000501  -0.000001   0.000000   0.000000   0.000000
    10  H    0.000042   0.000346   0.000000   0.000000   0.000000   0.000000
    11  C    0.000006   0.000005   0.000000   0.000000   0.000000   0.000000
    12  H    0.000001   0.000000   0.000000   0.000000   0.000000   0.000000
    13  H    0.000001  -0.000002   0.000000   0.000000   0.000000   0.000000
    14  H    0.000000   0.000000   0.000000   0.000000   0.000000   0.000000
    15  C    0.000971   0.006590   0.000244  -0.000009  -0.000007   0.000000
    16  O   -0.000292  -0.000253   0.000002  -0.000001   0.000000   0.000000
    17  N   -0.055798  -0.009189   0.003772   0.000082  -0.000120  -0.000001
    18  H    0.001288   0.008291   0.000287  -0.000015  -0.000007  -0.000003
    19  C    0.310692  -0.082348  -0.118421  -0.001140   0.006249   0.000716
    20  H   -0.047206   0.000410   0.002641   0.000282  -0.000265  -0.000010
    21  C   -0.032127   0.000723   0.003418   0.002742   0.000016  -0.000086
    22  H   -0.002933   0.000304   0.000348  -0.000021  -0.000060  -0.000007
    23  H   -0.006552  -0.000036   0.001717   0.005870   0.000136   0.000006
    24  H    0.003561  -0.000060   0.000071  -0.000205   0.000005   0.000000
    25  C    4.409114   0.586586   0.245267  -0.016412  -0.019690  -0.000677
    26  O    0.586586   8.099530  -0.103665   0.002553   0.009167   0.009572
    27  N    0.245267  -0.103665   7.208479   0.276344   0.255562  -0.052060
    28  H   -0.016412   0.002553   0.276344   0.374930  -0.052794   0.004609
    29  C   -0.019690   0.009167   0.255562  -0.052794   5.078871   0.372131
    30  H   -0.000677   0.009572  -0.052060   0.004609   0.372131   0.570140
    31  C   -0.004688  -0.005812  -0.053694   0.003460   0.349273  -0.047914
    32  H    0.000398  -0.000027  -0.000360   0.000887  -0.033936   0.005426
    33  H    0.000063   0.000010   0.004789  -0.000102  -0.029886   0.000064
    34  H    0.003795   0.008887  -0.008900  -0.000248  -0.022583  -0.005071
    35  C    0.005672   0.000534  -0.028552  -0.003081   0.305427  -0.034807
    36  O    0.000873  -0.000005  -0.016258   0.042894  -0.083098   0.001878
    37  N   -0.000054  -0.000001   0.002752   0.001799  -0.111472   0.001242
    38  H   -0.000005   0.000001   0.000055  -0.000077   0.001673   0.001884
    39  C    0.000001   0.000000  -0.000091  -0.000015   0.005665  -0.000123
    40  H    0.000000   0.000000   0.000007  -0.000048   0.001084  -0.000033
    41  H    0.000000   0.000000   0.000002   0.000000  -0.000154   0.000006
    42  H    0.000000   0.000000   0.000000   0.000000  -0.000093  -0.000006
             31         32         33         34         35         36
     1  H    0.000000   0.000000   0.000000   0.000000   0.000000   0.000000
     2  C    0.000000   0.000000   0.000000   0.000000   0.000000   0.000000
     3  H    0.000000   0.000000   0.000000   0.000000   0.000000   0.000000
     4  H    0.000000   0.000000   0.000000   0.000000   0.000000   0.000000
     5  C    0.000000   0.000000   0.000000   0.000000   0.000000   0.000000
     6  O    0.000000   0.000000   0.000000   0.000000   0.000000   0.000000
     7  N    0.000000   0.000000   0.000000   0.000000   0.000000   0.000000
     8  H    0.000000   0.000000   0.000000   0.000000   0.000000   0.000000
     9  C    0.000000   0.000000   0.000000   0.000000   0.000000   0.000000
    10  H    0.000000   0.000000   0.000000   0.000000   0.000000   0.000000
    11  C    0.000000   0.000000   0.000000   0.000000   0.000000   0.000000
    12  H    0.000000   0.000000   0.000000   0.000000   0.000000   0.000000
    13  H    0.000000   0.000000   0.000000   0.000000   0.000000   0.000000
    14  H    0.000000   0.000000   0.000000   0.000000   0.000000   0.000000
    15  C    0.000000   0.000000   0.000000  -0.000001   0.000000   0.000000
    16  O    0.000000   0.000000   0.000000   0.000000   0.000000   0.000000
    17  N    0.000002   0.000000   0.000000   0.000001   0.000000   0.000000
    18  H    0.000002   0.000000   0.000000  -0.000001   0.000000   0.000000
    19  C   -0.000620   0.000026   0.000007   0.000177  -0.000024  -0.000062
    20  H    0.000069  -0.000003  -0.000001  -0.000038  -0.000011  -0.000001
    21  C    0.000013  -0.000001   0.000000   0.000000  -0.000037  -0.000069
    22  H    0.000001   0.000000   0.000000   0.000000  -0.000002   0.000003
    23  H   -0.000004   0.000000   0.000000   0.000000  -0.000028  -0.000038
    24  H    0.000000   0.000000   0.000000   0.000000   0.000000   0.000000
    25  C   -0.004688   0.000398   0.000063   0.003795   0.005672   0.000873
    26  O   -0.005812  -0.000027   0.000010   0.008887   0.000534  -0.000005
    27  N   -0.053694  -0.000360   0.004789  -0.008900  -0.028552  -0.016258
    28  H    0.003460   0.000887  -0.000102  -0.000248  -0.003081   0.042894
    29  C    0.349273  -0.033936  -0.029886  -0.022583   0.305427  -0.083098
    30  H   -0.047914   0.005426   0.000064  -0.005071  -0.034807   0.001878
    31  C    5.143001   0.370527   0.356428   0.369601  -0.034891  -0.001607
    32  H    0.370527   0.554709  -0.027410  -0.027402  -0.004003   0.001452
    33  H    0.356428  -0.027410   0.582612  -0.025861  -0.003610  -0.000014
    34  H    0.369601  -0.027402  -0.025861   0.514867   0.003646  -0.000082
    35  C   -0.034891  -0.004003  -0.003610   0.003646   4.370440   0.574467
    36  O   -0.001607   0.001452  -0.000014  -0.000082   0.574467   8.085648
    37  N    0.000805  -0.000029   0.003347   0.000041   0.287372  -0.091965
    38  H    0.000365  -0.000026   0.002337  -0.000090  -0.022252   0.003295
    39  C   -0.000214  -0.000009  -0.000054   0.000005  -0.022946  -0.007476
    40  H   -0.000041  -0.000007  -0.000001   0.000001  -0.001383   0.019401
    41  H   -0.000005   0.000000   0.000004   0.000000   0.000681   0.000425
    42  H    0.000033  -0.000001  -0.000013  -0.000001   0.001549   0.000435
             37         38         39         40         41         42
     1  H    0.000000   0.000000   0.000000   0.000000   0.000000   0.000000
     2  C    0.000000   0.000000   0.000000   0.000000   0.000000   0.000000
     3  H    0.000000   0.000000   0.000000   0.000000   0.000000   0.000000
     4  H    0.000000   0.000000   0.000000   0.000000   0.000000   0.000000
     5  C    0.000000   0.000000   0.000000   0.000000   0.000000   0.000000
     6  O    0.000000   0.000000   0.000000   0.000000   0.000000   0.000000
     7  N    0.000000   0.000000   0.000000   0.000000   0.000000   0.000000
     8  H    0.000000   0.000000   0.000000   0.000000   0.000000   0.000000
     9  C    0.000000   0.000000   0.000000   0.000000   0.000000   0.000000
    10  H    0.000000   0.000000   0.000000   0.000000   0.000000   0.000000
    11  C    0.000000   0.000000   0.000000   0.000000   0.000000   0.000000
    12  H    0.000000   0.000000   0.000000   0.000000   0.000000   0.000000
    13  H    0.000000   0.000000   0.000000   0.000000   0.000000   0.000000
    14  H    0.000000   0.000000   0.000000   0.000000   0.000000   0.000000
    15  C    0.000000   0.000000   0.000000   0.000000   0.000000   0.000000
    16  O    0.000000   0.000000   0.000000   0.000000   0.000000   0.000000
    17  N    0.000000   0.000000   0.000000   0.000000   0.000000   0.000000
    18  H    0.000000   0.000000   0.000000   0.000000   0.000000   0.000000
    19  C    0.000000   0.000000   0.000000   0.000000   0.000000   0.000000
    20  H    0.000000   0.000000   0.000000   0.000000   0.000000   0.000000
    21  C    0.000000   0.000000   0.000000   0.000000   0.000000   0.000000
    22  H    0.000000   0.000000   0.000000   0.000000   0.000000   0.000000
    23  H    0.000000   0.000000   0.000000   0.000000   0.000000   0.000000
    24  H    0.000000   0.000000   0.000000   0.000000   0.000000   0.000000
    25  C   -0.000054  -0.000005   0.000001   0.000000   0.000000   0.000000
    26  O   -0.000001   0.000001   0.000000   0.000000   0.000000   0.000000
    27  N    0.002752   0.000055  -0.000091   0.000007   0.000002   0.000000
    28  H    0.001799  -0.000077  -0.000015  -0.000048   0.000000   0.000000
    29  C   -0.111472   0.001673   0.005665   0.001084  -0.000154  -0.000093
    30  H    0.001242   0.001884  -0.000123  -0.000033   0.000006  -0.000006
    31  C    0.000805   0.000365  -0.000214  -0.000041  -0.000005   0.000033
    32  H   -0.000029  -0.000026  -0.000009  -0.000007   0.000000  -0.000001
    33  H    0.003347   0.002337  -0.000054  -0.000001   0.000004  -0.000013
    34  H    0.000041  -0.000090   0.000005   0.000001   0.000000  -0.000001
    35  C    0.287372  -0.022252  -0.022946  -0.001383   0.000681   0.001549
    36  O   -0.091965   0.003295  -0.007476   0.019401   0.000425   0.000435
    37  N    7.047191   0.306457   0.264954  -0.038874  -0.040409  -0.040967
    38  H    0.306457   0.402673  -0.031419   0.003979  -0.001074  -0.000726
    39  C    0.264954  -0.031419   4.963627   0.378343   0.382686   0.381220
    40  H   -0.038874   0.003979   0.378343   0.477567  -0.024221  -0.024218
    41  H   -0.040409  -0.001074   0.382686  -0.024221   0.555665  -0.039176
    42  H   -0.040967  -0.000726   0.381220  -0.024218  -0.039176   0.558118
 Mulliken atomic charges:
              1
     1  H    0.180056
     2  C   -0.532831
     3  H    0.180791
     4  H    0.146915
     5  C    0.596712
     6  O   -0.525597
     7  N   -0.605398
     8  H    0.346076
     9  C   -0.036565
    10  H    0.176668
    11  C   -0.441488
    12  H    0.152796
    13  H    0.137089
    14  H    0.189349
    15  C    0.613617
    16  O   -0.531148
    17  N   -0.585211
    18  H    0.336573
    19  C   -0.064785
    20  H    0.165133
    21  C   -0.454533
    22  H    0.198320
    23  H    0.143662
    24  H    0.168577
    25  C    0.618390
    26  O   -0.531612
    27  N   -0.623757
    28  H    0.357716
    29  C   -0.031094
    30  H    0.173123
    31  C   -0.444090
    32  H    0.159790
    33  H    0.137290
    34  H    0.189258
    35  C    0.605839
    36  O   -0.530095
    37  N   -0.592189
    38  H    0.332949
    39  C   -0.314156
    40  H    0.208443
    41  H    0.165570
    42  H    0.163846
 Sum of Mulliken atomic charges =   0.00000
 Mulliken charges with hydrogens summed into heavy atoms:
              1
     2  C   -0.025069
     5  C    0.596712
     6  O   -0.525597
     7  N   -0.259322
     9  C    0.140103
    11  C    0.037747
    15  C    0.613617
    16  O   -0.531148
    17  N   -0.248638
    19  C    0.100348
    21  C    0.056026
    25  C    0.618390
    26  O   -0.531612
    27  N   -0.266040
    29  C    0.142029
    31  C    0.042248
    35  C    0.605839
    36  O   -0.530095
    37  N   -0.259241
    39  C    0.223703
 Sum of Mulliken charges with hydrogens summed into heavy atoms =   0.00000
 Electronic spatial extent (au):  <R**2>=          10226.0563
 Charge=              0.0000 electrons
 Dipole moment (field-independent basis, Debye):
    X=             -6.1766    Y=             -0.1697    Z=             -0.3119  Tot=              6.1868
 Quadrupole moment (field-independent basis, Debye-Ang):
   XX=           -113.5618   YY=           -110.7406   ZZ=           -122.0354
   XY=             20.1497   XZ=            -13.6701   YZ=              8.5882
 Traceless Quadrupole moment (field-independent basis, Debye-Ang):
   XX=              1.8841   YY=              4.7053   ZZ=             -6.5895
   XY=             20.1497   XZ=            -13.6701   YZ=              8.5882
 Octapole moment (field-independent basis, Debye-Ang**2):
  XXX=           -245.2434  YYY=            -14.9129  ZZZ=              2.0965  XYY=            -22.8164
  XXY=            -79.7609  XXZ=            -71.2465  XZZ=            -14.8250  YZZ=              2.5695
  YYZ=             -5.6749  XYZ=             20.8558
 Hexadecapole moment (field-independent basis, Debye-Ang**3):
 XXXX=         -10745.1568 YYYY=          -1178.5643 ZZZZ=           -854.9973 XXXY=            652.3930
 XXXZ=           -429.3599 YYYX=             18.0966 YYYZ=             -5.4380 ZZZX=             14.8130
 ZZZY=             13.2533 XXYY=          -1916.6409 XXZZ=          -2042.6716 YYZZ=           -345.3046
 XXYZ=            185.9522 YYXZ=            -31.4812 ZZXY=             26.0626
 N-N= 1.585606367818D+03 E-N=-5.480754388660D+03  KE= 9.813218847989D+02
 1\1\GINC-NODE006\FOpt\RB3LYP\6-31G(d)\C12H22N4O4\MANAGER\30-Dec-2016\0
 \\# b3lyp/6-31G* Opt=(ModRedundant, maxcycles=1000, calcfc) geom=nocro
 wd\\Phi Psi fixed scan\\0,1\H,5.8752606336,1.6210910732,4.257111698\C,
 6.4268097902,2.5476702598,4.0697769518\H,7.4808095742,2.348678616,4.28
 76816518\H,6.0615737413,3.3233582427,4.7498214745\C,6.2910993471,2.911
 6669012,2.5979702282\O,6.6478819289,2.1489842047,1.7036346996\N,5.7411
 796909,4.1313513665,2.3444882799\H,5.5351908127,4.7953528239,3.0821665
 731\C,5.6251555821,4.6596598332,0.9998755954\H,6.548038499,4.421631543
 3,0.4544589665\C,4.4344200357,4.0437170636,0.2393926955\H,3.4936218751
 ,4.276511563,0.7493326736\H,4.3767800979,4.4230258988,-0.7865833374\H,
 4.5635801298,2.9592503676,0.2053834077\C,5.4870303135,6.1891656903,1.1
 306997654\O,5.2481402654,6.7134737543,2.2147696094\N,5.5883923337,6.85
 83964363,-0.0548673506\H,6.0470536377,6.3408683063,-0.7937084022\C,5.6
 779569541,8.3066469086,-0.2174208958\H,5.3341112152,8.5048990505,-1.24
 30773547\C,4.7714480159,9.1122898061,0.724554966\H,5.1338222724,9.0987
 453601,1.7513540045\H,4.7019237372,10.148290214,0.3753518667\H,3.76171
 94118,8.692886949,0.7158943126\C,7.1726644712,8.726024196,-0.194537161
 \O,8.0715955295,7.8926012444,-0.1281279638\N,7.4085763015,10.054969708
 2,-0.3363776439\H,6.6704836269,10.7493875657,-0.2865417046\C,8.7513721
 244,10.6066394312,-0.3059529984\H,9.326314954,10.0760690542,0.46367757
 05\C,9.4724597006,10.4421405179,-1.6574651164\H,8.9297229251,10.970678
 4433,-2.4479241065\H,10.4945496138,10.8352269249,-1.6156568181\H,9.521
 585389,9.3790180925,-1.9056881475\C,8.6065604927,12.0893633247,0.08067
 45631\O,7.5192172331,12.6601646835,0.023938569\N,9.7591829603,12.70216
 2335,0.4556839558\H,10.6028464047,12.148681259,0.5063096478\C,9.827004
 7552,14.107808607,0.8212153075\H,8.8249410871,14.5233088266,0.71091719
 17\H,10.1530128946,14.2284850251,1.8605093682\H,10.5173096407,14.65155
 85278,0.1663834073\\Version=EM64L-G09RevA.02\State=1-A\HF=-990.5000009
 \RMSD=3.807e-09\RMSF=4.381e-04\Dipole=0.8117569,2.2586657,-0.4051161\Q
 uadrupole=8.5917378,-11.865214,3.2734762,16.3622828,2.1744641,-1.57432
 55\PG=C01 [X(C12H22N4O4)]\\@


 A SUCCESSFUL PURSUIT OF SCIENCE MAKES A MAN THE
 BENEFACTOR OF ALL MANKIND OF EVERY AGE.
   --  JOSEPH PRIESTLEY, "EXPERIMENTS AND
 OBSERVATIONS ON DIFFERENT KINDS OF AIR", 1774
 Job cpu time:  0 days  3 hours 30 minutes  7.5 seconds.
 File lengths (MBytes):  RWF=    608 Int=      0 D2E=      0 Chk=     11 Scr=      1
 Normal termination of Gaussian 09 at Fri Dec 30 08:38:05 2016.
