 Entering Gaussian System, Link 0=g09
 Initial command:
 /home/steboss/Software/g09/l1.exe /tmp/Gau-12873.inp -scrdir=/tmp/
 Entering Link 1 = /home/steboss/Software/g09/l1.exe PID=     12875.
  
 Copyright (c) 1988,1990,1992,1993,1995,1998,2003,2009, Gaussian, Inc.
                  All Rights Reserved.
  
 This is part of the Gaussian(R) 09 program.  It is based on
 the Gaussian(R) 03 system (copyright 2003, Gaussian, Inc.),
 the Gaussian(R) 98 system (copyright 1998, Gaussian, Inc.),
 the Gaussian(R) 94 system (copyright 1995, Gaussian, Inc.),
 the Gaussian 92(TM) system (copyright 1992, Gaussian, Inc.),
 the Gaussian 90(TM) system (copyright 1990, Gaussian, Inc.),
 the Gaussian 88(TM) system (copyright 1988, Gaussian, Inc.),
 the Gaussian 86(TM) system (copyright 1986, Carnegie Mellon
 University), and the Gaussian 82(TM) system (copyright 1983,
 Carnegie Mellon University). Gaussian is a federally registered
 trademark of Gaussian, Inc.
  
 This software contains proprietary and confidential information,
 including trade secrets, belonging to Gaussian, Inc.
  
 This software is provided under written license and may be
 used, copied, transmitted, or stored only in accord with that
 written license.
  
 The following legend is applicable only to US Government
 contracts under FAR:
  
                    RESTRICTED RIGHTS LEGEND
  
 Use, reproduction and disclosure by the US Government is
 subject to restrictions as set forth in subparagraphs (a)
 and (c) of the Commercial Computer Software - Restricted
 Rights clause in FAR 52.227-19.
  
 Gaussian, Inc.
 340 Quinnipiac St., Bldg. 40, Wallingford CT 06492
  
  
 ---------------------------------------------------------------
 Warning -- This program may not be used in any manner that
 competes with the business of Gaussian, Inc. or will provide
 assistance to any competitor of Gaussian, Inc.  The licensee
 of this program is prohibited from giving any competitor of
 Gaussian, Inc. access to this program.  By using this program,
 the user acknowledges that Gaussian, Inc. is engaged in the
 business of creating and licensing software in the field of
 computational chemistry and represents and warrants to the
 licensee that it is not a competitor of Gaussian, Inc. and that
 it will not use this program in any manner prohibited above.
 ---------------------------------------------------------------
  

 Cite this work as:
 Gaussian 09, Revision A.02,
 M. J. Frisch, G. W. Trucks, H. B. Schlegel, G. E. Scuseria, 
 M. A. Robb, J. R. Cheeseman, G. Scalmani, V. Barone, B. Mennucci, 
 G. A. Petersson, H. Nakatsuji, M. Caricato, X. Li, H. P. Hratchian, 
 A. F. Izmaylov, J. Bloino, G. Zheng, J. L. Sonnenberg, M. Hada, 
 M. Ehara, K. Toyota, R. Fukuda, J. Hasegawa, M. Ishida, T. Nakajima, 
 Y. Honda, O. Kitao, H. Nakai, T. Vreven, J. A. Montgomery, Jr., 
 J. E. Peralta, F. Ogliaro, M. Bearpark, J. J. Heyd, E. Brothers, 
 K. N. Kudin, V. N. Staroverov, R. Kobayashi, J. Normand, 
 K. Raghavachari, A. Rendell, J. C. Burant, S. S. Iyengar, J. Tomasi, 
 M. Cossi, N. Rega, J. M. Millam, M. Klene, J. E. Knox, J. B. Cross, 
 V. Bakken, C. Adamo, J. Jaramillo, R. Gomperts, R. E. Stratmann, 
 O. Yazyev, A. J. Austin, R. Cammi, C. Pomelli, J. W. Ochterski, 
 R. L. Martin, K. Morokuma, V. G. Zakrzewski, G. A. Voth, 
 P. Salvador, J. J. Dannenberg, S. Dapprich, A. D. Daniels, 
 O. Farkas, J. B. Foresman, J. V. Ortiz, J. Cioslowski, 
 and D. J. Fox, Gaussian, Inc., Wallingford CT, 2009.
 
 ******************************************
 Gaussian 09:  EM64L-G09RevA.02 11-Jun-2009
                30-Dec-2016 
 ******************************************
 %chk=structure_0.chk
 ----------------------------------------------------------------------
 # b3lyp/6-31G* Opt=(ModRedundant, maxcycles=1000, calcfc) geom=nocrowd
 ----------------------------------------------------------------------
 1/6=1000,10=4,14=-1,18=120,19=15,26=3,38=1/1,3;
 2/9=110,12=1,17=6,18=5,40=1/2;
 3/5=1,6=6,7=1,11=2,16=1,25=1,30=1,71=2,74=-5/1,2,3;
 4//1;
 5/5=2,38=5/2;
 8/6=4,10=90,11=11/1;
 11/6=1,8=1,9=11,15=111,16=1/1,2,10;
 10/6=1,7=6,13=1/2;
 6/7=2,8=2,9=2,10=2,28=1/1;
 7/10=1,18=20,25=1/1,2,3,16;
 1/6=1000,10=4,14=-1,18=20,19=15/3(2);
 2/9=110,12=1/2;
 99//99;
 2/9=110,12=1/2;
 3/5=1,6=6,7=1,11=2,16=1,25=1,30=1,71=1,74=-5/1,2,3;
 4/5=5,16=3/1;
 5/5=2,38=5/2;
 7//1,2,3,16;
 1/6=1000,14=-1,18=20,19=15/3(-5);
 2/9=110,12=1/2;
 6/7=2,8=2,9=2,10=2,19=2,28=1/1;
 99/9=1/99;
 ------------------
 Phi Psi fixed scan
 ------------------
 Symbolic Z-matrix:
 Charge =  0 Multiplicity = 1
 H                     5.8461    1.        3.846 
 C                     5.8461    2.09      3.846 
 H                     6.7359    2.4538    4.3598 
 H                     4.9562    2.4538    4.3598 
 C                     5.846     2.6408    2.4186 
 O                     5.846     1.8774    1.4555 
 N                     5.846     3.9696    2.2907 
 H                     5.846     4.5561    3.1129 
 C                     5.846     4.6139    0.9928 
 H                     6.7359    4.3155    0.4385 
 C                     4.6139    4.2208    0.1847 
 H                     3.7149    4.5214    0.7228 
 H                     4.6403    4.7189   -0.7844 
 H                     4.6047    3.1409    0.0375 
 C                     5.846     6.1294    1.1334 
 O                     5.8461    6.6527    2.2454 
 N                     5.846     6.8349    0. 
 H                     5.846     6.3592   -0.8909 
 C                     5.8461    8.2839    0. 
 H                     5.3323    8.6477   -0.8898 
 C                     5.1347    8.8329    1.2322 
 H                     5.6431    8.4846    2.1312 
 H                     5.1499    9.9224    1.2058 
 H                     4.1019    8.4846    1.2414 
 C                     7.266     8.8318    0. 
 O                     7.4667    10.0443   0. 
 N                     8.2534    7.9333    0. 
 H                     8.0383    6.9465    0. 
 C                     9.6477    8.3279    0. 
 H                     9.8579    8.9213   -0.8898 
 C                     9.9822    9.1618    1.2321 
 H                     9.7855    8.5778    2.1312 
 H                     11.0348   9.4439    1.2058 
 H                     9.3659    10.0608   1.2414 
 C                     10.5615   7.1107    0. 
 O                     10.0892   5.9761    0. 
 N                     11.875    7.3494    0. 
 H                     12.2155   8.3003    0. 
 C                     12.8483   6.276     0. 
 H                     12.3316   5.3163    0. 
 H                     13.4733   6.3516   -0.8899 
 H                     13.4733   6.3516    0.8898 
 
 The following ModRedundant input section has been read:
 D   15   17   19   25 F                                                       
 D   17   19   25   27 F                                                       

 GradGradGradGradGradGradGradGradGradGradGradGradGradGradGradGradGradGrad
 Berny optimization.
 Initialization pass.
                           ----------------------------
                           !    Initial Parameters    !
                           ! (Angstroms and Degrees)  !
 --------------------------                            --------------------------
 ! Name  Definition              Value          Derivative Info.                !
 --------------------------------------------------------------------------------
 ! R1    R(1,2)                  1.09           calculate D2E/DX2 analytically  !
 ! R2    R(2,3)                  1.09           calculate D2E/DX2 analytically  !
 ! R3    R(2,4)                  1.0901         calculate D2E/DX2 analytically  !
 ! R4    R(2,5)                  1.53           calculate D2E/DX2 analytically  !
 ! R5    R(5,6)                  1.229          calculate D2E/DX2 analytically  !
 ! R6    R(5,7)                  1.3349         calculate D2E/DX2 analytically  !
 ! R7    R(7,8)                  1.0099         calculate D2E/DX2 analytically  !
 ! R8    R(7,9)                  1.449          calculate D2E/DX2 analytically  !
 ! R9    R(9,10)                 1.0901         calculate D2E/DX2 analytically  !
 ! R10   R(9,11)                 1.525          calculate D2E/DX2 analytically  !
 ! R11   R(9,15)                 1.522          calculate D2E/DX2 analytically  !
 ! R12   R(11,12)                1.09           calculate D2E/DX2 analytically  !
 ! R13   R(11,13)                1.0899         calculate D2E/DX2 analytically  !
 ! R14   R(11,14)                1.0899         calculate D2E/DX2 analytically  !
 ! R15   R(15,16)                1.229          calculate D2E/DX2 analytically  !
 ! R16   R(15,17)                1.335          calculate D2E/DX2 analytically  !
 ! R17   R(17,18)                1.0099         calculate D2E/DX2 analytically  !
 ! R18   R(17,19)                1.449          calculate D2E/DX2 analytically  !
 ! R19   R(19,20)                1.09           calculate D2E/DX2 analytically  !
 ! R20   R(19,21)                1.5251         calculate D2E/DX2 analytically  !
 ! R21   R(19,25)                1.5219         calculate D2E/DX2 analytically  !
 ! R22   R(21,22)                1.0899         calculate D2E/DX2 analytically  !
 ! R23   R(21,23)                1.0899         calculate D2E/DX2 analytically  !
 ! R24   R(21,24)                1.09           calculate D2E/DX2 analytically  !
 ! R25   R(25,26)                1.229          calculate D2E/DX2 analytically  !
 ! R26   R(25,27)                1.335          calculate D2E/DX2 analytically  !
 ! R27   R(27,28)                1.01           calculate D2E/DX2 analytically  !
 ! R28   R(27,29)                1.4491         calculate D2E/DX2 analytically  !
 ! R29   R(29,30)                1.09           calculate D2E/DX2 analytically  !
 ! R30   R(29,31)                1.5249         calculate D2E/DX2 analytically  !
 ! R31   R(29,35)                1.522          calculate D2E/DX2 analytically  !
 ! R32   R(31,32)                1.09           calculate D2E/DX2 analytically  !
 ! R33   R(31,33)                1.0901         calculate D2E/DX2 analytically  !
 ! R34   R(31,34)                1.09           calculate D2E/DX2 analytically  !
 ! R35   R(35,36)                1.229          calculate D2E/DX2 analytically  !
 ! R36   R(35,37)                1.335          calculate D2E/DX2 analytically  !
 ! R37   R(37,38)                1.01           calculate D2E/DX2 analytically  !
 ! R38   R(37,39)                1.449          calculate D2E/DX2 analytically  !
 ! R39   R(39,40)                1.09           calculate D2E/DX2 analytically  !
 ! R40   R(39,41)                1.0901         calculate D2E/DX2 analytically  !
 ! R41   R(39,42)                1.09           calculate D2E/DX2 analytically  !
 ! A1    A(1,2,3)              109.4974         calculate D2E/DX2 analytically  !
 ! A2    A(1,2,4)              109.4959         calculate D2E/DX2 analytically  !
 ! A3    A(1,2,5)              111.1004         calculate D2E/DX2 analytically  !
 ! A4    A(3,2,4)              109.4423         calculate D2E/DX2 analytically  !
 ! A5    A(3,2,5)              108.643          calculate D2E/DX2 analytically  !
 ! A6    A(4,2,5)              108.6351         calculate D2E/DX2 analytically  !
 ! A7    A(2,5,6)              120.4975         calculate D2E/DX2 analytically  !
 ! A8    A(2,5,7)              116.5983         calculate D2E/DX2 analytically  !
 ! A9    A(6,5,7)              122.9041         calculate D2E/DX2 analytically  !
 ! A10   A(5,7,8)              120.0035         calculate D2E/DX2 analytically  !
 ! A11   A(5,7,9)              121.8985         calculate D2E/DX2 analytically  !
 ! A12   A(8,7,9)              118.098          calculate D2E/DX2 analytically  !
 ! A13   A(7,9,10)             109.4968         calculate D2E/DX2 analytically  !
 ! A14   A(7,9,11)             111.1015         calculate D2E/DX2 analytically  !
 ! A15   A(7,9,15)             111.1002         calculate D2E/DX2 analytically  !
 ! A16   A(10,9,11)            108.6364         calculate D2E/DX2 analytically  !
 ! A17   A(10,9,15)            108.6359         calculate D2E/DX2 analytically  !
 ! A18   A(11,9,15)            107.7954         calculate D2E/DX2 analytically  !
 ! A19   A(9,11,12)            109.492          calculate D2E/DX2 analytically  !
 ! A20   A(9,11,13)            109.4986         calculate D2E/DX2 analytically  !
 ! A21   A(9,11,14)            109.4987         calculate D2E/DX2 analytically  !
 ! A22   A(12,11,13)           109.4439         calculate D2E/DX2 analytically  !
 ! A23   A(12,11,14)           109.4481         calculate D2E/DX2 analytically  !
 ! A24   A(13,11,14)           109.446          calculate D2E/DX2 analytically  !
 ! A25   A(9,15,16)            120.5018         calculate D2E/DX2 analytically  !
 ! A26   A(9,15,17)            116.6003         calculate D2E/DX2 analytically  !
 ! A27   A(16,15,17)           122.8979         calculate D2E/DX2 analytically  !
 ! A28   A(15,17,18)           119.9991         calculate D2E/DX2 analytically  !
 ! A29   A(15,17,19)           121.9008         calculate D2E/DX2 analytically  !
 ! A30   A(18,17,19)           118.1002         calculate D2E/DX2 analytically  !
 ! A31   A(17,19,20)           109.4954         calculate D2E/DX2 analytically  !
 ! A32   A(17,19,21)           111.0974         calculate D2E/DX2 analytically  !
 ! A33   A(17,19,25)           111.1042         calculate D2E/DX2 analytically  !
 ! A34   A(20,19,21)           108.6349         calculate D2E/DX2 analytically  !
 ! A35   A(20,19,25)           108.6399         calculate D2E/DX2 analytically  !
 ! A36   A(21,19,25)           107.7944         calculate D2E/DX2 analytically  !
 ! A37   A(19,21,22)           109.4996         calculate D2E/DX2 analytically  !
 ! A38   A(19,21,23)           109.4977         calculate D2E/DX2 analytically  !
 ! A39   A(19,21,24)           109.4988         calculate D2E/DX2 analytically  !
 ! A40   A(22,21,23)           109.4452         calculate D2E/DX2 analytically  !
 ! A41   A(22,21,24)           109.4447         calculate D2E/DX2 analytically  !
 ! A42   A(23,21,24)           109.4412         calculate D2E/DX2 analytically  !
 ! A43   A(19,25,26)           120.4989         calculate D2E/DX2 analytically  !
 ! A44   A(19,25,27)           116.5987         calculate D2E/DX2 analytically  !
 ! A45   A(26,25,27)           122.9024         calculate D2E/DX2 analytically  !
 ! A46   A(25,27,28)           120.0043         calculate D2E/DX2 analytically  !
 ! A47   A(25,27,29)           121.8969         calculate D2E/DX2 analytically  !
 ! A48   A(28,27,29)           118.0988         calculate D2E/DX2 analytically  !
 ! A49   A(27,29,30)           109.5003         calculate D2E/DX2 analytically  !
 ! A50   A(27,29,31)           111.0991         calculate D2E/DX2 analytically  !
 ! A51   A(27,29,35)           111.095          calculate D2E/DX2 analytically  !
 ! A52   A(30,29,31)           108.6373         calculate D2E/DX2 analytically  !
 ! A53   A(30,29,35)           108.6385         calculate D2E/DX2 analytically  !
 ! A54   A(31,29,35)           107.796          calculate D2E/DX2 analytically  !
 ! A55   A(29,31,32)           109.5052         calculate D2E/DX2 analytically  !
 ! A56   A(29,31,33)           109.5023         calculate D2E/DX2 analytically  !
 ! A57   A(29,31,34)           109.5052         calculate D2E/DX2 analytically  !
 ! A58   A(32,31,33)           109.4394         calculate D2E/DX2 analytically  !
 ! A59   A(32,31,34)           109.4399         calculate D2E/DX2 analytically  !
 ! A60   A(33,31,34)           109.4352         calculate D2E/DX2 analytically  !
 ! A61   A(29,35,36)           120.5025         calculate D2E/DX2 analytically  !
 ! A62   A(29,35,37)           116.5971         calculate D2E/DX2 analytically  !
 ! A63   A(36,35,37)           122.9004         calculate D2E/DX2 analytically  !
 ! A64   A(35,37,38)           120.0014         calculate D2E/DX2 analytically  !
 ! A65   A(35,37,39)           121.9002         calculate D2E/DX2 analytically  !
 ! A66   A(38,37,39)           118.0985         calculate D2E/DX2 analytically  !
 ! A67   A(37,39,40)           109.5021         calculate D2E/DX2 analytically  !
 ! A68   A(37,39,41)           109.497          calculate D2E/DX2 analytically  !
 ! A69   A(37,39,42)           109.4985         calculate D2E/DX2 analytically  !
 ! A70   A(40,39,41)           109.4429         calculate D2E/DX2 analytically  !
 ! A71   A(40,39,42)           109.4444         calculate D2E/DX2 analytically  !
 ! A72   A(41,39,42)           109.4423         calculate D2E/DX2 analytically  !
 ! D1    D(1,2,5,6)             -0.0037         calculate D2E/DX2 analytically  !
 ! D2    D(1,2,5,7)           -179.9996         calculate D2E/DX2 analytically  !
 ! D3    D(3,2,5,6)            120.5102         calculate D2E/DX2 analytically  !
 ! D4    D(3,2,5,7)            -59.4858         calculate D2E/DX2 analytically  !
 ! D5    D(4,2,5,6)           -120.5105         calculate D2E/DX2 analytically  !
 ! D6    D(4,2,5,7)             59.4936         calculate D2E/DX2 analytically  !
 ! D7    D(2,5,7,8)             -0.0042         calculate D2E/DX2 analytically  !
 ! D8    D(2,5,7,9)            179.9958         calculate D2E/DX2 analytically  !
 ! D9    D(6,5,7,8)            180.0            calculate D2E/DX2 analytically  !
 ! D10   D(6,5,7,9)              0.0            calculate D2E/DX2 analytically  !
 ! D11   D(5,7,9,10)           -60.0019         calculate D2E/DX2 analytically  !
 ! D12   D(5,7,9,11)            59.9977         calculate D2E/DX2 analytically  !
 ! D13   D(5,7,9,15)           180.0            calculate D2E/DX2 analytically  !
 ! D14   D(8,7,9,10)           119.9981         calculate D2E/DX2 analytically  !
 ! D15   D(8,7,9,11)          -120.0023         calculate D2E/DX2 analytically  !
 ! D16   D(8,7,9,15)             0.0            calculate D2E/DX2 analytically  !
 ! D17   D(7,9,11,12)           60.0038         calculate D2E/DX2 analytically  !
 ! D18   D(7,9,11,13)          179.9998         calculate D2E/DX2 analytically  !
 ! D19   D(7,9,11,14)          -59.9974         calculate D2E/DX2 analytically  !
 ! D20   D(10,9,11,12)        -179.4868         calculate D2E/DX2 analytically  !
 ! D21   D(10,9,11,13)         -59.4908         calculate D2E/DX2 analytically  !
 ! D22   D(10,9,11,14)          60.512          calculate D2E/DX2 analytically  !
 ! D23   D(15,9,11,12)         -61.9429         calculate D2E/DX2 analytically  !
 ! D24   D(15,9,11,13)          58.0532         calculate D2E/DX2 analytically  !
 ! D25   D(15,9,11,14)         178.056          calculate D2E/DX2 analytically  !
 ! D26   D(7,9,15,16)            0.0054         calculate D2E/DX2 analytically  !
 ! D27   D(7,9,15,17)          180.0            calculate D2E/DX2 analytically  !
 ! D28   D(10,9,15,16)        -120.5029         calculate D2E/DX2 analytically  !
 ! D29   D(10,9,15,17)          59.4917         calculate D2E/DX2 analytically  !
 ! D30   D(11,9,15,16)         121.9528         calculate D2E/DX2 analytically  !
 ! D31   D(11,9,15,17)         -58.0526         calculate D2E/DX2 analytically  !
 ! D32   D(9,15,17,18)           0.0            calculate D2E/DX2 analytically  !
 ! D33   D(9,15,17,19)        -179.9953         calculate D2E/DX2 analytically  !
 ! D34   D(16,15,17,18)        179.9944         calculate D2E/DX2 analytically  !
 ! D35   D(16,15,17,19)         -0.0009         calculate D2E/DX2 analytically  !
 ! D36   D(15,17,19,20)       -149.9977         calculate D2E/DX2 analytically  !
 ! D37   D(15,17,19,21)        -30.0034         calculate D2E/DX2 analytically  !
 ! D38   D(15,17,19,25)         89.9975         frozen, calculate D2E/DX2 analyt!
 ! D39   D(18,17,19,20)         30.0069         calculate D2E/DX2 analytically  !
 ! D40   D(18,17,19,21)        150.0012         calculate D2E/DX2 analytically  !
 ! D41   D(18,17,19,25)        -89.9979         calculate D2E/DX2 analytically  !
 ! D42   D(17,19,21,22)         60.0039         calculate D2E/DX2 analytically  !
 ! D43   D(17,19,21,23)       -179.9943         calculate D2E/DX2 analytically  !
 ! D44   D(17,19,21,24)        -59.998          calculate D2E/DX2 analytically  !
 ! D45   D(20,19,21,22)       -179.4919         calculate D2E/DX2 analytically  !
 ! D46   D(20,19,21,23)        -59.4901         calculate D2E/DX2 analytically  !
 ! D47   D(20,19,21,24)         60.5062         calculate D2E/DX2 analytically  !
 ! D48   D(25,19,21,22)        -61.9445         calculate D2E/DX2 analytically  !
 ! D49   D(25,19,21,23)         58.0573         calculate D2E/DX2 analytically  !
 ! D50   D(25,19,21,24)        178.0536         calculate D2E/DX2 analytically  !
 ! D51   D(17,19,25,26)        180.0            calculate D2E/DX2 analytically  !
 ! D52   D(17,19,25,27)          0.0            frozen, calculate D2E/DX2 analyt!
 ! D53   D(20,19,25,26)         59.4883         calculate D2E/DX2 analytically  !
 ! D54   D(20,19,25,27)       -120.5117         calculate D2E/DX2 analytically  !
 ! D55   D(21,19,25,26)        -58.0558         calculate D2E/DX2 analytically  !
 ! D56   D(21,19,25,27)        121.9442         calculate D2E/DX2 analytically  !
 ! D57   D(19,25,27,28)          0.0            calculate D2E/DX2 analytically  !
 ! D58   D(19,25,27,29)        180.0            calculate D2E/DX2 analytically  !
 ! D59   D(26,25,27,28)        180.0            calculate D2E/DX2 analytically  !
 ! D60   D(26,25,27,29)          0.0            calculate D2E/DX2 analytically  !
 ! D61   D(25,27,29,30)        -59.9996         calculate D2E/DX2 analytically  !
 ! D62   D(25,27,29,31)         60.002          calculate D2E/DX2 analytically  !
 ! D63   D(25,27,29,35)        180.0            calculate D2E/DX2 analytically  !
 ! D64   D(28,27,29,30)        120.0004         calculate D2E/DX2 analytically  !
 ! D65   D(28,27,29,31)       -119.998          calculate D2E/DX2 analytically  !
 ! D66   D(28,27,29,35)          0.0            calculate D2E/DX2 analytically  !
 ! D67   D(27,29,31,32)         59.9983         calculate D2E/DX2 analytically  !
 ! D68   D(27,29,31,33)        179.9992         calculate D2E/DX2 analytically  !
 ! D69   D(27,29,31,34)        -60.005          calculate D2E/DX2 analytically  !
 ! D70   D(30,29,31,32)       -179.4887         calculate D2E/DX2 analytically  !
 ! D71   D(30,29,31,33)        -59.4878         calculate D2E/DX2 analytically  !
 ! D72   D(30,29,31,34)         60.5079         calculate D2E/DX2 analytically  !
 ! D73   D(35,29,31,32)        -61.9409         calculate D2E/DX2 analytically  !
 ! D74   D(35,29,31,33)         58.0601         calculate D2E/DX2 analytically  !
 ! D75   D(35,29,31,34)        178.0558         calculate D2E/DX2 analytically  !
 ! D76   D(27,29,35,36)          0.0            calculate D2E/DX2 analytically  !
 ! D77   D(27,29,35,37)        180.0            calculate D2E/DX2 analytically  !
 ! D78   D(30,29,35,36)       -120.5111         calculate D2E/DX2 analytically  !
 ! D79   D(30,29,35,37)         59.4889         calculate D2E/DX2 analytically  !
 ! D80   D(31,29,35,36)        121.9417         calculate D2E/DX2 analytically  !
 ! D81   D(31,29,35,37)        -58.0583         calculate D2E/DX2 analytically  !
 ! D82   D(29,35,37,38)          0.0            calculate D2E/DX2 analytically  !
 ! D83   D(29,35,37,39)        180.0            calculate D2E/DX2 analytically  !
 ! D84   D(36,35,37,38)        180.0            calculate D2E/DX2 analytically  !
 ! D85   D(36,35,37,39)          0.0            calculate D2E/DX2 analytically  !
 ! D86   D(35,37,39,40)          0.0            calculate D2E/DX2 analytically  !
 ! D87   D(35,37,39,41)        120.0            calculate D2E/DX2 analytically  !
 ! D88   D(35,37,39,42)       -120.0028         calculate D2E/DX2 analytically  !
 ! D89   D(38,37,39,40)        180.0            calculate D2E/DX2 analytically  !
 ! D90   D(38,37,39,41)        -60.0            calculate D2E/DX2 analytically  !
 ! D91   D(38,37,39,42)         59.9972         calculate D2E/DX2 analytically  !
 --------------------------------------------------------------------------------
 Trust Radius=3.00D-01 FncErr=1.00D-07 GrdErr=1.00D-06
 Number of steps in this run= 252 maximum allowed number of steps= 252.
 GradGradGradGradGradGradGradGradGradGradGradGradGradGradGradGradGradGrad

                          Input orientation:                          
 ---------------------------------------------------------------------
 Center     Atomic      Atomic             Coordinates (Angstroms)
 Number     Number       Type             X           Y           Z
 ---------------------------------------------------------------------
      1          1           0        5.846100    1.000000    3.846000
      2          6           0        5.846100    2.090000    3.846000
      3          1           0        6.735900    2.453800    4.359800
      4          1           0        4.956200    2.453800    4.359800
      5          6           0        5.846000    2.640800    2.418600
      6          8           0        5.846000    1.877400    1.455500
      7          7           0        5.846000    3.969600    2.290700
      8          1           0        5.846000    4.556100    3.112900
      9          6           0        5.846000    4.613900    0.992800
     10          1           0        6.735900    4.315500    0.438500
     11          6           0        4.613900    4.220800    0.184700
     12          1           0        3.714900    4.521400    0.722800
     13          1           0        4.640300    4.718900   -0.784400
     14          1           0        4.604700    3.140900    0.037500
     15          6           0        5.846000    6.129400    1.133400
     16          8           0        5.846100    6.652700    2.245400
     17          7           0        5.846000    6.834900    0.000000
     18          1           0        5.846000    6.359200   -0.890900
     19          6           0        5.846100    8.283900    0.000000
     20          1           0        5.332300    8.647700   -0.889800
     21          6           0        5.134700    8.832900    1.232200
     22          1           0        5.643100    8.484600    2.131200
     23          1           0        5.149900    9.922400    1.205800
     24          1           0        4.101900    8.484600    1.241400
     25          6           0        7.266000    8.831800    0.000000
     26          8           0        7.466700   10.044300    0.000000
     27          7           0        8.253400    7.933300    0.000000
     28          1           0        8.038300    6.946500    0.000000
     29          6           0        9.647700    8.327900    0.000000
     30          1           0        9.857900    8.921300   -0.889800
     31          6           0        9.982200    9.161800    1.232100
     32          1           0        9.785500    8.577800    2.131200
     33          1           0       11.034800    9.443900    1.205800
     34          1           0        9.365900   10.060800    1.241400
     35          6           0       10.561500    7.110700    0.000000
     36          8           0       10.089200    5.976100    0.000000
     37          7           0       11.875000    7.349400    0.000000
     38          1           0       12.215500    8.300300    0.000000
     39          6           0       12.848300    6.276000    0.000000
     40          1           0       12.331600    5.316300    0.000000
     41          1           0       13.473300    6.351600   -0.889900
     42          1           0       13.473300    6.351600    0.889800
 ---------------------------------------------------------------------
                    Distance matrix (angstroms):
                    1          2          3          4          5
     1  H    0.000000
     2  C    1.090000   0.000000
     3  H    1.780244   1.089993   0.000000
     4  H    1.780294   1.090075   1.779700   0.000000
     5  C    2.174786   1.529984   2.143630   2.143588   0.000000
     6  O    2.546433   2.399935   3.091782   3.091753   1.228959
     7  N    3.352235   2.439642   2.714912   2.714879   1.334941
     8  H    3.630879   2.572758   2.601220   2.601186   2.037260
     9  C    4.604457   3.809307   4.098127   4.098105   2.434344
    10  H    4.836873   4.166011   4.340797   4.691466   2.741776
    11  C    5.029611   4.411773   5.005660   4.546528   3.000796
    12  H    5.166880   4.495342   5.160347   4.363893   3.309680
    13  H    6.060097   5.459457   5.998751   5.629677   4.003926
    14  H    4.541938   4.141272   4.867895   4.390665   2.731403
    15  C    5.802495   4.865691   4.971078   4.971060   3.717804
    16  O    5.874942   4.835303   4.784683   4.784702   4.015637
    17  N    6.988403   6.107847   6.244503   6.244489   4.841498
    18  H    7.152569   6.376856   6.604084   6.604070   4.977880
    19  C    8.236924   7.290824   7.334144   7.334156   6.139561
    20  H    9.009945   8.105259   8.239708   8.127986   6.876936
    21  C    8.288086   7.266687   7.282763   7.106804   6.344730
    22  H    7.681210   6.623644   6.521612   6.465991   5.854380
    23  H    9.330840   8.294687   8.260938   8.109576   7.414657
    24  H    8.114519   7.121593   7.282371   6.842865   6.211094
    25  C    8.839962   7.890482   7.743884   8.063617   6.796654
    26  O    9.960794   8.982703   8.783941   9.106380   7.955382
    27  N    8.285980   7.398038   7.164885   7.739787   6.297282
    28  H    7.413388   6.571381   6.394408   6.977933   5.403227
    29  C    9.107250   8.255621   7.873467   8.690402   7.255733
    30  H   10.063267   9.229789   8.895715   9.665067   8.153866
    31  C    9.516027   8.599427   8.081970   8.946533   7.812770
    32  H    8.711054   7.781450   7.195144   8.111237   7.130935
    33  H   10.256350   9.379398   8.791459   9.785632   8.641568
    34  H   10.063351   9.094316   8.631788   9.329326   8.296499
    35  C    8.623652   7.888862   7.438400   8.491994   6.932934
    36  O    7.586645   6.920794   6.531391   7.600141   5.914271
    37  N    9.563171   8.876972   8.329772   9.531241   8.023053
    38  H   10.423788   9.691687   9.122249  10.290134   8.857206
    39  C    9.573855   9.019153   8.424874   9.792973   8.252061
    40  H    8.688145   8.201368   7.649420   9.033177   7.420979
    41  H   10.451916   9.938016   9.388544  10.737467   9.104500
    42  H    9.775117   9.223586   8.522107   9.988731   8.618757
                    6          7          8          9         10
     6  O    0.000000
     7  N    2.252745   0.000000
     8  H    3.149985   1.009948   0.000000
     9  C    2.775342   1.449023   2.120888   0.000000
    10  H    2.787569   2.083798   2.828821   1.090052   0.000000
    11  C    2.936754   2.452837   3.194503   1.525000   2.139221
    12  H    3.474071   2.702662   3.202401   2.150126   3.041326
    13  H    3.813789   3.386946   4.082789   2.150158   2.459625
    14  H    2.268916   2.702680   3.605787   2.150152   2.466272
    15  C    4.264183   2.450322   2.528575   1.522008   2.136596
    16  O    4.840189   2.683482   2.268984   2.392846   3.085310
    17  N    5.166748   3.668413   3.857859   2.432795   2.707689
    18  H    5.058866   3.979041   4.391080   2.567956   2.595368
    19  C    6.569758   4.884720   4.856608   3.801914   4.090504
    20  H    7.183403   5.680149   5.746885   4.481028   4.743673
    21  C    6.995341   5.027729   4.725886   4.285233   4.858056
    22  H    6.644760   4.522370   4.054382   4.039733   4.630425
    23  H    8.078919   6.090763   5.737487   5.358180   5.877199
    24  H    6.836872   4.952589   4.688018   4.252764   4.996399
    25  C    7.245589   5.559199   5.476144   4.559905   4.568397
    26  O    8.452420   6.691484   6.514381   5.753396   5.791848
    27  N    6.677423   5.172407   5.185673   4.218962   3.947602
    28  H    5.711430   4.349186   4.495591   3.351545   2.968280
    29  C    7.627605   6.220531   6.194316   5.406697   4.976968
    30  H    8.438738   7.122517   7.153455   6.180066   5.720547
    31  C    8.379770   6.722182   6.469778   6.152139   5.886840
    32  H    7.802025   6.064702   5.714671   5.703343   5.507494
    33  H    9.178122   7.620277   7.379110   7.092102   6.735709
    34  H    8.910868   7.112907   6.796612   6.490009   6.369460
    35  C    7.193181   6.111445   6.200973   5.427302   4.758218
    36  O    6.076394   5.222844   5.450807   4.565741   3.767558
    37  N    8.271040   7.281428   7.337678   6.694584   5.983910
    38  H    9.162022   8.035720   8.017463   7.426017   6.789472
    39  C    8.396331   7.720038   7.853688   7.265014   6.434072
    40  H    7.483817   7.008845   7.234021   6.598638   5.701381
    41  H    9.148501   8.600340   8.798973   8.046109   7.162605
    42  H    8.860823   8.112469   8.145041   7.823421   7.052796
                   11         12         13         14         15
    11  C    0.000000
    12  H    1.090006   0.000000
    13  H    1.089934   1.779613   0.000000
    14  H    1.089925   1.779652   1.779570   0.000000
    15  C    2.461881   2.701082   2.668554   3.416571   0.000000
    16  O    3.417446   3.376798   3.791204   4.329969   1.228978
    17  N    2.895808   3.227431   2.558603   3.897162   1.335038
    18  H    2.692163   3.243936   2.038538   3.572143   2.037302
    19  C    4.249849   4.384160   3.844277   5.290834   2.434433
    20  H    4.611734   4.716229   3.990669   5.631530   3.270942
    21  C    4.758146   4.567751   4.608265   5.840126   2.797252
    22  H    4.798761   4.626932   4.866912   5.832408   2.565880
    23  H    5.817060   5.609217   5.594372   6.902964   3.857026
    24  H    4.422527   4.015678   4.309784   5.500665   2.932664
    25  C    5.322506   5.631367   4.942219   6.282537   3.256372
    26  O    6.487352   6.715718   6.079778   7.473244   4.386081
    27  N    5.202185   5.723765   4.899198   6.023414   3.214689
    28  H    4.380647   5.009525   4.138102   5.125779   2.599698
    29  C    6.499348   7.085901   6.222075   7.234516   4.535518
    30  H    7.123818   7.726322   6.700345   7.865686   5.289932
    31  C    7.370833   7.814842   7.234745   8.160626   5.129653
    32  H    7.036886   7.435735   7.061509   7.796419   4.744463
    33  H    8.339747   8.834321   8.196106   9.079588   6.157499
    34  H    7.602876   7.930176   7.414247   8.485483   5.277998
    35  C    6.615103   7.355464   6.434019   7.158504   4.948079
    36  O    5.752747   6.578016   5.646800   6.174100   4.394638
    37  N    7.908592   8.666444   7.737939   8.400604   6.254745
    38  H    8.629065   9.330741   8.415781   9.194840   6.824070
    39  C    8.489011   9.328454   8.391133   8.819705   7.094948
    40  H    7.797251   8.683422   7.754242   8.027375   6.633908
    41  H    9.175186  10.058668   8.983247   9.477380   7.894227
    42  H    9.139280   9.929949   9.137316   9.470326   7.634423
                   16         17         18         19         20
    16  O    0.000000
    17  N    2.252780   0.000000
    18  H    3.150003   1.009947   0.000000
    19  C    2.775362   1.449000   2.120890   0.000000
    20  H    3.751466   2.083717   2.345447   1.089993   0.000000
    21  C    2.507177   2.452808   3.336569   1.525060   2.139212
    22  H    1.846648   2.702719   3.700214   2.150233   3.041322
    23  H    3.500914   3.386911   4.192505   2.150193   2.459608
    24  H    2.721416   2.702678   3.479355   2.150253   2.466272
    25  C    3.436046   2.450308   2.987282   1.521943   2.136547
    26  O    4.378483   3.595402   4.123146   2.392771   2.701462
    27  N    3.532259   2.646140   3.011157   2.432697   3.136070
    28  H    3.151806   2.195139   2.438197   2.567952   3.317870
    29  C    4.722317   4.084357   4.372917   3.801855   4.417770
    30  H    5.574098   4.608704   4.760221   4.158433   4.533863
    31  C    4.942639   4.903130   5.428614   4.404101   5.136957
    32  H    4.386106   4.806181   5.438284   4.488570   5.381665
    33  H    5.982823   5.931651   6.390240   5.451803   6.127314
    34  H    5.001215   4.933275   5.535182   4.133696   4.775855
    35  C    5.242765   4.723559   4.857406   4.859156   5.522558
    36  O    4.848041   4.329236   4.352610   4.830097   5.527865
    37  N    6.471078   6.050913   6.174386   6.100895   6.729357
    38  H    6.951666   6.535895   6.718043   6.369421   6.949163
    39  C    7.363052   7.024569   7.059237   7.284399   7.931391
    40  H    6.992102   6.661017   6.629054   7.132206   7.802575
    41  H    8.251966   7.694232   7.627304   7.918326   8.458602
    42  H    7.752580   7.694220   7.832411   7.918315   8.643780
                   21         22         23         24         25
    21  C    0.000000
    22  H    1.089947   0.000000
    23  H    1.089926   1.779573   0.000000
    24  H    1.089988   1.779618   1.779562   0.000000
    25  C    2.461861   2.701179   2.668565   3.416599   0.000000
    26  O    2.902418   3.209392   2.614646   3.910961   1.228998
    27  N    3.471871   3.414617   3.878426   4.368061   1.335013
    28  H    3.675284   3.555945   4.318887   4.404778   2.037352
    29  C    4.705370   4.539096   4.922051   5.685202   2.434422
    30  H    5.178737   5.204007   5.249667   6.153394   2.741842
    31  C    4.858645   4.482719   4.891863   5.919173   3.000785
    32  H    4.743756   4.143448   4.914581   5.753585   3.309745
    33  H    5.931711   5.554012   5.904321   6.999045   4.004057
    34  H    4.405778   4.139492   4.218421   5.494916   2.731500
    35  C    5.825328   5.533559   6.216512   6.719755   3.717863
    36  O    5.850358   5.531943   6.436142   6.609191   4.015654
    37  N    7.010758   6.683358   7.300771   7.953039   4.841528
    38  H    7.206921   6.911760   7.349004   8.210088   4.977956
    39  C    8.219226   7.831656   8.603229   9.105960   6.139559
    40  H    8.104330   7.701699   8.616666   8.905457   6.165958
    41  H    8.955021   8.659605   9.296320   9.844555   6.743433
    42  H    8.706683   8.209921   9.062530   9.617507   6.743420
                   26         27         28         29         30
    26  O    0.000000
    27  N    2.252824   0.000000
    28  H    3.150094   1.009971   0.000000
    29  C    2.775390   1.449062   2.120951   0.000000
    30  H    2.787599   2.083821   2.828873   1.089978   0.000000
    31  C    2.936770   2.452760   3.194428   1.524910   2.139100
    32  H    3.474114   2.702725   3.202477   2.150221   3.041328
    33  H    3.813892   3.387042   4.082888   2.150222   2.459623
    34  H    2.268988   2.702774   3.605892   2.150216   2.466280
    35  C    4.264246   2.450305   2.528537   1.522040   2.136602
    36  O    4.840223   2.683429   2.268891   2.392882   3.085360
    37  N    5.166778   3.668368   3.857797   2.432761   2.707638
    38  H    5.058917   3.979061   4.391102   2.567948   2.595316
    39  C    6.569757   4.884644   4.856508   3.801859   4.090458
    40  H    6.783895   4.845658   4.592382   4.033987   4.461722
    41  H    7.106842   5.526396   5.539409   4.396919   4.435592
    42  H    7.106829   5.526380   5.539393   4.396899   4.779273
                   31         32         33         34         35
    31  C    0.000000
    32  H    1.090013   0.000000
    33  H    1.090064   1.779675   0.000000
    34  H    1.090006   1.779634   1.779624   0.000000
    35  C    2.461843   2.701217   2.668668   3.416668   0.000000
    36  O    3.417339   3.376846   3.791273   4.330013   1.228977
    37  N    2.895782   3.227536   2.558675   3.897223   1.335013
    38  H    2.692189   3.244059   2.038585   3.572206   2.037367
    39  C    4.249758   4.384181   3.844259   5.290831   2.434374
    40  H    4.671790   4.654248   4.491406   5.731207   2.520541
    41  H    4.958617   5.261452   4.461004   5.930543   3.137951
    42  H    4.494683   4.482958   3.950754   5.545496   3.137922
                   36         37         38         39         40
    36  O    0.000000
    37  N    2.252784   0.000000
    38  H    3.150088   1.010025   0.000000
    39  C    2.775351   1.448965   2.120902   0.000000
    40  H    2.337455   2.083742   2.986258   1.089955   0.000000
    41  H    3.519241   2.083768   2.484233   1.090074   1.779676
    42  H    3.519215   2.083725   2.484197   1.089993   1.779626
                   41         42
    41  H    0.000000
    42  H    1.779700   0.000000
 Stoichiometry    C12H22N4O4
 Framework group  C1[X(C12H22N4O4)]
 Deg. of freedom   120
 Full point group                 C1      NOp   1
 Largest Abelian subgroup         C1      NOp   1
 Largest concise Abelian subgroup C1      NOp   1
                         Standard orientation:                         
 ---------------------------------------------------------------------
 Center     Atomic      Atomic             Coordinates (Angstroms)
 Number     Number       Type             X           Y           Z
 ---------------------------------------------------------------------
      1          1           0        5.547059    2.829049    1.235374
      2          6           0        4.819912    2.069371    1.522160
      3          1           0        4.098572    2.500009    2.216641
      4          1           0        5.333895    1.236850    2.002777
      5          6           0        4.066436    1.539164    0.300683
      6          8           0        4.315192    1.972536   -0.822103
      7          7           0        3.145387    0.599949    0.527867
      8          1           0        2.976529    0.275430    1.469233
      9          6           0        2.364496    0.017916   -0.545033
     10          1           0        1.795929    0.800707   -1.047212
     11          6           0        3.263373   -0.665406   -1.570076
     12          1           0        3.832406   -1.457849   -1.083919
     13          1           0        2.650626   -1.093117   -2.363525
     14          1           0        3.950351    0.065621   -1.996218
     15          6           0        1.391526   -1.023909   -0.011705
     16          8           0        1.343149   -1.274615    1.190457
     17          7           0        0.614304   -1.631739   -0.911034
     18          1           0        0.690664   -1.391483   -1.889011
     19          6           0       -0.352404   -2.641553   -0.529781
     20          1           0       -0.479145   -3.350949   -1.347569
     21          6           0        0.108453   -3.402849    0.708705
     22          1           0        0.231091   -2.707145    1.538730
     23          1           0       -0.636052   -4.154095    0.971915
     24          1           0        1.060181   -3.892197    0.501762
     25          6           0       -1.703491   -2.015625   -0.214998
     26          8           0       -2.651668   -2.718231    0.128137
     27          7           0       -1.789468   -0.688597   -0.332745
     28          1           0       -0.981862   -0.153513   -0.618227
     29          6           0       -3.020518    0.026004   -0.061372
     30          1           0       -3.802969   -0.329547   -0.731750
     31          6           0       -3.475726   -0.191527    1.377661
     32          1           0       -2.706401    0.168008    2.061036
     33          1           0       -4.401660    0.356261    1.553197
     34          1           0       -3.645155   -1.254559    1.549037
     35          6           0       -2.842801    1.522913   -0.271816
     36          8           0       -1.758069    1.978455   -0.627092
     37          7           0       -3.913765    2.288819   -0.051171
     38          1           0       -4.784464    1.867760    0.239934
     39          6           0       -3.873278    3.727737   -0.216630
     40          1           0       -2.874404    4.029870   -0.531225
     41          1           0       -4.598248    4.027466   -0.973494
     42          1           0       -4.116849    4.209818    0.730130
 ---------------------------------------------------------------------
 Rotational constants (GHZ):      0.3938699      0.1937276      0.1446343
 Standard basis: 6-31G(d) (6D, 7F)
 There are   344 symmetry adapted basis functions of A   symmetry.
 Integral buffers will be    131072 words long.
 Raffenetti 2 integral format.
 Two-electron integral symmetry is turned on.
   344 basis functions,   648 primitive gaussians,   344 cartesian basis functions
    77 alpha electrons       77 beta electrons
       nuclear repulsion energy      1666.0899674655 Hartrees.
 NAtoms=   42 NActive=   42 NUniq=   42 SFac= 7.50D-01 NAtFMM=   80 NAOKFM=F Big=F
 One-electron integrals computed using PRISM.
 NBasis=   344 RedAO= T  NBF=   344
 NBsUse=   344 1.00D-06 NBFU=   344
 Harris functional with IExCor=  402 diagonalized for initial guess.
 ExpMin= 1.61D-01 ExpMax= 5.48D+03 ExpMxC= 8.25D+02 IAcc=1 IRadAn=         1 AccDes= 0.00D+00
 HarFok:  IExCor=  402 AccDes= 0.00D+00 IRadAn=         1 IDoV= 1
 ScaDFX=  1.000000  1.000000  1.000000  1.000000
 FoFCou: FMM=F IPFlag=           0 FMFlag=      100000 FMFlg1=           0
         NFxFlg=           0 DoJE=T BraDBF=F KetDBF=T FulRan=T
         Omega=  0.000000  0.000000  1.000000  0.000000  0.000000 ICntrl=     500 IOpCl=  0
         NMat0=    1 NMatS0=    1 NMatT0=    0 NMatD0=    1 NMtDS0=    0 NMtDT0=    0
         I1Cent=           4 NGrid=           0.
 Petite list used in FoFCou.
 Initial guess orbital symmetries:
       Occupied  (A) (A) (A) (A) (A) (A) (A) (A) (A) (A) (A) (A)
                 (A) (A) (A) (A) (A) (A) (A) (A) (A) (A) (A) (A)
                 (A) (A) (A) (A) (A) (A) (A) (A) (A) (A) (A) (A)
                 (A) (A) (A) (A) (A) (A) (A) (A) (A) (A) (A) (A)
                 (A) (A) (A) (A) (A) (A) (A) (A) (A) (A) (A) (A)
                 (A) (A) (A) (A) (A) (A) (A) (A) (A) (A) (A) (A)
                 (A) (A) (A) (A) (A)
       Virtual   (A) (A) (A) (A) (A) (A) (A) (A) (A) (A) (A) (A)
                 (A) (A) (A) (A) (A) (A) (A) (A) (A) (A) (A) (A)
                 (A) (A) (A) (A) (A) (A) (A) (A) (A) (A) (A) (A)
                 (A) (A) (A) (A) (A) (A) (A) (A) (A) (A) (A) (A)
                 (A) (A) (A) (A) (A) (A) (A) (A) (A) (A) (A) (A)
                 (A) (A) (A) (A) (A) (A) (A) (A) (A) (A) (A) (A)
                 (A) (A) (A) (A) (A) (A) (A) (A) (A) (A) (A) (A)
                 (A) (A) (A) (A) (A) (A) (A) (A) (A) (A) (A) (A)
                 (A) (A) (A) (A) (A) (A) (A) (A) (A) (A) (A) (A)
                 (A) (A) (A) (A) (A) (A) (A) (A) (A) (A) (A) (A)
                 (A) (A) (A) (A) (A) (A) (A) (A) (A) (A) (A) (A)
                 (A) (A) (A) (A) (A) (A) (A) (A) (A) (A) (A) (A)
                 (A) (A) (A) (A) (A) (A) (A) (A) (A) (A) (A) (A)
                 (A) (A) (A) (A) (A) (A) (A) (A) (A) (A) (A) (A)
                 (A) (A) (A) (A) (A) (A) (A) (A) (A) (A) (A) (A)
                 (A) (A) (A) (A) (A) (A) (A) (A) (A) (A) (A) (A)
                 (A) (A) (A) (A) (A) (A) (A) (A) (A) (A) (A) (A)
                 (A) (A) (A) (A) (A) (A) (A) (A) (A) (A) (A) (A)
                 (A) (A) (A) (A) (A) (A) (A) (A) (A) (A) (A) (A)
                 (A) (A) (A) (A) (A) (A) (A) (A) (A) (A) (A) (A)
                 (A) (A) (A) (A) (A) (A) (A) (A) (A) (A) (A) (A)
                 (A) (A) (A) (A) (A) (A) (A) (A) (A) (A) (A) (A)
                 (A) (A) (A)
 The electronic state of the initial guess is 1-A.
 Requested convergence on RMS density matrix=1.00D-08 within 128 cycles.
 Requested convergence on MAX density matrix=1.00D-06.
 Requested convergence on             energy=1.00D-06.
 No special actions if energy rises.
 Integral accuracy reduced to 1.0D-05 until final iterations.
 Initial convergence to 1.0D-05 achieved.  Increase integral accuracy.
 SCF Done:  E(RB3LYP) =  -990.472064332     A.U. after   15 cycles
             Convg  =    0.4101D-08             -V/T =  2.0085
 Range of M.O.s used for correlation:     1   344
 NBasis=   344 NAE=    77 NBE=    77 NFC=     0 NFV=     0
 NROrb=    344 NOA=    77 NOB=    77 NVA=   267 NVB=   267
 Symmetrizing basis deriv contribution to polar:
 IMax=3 JMax=2 DiffMx= 0.00D+00
 G2DrvN: will do    43 centers at a time, making    1 passes doing MaxLOS=2.
 Calling FoFCou, ICntrl=  3107 FMM=F I1Cent=   0 AccDes= 0.00D+00.
 FoFDir/FoFCou used for L=0 through L=2.
 End of G2Drv Frequency-dependent properties file   721 does not exist.
 End of G2Drv Frequency-dependent properties file   722 does not exist.
          IDoAtm=111111111111111111111111111111111111111111
          Differentiating once with respect to nuclear coordinates.
          There are   129 degrees of freedom in the 1st order CPHF.  IDoFFX=5.
    123 vectors produced by pass  0 Test12= 2.06D-10 1.00D-07 XBig12= 1.92D-01 8.93D-02.
 AX will form   123 AO Fock derivatives at one time.
    123 vectors produced by pass  1 Test12= 2.06D-10 1.00D-07 XBig12= 1.97D-02 3.75D-02.
    123 vectors produced by pass  2 Test12= 2.06D-10 1.00D-07 XBig12= 5.53D-05 1.40D-03.
    123 vectors produced by pass  3 Test12= 2.06D-10 1.00D-07 XBig12= 9.06D-08 6.71D-05.
     69 vectors produced by pass  4 Test12= 2.06D-10 1.00D-07 XBig12= 9.53D-11 1.36D-06.
 Inverted reduced A of dimension   561 with in-core refinement.
 End of Minotr Frequency-dependent properties file   721 does not exist.
 End of Minotr Frequency-dependent properties file   722 does not exist.

 **********************************************************************

            Population analysis using the SCF density.

 **********************************************************************

 Orbital symmetries:
       Occupied  (A) (A) (A) (A) (A) (A) (A) (A) (A) (A) (A) (A)
                 (A) (A) (A) (A) (A) (A) (A) (A) (A) (A) (A) (A)
                 (A) (A) (A) (A) (A) (A) (A) (A) (A) (A) (A) (A)
                 (A) (A) (A) (A) (A) (A) (A) (A) (A) (A) (A) (A)
                 (A) (A) (A) (A) (A) (A) (A) (A) (A) (A) (A) (A)
                 (A) (A) (A) (A) (A) (A) (A) (A) (A) (A) (A) (A)
                 (A) (A) (A) (A) (A)
       Virtual   (A) (A) (A) (A) (A) (A) (A) (A) (A) (A) (A) (A)
                 (A) (A) (A) (A) (A) (A) (A) (A) (A) (A) (A) (A)
                 (A) (A) (A) (A) (A) (A) (A) (A) (A) (A) (A) (A)
                 (A) (A) (A) (A) (A) (A) (A) (A) (A) (A) (A) (A)
                 (A) (A) (A) (A) (A) (A) (A) (A) (A) (A) (A) (A)
                 (A) (A) (A) (A) (A) (A) (A) (A) (A) (A) (A) (A)
                 (A) (A) (A) (A) (A) (A) (A) (A) (A) (A) (A) (A)
                 (A) (A) (A) (A) (A) (A) (A) (A) (A) (A) (A) (A)
                 (A) (A) (A) (A) (A) (A) (A) (A) (A) (A) (A) (A)
                 (A) (A) (A) (A) (A) (A) (A) (A) (A) (A) (A) (A)
                 (A) (A) (A) (A) (A) (A) (A) (A) (A) (A) (A) (A)
                 (A) (A) (A) (A) (A) (A) (A) (A) (A) (A) (A) (A)
                 (A) (A) (A) (A) (A) (A) (A) (A) (A) (A) (A) (A)
                 (A) (A) (A) (A) (A) (A) (A) (A) (A) (A) (A) (A)
                 (A) (A) (A) (A) (A) (A) (A) (A) (A) (A) (A) (A)
                 (A) (A) (A) (A) (A) (A) (A) (A) (A) (A) (A) (A)
                 (A) (A) (A) (A) (A) (A) (A) (A) (A) (A) (A) (A)
                 (A) (A) (A) (A) (A) (A) (A) (A) (A) (A) (A) (A)
                 (A) (A) (A) (A) (A) (A) (A) (A) (A) (A) (A) (A)
                 (A) (A) (A) (A) (A) (A) (A) (A) (A) (A) (A) (A)
                 (A) (A) (A) (A) (A) (A) (A) (A) (A) (A) (A) (A)
                 (A) (A) (A) (A) (A) (A) (A) (A) (A) (A) (A) (A)
                 (A) (A) (A)
 The electronic state is 1-A.
 Alpha  occ. eigenvalues --  -19.12374 -19.12194 -19.10432 -19.09616 -14.38131
 Alpha  occ. eigenvalues --  -14.37708 -14.35926 -14.35365 -10.30036 -10.29534
 Alpha  occ. eigenvalues --  -10.27957 -10.27600 -10.24020 -10.23951 -10.23794
 Alpha  occ. eigenvalues --  -10.22751 -10.18284 -10.18124 -10.18014 -10.16042
 Alpha  occ. eigenvalues --   -1.05745  -1.04819  -1.03025  -1.02150  -0.95276
 Alpha  occ. eigenvalues --   -0.93981  -0.92395  -0.92136  -0.80448  -0.78506
 Alpha  occ. eigenvalues --   -0.75986  -0.72108  -0.71843  -0.67158  -0.66174
 Alpha  occ. eigenvalues --   -0.64358  -0.61039  -0.59662  -0.58040  -0.57567
 Alpha  occ. eigenvalues --   -0.56486  -0.54567  -0.50427  -0.49802  -0.49517
 Alpha  occ. eigenvalues --   -0.47684  -0.46637  -0.46072  -0.45640  -0.44768
 Alpha  occ. eigenvalues --   -0.44093  -0.43521  -0.42623  -0.41864  -0.41338
 Alpha  occ. eigenvalues --   -0.40641  -0.40447  -0.40259  -0.39360  -0.39253
 Alpha  occ. eigenvalues --   -0.38448  -0.37949  -0.37368  -0.37166  -0.37033
 Alpha  occ. eigenvalues --   -0.36742  -0.36156  -0.34305  -0.34239  -0.28999
 Alpha  occ. eigenvalues --   -0.26857  -0.26274  -0.25282  -0.25080  -0.24853
 Alpha  occ. eigenvalues --   -0.23574  -0.23365
 Alpha virt. eigenvalues --    0.01352   0.01926   0.02995   0.03920   0.05407
 Alpha virt. eigenvalues --    0.06032   0.09877   0.10760   0.11359   0.12465
 Alpha virt. eigenvalues --    0.13519   0.13881   0.14393   0.14412   0.15120
 Alpha virt. eigenvalues --    0.15381   0.15798   0.16263   0.17167   0.17424
 Alpha virt. eigenvalues --    0.17858   0.18333   0.18904   0.19307   0.19467
 Alpha virt. eigenvalues --    0.19976   0.20326   0.20501   0.21186   0.22800
 Alpha virt. eigenvalues --    0.23499   0.23951   0.24914   0.25483   0.26345
 Alpha virt. eigenvalues --    0.29244   0.30415   0.33121   0.34485   0.34543
 Alpha virt. eigenvalues --    0.36274   0.40355   0.41449   0.42595   0.46800
 Alpha virt. eigenvalues --    0.49853   0.50561   0.50728   0.51482   0.51989
 Alpha virt. eigenvalues --    0.52604   0.53062   0.54116   0.54553   0.55214
 Alpha virt. eigenvalues --    0.56028   0.56336   0.56403   0.57452   0.58679
 Alpha virt. eigenvalues --    0.58951   0.60913   0.61895   0.62112   0.63608
 Alpha virt. eigenvalues --    0.64067   0.64641   0.65882   0.66934   0.67708
 Alpha virt. eigenvalues --    0.69019   0.69706   0.71221   0.71392   0.72717
 Alpha virt. eigenvalues --    0.73482   0.73880   0.74790   0.75674   0.77262
 Alpha virt. eigenvalues --    0.78501   0.78951   0.79966   0.80964   0.82233
 Alpha virt. eigenvalues --    0.83359   0.83727   0.84886   0.85371   0.86089
 Alpha virt. eigenvalues --    0.87174   0.87467   0.87876   0.88273   0.88824
 Alpha virt. eigenvalues --    0.88947   0.89545   0.90004   0.90732   0.91134
 Alpha virt. eigenvalues --    0.91720   0.92238   0.92676   0.93965   0.94223
 Alpha virt. eigenvalues --    0.94665   0.95489   0.95520   0.96974   0.97651
 Alpha virt. eigenvalues --    0.97805   0.99277   0.99968   1.02203   1.02796
 Alpha virt. eigenvalues --    1.03862   1.05288   1.07960   1.08586   1.08814
 Alpha virt. eigenvalues --    1.10670   1.12400   1.13259   1.14968   1.18051
 Alpha virt. eigenvalues --    1.20375   1.22327   1.23761   1.24254   1.27941
 Alpha virt. eigenvalues --    1.29007   1.30224   1.30962   1.32693   1.34261
 Alpha virt. eigenvalues --    1.35286   1.36186   1.38381   1.40767   1.41486
 Alpha virt. eigenvalues --    1.42719   1.45155   1.46976   1.47411   1.48947
 Alpha virt. eigenvalues --    1.50783   1.51249   1.51561   1.52833   1.60842
 Alpha virt. eigenvalues --    1.63473   1.65172   1.65972   1.67323   1.70729
 Alpha virt. eigenvalues --    1.72813   1.73216   1.75205   1.75903   1.77225
 Alpha virt. eigenvalues --    1.78537   1.79104   1.80089   1.82220   1.82600
 Alpha virt. eigenvalues --    1.83243   1.83542   1.83953   1.84380   1.84664
 Alpha virt. eigenvalues --    1.85451   1.86471   1.87907   1.88779   1.91174
 Alpha virt. eigenvalues --    1.91374   1.92464   1.93642   1.95091   1.95216
 Alpha virt. eigenvalues --    1.97295   1.97713   1.99274   2.01044   2.02706
 Alpha virt. eigenvalues --    2.03266   2.04278   2.05012   2.06606   2.07888
 Alpha virt. eigenvalues --    2.08691   2.10634   2.11903   2.14302   2.15350
 Alpha virt. eigenvalues --    2.15782   2.19043   2.20148   2.21506   2.24079
 Alpha virt. eigenvalues --    2.25042   2.26391   2.27843   2.29101   2.29398
 Alpha virt. eigenvalues --    2.30254   2.31392   2.32185   2.32368   2.33390
 Alpha virt. eigenvalues --    2.35067   2.38943   2.40189   2.41440   2.43770
 Alpha virt. eigenvalues --    2.44285   2.45469   2.47032   2.47990   2.51015
 Alpha virt. eigenvalues --    2.53949   2.56080   2.57974   2.59341   2.60825
 Alpha virt. eigenvalues --    2.62249   2.64891   2.66877   2.69131   2.71117
 Alpha virt. eigenvalues --    2.73404   2.74673   2.76953   2.82636   2.83756
 Alpha virt. eigenvalues --    2.86064   2.90708   2.93499   2.97136   2.97873
 Alpha virt. eigenvalues --    2.99684   3.02282   3.03890   3.14709   3.17336
 Alpha virt. eigenvalues --    3.23586   3.24631   3.96374   4.01440   4.02451
 Alpha virt. eigenvalues --    4.05110   4.07818   4.11601   4.12662   4.20070
 Alpha virt. eigenvalues --    4.20919   4.23053   4.27217   4.28601   4.29730
 Alpha virt. eigenvalues --    4.38809   4.42950   4.45789   4.47856   4.61065
 Alpha virt. eigenvalues --    4.62577   4.72823
          Condensed to atoms (all electrons):
              1          2          3          4          5          6
     1  H    0.505212   0.360520  -0.021534  -0.021635  -0.018232   0.005043
     2  C    0.360520   5.325274   0.351374   0.351503   0.358241  -0.079205
     3  H   -0.021534   0.351374   0.548971  -0.026654  -0.025153   0.001450
     4  H   -0.021635   0.351503  -0.026654   0.552296  -0.026636   0.001296
     5  C   -0.018232   0.358241  -0.025153  -0.026636   4.335057   0.593401
     6  O    0.005043  -0.079205   0.001450   0.001296   0.593401   8.083025
     7  N    0.004587  -0.135235   0.004221   0.004600   0.226808  -0.108012
     8  H   -0.000145  -0.001105   0.001159   0.000864  -0.016129   0.003095
     9  C   -0.000148   0.007446  -0.000279   0.000006  -0.021018   0.013593
    10  H    0.000002   0.000151  -0.000020  -0.000002  -0.001459   0.005024
    11  C    0.000014  -0.000758   0.000017   0.000031  -0.006118  -0.018653
    12  H    0.000000  -0.000004  -0.000001   0.000002   0.000862  -0.000156
    13  H    0.000000   0.000007   0.000000  -0.000001   0.000342   0.000330
    14  H    0.000000   0.000619  -0.000008  -0.000055   0.003015   0.023855
    15  C    0.000000  -0.000044  -0.000016  -0.000014   0.006559   0.000825
    16  O    0.000000  -0.000047   0.000000  -0.000001   0.000476  -0.000005
    17  N    0.000000   0.000001   0.000000   0.000000  -0.000077  -0.000003
    18  H    0.000000   0.000000   0.000000   0.000000   0.000002   0.000003
    19  C    0.000000   0.000000   0.000000   0.000000   0.000001   0.000000
    20  H    0.000000   0.000000   0.000000   0.000000   0.000000   0.000000
    21  C    0.000000   0.000000   0.000000   0.000000   0.000000   0.000000
    22  H    0.000000   0.000000   0.000000   0.000000   0.000000   0.000000
    23  H    0.000000   0.000000   0.000000   0.000000   0.000000   0.000000
    24  H    0.000000   0.000000   0.000000   0.000000   0.000000   0.000000
    25  C    0.000000   0.000000   0.000000   0.000000   0.000000   0.000000
    26  O    0.000000   0.000000   0.000000   0.000000   0.000000   0.000000
    27  N    0.000000   0.000000   0.000000   0.000000   0.000000   0.000000
    28  H    0.000000   0.000000   0.000000   0.000000  -0.000003   0.000000
    29  C    0.000000   0.000000   0.000000   0.000000   0.000000   0.000000
    30  H    0.000000   0.000000   0.000000   0.000000   0.000000   0.000000
    31  C    0.000000   0.000000   0.000000   0.000000   0.000000   0.000000
    32  H    0.000000   0.000000   0.000000   0.000000   0.000000   0.000000
    33  H    0.000000   0.000000   0.000000   0.000000   0.000000   0.000000
    34  H    0.000000   0.000000   0.000000   0.000000   0.000000   0.000000
    35  C    0.000000   0.000000   0.000000   0.000000   0.000000   0.000000
    36  O    0.000000   0.000000   0.000000   0.000000   0.000000   0.000000
    37  N    0.000000   0.000000   0.000000   0.000000   0.000000   0.000000
    38  H    0.000000   0.000000   0.000000   0.000000   0.000000   0.000000
    39  C    0.000000   0.000000   0.000000   0.000000   0.000000   0.000000
    40  H    0.000000   0.000000   0.000000   0.000000   0.000000   0.000000
    41  H    0.000000   0.000000   0.000000   0.000000   0.000000   0.000000
    42  H    0.000000   0.000000   0.000000   0.000000   0.000000   0.000000
              7          8          9         10         11         12
     1  H    0.004587  -0.000145  -0.000148   0.000002   0.000014   0.000000
     2  C   -0.135235  -0.001105   0.007446   0.000151  -0.000758  -0.000004
     3  H    0.004221   0.001159  -0.000279  -0.000020   0.000017  -0.000001
     4  H    0.004600   0.000864   0.000006  -0.000002   0.000031   0.000002
     5  C    0.226808  -0.016129  -0.021018  -0.001459  -0.006118   0.000862
     6  O   -0.108012   0.003095   0.013593   0.005024  -0.018653  -0.000156
     7  N    7.195517   0.291761   0.248507  -0.046912  -0.055455   0.000322
     8  H    0.291761   0.387956  -0.051368   0.003962   0.004598   0.000622
     9  C    0.248507  -0.051368   5.084117   0.371821   0.345382  -0.037612
    10  H   -0.046912   0.003962   0.371821   0.562887  -0.049582   0.005979
    11  C   -0.055455   0.004598   0.345382  -0.049582   5.207332   0.368100
    12  H    0.000322   0.000622  -0.037612   0.005979   0.368100   0.561783
    13  H    0.005264  -0.000124  -0.036191   0.000067   0.350652  -0.026924
    14  H   -0.010718  -0.000301  -0.020951  -0.005640   0.360024  -0.025332
    15  C   -0.026112   0.000787   0.315733  -0.034009  -0.048242  -0.002978
    16  O   -0.009166   0.029620  -0.079444   0.001045  -0.000762   0.000885
    17  N    0.003386   0.001308  -0.122367   0.000429   0.003171  -0.000263
    18  H    0.000066  -0.000045   0.000666   0.001023   0.000845  -0.000112
    19  C   -0.000050  -0.000004   0.003061  -0.000220   0.000498  -0.000066
    20  H    0.000001   0.000000  -0.000160  -0.000001   0.000027   0.000001
    21  C    0.000006   0.000048  -0.000408   0.000010  -0.000130   0.000009
    22  H   -0.000005   0.000008   0.000524  -0.000024  -0.000003  -0.000010
    23  H    0.000000  -0.000001   0.000023   0.000000  -0.000001   0.000000
    24  H    0.000003   0.000002  -0.000248   0.000000   0.000066   0.000044
    25  C    0.000000  -0.000001  -0.000155   0.000017  -0.000013   0.000002
    26  O    0.000000   0.000000   0.000001   0.000000   0.000000   0.000000
    27  N    0.000003  -0.000001  -0.000403  -0.000105   0.000018  -0.000001
    28  H   -0.000022   0.000013   0.000092   0.001545  -0.000041   0.000005
    29  C    0.000000   0.000000   0.000004  -0.000021   0.000000   0.000000
    30  H    0.000000   0.000000   0.000000   0.000000   0.000000   0.000000
    31  C    0.000000   0.000000   0.000000   0.000000   0.000000   0.000000
    32  H    0.000000   0.000000   0.000000   0.000000   0.000000   0.000000
    33  H    0.000000   0.000000   0.000000   0.000000   0.000000   0.000000
    34  H    0.000000   0.000000   0.000000   0.000000   0.000000   0.000000
    35  C    0.000000   0.000000   0.000000   0.000021   0.000000   0.000000
    36  O    0.000000   0.000000  -0.000057   0.000405   0.000000   0.000000
    37  N    0.000000   0.000000   0.000000   0.000000   0.000000   0.000000
    38  H    0.000000   0.000000   0.000000   0.000000   0.000000   0.000000
    39  C    0.000000   0.000000   0.000000   0.000000   0.000000   0.000000
    40  H    0.000000   0.000000   0.000000   0.000000   0.000000   0.000000
    41  H    0.000000   0.000000   0.000000   0.000000   0.000000   0.000000
    42  H    0.000000   0.000000   0.000000   0.000000   0.000000   0.000000
             13         14         15         16         17         18
     1  H    0.000000   0.000000   0.000000   0.000000   0.000000   0.000000
     2  C    0.000007   0.000619  -0.000044  -0.000047   0.000001   0.000000
     3  H    0.000000  -0.000008  -0.000016   0.000000   0.000000   0.000000
     4  H   -0.000001  -0.000055  -0.000014  -0.000001   0.000000   0.000000
     5  C    0.000342   0.003015   0.006559   0.000476  -0.000077   0.000002
     6  O    0.000330   0.023855   0.000825  -0.000005  -0.000003   0.000003
     7  N    0.005264  -0.010718  -0.026112  -0.009166   0.003386   0.000066
     8  H   -0.000124  -0.000301   0.000787   0.029620   0.001308  -0.000045
     9  C   -0.036191  -0.020951   0.315733  -0.079444  -0.122367   0.000666
    10  H    0.000067  -0.005640  -0.034009   0.001045   0.000429   0.001023
    11  C    0.350652   0.360024  -0.048242  -0.000762   0.003171   0.000845
    12  H   -0.026924  -0.025332  -0.002978   0.000885  -0.000263  -0.000112
    13  H    0.604355  -0.021323  -0.008687  -0.000037   0.003406   0.007124
    14  H   -0.021323   0.479423   0.004246  -0.000082   0.000122  -0.000193
    15  C   -0.008687   0.004246   4.424259   0.558811   0.243640  -0.024885
    16  O   -0.000037  -0.000082   0.558811   8.163730  -0.099495   0.003812
    17  N    0.003406   0.000122   0.243640  -0.099495   7.242748   0.304247
    18  H    0.007124  -0.000193  -0.024885   0.003812   0.304247   0.393123
    19  C    0.000261   0.000001  -0.023318  -0.001037   0.176004  -0.028938
    20  H    0.000009  -0.000001   0.003951   0.000010  -0.040146  -0.004088
    21  C   -0.000024   0.000000  -0.009269  -0.046008  -0.038552   0.004966
    22  H   -0.000001   0.000000   0.000025   0.011826  -0.006175  -0.000251
    23  H    0.000000   0.000000   0.000754   0.002371   0.004125  -0.000109
    24  H    0.000012   0.000000   0.000659  -0.002023  -0.000466  -0.000049
    25  C   -0.000003   0.000000  -0.004753   0.000586  -0.052563   0.001560
    26  O    0.000000   0.000000  -0.000088   0.000006   0.002904  -0.000024
    27  N    0.000001   0.000000   0.007364  -0.000936  -0.013509   0.000480
    28  H   -0.000005  -0.000004  -0.000129  -0.001005   0.021937   0.000832
    29  C    0.000000   0.000000  -0.000055  -0.000005   0.000558  -0.000007
    30  H    0.000000   0.000000   0.000011   0.000000  -0.000059  -0.000010
    31  C    0.000000   0.000000  -0.000045   0.000000   0.000007   0.000003
    32  H    0.000000   0.000000   0.000046   0.000015  -0.000027  -0.000001
    33  H    0.000000   0.000000   0.000000   0.000000   0.000000   0.000000
    34  H    0.000000   0.000000  -0.000005   0.000002  -0.000020   0.000000
    35  C    0.000000   0.000000  -0.000042   0.000001  -0.000133   0.000006
    36  O    0.000000   0.000000  -0.000056   0.000001  -0.000090   0.000005
    37  N    0.000000   0.000000   0.000000   0.000000   0.000000   0.000000
    38  H    0.000000   0.000000   0.000000   0.000000   0.000000   0.000000
    39  C    0.000000   0.000000   0.000000   0.000000   0.000000   0.000000
    40  H    0.000000   0.000000   0.000000   0.000000   0.000000   0.000000
    41  H    0.000000   0.000000   0.000000   0.000000   0.000000   0.000000
    42  H    0.000000   0.000000   0.000000   0.000000   0.000000   0.000000
             19         20         21         22         23         24
     1  H    0.000000   0.000000   0.000000   0.000000   0.000000   0.000000
     2  C    0.000000   0.000000   0.000000   0.000000   0.000000   0.000000
     3  H    0.000000   0.000000   0.000000   0.000000   0.000000   0.000000
     4  H    0.000000   0.000000   0.000000   0.000000   0.000000   0.000000
     5  C    0.000001   0.000000   0.000000   0.000000   0.000000   0.000000
     6  O    0.000000   0.000000   0.000000   0.000000   0.000000   0.000000
     7  N   -0.000050   0.000001   0.000006  -0.000005   0.000000   0.000003
     8  H   -0.000004   0.000000   0.000048   0.000008  -0.000001   0.000002
     9  C    0.003061  -0.000160  -0.000408   0.000524   0.000023  -0.000248
    10  H   -0.000220  -0.000001   0.000010  -0.000024   0.000000   0.000000
    11  C    0.000498   0.000027  -0.000130  -0.000003  -0.000001   0.000066
    12  H   -0.000066   0.000001   0.000009  -0.000010   0.000000   0.000044
    13  H    0.000261   0.000009  -0.000024  -0.000001   0.000000   0.000012
    14  H    0.000001  -0.000001   0.000000   0.000000   0.000000   0.000000
    15  C   -0.023318   0.003951  -0.009269   0.000025   0.000754   0.000659
    16  O   -0.001037   0.000010  -0.046008   0.011826   0.002371  -0.002023
    17  N    0.176004  -0.040146  -0.038552  -0.006175   0.004125  -0.000466
    18  H   -0.028938  -0.004088   0.004966  -0.000251  -0.000109  -0.000049
    19  C    5.134925   0.375541   0.362635  -0.027742  -0.030333  -0.034884
    20  H    0.375541   0.562807  -0.034752   0.004620  -0.002492  -0.005063
    21  C    0.362635  -0.034752   5.171774   0.372501   0.348437   0.369837
    22  H   -0.027742   0.004620   0.372501   0.473102  -0.019735  -0.026299
    23  H   -0.030333  -0.002492   0.348437  -0.019735   0.557575  -0.027916
    24  H   -0.034884  -0.005063   0.369837  -0.026299  -0.027916   0.581145
    25  C    0.344115  -0.035561  -0.038686  -0.005238  -0.005563   0.005835
    26  O   -0.078098   0.001276  -0.002912  -0.000331   0.010055   0.000203
    27  N   -0.120294   0.002344  -0.001869   0.001708   0.000579  -0.000111
    28  H   -0.009781   0.000269   0.000642  -0.000071  -0.000052  -0.000018
    29  C    0.007472  -0.000212  -0.000109  -0.000079  -0.000016   0.000002
    30  H    0.000137   0.000037  -0.000025   0.000003  -0.000001   0.000000
    31  C   -0.000967  -0.000006   0.000067   0.000025   0.000016   0.000000
    32  H    0.000079   0.000002  -0.000031   0.000048  -0.000002   0.000000
    33  H    0.000012   0.000000  -0.000001   0.000000   0.000000   0.000000
    34  H    0.000403  -0.000006   0.000023  -0.000008  -0.000012   0.000001
    35  C    0.000068  -0.000002   0.000000  -0.000002   0.000000   0.000000
    36  O   -0.000022   0.000000   0.000000   0.000000   0.000000   0.000000
    37  N    0.000001   0.000000   0.000000   0.000000   0.000000   0.000000
    38  H    0.000000   0.000000   0.000000   0.000000   0.000000   0.000000
    39  C    0.000000   0.000000   0.000000   0.000000   0.000000   0.000000
    40  H    0.000000   0.000000   0.000000   0.000000   0.000000   0.000000
    41  H    0.000000   0.000000   0.000000   0.000000   0.000000   0.000000
    42  H    0.000000   0.000000   0.000000   0.000000   0.000000   0.000000
             25         26         27         28         29         30
     1  H    0.000000   0.000000   0.000000   0.000000   0.000000   0.000000
     2  C    0.000000   0.000000   0.000000   0.000000   0.000000   0.000000
     3  H    0.000000   0.000000   0.000000   0.000000   0.000000   0.000000
     4  H    0.000000   0.000000   0.000000   0.000000   0.000000   0.000000
     5  C    0.000000   0.000000   0.000000  -0.000003   0.000000   0.000000
     6  O    0.000000   0.000000   0.000000   0.000000   0.000000   0.000000
     7  N    0.000000   0.000000   0.000003  -0.000022   0.000000   0.000000
     8  H   -0.000001   0.000000  -0.000001   0.000013   0.000000   0.000000
     9  C   -0.000155   0.000001  -0.000403   0.000092   0.000004   0.000000
    10  H    0.000017   0.000000  -0.000105   0.001545  -0.000021   0.000000
    11  C   -0.000013   0.000000   0.000018  -0.000041   0.000000   0.000000
    12  H    0.000002   0.000000  -0.000001   0.000005   0.000000   0.000000
    13  H   -0.000003   0.000000   0.000001  -0.000005   0.000000   0.000000
    14  H    0.000000   0.000000   0.000000  -0.000004   0.000000   0.000000
    15  C   -0.004753  -0.000088   0.007364  -0.000129  -0.000055   0.000011
    16  O    0.000586   0.000006  -0.000936  -0.001005  -0.000005   0.000000
    17  N   -0.052563   0.002904  -0.013509   0.021937   0.000558  -0.000059
    18  H    0.001560  -0.000024   0.000480   0.000832  -0.000007  -0.000010
    19  C    0.344115  -0.078098  -0.120294  -0.009781   0.007472   0.000137
    20  H   -0.035561   0.001276   0.002344   0.000269  -0.000212   0.000037
    21  C   -0.038686  -0.002912  -0.001869   0.000642  -0.000109  -0.000025
    22  H   -0.005238  -0.000331   0.001708  -0.000071  -0.000079   0.000003
    23  H   -0.005563   0.010055   0.000579  -0.000052  -0.000016  -0.000001
    24  H    0.005835   0.000203  -0.000111  -0.000018   0.000002   0.000000
    25  C    4.359313   0.549144   0.287396  -0.015783  -0.025667  -0.001411
    26  O    0.549144   8.141056  -0.101183   0.003095   0.011132   0.004902
    27  N    0.287396  -0.101183   7.175367   0.270965   0.251402  -0.048898
    28  H   -0.015783   0.003095   0.270965   0.385455  -0.053355   0.003705
    29  C   -0.025667   0.011132   0.251402  -0.053355   5.091739   0.370141
    30  H   -0.001411   0.004902  -0.048898   0.003705   0.370141   0.583495
    31  C   -0.004853  -0.016875  -0.055264   0.004701   0.347032  -0.049372
    32  H    0.000629  -0.000177  -0.000145   0.000522  -0.036987   0.006145
    33  H    0.000290   0.000300   0.005189  -0.000129  -0.036088  -0.000297
    34  H    0.002863   0.021898  -0.009844  -0.000331  -0.021731  -0.005997
    35  C    0.005658   0.000677  -0.025081   0.000894   0.310426  -0.034426
    36  O    0.000619  -0.000004  -0.010656   0.035189  -0.088295   0.001316
    37  N   -0.000068  -0.000001   0.003239   0.001326  -0.120920   0.001046
    38  H    0.000001   0.000003   0.000073  -0.000059   0.000713   0.001062
    39  C    0.000001   0.000000  -0.000067  -0.000012   0.005803  -0.000272
    40  H    0.000000   0.000000   0.000001  -0.000035   0.001179  -0.000035
    41  H    0.000000   0.000000   0.000000   0.000000  -0.000195   0.000021
    42  H    0.000000   0.000000   0.000002   0.000000  -0.000031  -0.000006
             31         32         33         34         35         36
     1  H    0.000000   0.000000   0.000000   0.000000   0.000000   0.000000
     2  C    0.000000   0.000000   0.000000   0.000000   0.000000   0.000000
     3  H    0.000000   0.000000   0.000000   0.000000   0.000000   0.000000
     4  H    0.000000   0.000000   0.000000   0.000000   0.000000   0.000000
     5  C    0.000000   0.000000   0.000000   0.000000   0.000000   0.000000
     6  O    0.000000   0.000000   0.000000   0.000000   0.000000   0.000000
     7  N    0.000000   0.000000   0.000000   0.000000   0.000000   0.000000
     8  H    0.000000   0.000000   0.000000   0.000000   0.000000   0.000000
     9  C    0.000000   0.000000   0.000000   0.000000   0.000000  -0.000057
    10  H    0.000000   0.000000   0.000000   0.000000   0.000021   0.000405
    11  C    0.000000   0.000000   0.000000   0.000000   0.000000   0.000000
    12  H    0.000000   0.000000   0.000000   0.000000   0.000000   0.000000
    13  H    0.000000   0.000000   0.000000   0.000000   0.000000   0.000000
    14  H    0.000000   0.000000   0.000000   0.000000   0.000000   0.000000
    15  C   -0.000045   0.000046   0.000000  -0.000005  -0.000042  -0.000056
    16  O    0.000000   0.000015   0.000000   0.000002   0.000001   0.000001
    17  N    0.000007  -0.000027   0.000000  -0.000020  -0.000133  -0.000090
    18  H    0.000003  -0.000001   0.000000   0.000000   0.000006   0.000005
    19  C   -0.000967   0.000079   0.000012   0.000403   0.000068  -0.000022
    20  H   -0.000006   0.000002   0.000000  -0.000006  -0.000002   0.000000
    21  C    0.000067  -0.000031  -0.000001   0.000023   0.000000   0.000000
    22  H    0.000025   0.000048   0.000000  -0.000008  -0.000002   0.000000
    23  H    0.000016  -0.000002   0.000000  -0.000012   0.000000   0.000000
    24  H    0.000000   0.000000   0.000000   0.000001   0.000000   0.000000
    25  C   -0.004853   0.000629   0.000290   0.002863   0.005658   0.000619
    26  O   -0.016875  -0.000177   0.000300   0.021898   0.000677  -0.000004
    27  N   -0.055264  -0.000145   0.005189  -0.009844  -0.025081  -0.010656
    28  H    0.004701   0.000522  -0.000129  -0.000331   0.000894   0.035189
    29  C    0.347032  -0.036987  -0.036088  -0.021731   0.310426  -0.088295
    30  H   -0.049372   0.006145  -0.000297  -0.005997  -0.034426   0.001316
    31  C    5.193840   0.370091   0.352493   0.362516  -0.044005  -0.000679
    32  H    0.370091   0.552478  -0.026774  -0.025277  -0.002866   0.000975
    33  H    0.352493  -0.026774   0.603070  -0.021897  -0.008411  -0.000027
    34  H    0.362516  -0.025277  -0.021897   0.482289   0.003761  -0.000089
    35  C   -0.044005  -0.002866  -0.008411   0.003761   4.364347   0.595443
    36  O   -0.000679   0.000975  -0.000027  -0.000089   0.595443   8.090645
    37  N    0.002344  -0.000430   0.003456   0.000222   0.272817  -0.101311
    38  H    0.000678  -0.000105   0.007061  -0.000196  -0.021448   0.003599
    39  C    0.000011  -0.000072   0.000086   0.000005  -0.024436  -0.008985
    40  H   -0.000071  -0.000007  -0.000006   0.000001  -0.001329   0.020845
    41  H   -0.000005   0.000001   0.000004   0.000000   0.001284   0.000566
    42  H    0.000012   0.000002   0.000001  -0.000002   0.001381   0.000569
             37         38         39         40         41         42
     1  H    0.000000   0.000000   0.000000   0.000000   0.000000   0.000000
     2  C    0.000000   0.000000   0.000000   0.000000   0.000000   0.000000
     3  H    0.000000   0.000000   0.000000   0.000000   0.000000   0.000000
     4  H    0.000000   0.000000   0.000000   0.000000   0.000000   0.000000
     5  C    0.000000   0.000000   0.000000   0.000000   0.000000   0.000000
     6  O    0.000000   0.000000   0.000000   0.000000   0.000000   0.000000
     7  N    0.000000   0.000000   0.000000   0.000000   0.000000   0.000000
     8  H    0.000000   0.000000   0.000000   0.000000   0.000000   0.000000
     9  C    0.000000   0.000000   0.000000   0.000000   0.000000   0.000000
    10  H    0.000000   0.000000   0.000000   0.000000   0.000000   0.000000
    11  C    0.000000   0.000000   0.000000   0.000000   0.000000   0.000000
    12  H    0.000000   0.000000   0.000000   0.000000   0.000000   0.000000
    13  H    0.000000   0.000000   0.000000   0.000000   0.000000   0.000000
    14  H    0.000000   0.000000   0.000000   0.000000   0.000000   0.000000
    15  C    0.000000   0.000000   0.000000   0.000000   0.000000   0.000000
    16  O    0.000000   0.000000   0.000000   0.000000   0.000000   0.000000
    17  N    0.000000   0.000000   0.000000   0.000000   0.000000   0.000000
    18  H    0.000000   0.000000   0.000000   0.000000   0.000000   0.000000
    19  C    0.000001   0.000000   0.000000   0.000000   0.000000   0.000000
    20  H    0.000000   0.000000   0.000000   0.000000   0.000000   0.000000
    21  C    0.000000   0.000000   0.000000   0.000000   0.000000   0.000000
    22  H    0.000000   0.000000   0.000000   0.000000   0.000000   0.000000
    23  H    0.000000   0.000000   0.000000   0.000000   0.000000   0.000000
    24  H    0.000000   0.000000   0.000000   0.000000   0.000000   0.000000
    25  C   -0.000068   0.000001   0.000001   0.000000   0.000000   0.000000
    26  O   -0.000001   0.000003   0.000000   0.000000   0.000000   0.000000
    27  N    0.003239   0.000073  -0.000067   0.000001   0.000000   0.000002
    28  H    0.001326  -0.000059  -0.000012  -0.000035   0.000000   0.000000
    29  C   -0.120920   0.000713   0.005803   0.001179  -0.000195  -0.000031
    30  H    0.001046   0.001062  -0.000272  -0.000035   0.000021  -0.000006
    31  C    0.002344   0.000678   0.000011  -0.000071  -0.000005   0.000012
    32  H   -0.000430  -0.000105  -0.000072  -0.000007   0.000001   0.000002
    33  H    0.003456   0.007061   0.000086  -0.000006   0.000004   0.000001
    34  H    0.000222  -0.000196   0.000005   0.000001   0.000000  -0.000002
    35  C    0.272817  -0.021448  -0.024436  -0.001329   0.001284   0.001381
    36  O   -0.101311   0.003599  -0.008985   0.020845   0.000566   0.000569
    37  N    7.082078   0.303367   0.265342  -0.036571  -0.043262  -0.044190
    38  H    0.303367   0.400689  -0.030615   0.003668  -0.001463  -0.000231
[...]
    32  H    0.000000   0.000000   0.000018   0.000014  -0.000012   0.000000
    33  H    0.000000   0.000000   0.000000   0.000000   0.000000   0.000000
    34  H    0.000000   0.000000  -0.000002   0.000001  -0.000011   0.000000
    35  C    0.000000   0.000000  -0.000023   0.000000  -0.000077   0.000005
    36  O    0.000000   0.000000  -0.000049   0.000001  -0.000068   0.000008
    37  N    0.000000   0.000000   0.000000   0.000000   0.000000   0.000000
    38  H    0.000000   0.000000   0.000000   0.000000   0.000000   0.000000
    39  C    0.000000   0.000000   0.000000   0.000000   0.000000   0.000000
    40  H    0.000000   0.000000   0.000000   0.000000   0.000000   0.000000
    41  H    0.000000   0.000000   0.000000   0.000000   0.000000   0.000000
    42  H    0.000000   0.000000   0.000000   0.000000   0.000000   0.000000
             19         20         21         22         23         24
     1  H    0.000000   0.000000   0.000000   0.000000   0.000000   0.000000
     2  C    0.000000   0.000000   0.000000   0.000000   0.000000   0.000000
     3  H    0.000000   0.000000   0.000000   0.000000   0.000000   0.000000
     4  H    0.000000   0.000000   0.000000   0.000000   0.000000   0.000000
     5  C    0.000001   0.000000   0.000000   0.000000   0.000000   0.000000
     6  O    0.000000   0.000000   0.000000   0.000000   0.000000   0.000000
     7  N   -0.000072   0.000000   0.000001  -0.000001   0.000000   0.000002
     8  H   -0.000024   0.000000   0.000008  -0.000012   0.000000   0.000000
     9  C    0.004787  -0.000146  -0.000296   0.000342   0.000008  -0.000153
    10  H    0.000070  -0.000011   0.000002  -0.000006   0.000000  -0.000001
    11  C   -0.000387   0.000025  -0.000003  -0.000016  -0.000001   0.000093
    12  H    0.000012  -0.000001   0.000011  -0.000009   0.000000   0.000039
    13  H   -0.000033  -0.000016  -0.000024  -0.000003   0.000000   0.000080
    14  H    0.000004   0.000000   0.000000   0.000000   0.000000   0.000000
    15  C   -0.020374   0.004815  -0.005238   0.003323   0.000300   0.000141
    16  O    0.005946   0.000090  -0.007753   0.012678   0.000301  -0.000352
    17  N    0.178445  -0.039925  -0.044342  -0.006856   0.003959   0.000981
    18  H   -0.025786  -0.006318   0.003683  -0.000106  -0.000128   0.000150
    19  C    5.102640   0.370495   0.366488  -0.029082  -0.030703  -0.031911
    20  H    0.370495   0.577601  -0.037103   0.004774  -0.001735  -0.005349
    21  C    0.366488  -0.037103   5.122079   0.373079   0.361431   0.365771
    22  H   -0.029082   0.004774   0.373079   0.500438  -0.020724  -0.028909
    23  H   -0.030703  -0.001735   0.361431  -0.020724   0.525977  -0.026521
    24  H   -0.031911  -0.005349   0.365771  -0.028909  -0.026521   0.579150
    25  C    0.334197  -0.037964  -0.037341  -0.004624  -0.004062   0.004763
    26  O   -0.078038   0.001521  -0.003762   0.000184   0.011687   0.000168
    27  N   -0.110417   0.001708   0.000283   0.000759   0.000525  -0.000091
    28  H   -0.006156   0.000260   0.000331   0.000001  -0.000038  -0.000011
    29  C    0.007148  -0.000236  -0.000080  -0.000039  -0.000017   0.000002
    30  H    0.000431   0.000027  -0.000024   0.000000  -0.000003   0.000000
    31  C   -0.000499  -0.000006   0.000030   0.000008   0.000006   0.000000
    32  H    0.000024   0.000001  -0.000005   0.000003   0.000000   0.000000
    33  H    0.000006   0.000000  -0.000001   0.000000   0.000000   0.000000
    34  H    0.000111   0.000000   0.000015   0.000000  -0.000009   0.000000
    35  C    0.000017   0.000000   0.000000   0.000000   0.000000   0.000000
    36  O   -0.000033   0.000000   0.000000   0.000000   0.000000   0.000000
    37  N    0.000001   0.000000   0.000000   0.000000   0.000000   0.000000
    38  H    0.000000   0.000000   0.000000   0.000000   0.000000   0.000000
    39  C    0.000000   0.000000   0.000000   0.000000   0.000000   0.000000
    40  H    0.000000   0.000000   0.000000   0.000000   0.000000   0.000000
    41  H    0.000000   0.000000   0.000000   0.000000   0.000000   0.000000
    42  H    0.000000   0.000000   0.000000   0.000000   0.000000   0.000000
             25         26         27         28         29         30
     1  H    0.000000   0.000000   0.000000   0.000000   0.000000   0.000000
     2  C    0.000000   0.000000   0.000000   0.000000   0.000000   0.000000
     3  H    0.000000   0.000000   0.000000   0.000000   0.000000   0.000000
     4  H    0.000000   0.000000   0.000000   0.000000   0.000000   0.000000
     5  C    0.000000   0.000000   0.000000   0.000000   0.000000   0.000000
     6  O    0.000000   0.000000   0.000000   0.000000   0.000000   0.000000
     7  N    0.000003   0.000000   0.000001  -0.000013   0.000000   0.000000
     8  H    0.000000   0.000000   0.000000   0.000008   0.000000   0.000000
     9  C   -0.000124   0.000000  -0.000061  -0.000040   0.000001   0.000000
    10  H   -0.000014   0.000000   0.000002   0.000095  -0.000001   0.000000
    11  C    0.000001   0.000000   0.000000   0.000012   0.000000   0.000000
    12  H    0.000000   0.000000   0.000000   0.000000   0.000000   0.000000
    13  H    0.000005   0.000000   0.000000  -0.000001   0.000000   0.000000
    14  H    0.000000   0.000000   0.000000   0.000000   0.000000   0.000000
    15  C   -0.003649   0.000005   0.003385   0.002467  -0.000046   0.000002
    16  O    0.000761   0.000003  -0.000824  -0.000130  -0.000010   0.000000
    17  N   -0.043104   0.002353  -0.003167   0.014104   0.000078  -0.000051
    18  H    0.001780  -0.000043   0.000116   0.000021   0.000002   0.000000
    19  C    0.334197  -0.078038  -0.110417  -0.006156   0.007148   0.000431
    20  H   -0.037964   0.001521   0.001708   0.000260  -0.000236   0.000027
    21  C   -0.037341  -0.003762   0.000283   0.000331  -0.000080  -0.000024
    22  H   -0.004624   0.000184   0.000759   0.000001  -0.000039   0.000000
    23  H   -0.004062   0.011687   0.000525  -0.000038  -0.000017  -0.000003
    24  H    0.004763   0.000168  -0.000091  -0.000011   0.000002   0.000000
    25  C    4.353650   0.549453   0.290029  -0.014388  -0.023194  -0.000354
    26  O    0.549453   8.130539  -0.095995   0.002527   0.007855   0.010342
    27  N    0.290029  -0.095995   7.148084   0.275033   0.256112  -0.051754
    28  H   -0.014388   0.002527   0.275033   0.371108  -0.051637   0.004390
    29  C   -0.023194   0.007855   0.256112  -0.051637   5.085727   0.369013
    30  H   -0.000354   0.010342  -0.051754   0.004390   0.369013   0.576359
    31  C   -0.004522  -0.005486  -0.054515   0.003306   0.350418  -0.047255
    32  H    0.000339  -0.000017  -0.000852   0.001027  -0.033722   0.005386
    33  H    0.000059  -0.000001   0.004920  -0.000105  -0.030175  -0.000178
    34  H    0.004158   0.008579  -0.008964  -0.000292  -0.022575  -0.004900
    35  C    0.005298   0.000523  -0.028847  -0.002310   0.304502  -0.034692
    36  O    0.000684  -0.000005  -0.014367   0.039278  -0.082860   0.001989
    37  N   -0.000075  -0.000001   0.002748   0.001583  -0.111368   0.001814
    38  H   -0.000004   0.000001   0.000050  -0.000070   0.001725   0.001998
    39  C    0.000001   0.000000  -0.000095  -0.000013   0.005731  -0.000108
    40  H    0.000000   0.000000   0.000005  -0.000042   0.001104  -0.000034
    41  H    0.000000   0.000000   0.000003   0.000000  -0.000154   0.000003
    42  H    0.000000   0.000000   0.000000   0.000000  -0.000097  -0.000006
             31         32         33         34         35         36
     1  H    0.000000   0.000000   0.000000   0.000000   0.000000   0.000000
     2  C    0.000000   0.000000   0.000000   0.000000   0.000000   0.000000
     3  H    0.000000   0.000000   0.000000   0.000000   0.000000   0.000000
     4  H    0.000000   0.000000   0.000000   0.000000   0.000000   0.000000
     5  C    0.000000   0.000000   0.000000   0.000000   0.000000   0.000000
     6  O    0.000000   0.000000   0.000000   0.000000   0.000000   0.000000
     7  N    0.000000   0.000000   0.000000   0.000000   0.000000   0.000000
     8  H    0.000000   0.000000   0.000000   0.000000   0.000000   0.000000
     9  C    0.000000   0.000000   0.000000   0.000000   0.000000   0.000000
    10  H    0.000000   0.000000   0.000000   0.000000   0.000001   0.000008
    11  C    0.000000   0.000000   0.000000   0.000000   0.000000   0.000000
    12  H    0.000000   0.000000   0.000000   0.000000   0.000000   0.000000
    13  H    0.000000   0.000000   0.000000   0.000000   0.000000   0.000000
    14  H    0.000000   0.000000   0.000000   0.000000   0.000000   0.000000
    15  C   -0.000013   0.000018   0.000000  -0.000002  -0.000023  -0.000049
    16  O    0.000003   0.000014   0.000000   0.000001   0.000000   0.000001
    17  N    0.000007  -0.000012   0.000000  -0.000011  -0.000077  -0.000068
    18  H    0.000001   0.000000   0.000000   0.000000   0.000005   0.000008
    19  C   -0.000499   0.000024   0.000006   0.000111   0.000017  -0.000033
    20  H   -0.000006   0.000001   0.000000   0.000000   0.000000   0.000000
    21  C    0.000030  -0.000005  -0.000001   0.000015   0.000000   0.000000
    22  H    0.000008   0.000003   0.000000   0.000000   0.000000   0.000000
    23  H    0.000006   0.000000   0.000000  -0.000009   0.000000   0.000000
    24  H    0.000000   0.000000   0.000000   0.000000   0.000000   0.000000
    25  C   -0.004522   0.000339   0.000059   0.004158   0.005298   0.000684
    26  O   -0.005486  -0.000017  -0.000001   0.008579   0.000523  -0.000005
    27  N   -0.054515  -0.000852   0.004920  -0.008964  -0.028847  -0.014367
    28  H    0.003306   0.001027  -0.000105  -0.000292  -0.002310   0.039278
    29  C    0.350418  -0.033722  -0.030175  -0.022575   0.304502  -0.082860
    30  H   -0.047255   0.005386  -0.000178  -0.004900  -0.034692   0.001989
    31  C    5.141858   0.372054   0.355432   0.370214  -0.035724  -0.001813
    32  H    0.372054   0.547001  -0.027566  -0.026507  -0.003971   0.001599
    33  H    0.355432  -0.027566   0.587369  -0.026201  -0.003244  -0.000019
    34  H    0.370214  -0.026507  -0.026201   0.511081   0.003624  -0.000079
    35  C   -0.035724  -0.003971  -0.003244   0.003624   4.372553   0.578075
    36  O   -0.001813   0.001599  -0.000019  -0.000079   0.578075   8.082390
    37  N    0.000381  -0.000003   0.003353   0.000027   0.282482  -0.092744
    38  H    0.000315  -0.000023   0.002063  -0.000080  -0.021665   0.003323
    39  C   -0.000235  -0.000004  -0.000060   0.000005  -0.022929  -0.007590
    40  H   -0.000041  -0.000008  -0.000001   0.000001  -0.001231   0.019805
    41  H   -0.000005   0.000000   0.000004   0.000000   0.000631   0.000419
    42  H    0.000038  -0.000001  -0.000014  -0.000001   0.001602   0.000446
             37         38         39         40         41         42
     1  H    0.000000   0.000000   0.000000   0.000000   0.000000   0.000000
     2  C    0.000000   0.000000   0.000000   0.000000   0.000000   0.000000
     3  H    0.000000   0.000000   0.000000   0.000000   0.000000   0.000000
     4  H    0.000000   0.000000   0.000000   0.000000   0.000000   0.000000
     5  C    0.000000   0.000000   0.000000   0.000000   0.000000   0.000000
     6  O    0.000000   0.000000   0.000000   0.000000   0.000000   0.000000
     7  N    0.000000   0.000000   0.000000   0.000000   0.000000   0.000000
     8  H    0.000000   0.000000   0.000000   0.000000   0.000000   0.000000
     9  C    0.000000   0.000000   0.000000   0.000000   0.000000   0.000000
    10  H    0.000000   0.000000   0.000000   0.000000   0.000000   0.000000
    11  C    0.000000   0.000000   0.000000   0.000000   0.000000   0.000000
    12  H    0.000000   0.000000   0.000000   0.000000   0.000000   0.000000
    13  H    0.000000   0.000000   0.000000   0.000000   0.000000   0.000000
    14  H    0.000000   0.000000   0.000000   0.000000   0.000000   0.000000
    15  C    0.000000   0.000000   0.000000   0.000000   0.000000   0.000000
    16  O    0.000000   0.000000   0.000000   0.000000   0.000000   0.000000
    17  N    0.000000   0.000000   0.000000   0.000000   0.000000   0.000000
    18  H    0.000000   0.000000   0.000000   0.000000   0.000000   0.000000
    19  C    0.000001   0.000000   0.000000   0.000000   0.000000   0.000000
    20  H    0.000000   0.000000   0.000000   0.000000   0.000000   0.000000
    21  C    0.000000   0.000000   0.000000   0.000000   0.000000   0.000000
    22  H    0.000000   0.000000   0.000000   0.000000   0.000000   0.000000
    23  H    0.000000   0.000000   0.000000   0.000000   0.000000   0.000000
    24  H    0.000000   0.000000   0.000000   0.000000   0.000000   0.000000
    25  C   -0.000075  -0.000004   0.000001   0.000000   0.000000   0.000000
    26  O   -0.000001   0.000001   0.000000   0.000000   0.000000   0.000000
    27  N    0.002748   0.000050  -0.000095   0.000005   0.000003   0.000000
    28  H    0.001583  -0.000070  -0.000013  -0.000042   0.000000   0.000000
    29  C   -0.111368   0.001725   0.005731   0.001104  -0.000154  -0.000097
    30  H    0.001814   0.001998  -0.000108  -0.000034   0.000003  -0.000006
    31  C    0.000381   0.000315  -0.000235  -0.000041  -0.000005   0.000038
    32  H   -0.000003  -0.000023  -0.000004  -0.000008   0.000000  -0.000001
    33  H    0.003353   0.002063  -0.000060  -0.000001   0.000004  -0.000014
    34  H    0.000027  -0.000080   0.000005   0.000001   0.000000  -0.000001
    35  C    0.282482  -0.021665  -0.022929  -0.001231   0.000631   0.001602
    36  O   -0.092744   0.003323  -0.007590   0.019805   0.000419   0.000446
    37  N    7.054487   0.305918   0.265242  -0.039203  -0.040586  -0.041149
    38  H    0.305918   0.404470  -0.031640   0.004015  -0.000969  -0.000822
    39  C    0.265242  -0.031640   4.963855   0.378042   0.382345   0.381182
    40  H   -0.039203   0.004015   0.378042   0.477462  -0.024433  -0.024062
    41  H   -0.040586  -0.000969   0.382345  -0.024433   0.559186  -0.039571
    42  H   -0.041149  -0.000822   0.381182  -0.024062  -0.039571   0.559658
 Mulliken atomic charges:
              1
     1  H    0.183518
     2  C   -0.533422
     3  H    0.148079
     4  H    0.181831
     5  C    0.599121
     6  O   -0.524001
     7  N   -0.605455
     8  H    0.346685
     9  C   -0.034619
    10  H    0.174366
    11  C   -0.445505
    12  H    0.158496
    13  H    0.132483
    14  H    0.194039
    15  C    0.607946
    16  O   -0.521390
    17  N   -0.640135
    18  H    0.338661
    19  C   -0.037308
    20  H    0.167494
    21  C   -0.457241
    22  H    0.194796
    23  H    0.179747
    24  H    0.141956
    25  C    0.628240
    26  O   -0.542393
    27  N   -0.613813
    28  H    0.359693
    29  C   -0.033207
    30  H    0.167603
    31  C   -0.443957
    32  H    0.165225
    33  H    0.134358
    34  H    0.191804
    35  C    0.605400
    36  O   -0.528399
    37  N   -0.592908
    38  H    0.331394
    39  C   -0.313728
    40  H    0.208623
    41  H    0.163127
    42  H    0.162798
 Sum of Mulliken atomic charges =   0.00000
 Mulliken charges with hydrogens summed into heavy atoms:
              1
     2  C   -0.019994
     5  C    0.599121
     6  O   -0.524001
     7  N   -0.258770
     9  C    0.139747
    11  C    0.039513
    15  C    0.607946
    16  O   -0.521390
    17  N   -0.301475
    19  C    0.130186
    21  C    0.059258
    25  C    0.628240
    26  O   -0.542393
    27  N   -0.254120
    29  C    0.134396
    31  C    0.047430
    35  C    0.605400
    36  O   -0.528399
    37  N   -0.261514
    39  C    0.220820
 Sum of Mulliken charges with hydrogens summed into heavy atoms =   0.00000
 Electronic spatial extent (au):  <R**2>=           7916.1351
 Charge=              0.0000 electrons
 Dipole moment (field-independent basis, Debye):
    X=              3.5049    Y=             -0.7076    Z=             -0.3524  Tot=              3.5930
 Quadrupole moment (field-independent basis, Debye-Ang):
   XX=           -107.4695   YY=           -124.3049   ZZ=           -116.1828
   XY=            -24.5332   XZ=             -7.3163   YZ=            -11.6569
 Traceless Quadrupole moment (field-independent basis, Debye-Ang):
   XX=              8.5162   YY=             -8.3191   ZZ=             -0.1971
   XY=            -24.5332   XZ=             -7.3163   YZ=            -11.6569
 Octapole moment (field-independent basis, Debye-Ang**2):
  XXX=            153.4981  YYY=            -33.8563  ZZZ=             -8.7186  XYY=              8.9753
  XXY=            -53.7040  XXZ=             40.4328  XZZ=              4.0348  YZZ=              4.6111
  YYZ=              3.5267  XYZ=             35.1903
 Hexadecapole moment (field-independent basis, Debye-Ang**3):
 XXXX=          -6050.1010 YYYY=          -2985.5670 ZZZZ=           -660.5726 XXXY=           -454.6782
 XXXZ=           -225.5148 YYYX=           -206.2635 YYYZ=            -20.6062 ZZZX=             -9.7217
 ZZZY=             -7.9441 XXYY=          -1615.0485 XXZZ=          -1204.4628 YYZZ=           -611.1088
 XXYZ=            -97.8020 YYXZ=            -82.9812 ZZXY=             -4.7531
 N-N= 1.635061831066D+03 E-N=-5.579594080241D+03  KE= 9.813261718718D+02
 1\1\GINC-NODE007\FOpt\RB3LYP\6-31G(d)\C12H22N4O4\MANAGER\30-Dec-2016\0
 \\# b3lyp/6-31G* Opt=(ModRedundant, maxcycles=1000, calcfc) geom=nocro
 wd\\Phi Psi fixed scan\\0,1\H,7.2305430403,1.6596740644,3.7895404577\C
 ,6.2270132605,2.0972369809,3.7927038056\H,6.1843796378,2.8827188608,4.
 5534275778\H,5.5252661439,1.301478647,4.0598608433\C,5.9021340582,2.58
 78980197,2.3896933797\O,5.8446856742,1.8264004606,1.4280921677\N,5.680
 0458204,3.9273909309,2.2728692711\H,5.7889849982,4.565405148,3.0524737
 338\C,5.439985625,4.5557376844,0.9900518887\H,6.1158205561,4.102805101
 3,0.2530484026\C,3.9884765073,4.3533460152,0.5095445732\H,3.2845395979
 ,4.8031098723,1.2174909178\H,3.825638853,4.802582289,-0.4770159478\H,3
 .7900760823,3.2812000645,0.4394568702\C,5.764520847,6.0506964653,1.153
 8054799\O,5.8319655942,6.5735033208,2.2618743953\N,5.9645166268,6.7221
 775823,-0.019442176\H,5.8790918287,6.1779964787,-0.8673200815\C,6.0085
 157174,8.1833648182,-0.1869405751\H,5.7601553648,8.3552539169,-1.24143
 21731\C,4.9840028092,8.9538139772,0.6561264364\H,5.1657820291,8.813661
 8319,1.7219449254\H,5.0711582975,10.0142706857,0.4103612377\H,3.970243
 7931,8.6121959802,0.4230180588\C,7.4186616946,8.7982402001,-0.03103126
 57\O,7.5760163821,10.0080907902,-0.1818195208\N,8.4284945425,7.9409822
 562,0.2357194085\H,8.2690411854,6.9452602485,0.3327514048\C,9.80392969
 ,8.3787211528,0.363594712\H,10.0009509015,9.1193563779,-0.4217834524\C
 ,10.0761431703,9.0313615335,1.7335259002\H,9.8961367398,8.3137273084,2
 .5403115389\H,11.1097596025,9.3882140133,1.8075807686\H,9.4042819451,9
 .884070415,1.8581594864\C,10.6846153641,7.1361061641,0.1496537875\O,10
 .2228729394,6.0012240781,0.2417081742\N,11.9924792738,7.3967173631,-0.
 1149309592\H,12.2830457581,8.36067335,-0.1978746731\C,12.9880818375,6.
 3520986809,-0.2899029583\H,12.4834665038,5.3945237576,-0.157443319\H,1
 3.4273353681,6.3903230656,-1.2933306691\H,13.7893443383,6.4429900484,0
 .4523781673\\Version=EM64L-G09RevA.02\State=1-A\HF=-990.5024146\RMSD=7
 .869e-09\RMSF=4.759e-04\Dipole=1.1873028,0.6361254,-0.4287942\Quadrupo
 le=18.9106804,-22.8170559,3.9063754,4.087106,-0.7039926,-3.5532626\PG=
 C01 [X(C12H22N4O4)]\\@


 The earth never tires,
 The earth is rude, silent, incomprehensible at first,
 Nature is rude and incomprehensible at first,
 Be not discouraged, keep on,
 There are divine things well envelop'd,
 I swear to you there are divine things more beautiful than words can tell.
                                 -- Walt Whitman
 Job cpu time:  0 days  4 hours 22 minutes 37.5 seconds.
 File lengths (MBytes):  RWF=    608 Int=      0 D2E=      0 Chk=     11 Scr=      1
 Normal termination of Gaussian 09 at Fri Dec 30 08:58:38 2016.
