 Entering Gaussian System, Link 0=g09
 Initial command:
 /home/steboss/Software/g09/l1.exe /home/steboss/projects/phi_psi_scan/alanine/MP2/225/5401/Gau-18748.inp -scrdir=/home/steboss/projects/phi_psi_scan/alanine/MP2/225/5401/
 Entering Link 1 = /home/steboss/Software/g09/l1.exe PID=     18750.
  
 Copyright (c) 1988,1990,1992,1993,1995,1998,2003,2009, Gaussian, Inc.
                  All Rights Reserved.
  
 This is part of the Gaussian(R) 09 program.  It is based on
 the Gaussian(R) 03 system (copyright 2003, Gaussian, Inc.),
 the Gaussian(R) 98 system (copyright 1998, Gaussian, Inc.),
 the Gaussian(R) 94 system (copyright 1995, Gaussian, Inc.),
 the Gaussian 92(TM) system (copyright 1992, Gaussian, Inc.),
 the Gaussian 90(TM) system (copyright 1990, Gaussian, Inc.),
 the Gaussian 88(TM) system (copyright 1988, Gaussian, Inc.),
 the Gaussian 86(TM) system (copyright 1986, Carnegie Mellon
 University), and the Gaussian 82(TM) system (copyright 1983,
 Carnegie Mellon University). Gaussian is a federally registered
 trademark of Gaussian, Inc.
  
 This software contains proprietary and confidential information,
 including trade secrets, belonging to Gaussian, Inc.
  
 This software is provided under written license and may be
 used, copied, transmitted, or stored only in accord with that
 written license.
  
 The following legend is applicable only to US Government
 contracts under FAR:
  
                    RESTRICTED RIGHTS LEGEND
  
 Use, reproduction and disclosure by the US Government is
 subject to restrictions as set forth in subparagraphs (a)
 and (c) of the Commercial Computer Software - Restricted
 Rights clause in FAR 52.227-19.
  
 Gaussian, Inc.
 340 Quinnipiac St., Bldg. 40, Wallingford CT 06492
  
  
 ---------------------------------------------------------------
 Warning -- This program may not be used in any manner that
 competes with the business of Gaussian, Inc. or will provide
 assistance to any competitor of Gaussian, Inc.  The licensee
 of this program is prohibited from giving any competitor of
 Gaussian, Inc. access to this program.  By using this program,
 the user acknowledges that Gaussian, Inc. is engaged in the
 business of creating and licensing software in the field of
 computational chemistry and represents and warrants to the
 licensee that it is not a competitor of Gaussian, Inc. and that
 it will not use this program in any manner prohibited above.
 ---------------------------------------------------------------
  

 Cite this work as:
 Gaussian 09, Revision A.02,
 M. J. Frisch, G. W. Trucks, H. B. Schlegel, G. E. Scuseria, 
 M. A. Robb, J. R. Cheeseman, G. Scalmani, V. Barone, B. Mennucci, 
 G. A. Petersson, H. Nakatsuji, M. Caricato, X. Li, H. P. Hratchian, 
 A. F. Izmaylov, J. Bloino, G. Zheng, J. L. Sonnenberg, M. Hada, 
 M. Ehara, K. Toyota, R. Fukuda, J. Hasegawa, M. Ishida, T. Nakajima, 
 Y. Honda, O. Kitao, H. Nakai, T. Vreven, J. A. Montgomery, Jr., 
 J. E. Peralta, F. Ogliaro, M. Bearpark, J. J. Heyd, E. Brothers, 
 K. N. Kudin, V. N. Staroverov, R. Kobayashi, J. Normand, 
 K. Raghavachari, A. Rendell, J. C. Burant, S. S. Iyengar, J. Tomasi, 
 M. Cossi, N. Rega, J. M. Millam, M. Klene, J. E. Knox, J. B. Cross, 
 V. Bakken, C. Adamo, J. Jaramillo, R. Gomperts, R. E. Stratmann, 
 O. Yazyev, A. J. Austin, R. Cammi, C. Pomelli, J. W. Ochterski, 
 R. L. Martin, K. Morokuma, V. G. Zakrzewski, G. A. Voth, 
 P. Salvador, J. J. Dannenberg, S. Dapprich, A. D. Daniels, 
 O. Farkas, J. B. Foresman, J. V. Ortiz, J. Cioslowski, 
 and D. J. Fox, Gaussian, Inc., Wallingford CT, 2009.
 
 ******************************************
 Gaussian 09:  EM64L-G09RevA.02 11-Jun-2009
                13-Feb-2017 
 ******************************************
 %chk=structure_15.chk
 %NProcShared=8
 Will use up to    8 processors via shared memory.
 -------------------
 #SP MP2/aug-cc-pVDZ
 -------------------
 1/38=1/1;
 2/12=2,17=6,18=5,40=1/2;
 3/5=16,7=10,11=9,16=1,25=1,30=1/1,2,3;
 4//1;
 5/5=2,38=5/2;
 8/10=1/1;
 9/16=-3/6;
 6/7=2,8=2,9=2,10=2/1;
 99/5=1,9=1/99;
 -------------------------------
 Single Point calculation at MP2
 -------------------------------
 Symbolic Z-matrix:
 Charge =  0 Multiplicity = 1
 H                     3.6497   -1.8053    0.022 
 C                     3.1487   -1.0752   -0.618 
 H                     2.7203   -1.5867   -1.4859 
 H                     3.9097   -0.3691   -0.9699 
 C                     2.1197   -0.3222    0.2119 
 O                     2.3422    0.0342    1.3589 
 N                     0.9139   -0.0861   -0.4217 
 H                     0.8934   -0.2188   -1.4261 
 C                    -0.0616    0.8584    0.1252 
 H                     0.2191    0.973     1.178 
 C                     0.0023    2.2276   -0.5608 
 H                    -0.1803    2.1374   -1.639 
 H                    -0.7668    2.8819   -0.1457 
 H                     0.9868    2.6806   -0.4092 
 C                    -1.5029    0.3087    0.1094 
 O                    -2.4593    1.0577    0.2738 
 N                    -1.6182   -1.0338   -0.093 
 H                    -0.7609   -1.5687   -0.1133 
 C                    -2.8932   -1.7229   -0.0146 
 H                    -3.6787   -0.9668   -0.0555 
 H                    -3.0096   -2.4148   -0.8558 
 H                    -2.9943   -2.2857    0.9223 
 
                          Input orientation:                          
 ---------------------------------------------------------------------
 Center     Atomic      Atomic             Coordinates (Angstroms)
 Number     Number       Type             X           Y           Z
 ---------------------------------------------------------------------
      1          1           0        3.649700   -1.805300    0.022000
      2          6           0        3.148700   -1.075200   -0.618000
      3          1           0        2.720300   -1.586700   -1.485900
      4          1           0        3.909700   -0.369100   -0.969900
      5          6           0        2.119700   -0.322200    0.211900
      6          8           0        2.342200    0.034200    1.358900
      7          7           0        0.913900   -0.086100   -0.421700
      8          1           0        0.893400   -0.218800   -1.426100
      9          6           0       -0.061600    0.858400    0.125200
     10          1           0        0.219100    0.973000    1.178000
     11          6           0        0.002300    2.227600   -0.560800
     12          1           0       -0.180300    2.137400   -1.639000
     13          1           0       -0.766800    2.881900   -0.145700
     14          1           0        0.986800    2.680600   -0.409200
     15          6           0       -1.502900    0.308700    0.109400
     16          8           0       -2.459300    1.057700    0.273800
     17          7           0       -1.618200   -1.033800   -0.093000
     18          1           0       -0.760900   -1.568700   -0.113300
     19          6           0       -2.893200   -1.722900   -0.014600
     20          1           0       -3.678700   -0.966800   -0.055500
     21          1           0       -3.009600   -2.414800   -0.855800
     22          1           0       -2.994300   -2.285700    0.922300
 ---------------------------------------------------------------------
                    Distance matrix (angstroms):
                    1          2          3          4          5
     1  H    0.000000
     2  C    1.092542   0.000000
     3  H    1.784750   1.094719   0.000000
     4  H    1.764691   1.096144   1.778617   0.000000
     5  C    2.139287   1.521376   2.200501   2.145449   0.000000
     6  O    2.623093   2.406106   3.295931   2.836021   1.221530
     7  N    3.261460   2.451772   2.578256   3.058665   1.382442
     8  H    3.494448   2.544175   2.283044   3.054304   2.048792
     9  C    4.569431   3.820626   4.038951   4.298514   2.481814
    10  H    4.563365   4.000412   4.461438   4.476074   2.494629
    11  C    5.468772   4.561972   4.774120   4.709351   3.403223
    12  H    5.742186   4.737666   4.722906   4.843381   3.842585
    13  H    6.442316   5.586846   5.824465   5.754820   4.327357
    14  H    5.234527   4.338599   4.730133   4.261267   3.268950
    15  C    5.570092   4.907308   4.896217   5.560624   3.678556
    16  O    6.751300   6.065825   6.075990   6.644299   4.782802
    17  N    5.325336   4.795902   4.590038   5.636351   3.817229
    18  H    4.419013   3.972812   3.742073   4.897684   3.155531
    19  C    6.543521   6.106403   5.804710   7.001773   5.209840
    20  H    7.376621   6.851390   6.586161   7.666628   5.840244
    21  H    6.744501   6.306801   5.823618   7.216275   5.641691
    22  H    6.721909   6.447812   6.240567   7.410735   5.523857
                    6          7          8          9         10
     6  O    0.000000
     7  N    2.285837   0.000000
     8  H    3.149485   1.013336   0.000000
     9  C    2.824814   1.463824   2.116345   0.000000
    10  H    2.328438   2.040461   2.942177   1.095588   0.000000
    11  C    3.737831   2.490697   2.743661   1.532771   2.155098
    12  H    4.446781   2.760986   2.598045   2.182277   3.074221
    13  H    4.476505   3.421981   3.742997   2.159918   2.523505
    14  H    3.459295   2.767688   3.073976   2.169133   2.454479
    15  C    4.052332   2.505765   2.894524   1.542649   2.132718
    16  O    5.027862   3.629115   3.969850   2.410553   2.828176
    17  N    4.351253   2.723547   2.957958   2.459885   3.003058
    18  H    3.790236   2.257912   2.506468   2.537069   3.014647
    19  C    5.690634   4.163995   4.311959   3.834138   4.286792
    20  H    6.265283   4.690598   4.831371   4.055542   4.525173
    21  H    6.288423   4.583136   4.514540   4.512971   5.102748
    22  H    5.835305   4.681731   4.990117   4.372809   4.583715
                   11         12         13         14         15
    11  C    0.000000
    12  H    1.097267   0.000000
    13  H    1.091756   1.768674   0.000000
    14  H    1.094272   1.780336   1.784676   0.000000
    15  C    2.529224   2.854876   2.688546   3.477565   0.000000
    16  O    2.850386   3.165185   2.523538   3.869871   1.225859
    17  N    3.671728   3.809748   4.007539   4.547832   1.362559
    18  H    3.898028   4.049696   4.450722   4.604190   2.030958
    19  C    4.928357   4.990032   5.073751   5.882255   2.464895
    20  H    4.899927   4.937847   4.826986   5.932581   2.527488
    21  H    5.541700   5.416721   5.795638   6.491053   3.258713
    22  H    5.616856   5.834609   5.727693   6.502783   3.100966
                   16         17         18         19         20
    16  O    0.000000
    17  N    2.283936   0.000000
    18  H    3.151569   1.010690   0.000000
    19  C    2.828989   1.451424   2.140145   0.000000
    20  H    2.386205   2.061930   2.979796   1.091041   0.000000
    21  H    3.692842   2.103573   2.514725   1.095396   1.784623
    22  H    3.447477   2.119372   2.564105   1.097610   1.778762
                   21         22
    21  H    0.000000
    22  H    1.782846   0.000000
 Stoichiometry    C6H12N2O2
 Framework group  C1[X(C6H12N2O2)]
 Deg. of freedom    60
 Full point group                 C1      NOp   1
 Largest Abelian subgroup         C1      NOp   1
 Largest concise Abelian subgroup C1      NOp   1
                         Standard orientation:                         
 ---------------------------------------------------------------------
 Center     Atomic      Atomic             Coordinates (Angstroms)
 Number     Number       Type             X           Y           Z
 ---------------------------------------------------------------------
      1          1           0        3.649712   -1.805280    0.022010
      2          6           0        3.148710   -1.075181   -0.617990
      3          1           0        2.720311   -1.586683   -1.485890
      4          1           0        3.909708   -0.369079   -0.969890
      5          6           0        2.119707   -0.322185    0.211910
      6          8           0        2.342206    0.034216    1.358910
      7          7           0        0.913907   -0.086088   -0.421690
      8          1           0        0.893407   -0.218788   -1.426090
      9          6           0       -0.061596    0.858409    0.125210
     10          1           0        0.219103    0.973010    1.178010
     11          6           0        0.002300    2.227609   -0.560790
     12          1           0       -0.180300    2.137408   -1.638990
     13          1           0       -0.766802    2.881907   -0.145690
     14          1           0        0.986798    2.680612   -0.409190
     15          6           0       -1.502895    0.308704    0.109410
     16          8           0       -2.459297    1.057701    0.273810
     17          7           0       -1.618190   -1.033796   -0.092990
     18          1           0       -0.760889   -1.568693   -0.113290
     19          6           0       -2.893188   -1.722900   -0.014590
     20          1           0       -3.678691   -0.966802   -0.055490
     21          1           0       -3.009586   -2.414800   -0.855790
     22          1           0       -2.994287   -2.285700    0.922310
 ---------------------------------------------------------------------
 Rotational constants (GHZ):      2.0357363      0.7679337      0.6320760
 Standard basis: Aug-CC-pVDZ (5D, 7F)
 There are   338 symmetry adapted basis functions of A   symmetry.
 Integral buffers will be    131072 words long.
 Raffenetti 1 integral format.
 Two-electron integral symmetry is turned on.
   338 basis functions,   562 primitive gaussians,   358 cartesian basis functions
    39 alpha electrons       39 beta electrons
       nuclear repulsion energy       550.1603545237 Hartrees.
 NAtoms=   22 NActive=   22 NUniq=   22 SFac= 7.50D-01 NAtFMM=   80 NAOKFM=F Big=F
 One-electron integrals computed using PRISM.
 NBasis=   338 RedAO= T  NBF=   338
 NBsUse=   338 1.00D-06 NBFU=   338
 Harris functional with IExCor=  205 diagonalized for initial guess.
 ExpMin= 2.97D-02 ExpMax= 1.17D+04 ExpMxC= 4.01D+02 IAcc=3 IRadAn=         0 AccDes= 0.00D+00
 HarFok:  IExCor=  205 AccDes= 0.00D+00 IRadAn=         0 IDoV= 1
 ScaDFX=  1.000000  1.000000  1.000000  1.000000
 FoFCou: FMM=F IPFlag=           0 FMFlag=      100000 FMFlg1=           0
         NFxFlg=           0 DoJE=T BraDBF=F KetDBF=T FulRan=T
         Omega=  0.000000  0.000000  1.000000  0.000000  0.000000 ICntrl=     500 IOpCl=  0
         NMat0=    1 NMatS0=    1 NMatT0=    0 NMatD0=    1 NMtDS0=    0 NMtDT0=    0
         I1Cent=           4 NGrid=           0.
 Petite list used in FoFCou.
 Initial guess orbital symmetries:
       Occupied  (A) (A) (A) (A) (A) (A) (A) (A) (A) (A) (A) (A)
                 (A) (A) (A) (A) (A) (A) (A) (A) (A) (A) (A) (A)
                 (A) (A) (A) (A) (A) (A) (A) (A) (A) (A) (A) (A)
                 (A) (A) (A)
       Virtual   (A) (A) (A) (A) (A) (A) (A) (A) (A) (A) (A) (A)
                 (A) (A) (A) (A) (A) (A) (A) (A) (A) (A) (A) (A)
                 (A) (A) (A) (A) (A) (A) (A) (A) (A) (A) (A) (A)
                 (A) (A) (A) (A) (A) (A) (A) (A) (A) (A) (A) (A)
                 (A) (A) (A) (A) (A) (A) (A) (A) (A) (A) (A) (A)
                 (A) (A) (A) (A) (A) (A) (A) (A) (A) (A) (A) (A)
                 (A) (A) (A) (A) (A) (A) (A) (A) (A) (A) (A) (A)
                 (A) (A) (A) (A) (A) (A) (A) (A) (A) (A) (A) (A)
                 (A) (A) (A) (A) (A) (A) (A) (A) (A) (A) (A) (A)
                 (A) (A) (A) (A) (A) (A) (A) (A) (A) (A) (A) (A)
                 (A) (A) (A) (A) (A) (A) (A) (A) (A) (A) (A) (A)
                 (A) (A) (A) (A) (A) (A) (A) (A) (A) (A) (A) (A)
                 (A) (A) (A) (A) (A) (A) (A) (A) (A) (A) (A) (A)
                 (A) (A) (A) (A) (A) (A) (A) (A) (A) (A) (A) (A)
                 (A) (A) (A) (A) (A) (A) (A) (A) (A) (A) (A) (A)
                 (A) (A) (A) (A) (A) (A) (A) (A) (A) (A) (A) (A)
                 (A) (A) (A) (A) (A) (A) (A) (A) (A) (A) (A) (A)
                 (A) (A) (A) (A) (A) (A) (A) (A) (A) (A) (A) (A)
                 (A) (A) (A) (A) (A) (A) (A) (A) (A) (A) (A) (A)
                 (A) (A) (A) (A) (A) (A) (A) (A) (A) (A) (A) (A)
                 (A) (A) (A) (A) (A) (A) (A) (A) (A) (A) (A) (A)
                 (A) (A) (A) (A) (A) (A) (A) (A) (A) (A) (A) (A)
                 (A) (A) (A) (A) (A) (A) (A) (A) (A) (A) (A) (A)
                 (A) (A) (A) (A) (A) (A) (A) (A) (A) (A) (A) (A)
                 (A) (A) (A) (A) (A) (A) (A) (A) (A) (A) (A)
 The electronic state of the initial guess is 1-A.
 Requested convergence on RMS density matrix=1.00D-08 within 128 cycles.
 Requested convergence on MAX density matrix=1.00D-06.
 Requested convergence on             energy=1.00D-06.
 No special actions if energy rises.
 Initial convergence to 1.0D-05 achieved.  Increase integral accuracy.
 SCF Done:  E(RHF) =  -492.924887644     A.U. after   14 cycles
             Convg  =    0.4561D-08             -V/T =  2.0017
 ExpMin= 2.97D-02 ExpMax= 1.17D+04 ExpMxC= 4.01D+02 IAcc=3 IRadAn=         5 AccDes= 0.00D+00
 HarFok:  IExCor=  205 AccDes= 0.00D+00 IRadAn=         5 IDoV=-2
 ScaDFX=  1.000000  1.000000  1.000000  1.000000
 Range of M.O.s used for correlation:    11   338
 NBasis=   338 NAE=    39 NBE=    39 NFC=    10 NFV=     0
 NROrb=    328 NOA=    29 NOB=    29 NVA=   299 NVB=   299

 **** Warning!!: The largest alpha MO coefficient is  0.59497233D+02

 Disk-based method using OVN memory for 29 occupieds at a time.
 Estimated scratch disk usage=  1379956588 words.
 Actual    scratch disk usage=  1366640510 words.
 JobTyp=1 Pass  1:  I=   1 to  29 NPSUse=  8 ParTrn=T ParDer=T DoDerP=F.
 Spin components of T(2) and E(2):
     alpha-alpha T2 =       0.6798876136D-01 E2=     -0.2058929623D+00
     alpha-beta  T2 =       0.3763668985D+00 E2=     -0.1189649957D+01
     beta-beta   T2 =       0.6798876136D-01 E2=     -0.2058929623D+00
 ANorm=    0.1229774134D+01
 E2 =    -0.1601435882D+01 EUMP2 =    -0.49452632352617D+03

 **********************************************************************

            Population analysis using the SCF density.

 **********************************************************************

 Orbital symmetries:
       Occupied  (A) (A) (A) (A) (A) (A) (A) (A) (A) (A) (A) (A)
                 (A) (A) (A) (A) (A) (A) (A) (A) (A) (A) (A) (A)
                 (A) (A) (A) (A) (A) (A) (A) (A) (A) (A) (A) (A)
                 (A) (A) (A)
       Virtual   (A) (A) (A) (A) (A) (A) (A) (A) (A) (A) (A) (A)
                 (A) (A) (A) (A) (A) (A) (A) (A) (A) (A) (A) (A)
                 (A) (A) (A) (A) (A) (A) (A) (A) (A) (A) (A) (A)
                 (A) (A) (A) (A) (A) (A) (A) (A) (A) (A) (A) (A)
                 (A) (A) (A) (A) (A) (A) (A) (A) (A) (A) (A) (A)
                 (A) (A) (A) (A) (A) (A) (A) (A) (A) (A) (A) (A)
                 (A) (A) (A) (A) (A) (A) (A) (A) (A) (A) (A) (A)
                 (A) (A) (A) (A) (A) (A) (A) (A) (A) (A) (A) (A)
                 (A) (A) (A) (A) (A) (A) (A) (A) (A) (A) (A) (A)
                 (A) (A) (A) (A) (A) (A) (A) (A) (A) (A) (A) (A)
                 (A) (A) (A) (A) (A) (A) (A) (A) (A) (A) (A) (A)
                 (A) (A) (A) (A) (A) (A) (A) (A) (A) (A) (A) (A)
                 (A) (A) (A) (A) (A) (A) (A) (A) (A) (A) (A) (A)
                 (A) (A) (A) (A) (A) (A) (A) (A) (A) (A) (A) (A)
                 (A) (A) (A) (A) (A) (A) (A) (A) (A) (A) (A) (A)
                 (A) (A) (A) (A) (A) (A) (A) (A) (A) (A) (A) (A)
                 (A) (A) (A) (A) (A) (A) (A) (A) (A) (A) (A) (A)
                 (A) (A) (A) (A) (A) (A) (A) (A) (A) (A) (A) (A)
                 (A) (A) (A) (A) (A) (A) (A) (A) (A) (A) (A) (A)
                 (A) (A) (A) (A) (A) (A) (A) (A) (A) (A) (A) (A)
                 (A) (A) (A) (A) (A) (A) (A) (A) (A) (A) (A) (A)
                 (A) (A) (A) (A) (A) (A) (A) (A) (A) (A) (A) (A)
                 (A) (A) (A) (A) (A) (A) (A) (A) (A) (A) (A) (A)
                 (A) (A) (A) (A) (A) (A) (A) (A) (A) (A) (A) (A)
                 (A) (A) (A) (A) (A) (A) (A) (A) (A) (A) (A)
 The electronic state is 1-A.
 Alpha  occ. eigenvalues --  -20.54404 -20.52901 -15.60925 -15.59575 -11.37625
 Alpha  occ. eigenvalues --  -11.35972 -11.29183 -11.26910 -11.25911 -11.23302
 Alpha  occ. eigenvalues --   -1.39841  -1.38334  -1.25525  -1.22699  -1.05723
 Alpha  occ. eigenvalues --   -0.99927  -0.96271  -0.87691  -0.80664  -0.78671
 Alpha  occ. eigenvalues --   -0.73379  -0.68387  -0.66420  -0.63965  -0.62491
 Alpha  occ. eigenvalues --   -0.62323  -0.59977  -0.59341  -0.58372  -0.56242
 Alpha  occ. eigenvalues --   -0.54896  -0.54139  -0.52613  -0.52201  -0.50074
 Alpha  occ. eigenvalues --   -0.43970  -0.43690  -0.40027  -0.39195
 Alpha virt. eigenvalues --    0.02242   0.03696   0.04182   0.04637   0.05583
 Alpha virt. eigenvalues --    0.06108   0.06276   0.06537   0.07275   0.08226
 Alpha virt. eigenvalues --    0.08302   0.09294   0.11430   0.12238   0.12688
 Alpha virt. eigenvalues --    0.13286   0.13556   0.14254   0.14604   0.14917
 Alpha virt. eigenvalues --    0.15633   0.15935   0.16310   0.17075   0.17445
 Alpha virt. eigenvalues --    0.17527   0.17943   0.18160   0.18815   0.19618
 Alpha virt. eigenvalues --    0.20052   0.20209   0.20678   0.21204   0.21585
 Alpha virt. eigenvalues --    0.22877   0.23934   0.24998   0.25424   0.25435
 Alpha virt. eigenvalues --    0.27160   0.27644   0.28502   0.29401   0.30432
 Alpha virt. eigenvalues --    0.30879   0.31611   0.31912   0.32892   0.33267
 Alpha virt. eigenvalues --    0.33830   0.34554   0.35615   0.36338   0.36670
 Alpha virt. eigenvalues --    0.37031   0.37859   0.38101   0.38580   0.40012
 Alpha virt. eigenvalues --    0.40452   0.40599   0.41794   0.42158   0.43110
 Alpha virt. eigenvalues --    0.43606   0.44049   0.44381   0.44698   0.45376
 Alpha virt. eigenvalues --    0.45890   0.46706   0.48240   0.48306   0.48452
 Alpha virt. eigenvalues --    0.49926   0.49969   0.51284   0.51744   0.52709
 Alpha virt. eigenvalues --    0.53097   0.53499   0.53892   0.54771   0.55178
 Alpha virt. eigenvalues --    0.55716   0.56885   0.57319   0.57650   0.58564
 Alpha virt. eigenvalues --    0.59402   0.59657   0.59832   0.61556   0.61813
 Alpha virt. eigenvalues --    0.62175   0.62414   0.63732   0.63939   0.64427
 Alpha virt. eigenvalues --    0.65461   0.65735   0.66764   0.67911   0.68241
 Alpha virt. eigenvalues --    0.69080   0.69339   0.69938   0.71310   0.71560
 Alpha virt. eigenvalues --    0.72066   0.72612   0.73027   0.73689   0.74719
 Alpha virt. eigenvalues --    0.75675   0.76182   0.76387   0.77781   0.79165
 Alpha virt. eigenvalues --    0.79280   0.81419   0.81739   0.82368   0.83428
 Alpha virt. eigenvalues --    0.83738   0.85243   0.85686   0.87031   0.88121
 Alpha virt. eigenvalues --    0.88362   0.89249   0.90983   0.93032   0.93339
 Alpha virt. eigenvalues --    0.94759   0.95970   0.96938   0.97757   0.98368
 Alpha virt. eigenvalues --    0.99949   1.00416   1.02583   1.03646   1.04953
 Alpha virt. eigenvalues --    1.06315   1.07312   1.08962   1.09660   1.11679
 Alpha virt. eigenvalues --    1.12137   1.12523   1.14045   1.14694   1.16355
 Alpha virt. eigenvalues --    1.16957   1.18476   1.18982   1.20780   1.21034
 Alpha virt. eigenvalues --    1.21864   1.22648   1.24751   1.26447   1.28838
 Alpha virt. eigenvalues --    1.30070   1.32825   1.33934   1.34931   1.37176
 Alpha virt. eigenvalues --    1.38560   1.41583   1.42176   1.42808   1.47772
 Alpha virt. eigenvalues --    1.48759   1.48885   1.50714   1.52659   1.54295
 Alpha virt. eigenvalues --    1.55353   1.56785   1.57350   1.61313   1.64553
 Alpha virt. eigenvalues --    1.65435   1.67802   1.69463   1.70681   1.72323
 Alpha virt. eigenvalues --    1.74652   1.76460   1.77291   1.78369   1.80473
 Alpha virt. eigenvalues --    1.81868   1.83352   1.84027   1.85707   1.87163
 Alpha virt. eigenvalues --    1.87859   1.89058   1.90100   1.91407   1.93856
 Alpha virt. eigenvalues --    1.94478   1.94680   1.97468   1.98162   1.99705
 Alpha virt. eigenvalues --    2.00288   2.02700   2.04338   2.06011   2.08543
 Alpha virt. eigenvalues --    2.09935   2.10724   2.14201   2.15509   2.17806
 Alpha virt. eigenvalues --    2.18401   2.19323   2.20316   2.21351   2.22650
 Alpha virt. eigenvalues --    2.24165   2.26507   2.27761   2.28444   2.29309
 Alpha virt. eigenvalues --    2.31776   2.32334   2.33334   2.34137   2.36835
 Alpha virt. eigenvalues --    2.37606   2.40328   2.41051   2.43253   2.44321
 Alpha virt. eigenvalues --    2.44681   2.47000   2.47274   2.49397   2.52325
 Alpha virt. eigenvalues --    2.52936   2.54932   2.57729   2.57781   2.58803
 Alpha virt. eigenvalues --    2.61523   2.63298   2.64541   2.66895   2.69329
 Alpha virt. eigenvalues --    2.70835   2.74394   2.76053   2.77576   2.79889
 Alpha virt. eigenvalues --    2.81894   2.84110   2.86573   2.87956   2.89315
 Alpha virt. eigenvalues --    2.90292   2.92597   2.95154   2.96716   2.97884
 Alpha virt. eigenvalues --    3.00030   3.02486   3.02758   3.04203   3.06838
 Alpha virt. eigenvalues --    3.07961   3.15990   3.18059   3.20432   3.23910
 Alpha virt. eigenvalues --    3.25792   3.30977   3.40188   3.46145   3.47738
 Alpha virt. eigenvalues --    3.56783   3.65542   3.71919   3.82767   3.83419
 Alpha virt. eigenvalues --    3.84091   3.86089   3.90970   3.97073   3.99753
 Alpha virt. eigenvalues --    4.04672   4.09280   4.18937   4.25041
          Condensed to atoms (all electrons):
              1          2          3          4          5          6
     1  H    0.753425   0.376318  -0.089879  -0.052649  -0.083220   0.033460
     2  C    0.376318   4.599517   0.323120   0.352289   0.161617  -0.030247
     3  H   -0.089879   0.323120   1.107692  -0.075659   0.106494  -0.009091
     4  H   -0.052649   0.352289  -0.075659   0.726235  -0.048367   0.008425
     5  C   -0.083220   0.161617   0.106494  -0.048367   5.420442   0.166542
     6  O    0.033460  -0.030247  -0.009091   0.008425   0.166542   8.710624
     7  N    0.045657   0.011804  -0.222023   0.035022  -0.168143  -0.022270
     8  H   -0.003609  -0.057869   0.010619  -0.003625  -0.119806   0.004334
     9  C   -0.001349  -0.063761  -0.003114   0.003165  -0.132902   0.026626
    10  H    0.000458   0.002056   0.002782  -0.000177   0.124085  -0.057287
    11  C   -0.000865  -0.008290  -0.002549   0.000313   0.000759   0.008750
    12  H    0.000013  -0.015778   0.000012  -0.001161   0.018074  -0.004414
    13  H   -0.000118   0.002821  -0.000344   0.000409  -0.026797   0.003237
    14  H   -0.000178   0.012652   0.001991   0.000053   0.035298   0.001337
    15  C   -0.002994  -0.011738  -0.007738   0.005631  -0.121042   0.006351
    16  O    0.000064  -0.000179   0.000221  -0.000066   0.015043  -0.000686
    17  N    0.002406   0.005515  -0.003216  -0.001003   0.020742   0.002528
    18  H    0.001744  -0.004139  -0.003894  -0.001023   0.005972  -0.004908
    19  C    0.000122  -0.000471  -0.001597   0.000194  -0.002844   0.000271
    20  H    0.000014   0.000581   0.000047   0.000064  -0.000861  -0.000009
    21  H    0.000060  -0.000457  -0.000204   0.000021   0.002330  -0.000171
    22  H   -0.000062  -0.000163   0.000155  -0.000032  -0.000251   0.000046
              7          8          9         10         11         12
     1  H    0.045657  -0.003609  -0.001349   0.000458  -0.000865   0.000013
     2  C    0.011804  -0.057869  -0.063761   0.002056  -0.008290  -0.015778
     3  H   -0.222023   0.010619  -0.003114   0.002782  -0.002549   0.000012
     4  H    0.035022  -0.003625   0.003165  -0.000177   0.000313  -0.001161
     5  C   -0.168143  -0.119806  -0.132902   0.124085   0.000759   0.018074
     6  O   -0.022270   0.004334   0.026626  -0.057287   0.008750  -0.004414
     7  N    8.073844   0.348945  -0.588864  -0.214277   0.003338  -0.177328
     8  H    0.348945   0.983198  -0.070298  -0.017253  -0.010303   0.002452
     9  C   -0.588864  -0.070298   7.221948   0.287017   0.186306   0.086144
    10  H   -0.214277  -0.017253   0.287017   1.183618  -0.074764   0.083808
    11  C    0.003338  -0.010303   0.186306  -0.074764   4.186954   0.289411
    12  H   -0.177328   0.002452   0.086144   0.083808   0.289411   1.122044
    13  H    0.066898   0.000246  -0.141124  -0.045513   0.323488  -0.148944
    14  H    0.027852  -0.004300   0.060576  -0.059293   0.310543  -0.206578
    15  C    0.168898   0.049984  -0.570154  -0.241555  -0.066615  -0.027271
    16  O   -0.006557   0.003068  -0.014679   0.014207  -0.007202   0.019238
    17  N   -0.128425  -0.006971   0.193021   0.024758   0.015180   0.009934
    18  H    0.046734  -0.013391  -0.070080  -0.001592  -0.005090   0.001358
    19  C   -0.010199   0.003913   0.039376  -0.002509  -0.009082   0.000893
    20  H    0.004662  -0.001085  -0.017461  -0.000151  -0.005342   0.000048
    21  H    0.001038   0.001663   0.001899  -0.000422  -0.001333  -0.000595
    22  H    0.001209  -0.000484   0.007324  -0.001745   0.005860   0.000437
             13         14         15         16         17         18
     1  H   -0.000118  -0.000178  -0.002994   0.000064   0.002406   0.001744
     2  C    0.002821   0.012652  -0.011738  -0.000179   0.005515  -0.004139
     3  H   -0.000344   0.001991  -0.007738   0.000221  -0.003216  -0.003894
     4  H    0.000409   0.000053   0.005631  -0.000066  -0.001003  -0.001023
     5  C   -0.026797   0.035298  -0.121042   0.015043   0.020742   0.005972
     6  O    0.003237   0.001337   0.006351  -0.000686   0.002528  -0.004908
     7  N    0.066898   0.027852   0.168898  -0.006557  -0.128425   0.046734
     8  H    0.000246  -0.004300   0.049984   0.003068  -0.006971  -0.013391
     9  C   -0.141124   0.060576  -0.570154  -0.014679   0.193021  -0.070080
    10  H   -0.045513  -0.059293  -0.241555   0.014207   0.024758  -0.001592
    11  C    0.323488   0.310543  -0.066615  -0.007202   0.015180  -0.005090
    12  H   -0.148944  -0.206578  -0.027271   0.019238   0.009934   0.001358
    13  H    1.077757  -0.153190   0.121612  -0.034870  -0.020050  -0.000103
    14  H   -0.153190   1.121596  -0.087501   0.007160   0.009956  -0.002500
    15  C    0.121612  -0.087501   5.627014   0.187068  -0.024174  -0.011875
    16  O   -0.034870   0.007160   0.187068   8.800710  -0.137724   0.006005
    17  N   -0.020050   0.009956  -0.024174  -0.137724   7.092374   0.247096
    18  H   -0.000103  -0.002500  -0.011875   0.006005   0.247096   1.018704
    19  C   -0.000006  -0.001374  -0.113041  -0.007146   0.305443  -0.141851
    20  H   -0.000391   0.000005   0.044550  -0.010318  -0.028987   0.002274
    21  H    0.000461  -0.000302  -0.005305   0.007500  -0.096957   0.010656
    22  H    0.000133   0.000323  -0.040328   0.007040   0.048919  -0.011623
             19         20         21         22
     1  H    0.000122   0.000014   0.000060  -0.000062
     2  C   -0.000471   0.000581  -0.000457  -0.000163
     3  H   -0.001597   0.000047  -0.000204   0.000155
     4  H    0.000194   0.000064   0.000021  -0.000032
     5  C   -0.002844  -0.000861   0.002330  -0.000251
     6  O    0.000271  -0.000009  -0.000171   0.000046
     7  N   -0.010199   0.004662   0.001038   0.001209
     8  H    0.003913  -0.001085   0.001663  -0.000484
     9  C    0.039376  -0.017461   0.001899   0.007324
    10  H   -0.002509  -0.000151  -0.000422  -0.001745
    11  C   -0.009082  -0.005342  -0.001333   0.005860
    12  H    0.000893   0.000048  -0.000595   0.000437
    13  H   -0.000006  -0.000391   0.000461   0.000133
    14  H   -0.001374   0.000005  -0.000302   0.000323
    15  C   -0.113041   0.044550  -0.005305  -0.040328
    16  O   -0.007146  -0.010318   0.007500   0.007040
    17  N    0.305443  -0.028987  -0.096957   0.048919
    18  H   -0.141851   0.002274   0.010656  -0.011623
    19  C    4.087085   0.444804   0.363682   0.310857
    20  H    0.444804   0.970131  -0.156781  -0.103183
    21  H    0.363682  -0.156781   1.151078  -0.157251
    22  H    0.310857  -0.103183  -0.157251   1.009942
 Mulliken atomic charges:
              1
     1  H    0.021183
     2  C    0.344801
     3  H   -0.133825
     4  H    0.051942
     5  C    0.626834
     6  O   -0.843447
     7  N   -0.297815
     8  H   -0.099428
     9  C   -0.439615
    10  H   -0.006251
    11  C    0.860531
    12  H   -0.051795
    13  H   -0.025612
    14  H   -0.074128
    15  C    1.120223
    16  O   -0.847896
    17  N   -0.530366
    18  H   -0.068474
    19  C    0.733479
    20  H   -0.142612
    21  H   -0.120607
    22  H   -0.077121
 Sum of Mulliken atomic charges =   0.00000
 Mulliken charges with hydrogens summed into heavy atoms:
              1
     2  C    0.284101
     5  C    0.626834
     6  O   -0.843447
     7  N   -0.397244
     9  C   -0.445866
    11  C    0.708996
    15  C    1.120223
    16  O   -0.847896
    17  N   -0.598840
    19  C    0.393139
 Sum of Mulliken charges with hydrogens summed into heavy atoms =   0.00000
 Electronic spatial extent (au):  <R**2>=           1882.6979
 Charge=              0.0000 electrons
 Dipole moment (field-independent basis, Debye):
    X=              1.7847    Y=             -3.3017    Z=             -3.9965  Tot=              5.4826
 Quadrupole moment (field-independent basis, Debye-Ang):
   XX=            -68.3157   YY=            -58.0285   ZZ=            -63.6291
   XY=              5.1562   XZ=             -7.5215   YZ=             -0.2730
 Traceless Quadrupole moment (field-independent basis, Debye-Ang):
   XX=             -4.9912   YY=              5.2959   ZZ=             -0.3047
   XY=              5.1562   XZ=             -7.5215   YZ=             -0.2730
 Octapole moment (field-independent basis, Debye-Ang**2):
  XXX=             20.0117  YYY=             -7.4696  ZZZ=             -7.2316  XYY=              4.7663
  XXY=            -31.6182  XXZ=            -23.7722  XZZ=             -9.1552  YZZ=             -1.2778
  YYZ=              0.8852  XYZ=              1.9344
 Hexadecapole moment (field-independent basis, Debye-Ang**3):
 XXXX=          -1633.4748 YYYY=           -609.7837 ZZZZ=           -204.8276 XXXY=             35.7638
 XXXZ=            -40.6625 YYYX=              6.2485 YYYZ=              4.2654 ZZZX=            -15.5490
 ZZZY=              4.0776 XXYY=           -369.1326 XXZZ=           -336.5941 YYZZ=           -136.6002
 XXYZ=             -7.8313 YYXZ=              5.4199 ZZXY=             -1.0643
 N-N= 5.501603545237D+02 E-N=-2.255368574198D+03  KE= 4.920731970956D+02
 1\1\GINC-NODE002\SP\RMP2-FC\Aug-CC-pVDZ\C6H12N2O2\STEBOSS\13-Feb-2017\
 0\\#SP MP2/aug-cc-pVDZ\\Single Point calculation at MP2\\0,1\H,0,3.649
 7,-1.8053,0.022\C,0,3.1487,-1.0752,-0.618\H,0,2.7203,-1.5867,-1.4859\H
 ,0,3.9097,-0.3691,-0.9699\C,0,2.1197,-0.3222,0.2119\O,0,2.3422,0.0342,
 1.3589\N,0,0.9139,-0.0861,-0.4217\H,0,0.8934,-0.2188,-1.4261\C,0,-0.06
 16,0.8584,0.1252\H,0,0.2191,0.973,1.178\C,0,0.0023,2.2276,-0.5608\H,0,
 -0.1803,2.1374,-1.639\H,0,-0.7668,2.8819,-0.1457\H,0,0.9868,2.6806,-0.
 4092\C,0,-1.5029,0.3087,0.1094\O,0,-2.4593,1.0577,0.2738\N,0,-1.6182,-
 1.0338,-0.093\H,0,-0.7609,-1.5687,-0.1133\C,0,-2.8932,-1.7229,-0.0146\
 H,0,-3.6787,-0.9668,-0.0555\H,0,-3.0096,-2.4148,-0.8558\H,0,-2.9943,-2
 .2857,0.9223\\Version=EM64L-G09RevA.02\State=1-A\HF=-492.9248876\MP2=-
 494.5263235\RMSD=4.561e-09\PG=C01 [X(C6H12N2O2)]\\@


 WHEN A MATHEMATICIAN ENGAGED IN INVESTIGATING
 PHYSICAL ACTIONS AND RESULTS HAS ARRIVED AT HIS
 CONCLUSIONS, MAY THEY NOT BE EXPRESSED IN COMMON
 LANGUAGE AS FULLY, CLEARLY, AND DEFINITELY AS IN
 MATHEMATICAL FORMULAE?
           - LETTER FROM M. FARADAY TO J.C. MAXWELL, 1857.
 Job cpu time:  0 days 14 hours 36 minutes 20.3 seconds.
 File lengths (MBytes):  RWF=  10543 Int=      0 D2E=      0 Chk=      7 Scr=      2
 Normal termination of Gaussian 09 at Mon Feb 13 06:12:57 2017.
