 Entering Gaussian System, Link 0=g09
 Initial command:
 /home/steboss/Software/g09/l1.exe /home/steboss/projects/phi_psi_scan/alanine/0/4143/Gau-25962.inp -scrdir=/home/steboss/projects/phi_psi_scan/alanine/0/4143/
 Entering Link 1 = /home/steboss/Software/g09/l1.exe PID=     25968.
  
 Copyright (c) 1988,1990,1992,1993,1995,1998,2003,2009, Gaussian, Inc.
                  All Rights Reserved.
  
 This is part of the Gaussian(R) 09 program.  It is based on
 the Gaussian(R) 03 system (copyright 2003, Gaussian, Inc.),
 the Gaussian(R) 98 system (copyright 1998, Gaussian, Inc.),
 the Gaussian(R) 94 system (copyright 1995, Gaussian, Inc.),
 the Gaussian 92(TM) system (copyright 1992, Gaussian, Inc.),
 the Gaussian 90(TM) system (copyright 1990, Gaussian, Inc.),
 the Gaussian 88(TM) system (copyright 1988, Gaussian, Inc.),
 the Gaussian 86(TM) system (copyright 1986, Carnegie Mellon
 University), and the Gaussian 82(TM) system (copyright 1983,
 Carnegie Mellon University). Gaussian is a federally registered
 trademark of Gaussian, Inc.
  
 This software contains proprietary and confidential information,
 including trade secrets, belonging to Gaussian, Inc.
  
 This software is provided under written license and may be
 used, copied, transmitted, or stored only in accord with that
 written license.
  
 The following legend is applicable only to US Government
 contracts under FAR:
  
                    RESTRICTED RIGHTS LEGEND
  
 Use, reproduction and disclosure by the US Government is
 subject to restrictions as set forth in subparagraphs (a)
 and (c) of the Commercial Computer Software - Restricted
 Rights clause in FAR 52.227-19.
  
 Gaussian, Inc.
 340 Quinnipiac St., Bldg. 40, Wallingford CT 06492
  
  
 ---------------------------------------------------------------
 Warning -- This program may not be used in any manner that
 competes with the business of Gaussian, Inc. or will provide
 assistance to any competitor of Gaussian, Inc.  The licensee
 of this program is prohibited from giving any competitor of
 Gaussian, Inc. access to this program.  By using this program,
 the user acknowledges that Gaussian, Inc. is engaged in the
 business of creating and licensing software in the field of
 computational chemistry and represents and warrants to the
 licensee that it is not a competitor of Gaussian, Inc. and that
 it will not use this program in any manner prohibited above.
 ---------------------------------------------------------------
  

 Cite this work as:
 Gaussian 09, Revision A.02,
 M. J. Frisch, G. W. Trucks, H. B. Schlegel, G. E. Scuseria, 
 M. A. Robb, J. R. Cheeseman, G. Scalmani, V. Barone, B. Mennucci, 
 G. A. Petersson, H. Nakatsuji, M. Caricato, X. Li, H. P. Hratchian, 
 A. F. Izmaylov, J. Bloino, G. Zheng, J. L. Sonnenberg, M. Hada, 
 M. Ehara, K. Toyota, R. Fukuda, J. Hasegawa, M. Ishida, T. Nakajima, 
 Y. Honda, O. Kitao, H. Nakai, T. Vreven, J. A. Montgomery, Jr., 
 J. E. Peralta, F. Ogliaro, M. Bearpark, J. J. Heyd, E. Brothers, 
 K. N. Kudin, V. N. Staroverov, R. Kobayashi, J. Normand, 
 K. Raghavachari, A. Rendell, J. C. Burant, S. S. Iyengar, J. Tomasi, 
 M. Cossi, N. Rega, J. M. Millam, M. Klene, J. E. Knox, J. B. Cross, 
 V. Bakken, C. Adamo, J. Jaramillo, R. Gomperts, R. E. Stratmann, 
 O. Yazyev, A. J. Austin, R. Cammi, C. Pomelli, J. W. Ochterski, 
 R. L. Martin, K. Morokuma, V. G. Zakrzewski, G. A. Voth, 
 P. Salvador, J. J. Dannenberg, S. Dapprich, A. D. Daniels, 
 O. Farkas, J. B. Foresman, J. V. Ortiz, J. Cioslowski, 
 and D. J. Fox, Gaussian, Inc., Wallingford CT, 2009.
 
 ******************************************
 Gaussian 09:  EM64L-G09RevA.02 11-Jun-2009
                10-Feb-2017 
 ******************************************
 %chk=structure_30.chk
 %NProcShared=8
 Will use up to    8 processors via shared memory.
 ----------------------------------------------------------------------
 # b3lyp/6-31G* Opt=(ModRedundant, maxcycles=1000, calcfc) geom=nocrowd
 ----------------------------------------------------------------------
 1/6=1000,10=4,14=-1,18=120,19=15,26=3,38=1/1,3;
 2/9=110,12=1,17=6,18=5,40=1/2;
 3/5=1,6=6,7=1,11=2,16=1,25=1,30=1,71=2,74=-5/1,2,3;
 4//1;
 5/5=2,38=5/2;
 8/6=4,10=90,11=11/1;
 11/6=1,8=1,9=11,15=111,16=1/1,2,10;
 10/6=1,7=6,13=1/2;
 6/7=2,8=2,9=2,10=2,28=1/1;
 7/10=1,18=20,25=1/1,2,3,16;
 1/6=1000,10=4,14=-1,18=20,19=15/3(2);
 2/9=110,12=1/2;
 99//99;
 2/9=110,12=1/2;
 3/5=1,6=6,7=1,11=2,16=1,25=1,30=1,71=1,74=-5/1,2,3;
 4/5=5,16=3/1;
 5/5=2,38=5/2;
 7//1,2,3,16;
 1/6=1000,14=-1,18=20,19=15/3(-5);
 2/9=110,12=1/2;
 6/7=2,8=2,9=2,10=2,19=2,28=1/1;
 99/9=1/99;
 ------------------
 Phi Psi fixed scan
 ------------------
 Symbolic Z-matrix:
 Charge =  0 Multiplicity = 1
 H                     0.2496    4.5262    0. 
 C                     1.1178    3.8672    0. 
 H                     1.097     3.238    -0.8898 
 H                     1.097     3.238     0.8898 
 C                     2.4195    4.6711    0. 
 O                     2.3938    5.8999    0. 
 N                     3.5554    3.9697    0. 
 H                     3.5254    2.9601    0. 
 C                     4.8533    4.6139    0. 
 H                     5.4076    4.3155    0.8898 
 C                     5.6613    4.2208   -1.2322 
 H                     5.1233    4.5214   -2.1312 
 H                     6.6305    4.7189   -1.2058 
 H                     5.8085    3.1409   -1.2414 
 C                     4.7127    6.1294    0. 
 O                     5.5682    6.8352   -0.5295 
 N                     3.6281    6.6291    0.5969 
 H                     2.9524    6.0081    1.0185 
 C                     3.3794    8.0551    0.6638 
 H                     4.1904    8.5895    0.169 
 H                     2.4372    8.2838    0.1658 
 H                     3.3233    8.366     1.707 
 
 The following ModRedundant input section has been read:
 D    5    7    9   15 F                                                       
 D    7    9   15   17 F                                                       

 GradGradGradGradGradGradGradGradGradGradGradGradGradGradGradGradGradGrad
 Berny optimization.
 Initialization pass.
                           ----------------------------
                           !    Initial Parameters    !
                           ! (Angstroms and Degrees)  !
 --------------------------                            --------------------------
 ! Name  Definition              Value          Derivative Info.                !
 --------------------------------------------------------------------------------
 ! R1    R(1,2)                  1.09           calculate D2E/DX2 analytically  !
 ! R2    R(2,3)                  1.09           calculate D2E/DX2 analytically  !
 ! R3    R(2,4)                  1.09           calculate D2E/DX2 analytically  !
 ! R4    R(2,5)                  1.5299         calculate D2E/DX2 analytically  !
 ! R5    R(5,6)                  1.2291         calculate D2E/DX2 analytically  !
 ! R6    R(5,7)                  1.335          calculate D2E/DX2 analytically  !
 ! R7    R(6,17)                 1.5529         calculate D2E/DX2 analytically  !
 ! R8    R(6,18)                 1.1667         calculate D2E/DX2 analytically  !
 ! R9    R(7,8)                  1.01           calculate D2E/DX2 analytically  !
 ! R10   R(7,9)                  1.449          calculate D2E/DX2 analytically  !
 ! R11   R(9,10)                 1.09           calculate D2E/DX2 analytically  !
 ! R12   R(9,11)                 1.525          calculate D2E/DX2 analytically  !
 ! R13   R(9,15)                 1.522          calculate D2E/DX2 analytically  !
 ! R14   R(11,12)                1.09           calculate D2E/DX2 analytically  !
 ! R15   R(11,13)                1.09           calculate D2E/DX2 analytically  !
 ! R16   R(11,14)                1.0899         calculate D2E/DX2 analytically  !
 ! R17   R(15,16)                1.229          calculate D2E/DX2 analytically  !
 ! R18   R(15,17)                1.335          calculate D2E/DX2 analytically  !
 ! R19   R(17,18)                1.0099         calculate D2E/DX2 analytically  !
 ! R20   R(17,19)                1.4491         calculate D2E/DX2 analytically  !
 ! R21   R(19,20)                1.09           calculate D2E/DX2 analytically  !
 ! R22   R(19,21)                1.09           calculate D2E/DX2 analytically  !
 ! R23   R(19,22)                1.09           calculate D2E/DX2 analytically  !
 ! A1    A(1,2,3)              109.5001         calculate D2E/DX2 analytically  !
 ! A2    A(1,2,4)              109.5001         calculate D2E/DX2 analytically  !
 ! A3    A(1,2,5)              111.1015         calculate D2E/DX2 analytically  !
 ! A4    A(3,2,4)              109.4403         calculate D2E/DX2 analytically  !
 ! A5    A(3,2,5)              108.636          calculate D2E/DX2 analytically  !
 ! A6    A(4,2,5)              108.636          calculate D2E/DX2 analytically  !
 ! A7    A(2,5,6)              120.5004         calculate D2E/DX2 analytically  !
 ! A8    A(2,5,7)              116.6068         calculate D2E/DX2 analytically  !
 ! A9    A(6,5,7)              122.8928         calculate D2E/DX2 analytically  !
 ! A10   A(5,6,17)             116.9266         calculate D2E/DX2 analytically  !
 ! A11   A(5,6,18)              94.7444         calculate D2E/DX2 analytically  !
 ! A12   A(5,7,8)              119.9926         calculate D2E/DX2 analytically  !
 ! A13   A(5,7,9)              121.9083         calculate D2E/DX2 analytically  !
 ! A14   A(8,7,9)              118.0991         calculate D2E/DX2 analytically  !
 ! A15   A(7,9,10)             109.5            calculate D2E/DX2 analytically  !
 ! A16   A(7,9,11)             111.0992         calculate D2E/DX2 analytically  !
 ! A17   A(7,9,15)             111.0966         calculate D2E/DX2 analytically  !
 ! A18   A(10,9,11)            108.6382         calculate D2E/DX2 analytically  !
 ! A19   A(10,9,15)            108.6373         calculate D2E/DX2 analytically  !
 ! A20   A(11,9,15)            107.7947         calculate D2E/DX2 analytically  !
 ! A21   A(9,11,12)            109.5007         calculate D2E/DX2 analytically  !
 ! A22   A(9,11,13)            109.4959         calculate D2E/DX2 analytically  !
 ! A23   A(9,11,14)            109.4978         calculate D2E/DX2 analytically  !
 ! A24   A(12,11,13)           109.441          calculate D2E/DX2 analytically  !
 ! A25   A(12,11,14)           109.4482         calculate D2E/DX2 analytically  !
 ! A26   A(13,11,14)           109.4436         calculate D2E/DX2 analytically  !
 ! A27   A(9,15,16)            120.4998         calculate D2E/DX2 analytically  !
 ! A28   A(9,15,17)            116.5989         calculate D2E/DX2 analytically  !
 ! A29   A(16,15,17)           122.9013         calculate D2E/DX2 analytically  !
 ! A30   A(6,17,15)            107.3444         calculate D2E/DX2 analytically  !
 ! A31   A(6,17,19)            110.0857         calculate D2E/DX2 analytically  !
 ! A32   A(15,17,18)           120.0026         calculate D2E/DX2 analytically  !
 ! A33   A(15,17,19)           121.898          calculate D2E/DX2 analytically  !
 ! A34   A(18,17,19)           118.0995         calculate D2E/DX2 analytically  !
 ! A35   A(17,19,20)           109.5002         calculate D2E/DX2 analytically  !
 ! A36   A(17,19,21)           109.4963         calculate D2E/DX2 analytically  !
 ! A37   A(17,19,22)           109.4942         calculate D2E/DX2 analytically  !
 ! A38   A(20,19,21)           109.4439         calculate D2E/DX2 analytically  !
 ! A39   A(20,19,22)           109.4453         calculate D2E/DX2 analytically  !
 ! A40   A(21,19,22)           109.4473         calculate D2E/DX2 analytically  !
 ! D1    D(1,2,5,6)              0.0            calculate D2E/DX2 analytically  !
 ! D2    D(1,2,5,7)            180.0            calculate D2E/DX2 analytically  !
 ! D3    D(3,2,5,6)            120.5133         calculate D2E/DX2 analytically  !
 ! D4    D(3,2,5,7)            -59.4867         calculate D2E/DX2 analytically  !
 ! D5    D(4,2,5,6)           -120.5133         calculate D2E/DX2 analytically  !
 ! D6    D(4,2,5,7)             59.4867         calculate D2E/DX2 analytically  !
 ! D7    D(2,5,6,17)           154.4617         calculate D2E/DX2 analytically  !
 ! D8    D(2,5,6,18)           118.8352         calculate D2E/DX2 analytically  !
 ! D9    D(7,5,6,17)           -25.5383         calculate D2E/DX2 analytically  !
 ! D10   D(7,5,6,18)           -61.1648         calculate D2E/DX2 analytically  !
 ! D11   D(2,5,7,8)              0.0            calculate D2E/DX2 analytically  !
 ! D12   D(2,5,7,9)            180.0            calculate D2E/DX2 analytically  !
 ! D13   D(6,5,7,8)            180.0            calculate D2E/DX2 analytically  !
 ! D14   D(6,5,7,9)              0.0            calculate D2E/DX2 analytically  !
 ! D15   D(5,6,17,15)           51.8081         calculate D2E/DX2 analytically  !
 ! D16   D(5,6,17,19)         -173.4728         calculate D2E/DX2 analytically  !
 ! D17   D(5,7,9,10)           119.9998         calculate D2E/DX2 analytically  !
 ! D18   D(5,7,9,11)          -119.9976         calculate D2E/DX2 analytically  !
 ! D19   D(5,7,9,15)             0.0            frozen, calculate D2E/DX2 analyt!
 ! D20   D(8,7,9,10)           -60.0002         calculate D2E/DX2 analytically  !
 ! D21   D(8,7,9,11)            60.0024         calculate D2E/DX2 analytically  !
 ! D22   D(8,7,9,15)           180.0            calculate D2E/DX2 analytically  !
 ! D23   D(7,9,11,12)           60.0024         calculate D2E/DX2 analytically  !
 ! D24   D(7,9,11,13)          179.9986         calculate D2E/DX2 analytically  !
 ! D25   D(7,9,11,14)          -60.0038         calculate D2E/DX2 analytically  !
 ! D26   D(10,9,11,12)        -179.4843         calculate D2E/DX2 analytically  !
 ! D27   D(10,9,11,13)         -59.4881         calculate D2E/DX2 analytically  !
 ! D28   D(10,9,11,14)          60.5095         calculate D2E/DX2 analytically  !
 ! D29   D(15,9,11,12)         -61.938          calculate D2E/DX2 analytically  !
 ! D30   D(15,9,11,13)          58.0582         calculate D2E/DX2 analytically  !
 ! D31   D(15,9,11,14)         178.0558         calculate D2E/DX2 analytically  !
 ! D32   D(7,9,15,16)         -149.9979         calculate D2E/DX2 analytically  !
 ! D33   D(7,9,15,17)           30.0014         frozen, calculate D2E/DX2 analyt!
 ! D34   D(10,9,15,16)          89.491          calculate D2E/DX2 analytically  !
 ! D35   D(10,9,15,17)         -90.5096         calculate D2E/DX2 analytically  !
 ! D36   D(11,9,15,16)         -28.0559         calculate D2E/DX2 analytically  !
 ! D37   D(11,9,15,17)         151.9435         calculate D2E/DX2 analytically  !
 ! D38   D(9,15,17,6)          -51.8169         calculate D2E/DX2 analytically  !
 ! D39   D(9,15,17,18)           0.0004         calculate D2E/DX2 analytically  !
 ! D40   D(9,15,17,19)        -179.9991         calculate D2E/DX2 analytically  !
 ! D41   D(16,15,17,6)         128.1824         calculate D2E/DX2 analytically  !
 ! D42   D(16,15,17,18)        179.9997         calculate D2E/DX2 analytically  !
 ! D43   D(16,15,17,19)          0.0002         calculate D2E/DX2 analytically  !
 ! D44   D(6,17,19,20)        -126.9739         calculate D2E/DX2 analytically  !
 ! D45   D(6,17,19,21)          -6.9742         calculate D2E/DX2 analytically  !
 ! D46   D(6,17,19,22)         113.026          calculate D2E/DX2 analytically  !
 ! D47   D(15,17,19,20)          0.0012         calculate D2E/DX2 analytically  !
 ! D48   D(15,17,19,21)        120.0009         calculate D2E/DX2 analytically  !
 ! D49   D(15,17,19,22)       -119.9989         calculate D2E/DX2 analytically  !
 ! D50   D(18,17,19,20)       -179.9983         calculate D2E/DX2 analytically  !
 ! D51   D(18,17,19,21)        -59.9986         calculate D2E/DX2 analytically  !
 ! D52   D(18,17,19,22)         60.0016         calculate D2E/DX2 analytically  !
 --------------------------------------------------------------------------------
 Trust Radius=3.00D-01 FncErr=1.00D-07 GrdErr=1.00D-06
 Number of steps in this run= 132 maximum allowed number of steps= 132.
 GradGradGradGradGradGradGradGradGradGradGradGradGradGradGradGradGradGrad

                          Input orientation:                          
 ---------------------------------------------------------------------
 Center     Atomic      Atomic             Coordinates (Angstroms)
 Number     Number       Type             X           Y           Z
 ---------------------------------------------------------------------
      1          1           0        0.249600    4.526200    0.000000
      2          6           0        1.117800    3.867200    0.000000
      3          1           0        1.097000    3.238000   -0.889800
      4          1           0        1.097000    3.238000    0.889800
      5          6           0        2.419500    4.671100    0.000000
      6          8           0        2.393800    5.899900    0.000000
      7          7           0        3.555400    3.969700    0.000000
      8          1           0        3.525400    2.960100    0.000000
      9          6           0        4.853300    4.613900    0.000000
     10          1           0        5.407600    4.315500    0.889800
     11          6           0        5.661300    4.220800   -1.232200
     12          1           0        5.123300    4.521400   -2.131200
     13          1           0        6.630500    4.718900   -1.205800
     14          1           0        5.808500    3.140900   -1.241400
     15          6           0        4.712700    6.129400    0.000000
     16          8           0        5.568200    6.835200   -0.529500
     17          7           0        3.628100    6.629100    0.596900
     18          1           0        2.952400    6.008100    1.018500
     19          6           0        3.379400    8.055100    0.663800
     20          1           0        4.190400    8.589500    0.169000
     21          1           0        2.437200    8.283800    0.165800
     22          1           0        3.323300    8.366000    1.707000
 ---------------------------------------------------------------------
                    Distance matrix (angstroms):
                    1          2          3          4          5
     1  H    0.000000
     2  C    1.089978   0.000000
     3  H    1.780250   1.089986   0.000000
     4  H    1.780250   1.089986   1.779600   0.000000
     5  C    2.174733   1.529927   2.143485   2.143485   0.000000
     6  O    2.546497   2.400009   3.091787   3.091787   1.229069
     7  N    3.352314   2.439754   2.714933   2.714933   1.335002
     8  H    3.630914   2.572813   2.601173   2.601173   2.037286
     9  C    4.604535   3.809399   4.098126   4.098126   2.434472
    10  H    5.238426   4.403987   4.786361   4.443228   3.137983
    11  C    5.558604   4.720884   4.681449   5.128510   3.497192
    12  H    5.319303   4.584105   4.404462   5.194675   3.446006
    13  H    6.496689   5.706944   5.736945   6.099527   4.380498
    14  H    5.861868   4.906246   4.725599   5.172009   3.920192
    15  C    4.742311   4.247453   4.714364   4.714364   2.717610
    16  O    5.822315   5.375449   5.749895   5.911505   3.857202
    17  N    4.024020   3.779681   4.485120   4.241676   2.377134
    18  H    3.246305   2.997758   3.841559   3.336544   1.763206
    19  C    4.763341   4.805619   5.552250   5.335249   3.579594
    20  H    5.662939   5.636448   6.271262   6.223120   4.303313
    21  H    4.351165   4.612446   5.326399   5.270712   3.616546
    22  H    5.206299   5.293135   6.164103   5.649833   4.169291
                    6          7          8          9         10
     6  O    0.000000
     7  N    2.252773   0.000000
     8  H    3.150070   1.010046   0.000000
     9  C    2.775416   1.448978   2.120937   0.000000
    10  H    3.519241   2.083739   2.484256   1.089970   0.000000
    11  C    3.874823   2.452791   2.769431   1.525027   2.139209
    12  H    3.727257   2.702720   3.087548   2.150225   3.041326
    13  H    4.560520   3.386959   3.766826   2.150214   2.459625
    14  H    4.562163   2.702673   2.605054   2.150165   2.466256
    15  C    2.330229   2.450234   3.384397   1.522008   2.136554
    16  O    3.351413   3.541585   4.412460   2.392828   2.896393
    17  N    1.552907   2.726533   3.718655   2.432784   2.933455
    18  H    1.166655   2.357122   3.264349   2.567987   2.984873
    19  C    2.461082   4.142716   5.140133   3.801956   4.260197
    20  H    3.238870   4.666298   5.671061   4.034029   4.502022
    21  H    2.390053   4.459744   5.436309   4.396953   5.009477
    22  H    3.139979   4.721776   5.672605   4.396931   4.628031
                   11         12         13         14         15
    11  C    0.000000
    12  H    1.089957   0.000000
    13  H    1.090023   1.779613   0.000000
    14  H    1.089925   1.779613   1.779617   0.000000
    15  C    2.461892   2.701161   2.668599   3.416575   0.000000
    16  O    2.708790   2.849044   2.462639   3.769933   1.228985
    17  N    3.644094   3.757732   3.989110   4.505666   1.335046
    18  H    3.949460   4.104107   4.487535   4.635223   2.037330
    19  C    4.848066   4.831175   5.019491   5.803419   2.434469
    20  H    4.817930   4.765570   4.777626   5.856169   2.520605
    21  H    5.371889   5.162073   5.672174   6.308351   3.137966
    22  H    5.593552   5.723000   5.720430   6.493917   3.137939
                   16         17         18         19         20
    16  O    0.000000
    17  N    2.252830   0.000000
    18  H    3.150049   1.009930   0.000000
    19  C    2.775422   1.449070   2.120931   0.000000
    20  H    2.337478   2.083854   2.986289   1.090014   0.000000
    21  H    3.519239   2.083776   2.484218   1.089976   1.779655
    22  H    3.519213   2.083758   2.484208   1.089987   1.779679
                   21         22
    21  H    0.000000
    22  H    1.779671   0.000000
 Stoichiometry    C6H12N2O2
 Framework group  C1[X(C6H12N2O2)]
 Deg. of freedom    60
 Full point group                 C1      NOp   1
 Largest Abelian subgroup         C1      NOp   1
 Largest concise Abelian subgroup C1      NOp   1
                         Standard orientation:                         
 ---------------------------------------------------------------------
 Center     Atomic      Atomic             Coordinates (Angstroms)
 Number     Number       Type             X           Y           Z
 ---------------------------------------------------------------------
      1          1           0        3.256218   -1.387029   -0.543860
      2          6           0        3.014663   -0.384083   -0.192001
      3          1           0        3.402177    0.351828   -0.896513
      4          1           0        3.467135   -0.222955    0.786455
      5          6           0        1.501727   -0.193220   -0.068420
      6          8           0        0.732280   -1.108892   -0.351450
      7          7           0        1.082430    1.001167    0.355682
      8          1           0        1.753756    1.722873    0.576255
      9          6           0       -0.325039    1.306757    0.514375
     10          1           0       -0.525344    1.570064    1.552924
     11          6           0       -0.736236    2.476808   -0.373097
     12          1           0       -0.550161    2.224626   -1.417025
     13          1           0       -1.797240    2.683990   -0.233470
     14          1           0       -0.155777    3.359150   -0.103884
     15          6           0       -1.190627    0.112200    0.139808
     16          8           0       -2.318248    0.278642   -0.319726
     17          7           0       -0.659291   -1.096467    0.337677
     18          1           0        0.272265   -1.182471    0.718156
     19          6           0       -1.382191   -2.311822    0.021241
     20          1           0       -2.364401   -2.057672   -0.377259
     21          1           0       -0.825819   -2.882996   -0.721900
     22          1           0       -1.500815   -2.910148    0.924572
 ---------------------------------------------------------------------
 Rotational constants (GHZ):      1.7591779      1.3581432      0.8190834
 Standard basis: 6-31G(d) (6D, 7F)
 There are   174 symmetry adapted basis functions of A   symmetry.
 Integral buffers will be    131072 words long.
 Raffenetti 2 integral format.
 Two-electron integral symmetry is turned on.
   174 basis functions,   328 primitive gaussians,   174 cartesian basis functions
    39 alpha electrons       39 beta electrons
       nuclear repulsion energy       598.2333168692 Hartrees.
 NAtoms=   22 NActive=   22 NUniq=   22 SFac= 7.50D-01 NAtFMM=   80 NAOKFM=F Big=F
 One-electron integrals computed using PRISM.
 NBasis=   174 RedAO= T  NBF=   174
 NBsUse=   174 1.00D-06 NBFU=   174
 Harris functional with IExCor=  402 diagonalized for initial guess.
 ExpMin= 1.61D-01 ExpMax= 5.48D+03 ExpMxC= 8.25D+02 IAcc=1 IRadAn=         1 AccDes= 0.00D+00
 HarFok:  IExCor=  402 AccDes= 0.00D+00 IRadAn=         1 IDoV= 1
 ScaDFX=  1.000000  1.000000  1.000000  1.000000
 FoFCou: FMM=F IPFlag=           0 FMFlag=      100000 FMFlg1=           0
         NFxFlg=           0 DoJE=T BraDBF=F KetDBF=T FulRan=T
         Omega=  0.000000  0.000000  1.000000  0.000000  0.000000 ICntrl=     500 IOpCl=  0
         NMat0=    1 NMatS0=    1 NMatT0=    0 NMatD0=    1 NMtDS0=    0 NMtDT0=    0
         I1Cent=           4 NGrid=           0.
 Petite list used in FoFCou.
 Initial guess orbital symmetries:
       Occupied  (A) (A) (A) (A) (A) (A) (A) (A) (A) (A) (A) (A)
                 (A) (A) (A) (A) (A) (A) (A) (A) (A) (A) (A) (A)
                 (A) (A) (A) (A) (A) (A) (A) (A) (A) (A) (A) (A)
                 (A) (A) (A)
       Virtual   (A) (A) (A) (A) (A) (A) (A) (A) (A) (A) (A) (A)
                 (A) (A) (A) (A) (A) (A) (A) (A) (A) (A) (A) (A)
                 (A) (A) (A) (A) (A) (A) (A) (A) (A) (A) (A) (A)
                 (A) (A) (A) (A) (A) (A) (A) (A) (A) (A) (A) (A)
                 (A) (A) (A) (A) (A) (A) (A) (A) (A) (A) (A) (A)
                 (A) (A) (A) (A) (A) (A) (A) (A) (A) (A) (A) (A)
                 (A) (A) (A) (A) (A) (A) (A) (A) (A) (A) (A) (A)
                 (A) (A) (A) (A) (A) (A) (A) (A) (A) (A) (A) (A)
                 (A) (A) (A) (A) (A) (A) (A) (A) (A) (A) (A) (A)
                 (A) (A) (A) (A) (A) (A) (A) (A) (A) (A) (A) (A)
                 (A) (A) (A) (A) (A) (A) (A) (A) (A) (A) (A) (A)
                 (A) (A) (A)
 The electronic state of the initial guess is 1-A.
 Requested convergence on RMS density matrix=1.00D-08 within 128 cycles.
 Requested convergence on MAX density matrix=1.00D-06.
 Requested convergence on             energy=1.00D-06.
 No special actions if energy rises.
 Integral accuracy reduced to 1.0D-05 until final iterations.
 Initial convergence to 1.0D-05 achieved.  Increase integral accuracy.
 SCF Done:  E(RB3LYP) =  -495.536507957     A.U. after   20 cycles
             Convg  =    0.4017D-08             -V/T =  2.0056
 Range of M.O.s used for correlation:     1   174
 NBasis=   174 NAE=    39 NBE=    39 NFC=     0 NFV=     0
 NROrb=    174 NOA=    39 NOB=    39 NVA=   135 NVB=   135
 Symmetrizing basis deriv contribution to polar:
 IMax=3 JMax=2 DiffMx= 0.00D+00
 G2DrvN: will do    23 centers at a time, making    1 passes doing MaxLOS=2.
 Calling FoFCou, ICntrl=  3107 FMM=F I1Cent=   0 AccDes= 0.00D+00.
 FoFDir/FoFCou used for L=0 through L=2.
 End of G2Drv Frequency-dependent properties file   721 does not exist.
 End of G2Drv Frequency-dependent properties file   722 does not exist.
          IDoAtm=1111111111111111111111
          Differentiating once with respect to nuclear coordinates.
          There are    69 degrees of freedom in the 1st order CPHF.  IDoFFX=5.
     63 vectors produced by pass  0 Test12= 7.63D-11 1.45D-07 XBig12= 7.01D-01 5.84D-01.
 AX will form    63 AO Fock derivatives at one time.
     63 vectors produced by pass  1 Test12= 7.63D-11 1.45D-07 XBig12= 3.20D-02 5.92D-02.
     63 vectors produced by pass  2 Test12= 7.63D-11 1.45D-07 XBig12= 1.25D-04 1.91D-03.
     63 vectors produced by pass  3 Test12= 7.63D-11 1.45D-07 XBig12= 4.69D-07 8.56D-05.
     33 vectors produced by pass  4 Test12= 7.63D-11 1.45D-07 XBig12= 6.13D-10 2.30D-06.
 Inverted reduced A of dimension   285 with in-core refinement.
 End of Minotr Frequency-dependent properties file   721 does not exist.
 End of Minotr Frequency-dependent properties file   722 does not exist.

 **********************************************************************

            Population analysis using the SCF density.

 **********************************************************************

 Orbital symmetries:
       Occupied  (A) (A) (A) (A) (A) (A) (A) (A) (A) (A) (A) (A)
                 (A) (A) (A) (A) (A) (A) (A) (A) (A) (A) (A) (A)
                 (A) (A) (A) (A) (A) (A) (A) (A) (A) (A) (A) (A)
                 (A) (A) (A)
       Virtual   (A) (A) (A) (A) (A) (A) (A) (A) (A) (A) (A) (A)
                 (A) (A) (A) (A) (A) (A) (A) (A) (A) (A) (A) (A)
                 (A) (A) (A) (A) (A) (A) (A) (A) (A) (A) (A) (A)
                 (A) (A) (A) (A) (A) (A) (A) (A) (A) (A) (A) (A)
                 (A) (A) (A) (A) (A) (A) (A) (A) (A) (A) (A) (A)
                 (A) (A) (A) (A) (A) (A) (A) (A) (A) (A) (A) (A)
                 (A) (A) (A) (A) (A) (A) (A) (A) (A) (A) (A) (A)
                 (A) (A) (A) (A) (A) (A) (A) (A) (A) (A) (A) (A)
                 (A) (A) (A) (A) (A) (A) (A) (A) (A) (A) (A) (A)
                 (A) (A) (A) (A) (A) (A) (A) (A) (A) (A) (A) (A)
                 (A) (A) (A) (A) (A) (A) (A) (A) (A) (A) (A) (A)
                 (A) (A) (A)
 The electronic state is 1-A.
 Alpha  occ. eigenvalues --  -19.14406 -19.05555 -14.38069 -14.33967 -10.28995
 Alpha  occ. eigenvalues --  -10.22941 -10.22858 -10.19991 -10.19728 -10.17187
 Alpha  occ. eigenvalues --   -1.15380  -0.98663  -0.96410  -0.89862  -0.78270
 Alpha  occ. eigenvalues --   -0.73397  -0.70451  -0.66543  -0.63460  -0.59969
 Alpha  occ. eigenvalues --   -0.53519  -0.51908  -0.49376  -0.47088  -0.45145
 Alpha  occ. eigenvalues --   -0.43334  -0.42255  -0.41073  -0.40235  -0.39511
 Alpha  occ. eigenvalues --   -0.38983  -0.37131  -0.35963  -0.35206  -0.33492
 Alpha  occ. eigenvalues --   -0.28557  -0.26919  -0.21016  -0.10179
 Alpha virt. eigenvalues --    0.00239   0.04973   0.07821   0.11386   0.11875
 Alpha virt. eigenvalues --    0.13518   0.14530   0.15116   0.15447   0.16401
 Alpha virt. eigenvalues --    0.17387   0.17893   0.19033   0.19665   0.20527
 Alpha virt. eigenvalues --    0.21254   0.23470   0.26779   0.27933   0.34738
 Alpha virt. eigenvalues --    0.36792   0.38805   0.44078   0.50421   0.51850
 Alpha virt. eigenvalues --    0.53128   0.53579   0.53941   0.55243   0.56842
 Alpha virt. eigenvalues --    0.58540   0.59413   0.61988   0.62824   0.65396
 Alpha virt. eigenvalues --    0.67828   0.70494   0.71412   0.73886   0.75753
 Alpha virt. eigenvalues --    0.75969   0.78872   0.80661   0.81437   0.82727
 Alpha virt. eigenvalues --    0.86291   0.87103   0.87424   0.88465   0.89122
 Alpha virt. eigenvalues --    0.89362   0.91485   0.93866   0.94434   0.95899
 Alpha virt. eigenvalues --    0.96765   0.97547   0.98745   1.00928   1.03305
 Alpha virt. eigenvalues --    1.07526   1.09660   1.12951   1.16111   1.20908
 Alpha virt. eigenvalues --    1.23527   1.26237   1.28498   1.34827   1.36143
 Alpha virt. eigenvalues --    1.39619   1.43913   1.44916   1.48797   1.51335
 Alpha virt. eigenvalues --    1.58221   1.63013   1.65937   1.69997   1.71975
 Alpha virt. eigenvalues --    1.75516   1.76326   1.83156   1.85253   1.85359
 Alpha virt. eigenvalues --    1.87103   1.89850   1.91779   1.92947   1.95476
 Alpha virt. eigenvalues --    1.97221   1.98464   2.02402   2.04848   2.08205
 Alpha virt. eigenvalues --    2.10929   2.12293   2.14420   2.16413   2.20074
 Alpha virt. eigenvalues --    2.21113   2.25674   2.29736   2.31399   2.32606
 Alpha virt. eigenvalues --    2.34648   2.37316   2.38070   2.43530   2.46687
 Alpha virt. eigenvalues --    2.50996   2.57766   2.58884   2.64280   2.67206
 Alpha virt. eigenvalues --    2.71138   2.72880   2.75486   2.86851   2.89460
 Alpha virt. eigenvalues --    2.96862   3.03128   3.07614   3.21768   3.30488
 Alpha virt. eigenvalues --    3.99079   4.02878   4.14596   4.19122   4.23945
 Alpha virt. eigenvalues --    4.28625   4.35204   4.47488   4.49135   4.72438
          Condensed to atoms (all electrons):
              1          2          3          4          5          6
     1  H    0.506932   0.362504  -0.021593  -0.020724  -0.018942   0.003341
     2  C    0.362504   5.332471   0.368022   0.307195   0.371854  -0.061335
     3  H   -0.021593   0.368022   0.532641  -0.030317  -0.026122   0.000852
     4  H   -0.020724   0.307195  -0.030317   0.617362  -0.039537   0.001194
     5  C   -0.018942   0.371854  -0.026122  -0.039537   4.597089   0.440406
     6  O    0.003341  -0.061335   0.000852   0.001194   0.440406   9.158787
     7  N    0.004342  -0.139717   0.000618   0.013548   0.245551  -0.106787
     8  H   -0.000013  -0.002361   0.001176   0.001446  -0.028914   0.003056
     9  C   -0.000133   0.004819  -0.000047   0.000098  -0.020368   0.000225
    10  H    0.000004  -0.000411  -0.000006   0.000082  -0.003313  -0.000728
    11  C    0.000002  -0.000031   0.000029  -0.000025   0.002893   0.001213
    12  H    0.000001  -0.000100   0.000002   0.000004   0.001379  -0.000247
    13  H    0.000000   0.000005   0.000000   0.000000  -0.000062   0.000031
    14  H    0.000000   0.000007   0.000003  -0.000004   0.000001   0.000004
    15  C    0.000047  -0.000507   0.000002  -0.000020  -0.016065  -0.005923
    16  O    0.000000   0.000000   0.000000   0.000000  -0.000523   0.001132
    17  N    0.000082  -0.005290  -0.000188   0.001097   0.016448  -0.866417
    18  H    0.000604  -0.014329   0.000122   0.002001  -0.025652  -0.139884
    19  C   -0.000014   0.000054   0.000004  -0.000018   0.003116   0.013283
    20  H    0.000001  -0.000005   0.000000   0.000000   0.000051  -0.003288
    21  H   -0.000002   0.000199   0.000001  -0.000015  -0.001408   0.027961
    22  H    0.000001  -0.000007   0.000000   0.000001  -0.000234  -0.000346
              7          8          9         10         11         12
     1  H    0.004342  -0.000013  -0.000133   0.000004   0.000002   0.000001
     2  C   -0.139717  -0.002361   0.004819  -0.000411  -0.000031  -0.000100
     3  H    0.000618   0.001176  -0.000047  -0.000006   0.000029   0.000002
     4  H    0.013548   0.001446   0.000098   0.000082  -0.000025   0.000004
     5  C    0.245551  -0.028914  -0.020368  -0.003313   0.002893   0.001379
     6  O   -0.106787   0.003056   0.000225  -0.000728   0.001213  -0.000247
     7  N    7.162727   0.314021   0.163181  -0.041640  -0.059573  -0.002314
     8  H    0.314021   0.399201  -0.022331  -0.001874  -0.000967  -0.000262
     9  C    0.163181  -0.022331   5.207157   0.371333   0.366356  -0.032080
    10  H   -0.041640  -0.001874   0.371333   0.581268  -0.047631   0.005618
    11  C   -0.059573  -0.000967   0.366356  -0.047631   5.111080   0.377602
    12  H   -0.002314  -0.000262  -0.032080   0.005618   0.377602   0.548529
    13  H    0.005303  -0.000213  -0.027077  -0.000779   0.362627  -0.020093
    14  H   -0.000731   0.003331  -0.039510  -0.003817   0.350310  -0.033416
    15  C   -0.008929   0.002058   0.299149  -0.028400  -0.040598  -0.004522
    16  O    0.002660  -0.000078  -0.097915   0.000871  -0.000430   0.000519
    17  N    0.021826  -0.000195  -0.133756   0.000196   0.002771   0.000449
    18  H    0.022000  -0.000414  -0.000918   0.001601   0.000039   0.000038
    19  C   -0.000768   0.000029   0.007977  -0.000362  -0.000056  -0.000029
    20  H   -0.000018   0.000001   0.001407  -0.000005  -0.000034  -0.000001
    21  H   -0.000133  -0.000002  -0.000035  -0.000017   0.000024  -0.000004
    22  H    0.000041   0.000000  -0.000259   0.000036  -0.000004   0.000000
             13         14         15         16         17         18
     1  H    0.000000   0.000000   0.000047   0.000000   0.000082   0.000604
     2  C    0.000005   0.000007  -0.000507   0.000000  -0.005290  -0.014329
     3  H    0.000000   0.000003   0.000002   0.000000  -0.000188   0.000122
     4  H    0.000000  -0.000004  -0.000020   0.000000   0.001097   0.002001
     5  C   -0.000062   0.000001  -0.016065  -0.000523   0.016448  -0.025652
     6  O    0.000031   0.000004  -0.005923   0.001132  -0.866417  -0.139884
     7  N    0.005303  -0.000731  -0.008929   0.002660   0.021826   0.022000
     8  H   -0.000213   0.003331   0.002058  -0.000078  -0.000195  -0.000414
     9  C   -0.027077  -0.039510   0.299149  -0.097915  -0.133756  -0.000918
    10  H   -0.000779  -0.003817  -0.028400   0.000871   0.000196   0.001601
    11  C    0.362627   0.350310  -0.040598  -0.000430   0.002771   0.000039
    12  H   -0.020093  -0.033416  -0.004522   0.000519   0.000449   0.000038
    13  H    0.506865  -0.026146  -0.003805   0.013842   0.000500  -0.000057
    14  H   -0.026146   0.626215   0.006551   0.000967  -0.000076  -0.000018
    15  C   -0.003805   0.006551   4.438878   0.571117   0.274783  -0.021803
    16  O    0.013842   0.000967   0.571117   8.172169  -0.101558   0.003563
    17  N    0.000500  -0.000076   0.274783  -0.101558   7.781032   0.362969
    18  H   -0.000057  -0.000018  -0.021803   0.003563   0.362969   0.465943
    19  C    0.000002   0.000003  -0.015717  -0.012665   0.252646  -0.038886
    20  H   -0.000019   0.000000  -0.000746   0.023919  -0.032990   0.004389
    21  H    0.000001   0.000000   0.003169   0.000732  -0.078106  -0.002735
    22  H    0.000000   0.000000   0.000099   0.000710  -0.035727  -0.001197
             19         20         21         22
     1  H   -0.000014   0.000001  -0.000002   0.000001
     2  C    0.000054  -0.000005   0.000199  -0.000007
     3  H    0.000004   0.000000   0.000001   0.000000
     4  H   -0.000018   0.000000  -0.000015   0.000001
     5  C    0.003116   0.000051  -0.001408  -0.000234
     6  O    0.013283  -0.003288   0.027961  -0.000346
     7  N   -0.000768  -0.000018  -0.000133   0.000041
     8  H    0.000029   0.000001  -0.000002   0.000000
     9  C    0.007977   0.001407  -0.000035  -0.000259
    10  H   -0.000362  -0.000005  -0.000017   0.000036
    11  C   -0.000056  -0.000034   0.000024  -0.000004
    12  H   -0.000029  -0.000001  -0.000004   0.000000
    13  H    0.000002  -0.000019   0.000001   0.000000
    14  H    0.000003   0.000000   0.000000   0.000000
    15  C   -0.015717  -0.000746   0.003169   0.000099
    16  O   -0.012665   0.023919   0.000732   0.000710
    17  N    0.252646  -0.032990  -0.078106  -0.035727
    18  H   -0.038886   0.004389  -0.002735  -0.001197
    19  C    4.996385   0.365868   0.368175   0.377370
    20  H    0.365868   0.488881  -0.031791  -0.020774
    21  H    0.368175  -0.031791   0.606885  -0.042994
    22  H    0.377370  -0.020774  -0.042994   0.571719
 Mulliken atomic charges:
              1
     1  H    0.183560
     2  C   -0.523036
     3  H    0.174801
     4  H    0.146632
     5  C    0.502354
     6  O   -0.466530
     7  N   -0.595209
     8  H    0.333307
     9  C   -0.047275
    10  H    0.167974
    11  C   -0.425597
    12  H    0.158926
    13  H    0.189076
    14  H    0.116326
    15  C    0.551180
    16  O   -0.579031
    17  N   -0.460498
    18  H    0.382622
    19  C   -0.316398
    20  H    0.205155
    21  H    0.150095
    22  H    0.151565
 Sum of Mulliken atomic charges =   0.00000
 Mulliken charges with hydrogens summed into heavy atoms:
              1
     2  C   -0.018043
     5  C    0.502354
     6  O   -0.466530
     7  N   -0.261902
     9  C    0.120699
    11  C    0.038731
    15  C    0.551180
    16  O   -0.579031
    17  N   -0.077875
    19  C    0.190417
 Sum of Mulliken charges with hydrogens summed into heavy atoms =   0.00000
 APT atomic charges:
              1
     1  H    0.510147
     2  C   -1.219596
     3  H    0.480693
     4  H    0.358131
     5  C    0.201350
     6  O   -0.312952
     7  N   -0.789536
     8  H    0.741396
     9  C   -0.378936
    10  H    0.473630
    11  C   -1.213590
    12  H    0.279378
    13  H    0.514610
    14  H    0.482063
    15  C   -0.298290
    16  O   -0.114791
    17  N   -0.232147
    18  H    0.354516
    19  C   -1.246513
    20  H    0.487236
    21  H    0.398372
    22  H    0.524829
 Sum of APT charges=   0.00000
 APT Atomic charges with hydrogens summed into heavy atoms:
              1
     1  H    0.000000
     2  C    0.129375
     3  H    0.000000
     4  H    0.000000
     5  C    0.201350
     6  O   -0.312952
     7  N   -0.048140
     8  H    0.000000
     9  C    0.094695
    10  H    0.000000
    11  C    0.062461
    12  H    0.000000
    13  H    0.000000
    14  H    0.000000
    15  C   -0.298290
    16  O   -0.114791
    17  N    0.122369
    18  H    0.000000
    19  C    0.163924
    20  H    0.000000
    21  H    0.000000
    22  H    0.000000
 Sum of APT charges=   0.00000
 Electronic spatial extent (au):  <R**2>=           1470.4211
 Charge=              0.0000 electrons
 Dipole moment (field-independent basis, Debye):
    X=              5.2686    Y=              0.7073    Z=              1.8796  Tot=              5.6383
 Quadrupole moment (field-independent basis, Debye-Ang):
   XX=            -64.8712   YY=            -54.0906   ZZ=            -59.6425
   XY=              4.6238   XZ=             -0.9501   YZ=              0.7478
 Traceless Quadrupole moment (field-independent basis, Debye-Ang):
   XX=             -5.3364   YY=              5.4442   ZZ=             -0.1077
   XY=              4.6238   XZ=             -0.9501   YZ=              0.7478
 Octapole moment (field-independent basis, Debye-Ang**2):
  XXX=             34.8077  YYY=             -3.7621  ZZZ=             -0.5039  XYY=             -1.7203
  XXY=             -2.7809  XXZ=              2.8161  XZZ=              0.6832  YZZ=             -0.2247
  YYZ=              4.3858  XYZ=             -0.6810
 Hexadecapole moment (field-independent basis, Debye-Ang**3):
 XXXX=          -1030.8800 YYYY=           -789.7126 ZZZZ=           -119.7012 XXXY=             19.2490
 XXXZ=            -14.1941 YYYX=             15.6825 YYYZ=              8.2803 ZZZX=              1.1753
 ZZZY=              1.7370 XXYY=           -273.8836 XXZZ=           -183.0685 YYZZ=           -151.3476
 XXYZ=              7.3589 YYXZ=              3.1992 ZZXY=              1.0870
 N-N= 5.982333168692D+02 E-N=-2.353477366835D+03  KE= 4.927944378972D+02
  Exact polarizability:   0.000   0.000   0.000   0.000   0.000   0.000
 Approx polarizability: 196.401   0.785 147.881   4.939   5.424  88.967
 Calling FoFJK, ICntrl=    100147 FMM=F ISym2X=0 I1Cent= 0 IOpClX= 0 NMat=1 NMatS=1 NMatT=0.
 ***** Axes restored to original set *****
 -------------------------------------------------------------------
 Center     Atomic                   Forces (Hartrees/Bohr)
 Number     Number              X              Y              Z
 -------------------------------------------------------------------
      1        1           0.001903713    0.001797815   -0.000198892
      2        6           0.012732048    0.001333474    0.020115827
      3        1          -0.000807414   -0.002278802   -0.002123079
      4        1          -0.008181713   -0.010750285    0.003719851
      5        6          -0.065308623   -0.056329899   -0.034754007
      6        8          -0.299303956   -0.117749140   -0.228067524
      7        7           0.020487656   -0.007909142   -0.000132769
      8        1          -0.002783726    0.000033509    0.001041554
      9        6           0.009039815    0.003669024   -0.012747381
     10        1           0.000603181   -0.002188454    0.006780670
     11        6           0.000630712   -0.004702703    0.002859472
     12        1           0.000938925    0.000446158   -0.003059971
     13        1          -0.000505701    0.001028570   -0.001410342
     14        1           0.001755790   -0.005412071   -0.002552363
     15        6           0.004887760    0.014939696    0.025774628
     16        8           0.028519021    0.015977329   -0.022902081
     17        7           0.246551566    0.135414495    0.139442525
     18        1           0.046598095    0.036119604    0.105690702
     19        6           0.009343531   -0.004786810    0.003885132
     20        1           0.001145898   -0.002318138   -0.001005580
     21        1          -0.006335810    0.000801854   -0.003507615
     22        1          -0.001910770    0.002863914    0.003151244
 -------------------------------------------------------------------
 Cartesian Forces:  Max     0.299303956 RMS     0.065331550

 GradGradGradGradGradGradGradGradGradGradGradGradGradGradGradGradGradGrad
 Berny optimization.
 Internal  Forces:  Max     0.273613014 RMS     0.033074494
 Search for a local minimum.
 Step number   1 out of a maximum of  132
 All quantities printed in internal units (Hartrees-Bohrs-Radians)
 Mixed Optimization -- RFO/linear search
 Second derivative matrix not updated -- analytic derivatives used.
     Eigenvalues ---   -0.00822  -0.00088   0.00021   0.00088   0.00261
     Eigenvalues ---    0.00601   0.01377   0.01921   0.02469   0.03396
     Eigenvalues ---    0.04581   0.04685   0.04920   0.04992   0.05155
     Eigenvalues ---    0.05749   0.05974   0.06035   0.07248   0.08454
     Eigenvalues ---    0.11129   0.12132   0.12544   0.12967   0.13202
     Eigenvalues ---    0.13327   0.13548   0.14001   0.15716   0.16864
     Eigenvalues ---    0.17003   0.17787   0.18211   0.19211   0.20249
     Eigenvalues ---    0.22315   0.25226   0.27500   0.30166   0.31604
     Eigenvalues ---    0.33282   0.33904   0.34463   0.34535   0.34853
     Eigenvalues ---    0.35265   0.35333   0.35453   0.35838   0.35921
     Eigenvalues ---    0.36313   0.37761   0.39065   0.46745   0.48525
     Eigenvalues ---    0.51666   0.73950   0.828801000.000001000.00000
     Eigenvalues --- 1000.000001000.000001000.000001000.000001000.00000
     Eigenvalues --- 1000.000001000.000001000.000001000.000001000.00000
     Eigenvalues --- 1000.000001000.000001000.000001000.000001000.00000
     Eigenvalues --- 1000.000001000.000001000.000001000.000001000.00000
     Eigenvalues --- 1000.000001000.000001000.000001000.000001000.00000
     Eigenvalues --- 1000.000001000.000001000.000001000.000001000.00000
     Eigenvalues --- 1000.000001000.000001000.000001000.000001000.00000
     Eigenvalues --- 1000.000001000.000001000.000001000.000001000.00000
     Eigenvalues --- 1000.000001000.000001000.000001000.000001000.00000
     Eigenvalues --- 1000.000001000.000001000.000001000.000001000.00000
     Eigenvalues --- 1000.000001000.000001000.000001000.000001000.00000
 RFO step:  Lambda=-2.61537953D-01 EMin=-8.21538695D-03
 Linear search not attempted -- first point.
 Maximum step size (   0.300) exceeded in Quadratic search.
    -- Step size scaled by   0.227
 Iteration  1 RMS(Cart)=  0.04387362 RMS(Int)=  0.00098125
 Iteration  2 RMS(Cart)=  0.00149304 RMS(Int)=  0.00031317
 Iteration  3 RMS(Cart)=  0.00000220 RMS(Int)=  0.00031316
 Iteration  4 RMS(Cart)=  0.00000000 RMS(Int)=  0.00031316
 Iteration  1 RMS(Cart)=  0.00004004 RMS(Int)=  0.00006146
 Iteration  2 RMS(Cart)=  0.00003507 RMS(Int)=  0.00006416
 Iteration  3 RMS(Cart)=  0.00003130 RMS(Int)=  0.00007049
 Iteration  4 RMS(Cart)=  0.00002818 RMS(Int)=  0.00007852
 Iteration  5 RMS(Cart)=  0.00002549 RMS(Int)=  0.00008714
 Iteration  6 RMS(Cart)=  0.00002310 RMS(Int)=  0.00009579
 Iteration  7 RMS(Cart)=  0.00002096 RMS(Int)=  0.00010416
 Iteration  8 RMS(Cart)=  0.00001903 RMS(Int)=  0.00011209
 Iteration  9 RMS(Cart)=  0.00001729 RMS(Int)=  0.00011953
 Iteration 10 RMS(Cart)=  0.00001571 RMS(Int)=  0.00012644
 Iteration 11 RMS(Cart)=  0.00001427 RMS(Int)=  0.00013283
 Iteration 12 RMS(Cart)=  0.00001297 RMS(Int)=  0.00013871
 Iteration 13 RMS(Cart)=  0.00001179 RMS(Int)=  0.00014412
 Iteration 14 RMS(Cart)=  0.00001071 RMS(Int)=  0.00014907
 Iteration 15 RMS(Cart)=  0.00000973 RMS(Int)=  0.00015360
 Iteration 16 RMS(Cart)=  0.00000885 RMS(Int)=  0.00015775
 Iteration 17 RMS(Cart)=  0.00000804 RMS(Int)=  0.00016153
 Iteration 18 RMS(Cart)=  0.00000731 RMS(Int)=  0.00016498
 Iteration 19 RMS(Cart)=  0.00000664 RMS(Int)=  0.00016813
 Iteration 20 RMS(Cart)=  0.00000604 RMS(Int)=  0.00017100
 Iteration 21 RMS(Cart)=  0.00000548 RMS(Int)=  0.00017362
 Iteration 22 RMS(Cart)=  0.00000498 RMS(Int)=  0.00017600
 Iteration 23 RMS(Cart)=  0.00000453 RMS(Int)=  0.00017817
 Iteration 24 RMS(Cart)=  0.00000412 RMS(Int)=  0.00018014
 Iteration 25 RMS(Cart)=  0.00000374 RMS(Int)=  0.00018194
 Iteration 26 RMS(Cart)=  0.00000340 RMS(Int)=  0.00018358
 Iteration 27 RMS(Cart)=  0.00000309 RMS(Int)=  0.00018506
 Iteration 28 RMS(Cart)=  0.00000281 RMS(Int)=  0.00018642
 Iteration 29 RMS(Cart)=  0.00000255 RMS(Int)=  0.00018765
 Iteration 30 RMS(Cart)=  0.00000232 RMS(Int)=  0.00018877
 Iteration 31 RMS(Cart)=  0.00000211 RMS(Int)=  0.00018979
 Iteration 32 RMS(Cart)=  0.00000192 RMS(Int)=  0.00019071
 Iteration 33 RMS(Cart)=  0.00000174 RMS(Int)=  0.00019156
 Iteration 34 RMS(Cart)=  0.00000158 RMS(Int)=  0.00019232
 Iteration 35 RMS(Cart)=  0.00000144 RMS(Int)=  0.00019302
 Iteration 36 RMS(Cart)=  0.00000131 RMS(Int)=  0.00019365
 Iteration 37 RMS(Cart)=  0.00000119 RMS(Int)=  0.00019423
 Iteration 38 RMS(Cart)=  0.00000108 RMS(Int)=  0.00019475
 Iteration 39 RMS(Cart)=  0.00000098 RMS(Int)=  0.00019523
 Variable       Old X    -DE/DX   Delta X   Delta X   Delta X     New X
                                 (Linear)    (Quad)   (Total)
    R1        2.05976  -0.00042   0.00000  -0.00101  -0.00101   2.05875
    R2        2.05977   0.00306   0.00000   0.00095   0.00095   2.06072
    R3        2.05977   0.00940   0.00000  -0.00258  -0.00258   2.05720
    R4        2.89114   0.00040   0.00000   0.01319   0.01319   2.90434
    R5        2.32260   0.05408   0.00000  -0.02435  -0.02449   2.29811
    R6        2.52279   0.03371   0.00000  -0.00429  -0.00467   2.51812
    R7        2.93457   0.27361   0.00000   0.20736   0.20629   3.14085
    R8        2.20466   0.15952   0.00000   0.02420   0.02598   2.23064
    R9        1.90871   0.00005   0.00000   0.00230   0.00230   1.91101
   R10        2.73817   0.03495   0.00000   0.01688   0.01658   2.75475
   R11        2.05975   0.00644   0.00000   0.00147   0.00147   2.06121
   R12        2.88188   0.00708   0.00000   0.00259   0.00259   2.88448
   R13        2.87618   0.02524   0.00000   0.02357   0.02371   2.89989
   R14        2.05972   0.00218   0.00000   0.00096   0.00096   2.06068
   R15        2.05984  -0.00002   0.00000  -0.00044  -0.00044   2.05940
   R16        2.05966   0.00562   0.00000   0.00230   0.00230   2.06196
   R17        2.32245   0.03889   0.00000  -0.00237  -0.00237   2.32007
   R18        2.52287   0.02215   0.00000  -0.01795  -0.01814   2.50473
   R19        1.90849   0.02434   0.00000   0.00936   0.01018   1.91867
   R20        2.73835  -0.00365   0.00000  -0.00831  -0.00831   2.73003
   R21        2.05983   0.00018   0.00000   0.00130   0.00130   2.06113
   R22        2.05976   0.00724   0.00000   0.00464   0.00464   2.06440
   R23        2.05978   0.00393   0.00000   0.00352   0.00352   2.06330
    A1        1.91114   0.00040   0.00000   0.00397   0.00398   1.91512
    A2        1.91114  -0.00312   0.00000   0.00138   0.00134   1.91248
    A3        1.93909  -0.00669   0.00000  -0.00833  -0.00834   1.93075
    A4        1.91009  -0.00613   0.00000  -0.00001   0.00000   1.91009
    A5        1.89606  -0.00074   0.00000   0.00720   0.00721   1.90327
    A6        1.89606   0.01633   0.00000  -0.00417  -0.00418   1.89187
    A7        2.10313   0.01956   0.00000   0.01831   0.01824   2.12137
    A8        2.03517   0.00221   0.00000  -0.00858  -0.00864   2.02654
    A9        2.14488  -0.02178   0.00000  -0.00972  -0.01007   2.13482
   A10        2.04075  -0.03138   0.00000   0.00270   0.00252   2.04328
   A11        1.65360   0.04174   0.00000   0.04100   0.04219   1.69579
   A12        2.09427  -0.02299   0.00000  -0.00744  -0.00725   2.08702
   A13        2.12770   0.04066   0.00000   0.01906   0.01867   2.14637
   A14        2.06122  -0.01767   0.00000  -0.01162  -0.01143   2.04979
   A15        1.91114  -0.00665   0.00000  -0.00289  -0.00301   1.90812
   A16        1.93905  -0.01307   0.00000  -0.01132  -0.01123   1.92782
   A17        1.93900   0.02431   0.00000   0.02059   0.02066   1.95966
   A18        1.89609   0.00593   0.00000   0.00216   0.00214   1.89823
   A19        1.89608  -0.01432   0.00000  -0.00965  -0.00962   1.88646
   A20        1.88137   0.00354   0.00000   0.00082   0.00076   1.88213
   A21        1.91115   0.00233   0.00000   0.00261   0.00261   1.91375
   A22        1.91106  -0.00029   0.00000  -0.00180  -0.00180   1.90927
   A23        1.91110   0.00369   0.00000   0.00263   0.00263   1.91373
   A24        1.91011  -0.00215   0.00000  -0.00141  -0.00141   1.90869
   A25        1.91023  -0.00247   0.00000  -0.00177  -0.00178   1.90846
   A26        1.91015  -0.00111   0.00000  -0.00026  -0.00026   1.90989
   A27        2.10312  -0.00871   0.00000  -0.02267  -0.02289   2.08023
   A28        2.03504  -0.00002   0.00000   0.00470   0.00513   2.04017
   A29        2.14503   0.00873   0.00000   0.01797   0.01775   2.16279
   A30        1.87351  -0.00927   0.00000  -0.02200  -0.02243   1.85108
   A31        1.92136   0.02658   0.00000   0.02952   0.02964   1.95100
   A32        2.09444   0.02889   0.00000  -0.01892  -0.01986   2.07458
   A33        2.12752  -0.01186   0.00000   0.01241   0.01212   2.13964
   A34        2.06122  -0.01704   0.00000   0.00652   0.00629   2.06751
   A35        1.91114  -0.00438   0.00000   0.00647   0.00645   1.91759
   A36        1.91107  -0.00123   0.00000   0.00348   0.00347   1.91454
   A37        1.91103   0.00418   0.00000   0.00669   0.00668   1.91771
   A38        1.91016   0.00173   0.00000  -0.00457  -0.00458   1.90558
   A39        1.91018   0.00082   0.00000  -0.00498  -0.00501   1.90517
   A40        1.91022  -0.00112   0.00000  -0.00712  -0.00713   1.90309
    D1        0.00000   0.00420   0.00000   0.02179   0.02188   0.02188
    D2        3.14159  -0.00096   0.00000   0.05377   0.05371  -3.08788
    D3        2.10335   0.00008   0.00000   0.02620   0.02628   2.12963
    D4       -1.03824  -0.00508   0.00000   0.05819   0.05811  -0.98013
    D5       -2.10335   0.00165   0.00000   0.02793   0.02799  -2.07536
    D6        1.03824  -0.00352   0.00000   0.05992   0.05982   1.09806
    D7        2.69587  -0.01358   0.00000   0.02374   0.02383   2.71969
    D8        2.07407   0.02497   0.00000   0.06676   0.06699   2.14105
    D9       -0.44573  -0.00808   0.00000  -0.01032  -0.00999  -0.45572
   D10       -1.06753   0.03047   0.00000   0.03270   0.03317  -1.03436
   D11        0.00000   0.01860   0.00000  -0.00432  -0.00418  -0.00418
   D12        3.14159   0.02610   0.00000  -0.00679  -0.00681   3.13478
   D13        3.14159   0.01330   0.00000   0.02850   0.02792  -3.11367
   D14        0.00000   0.02080   0.00000   0.02603   0.02528   0.02528
   D15        0.90422  -0.00063   0.00000  -0.01038  -0.00978   0.89444
   D16       -3.02767  -0.00276   0.00000   0.01169   0.01164  -3.01603
   D17        2.09439   0.00352   0.00000  -0.00088  -0.00089   2.09350
   D18       -2.09435  -0.00168   0.00000  -0.00723  -0.00718  -2.10153
   D19        0.00000   0.01031   0.00000   0.00000  -0.00001  -0.00001
   D20       -1.04720   0.01088   0.00000  -0.00330  -0.00347  -1.05067
   D21        1.04724   0.00569   0.00000  -0.00965  -0.00976   1.03748
   D22        3.14159   0.01767   0.00000  -0.00242  -0.00260   3.13900
   D23        1.04724   0.01285   0.00000   0.01151   0.01154   1.05878
   D24        3.14157   0.01146   0.00000   0.01027   0.01030  -3.13131
   D25       -1.04726   0.01218   0.00000   0.01046   0.01050  -1.03677
   D26       -3.13259   0.00037   0.00000   0.00232   0.00230  -3.13029
   D27       -1.03826  -0.00103   0.00000   0.00108   0.00106  -1.03720
   D28        1.05609  -0.00030   0.00000   0.00127   0.00125   1.05734
   D29       -1.08102  -0.01147   0.00000  -0.00751  -0.00753  -1.08855
   D30        1.01331  -0.01286   0.00000  -0.00875  -0.00877   1.00454
   D31        3.10766  -0.01213   0.00000  -0.00856  -0.00858   3.09908
   D32       -2.61796  -0.00011   0.00000  -0.00054  -0.00109  -2.61905
   D33        0.52362  -0.00199   0.00000   0.00000  -0.00001   0.52361
   D34        1.56191   0.00234   0.00000  -0.00347  -0.00384   1.55807
   D35       -1.57969   0.00046   0.00000  -0.00293  -0.00276  -1.58245
   D36       -0.48967   0.00108   0.00000  -0.00128  -0.00163  -0.49129
   D37        2.65191  -0.00081   0.00000  -0.00074  -0.00055   2.65137
   D38       -0.90438   0.01794   0.00000   0.03758   0.03629  -0.86808
   D39        0.00001  -0.01733   0.00000  -0.05280  -0.05364  -0.05363
   D40       -3.14158  -0.00113   0.00000   0.00588   0.00506  -3.13652
   D41        2.23720   0.01601   0.00000   0.03814   0.03743   2.27463
   D42        3.14159  -0.01926   0.00000  -0.05224  -0.05250   3.08908
   D43        0.00000  -0.00306   0.00000   0.00644   0.00620   0.00620
   D44       -2.21611  -0.00690   0.00000  -0.01609  -0.01634  -2.23245
   D45       -0.12172  -0.00821   0.00000  -0.01558  -0.01583  -0.13755
   D46        1.97268  -0.00777   0.00000  -0.01806  -0.01832   1.95436
   D47        0.00002  -0.00374   0.00000  -0.00644  -0.00675  -0.00673
   D48        2.09441  -0.00505   0.00000  -0.00593  -0.00624   2.08817
   D49       -2.09438  -0.00462   0.00000  -0.00841  -0.00873  -2.10310
   D50       -3.14156   0.01217   0.00000   0.05117   0.05173  -3.08984
   D51       -1.04717   0.01085   0.00000   0.05168   0.05223  -0.99494
   D52        1.04722   0.01129   0.00000   0.04919   0.04975   1.09697
         Item               Value     Threshold  Converged?
 Maximum Force            0.272715     0.000450     NO 
 RMS     Force            0.033294     0.000300     NO 
 Maximum Displacement     0.192364     0.001800     NO 
 RMS     Displacement     0.044899     0.001200     NO 
 Predicted change in Energy=-7.119192D-02
 GradGradGradGradGradGradGradGradGradGradGradGradGradGradGradGradGradGrad

                          Input orientation:                          
 ---------------------------------------------------------------------
 Center     Atomic      Atomic             Coordinates (Angstroms)
 Number     Number       Type             X           Y           Z
 ---------------------------------------------------------------------
      1          1           0        0.223330    4.439833   -0.058869
      2          6           0        1.104790    3.801532   -0.008979
      3          1           0        1.126848    3.136205   -0.872700
      4          1           0        1.075063    3.209253    0.903941
      5          6           0        2.386833    4.649045    0.004232
      6          8           0        2.346374    5.864329   -0.014991
      7          7           0        3.535945    3.974388   -0.000299
      8          1           0        3.521102    2.963263   -0.008208
      9          6           0        4.839359    4.627188    0.002415
     10          1           0        5.392860    4.324478    0.892206
     11          6           0        5.639650    4.225667   -1.233792
     12          1           0        5.104081    4.532221   -2.132850
     13          1           0        6.613363    4.714448   -1.208990
     14          1           0        5.777077    3.143287   -1.246289
     15          6           0        4.723679    6.157352    0.010953
     16          8           0        5.604332    6.827359   -0.520891
     17          7           0        3.658078    6.674728    0.605621
     18          1           0        2.953246    6.047544    0.980748
     19          6           0        3.422778    8.098165    0.680044
     20          1           0        4.237832    8.634619    0.192669
     21          1           0        2.482680    8.342561    0.180153
     22          1           0        3.362400    8.410336    1.724575
 ---------------------------------------------------------------------
                    Distance matrix (angstroms):
                    1          2          3          4          5
     1  H    0.000000
     2  C    1.089445   0.000000
     3  H    1.782726   1.090486   0.000000
     4  H    1.779545   1.088623   1.778896   0.000000
     5  C    2.174511   1.536908   2.155286   2.145511   0.000000
     6  O    2.557035   2.407633   3.108949   3.083844   1.216109
     7  N    3.345667   2.437307   2.695808   2.731121   1.332532
     8  H    3.613604   2.557589   2.551413   2.622143   2.031892
     9  C    4.620236   3.824767   4.095313   4.122283   2.452624
    10  H    5.257556   4.412839   4.767152   4.459511   3.151197
    11  C    5.546426   4.716462   4.656468   5.141834   3.506105
    12  H    5.303930   4.586836   4.399457   5.215873   3.458931
    13  H    6.498517   5.711201   5.718898   6.115788   4.397698
    14  H    5.825384   4.877959   4.665216   5.170761   3.914698
    15  C    4.817457   4.318176   4.779682   4.775052   2.781346
    16  O    5.904992   5.446426   5.813454   5.969516   3.920855
    17  N    4.151360   3.892591   4.594964   4.332491   2.465993
    18  H    3.334363   3.072608   3.904727   3.404316   1.797277
    19  C    4.915877   4.930403   5.683604   5.428016   3.664195
    20  H    5.811689   5.763276   6.406699   6.320096   4.398466
    21  H    4.515869   4.749242   5.482054   5.371788   3.698945
    22  H    5.366500   5.416926   6.289673   5.740785   4.249543
                    6          7          8          9         10
     6  O    0.000000
     7  N    2.233197   0.000000
     8  H    3.129891   1.011265   0.000000
     9  C    2.783127   1.457753   2.122866   0.000000
    10  H    3.532029   2.089799   2.483370   1.090746   0.000000
    11  C    3.875095   2.451576   2.753900   1.526399   2.142554
    12  H    3.723545   2.705181   3.079214   2.153707   3.045902
    13  H    4.577670   3.388086   3.751080   2.149932   2.461043
    14  H    4.548614   2.695532   2.579665   2.154191   2.473054
    15  C    2.395437   2.485190   3.413029   1.534554   2.140990
    16  O    3.434771   3.562118   4.419720   2.387422   2.882009
    17  N    1.662069   2.770178   3.764375   2.439610   2.935179
    18  H    1.180405   2.366424   3.288356   2.555771   2.988061
    19  C    2.575217   4.181053   5.181754   3.809666   4.262270
    20  H    3.360840   4.716740   5.719994   4.056788   4.516720
    21  H    2.489637   4.496984   5.481847   4.403353   5.012101
    22  H    3.246621   4.762661   5.718245   4.411286   4.637870
                   11         12         13         14         15
    11  C    0.000000
    12  H    1.090465   0.000000
    13  H    1.089789   1.778948   0.000000
    14  H    1.091141   1.779902   1.780256   0.000000
    15  C    2.473824   2.716919   2.672292   3.431456   0.000000
    16  O    2.697828   2.848916   2.440496   3.758780   1.227728
    17  N    3.648009   3.765698   3.983619   4.515617   1.325448
    18  H    3.929401   4.076369   4.468619   4.622598   2.021631
    19  C    4.855258   4.843047   5.019744   5.814146   2.430387
    20  H    4.841358   4.794590   4.793281   5.881717   2.530992
    21  H    5.377222   5.171114   5.670579   6.318246   3.134620
    22  H    5.607964   5.740467   5.730110   6.511413   3.140942
                   16         17         18         19         20
    16  O    0.000000
    17  N    2.253936   0.000000
    18  H    3.145041   1.015316   0.000000
    19  C    2.795777   1.444672   2.125071   0.000000
    20  H    2.375432   2.085142   2.994025   1.090702   0.000000
    21  H    3.540058   2.084287   2.475780   1.092431   1.779330
    22  H    3.546011   2.086102   2.510672   1.091852   1.778601
                   21         22
    21  H    0.000000
    22  H    1.778691   0.000000
 Stoichiometry    C6H12N2O2
 Framework group  C1[X(C6H12N2O2)]
 Deg. of freedom    60
 Full point group                 C1      NOp   1
 Largest Abelian subgroup         C1      NOp   1
 Largest concise Abelian subgroup C1      NOp   1
                         Standard orientation:                         
 ---------------------------------------------------------------------
 Center     Atomic      Atomic             Coordinates (Angstroms)
 Number     Number       Type             X           Y           Z
 ---------------------------------------------------------------------
      1          1           0        3.256316   -1.491610   -0.576289
      2          6           0        3.043543   -0.501155   -0.175519
      3          1           0        3.466960    0.260134   -0.831504
      4          1           0        3.480458   -0.407755    0.817196
      5          6           0        1.527271   -0.277746   -0.061086
      6          8           0        0.731425   -1.143522   -0.370896
      7          7           0        1.141979    0.926672    0.359112
      8          1           0        1.839390    1.623916    0.583001
      9          6           0       -0.257902    1.302757    0.513832
     10          1           0       -0.446003    1.574208    1.553379
     11          6           0       -0.590060    2.499283   -0.373801
     12          1           0       -0.417861    2.239643   -1.418812
     13          1           0       -1.636269    2.771980   -0.236968
     14          1           0        0.043918    3.344799   -0.102211
     15          6           0       -1.211976    0.160595    0.139582
     16          8           0       -2.320814    0.430691   -0.313016
     17          7           0       -0.772834   -1.074997    0.332655
     18          1           0        0.175669   -1.211228    0.668290
     19          6           0       -1.565709   -2.240812    0.017530
     20          1           0       -2.535081   -1.934184   -0.377348
     21          1           0       -1.048764   -2.846459   -0.730377
     22          1           0       -1.718629   -2.840056    0.917343
 ---------------------------------------------------------------------
 Rotational constants (GHZ):      1.7660576      1.3099649      0.8026721
 Standard basis: 6-31G(d) (6D, 7F)
 There are   174 symmetry adapted basis functions of A   symmetry.
 Integral buffers will be    131072 words long.
 Raffenetti 2 integral format.
 Two-electron integral symmetry is turned on.
   174 basis functions,   328 primitive gaussians,   174 cartesian basis functions
    39 alpha electrons       39 beta electrons
       nuclear repulsion energy       593.8411036356 Hartrees.
 NAtoms=   22 NActive=   22 NUniq=   22 SFac= 7.50D-01 NAtFMM=   80 NAOKFM=F Big=F
 One-electron integrals computed using PRISM.
 NBasis=   174 RedAO= T  NBF=   174
 NBsUse=   174 1.00D-06 NBFU=   174
 Initial guess read from the read-write file.
 B after Tr=     0.000000    0.000000    0.000000
         Rot=    1.000000    0.000000    0.000000    0.000000 Ang=   0.00 deg.
 Initial guess orbital symmetries:
       Occupied  (A) (A) (A) (A) (A) (A) (A) (A) (A) (A) (A) (A)
                 (A) (A) (A) (A) (A) (A) (A) (A) (A) (A) (A) (A)
                 (A) (A) (A) (A) (A) (A) (A) (A) (A) (A) (A) (A)
                 (A) (A) (A)
       Virtual   (A) (A) (A) (A) (A) (A) (A) (A) (A) (A) (A) (A)
                 (A) (A) (A) (A) (A) (A) (A) (A) (A) (A) (A) (A)
                 (A) (A) (A) (A) (A) (A) (A) (A) (A) (A) (A) (A)
                 (A) (A) (A) (A) (A) (A) (A) (A) (A) (A) (A) (A)
                 (A) (A) (A) (A) (A) (A) (A) (A) (A) (A) (A) (A)
                 (A) (A) (A) (A) (A) (A) (A) (A) (A) (A) (A) (A)
                 (A) (A) (A) (A) (A) (A) (A) (A) (A) (A) (A) (A)
                 (A) (A) (A) (A) (A) (A) (A) (A) (A) (A) (A) (A)
                 (A) (A) (A) (A) (A) (A) (A) (A) (A) (A) (A) (A)
                 (A) (A) (A) (A) (A) (A) (A) (A) (A) (A) (A) (A)
                 (A) (A) (A) (A) (A) (A) (A) (A) (A) (A) (A) (A)
                 (A) (A) (A)
 Harris functional with IExCor=  402 diagonalized for initial guess.
 ExpMin= 1.61D-01 ExpMax= 5.48D+03 ExpMxC= 8.25D+02 IAcc=1 IRadAn=         1 AccDes= 0.00D+00
 HarFok:  IExCor=  402 AccDes= 0.00D+00 IRadAn=         1 IDoV= 1
 ScaDFX=  1.000000  1.000000  1.000000  1.000000
 FoFCou: FMM=F IPFlag=           0 FMFlag=      100000 FMFlg1=           0
         NFxFlg=           0 DoJE=T BraDBF=F KetDBF=T FulRan=T
         Omega=  0.000000  0.000000  1.000000  0.000000  0.000000 ICntrl=     500 IOpCl=  0
         NMat0=    1 NMatS0=    1 NMatT0=    0 NMatD0=    1 NMtDS0=    0 NMtDT0=    0
         I1Cent=           4 NGrid=           0.
 Petite list used in FoFCou.
 Requested convergence on RMS density matrix=1.00D-08 within 128 cycles.
 Requested convergence on MAX density matrix=1.00D-06.
 Requested convergence on             energy=1.00D-06.
 No special actions if energy rises.
 Integral accuracy reduced to 1.0D-05 until final iterations.
 Initial convergence to 1.0D-05 achieved.  Increase integral accuracy.
 SCF Done:  E(RB3LYP) =  -495.605938054     A.U. after   16 cycles
             Convg  =    0.3324D-08             -V/T =  2.0060
 Calling FoFJK, ICntrl=      2127 FMM=F ISym2X=0 I1Cent= 0 IOpClX= 0 NMat=1 NMatS=1 NMatT=0.
 ***** Axes restored to original set *****
 -------------------------------------------------------------------
 Center     Atomic                   Forces (Hartrees/Bohr)
 Number     Number              X              Y              Z
 -------------------------------------------------------------------
      1        1           0.001639419    0.001854126   -0.000246559
      2        6           0.011431216    0.001027846    0.013625943
      3        1          -0.001141489   -0.002620200   -0.001623217
      4        1          -0.006483404   -0.008804137    0.003462284
      5        6          -0.054937536   -0.052458379   -0.030423141
      6        8          -0.263219088   -0.110410419   -0.182900058
      7        7           0.018144403   -0.007704293    0.003769145
      8        1          -0.001943167   -0.000018042    0.000874775
      9        6           0.007221973    0.003748887   -0.012766825
     10        1           0.000324871   -0.002019739    0.005919265
     11        6           0.000479812   -0.004751834    0.003059037
     12        1           0.000935925    0.000422802   -0.002717060
     13        1          -0.000415738    0.000925123   -0.001305833
     14        1           0.001514584   -0.004649794   -0.002310683
     15        6           0.003585476    0.013047353    0.018874193
     16        8           0.023884158    0.011423549   -0.018770137
     17        7           0.210751808    0.121984245    0.124127043
     18        1           0.046748078    0.040991639    0.077603048
     19        6           0.007477352   -0.003966762    0.002563761
     20        1           0.000895903   -0.001777692   -0.000921293
     21        1          -0.005296739    0.000925187   -0.002556964
     22        1          -0.001597818    0.002830534    0.002663277
 -------------------------------------------------------------------
 Cartesian Forces:  Max     0.263219088 RMS     0.056294368

 GradGradGradGradGradGradGradGradGradGradGradGradGradGradGradGradGradGrad
 Berny optimization.
 Using GEDIIS/GDIIS optimizer.
 Internal  Forces:  Max     0.234577022 RMS     0.028517475
 Search for a local minimum.
 Step number   2 out of a maximum of  132
 All quantities printed in internal units (Hartrees-Bohrs-Radians)
 Mixed Optimization -- RFO/linear search
 Update second derivatives using D2CorX and points    1    2
 DE= -6.94D-02 DEPred=-7.12D-02 R= 9.75D-01
 SS=  1.41D+00  RLast= 3.00D-01 DXNew= 5.0454D-01 8.9975D-01
 Trust test= 9.75D-01 RLast= 3.00D-01 DXMaxT set to 5.05D-01
 Use linear search instead of GDIIS.
 Linear search step of   0.595 exceeds DXMaxT=   0.505 but not scaled.
 Quartic linear search produced a step of  2.00000.
 Iteration  1 RMS(Cart)=  0.06560595 RMS(Int)=  0.01607016
 Iteration  2 RMS(Cart)=  0.02832094 RMS(Int)=  0.00206074
 Iteration  3 RMS(Cart)=  0.00026959 RMS(Int)=  0.00204837
 Iteration  4 RMS(Cart)=  0.00000222 RMS(Int)=  0.00204837
 Iteration  5 RMS(Cart)=  0.00000002 RMS(Int)=  0.00204837
 Iteration  1 RMS(Cart)=  0.00025725 RMS(Int)=  0.00036366
 Iteration  2 RMS(Cart)=  0.00022320 RMS(Int)=  0.00038109
 Iteration  3 RMS(Cart)=  0.00019703 RMS(Int)=  0.00042115
 Iteration  4 RMS(Cart)=  0.00017542 RMS(Int)=  0.00047097
 Iteration  5 RMS(Cart)=  0.00015685 RMS(Int)=  0.00052357
 Iteration  6 RMS(Cart)=  0.00014056 RMS(Int)=  0.00057545
 Iteration  7 RMS(Cart)=  0.00012610 RMS(Int)=  0.00062491
 Iteration  8 RMS(Cart)=  0.00011321 RMS(Int)=  0.00067117
 Iteration  9 RMS(Cart)=  0.00010167 RMS(Int)=  0.00071394
 Iteration 10 RMS(Cart)=  0.00009133 RMS(Int)=  0.00075318
 Iteration 11 RMS(Cart)=  0.00008206 RMS(Int)=  0.00078901
 Iteration 12 RMS(Cart)=  0.00007373 RMS(Int)=  0.00082161
 Iteration 13 RMS(Cart)=  0.00006625 RMS(Int)=  0.00085119
 Iteration 14 RMS(Cart)=  0.00005953 RMS(Int)=  0.00087799
 Iteration 15 RMS(Cart)=  0.00005349 RMS(Int)=  0.00090222
 Iteration 16 RMS(Cart)=  0.00004807 RMS(Int)=  0.00092411
 Iteration 17 RMS(Cart)=  0.00004319 RMS(Int)=  0.00094387
 Iteration 18 RMS(Cart)=  0.00003881 RMS(Int)=  0.00096169
 Iteration 19 RMS(Cart)=  0.00003488 RMS(Int)=  0.00097775
 Iteration 20 RMS(Cart)=  0.00003134 RMS(Int)=  0.00099222
 Iteration 21 RMS(Cart)=  0.00002816 RMS(Int)=  0.00100526
 Iteration 22 RMS(Cart)=  0.00002531 RMS(Int)=  0.00101700
 Iteration 23 RMS(Cart)=  0.00002274 RMS(Int)=  0.00102756
 Iteration 24 RMS(Cart)=  0.00002043 RMS(Int)=  0.00103707
 Iteration 25 RMS(Cart)=  0.00001836 RMS(Int)=  0.00104563
 Iteration 26 RMS(Cart)=  0.00001650 RMS(Int)=  0.00105333
 Iteration 27 RMS(Cart)=  0.00001483 RMS(Int)=  0.00106025
 Iteration 28 RMS(Cart)=  0.00001332 RMS(Int)=  0.00106648
 Iteration 29 RMS(Cart)=  0.00001197 RMS(Int)=  0.00107208
 Iteration 30 RMS(Cart)=  0.00001076 RMS(Int)=  0.00107711
 Iteration 31 RMS(Cart)=  0.00000967 RMS(Int)=  0.00108164
 Iteration 32 RMS(Cart)=  0.00000869 RMS(Int)=  0.00108571
 Iteration 33 RMS(Cart)=  0.00000781 RMS(Int)=  0.00108937
 Iteration 34 RMS(Cart)=  0.00000701 RMS(Int)=  0.00109266
 Iteration 35 RMS(Cart)=  0.00000630 RMS(Int)=  0.00109562
 Iteration 36 RMS(Cart)=  0.00000566 RMS(Int)=  0.00109827
 Iteration 37 RMS(Cart)=  0.00000509 RMS(Int)=  0.00110066
 Iteration 38 RMS(Cart)=  0.00000457 RMS(Int)=  0.00110281
 Iteration 39 RMS(Cart)=  0.00000411 RMS(Int)=  0.00110474
 Iteration 40 RMS(Cart)=  0.00000369 RMS(Int)=  0.00110648
 Iteration 41 RMS(Cart)=  0.00000332 RMS(Int)=  0.00110804
 Iteration 42 RMS(Cart)=  0.00000298 RMS(Int)=  0.00110944
 Iteration 43 RMS(Cart)=  0.00000268 RMS(Int)=  0.00111070
 Iteration 44 RMS(Cart)=  0.00000241 RMS(Int)=  0.00111183
 Iteration 45 RMS(Cart)=  0.00000216 RMS(Int)=  0.00111285
 Iteration 46 RMS(Cart)=  0.00000194 RMS(Int)=  0.00111376
 Iteration 47 RMS(Cart)=  0.00000175 RMS(Int)=  0.00111458
 Iteration 48 RMS(Cart)=  0.00000157 RMS(Int)=  0.00111532
 Iteration 49 RMS(Cart)=  0.00000141 RMS(Int)=  0.00111598
 Iteration 50 RMS(Cart)=  0.00000127 RMS(Int)=  0.00111658
 Iteration 51 RMS(Cart)=  0.00000114 RMS(Int)=  0.00111712
 Iteration 52 RMS(Cart)=  0.00000102 RMS(Int)=  0.00111760
 Iteration 53 RMS(Cart)=  0.00000092 RMS(Int)=  0.00111803
 Variable       Old X    -DE/DX   Delta X   Delta X   Delta X     New X
                                 (Linear)    (Quad)   (Total)
    R1        2.05875  -0.00022  -0.00201   0.00000  -0.00201   2.05674
    R2        2.06072   0.00286   0.00189   0.00000   0.00189   2.06261
    R3        2.05720   0.00787  -0.00515   0.00000  -0.00515   2.05205
    R4        2.90434   0.00004   0.02638   0.00000   0.02638   2.93072
    R5        2.29811   0.05032  -0.04898   0.00000  -0.04998   2.24813
    R6        2.51812   0.02909  -0.00934   0.00000  -0.01146   2.50666
    R7        3.14085   0.23458   0.41257   0.00000   0.40411   3.54497
    R8        2.23064   0.13924   0.05197   0.00000   0.06423   2.29487
    R9        1.91101   0.00004   0.00461   0.00000   0.00461   1.91562
   R10        2.75475   0.02923   0.03316   0.00000   0.03147   2.78623
   R11        2.06121   0.00555   0.00293   0.00000   0.00293   2.06414
   R12        2.88448   0.00610   0.00518   0.00000   0.00518   2.88966
   R13        2.89989   0.02338   0.04742   0.00000   0.04800   2.94789
   R14        2.06068   0.00190   0.00192   0.00000   0.00192   2.06260
   R15        2.05940   0.00001  -0.00088   0.00000  -0.00088   2.05852
   R16        2.06196   0.00483   0.00459   0.00000   0.00459   2.06655
   R17        2.32007   0.03150  -0.00475   0.00000  -0.00475   2.31532
   R18        2.50473   0.02020  -0.03627   0.00000  -0.03713   2.46761
   R19        1.91867   0.01814   0.02036   0.00000   0.02784   1.94651
   R20        2.73003  -0.00211  -0.01662   0.00000  -0.01662   2.71341
   R21        2.06113   0.00021   0.00260   0.00000   0.00260   2.06373
   R22        2.06440   0.00593   0.00928   0.00000   0.00928   2.07367
   R23        2.06330   0.00345   0.00705   0.00000   0.00705   2.07035
    A1        1.91512   0.00017   0.00797   0.00000   0.00805   1.92317
    A2        1.91248  -0.00233   0.00268   0.00000   0.00247   1.91495
    A3        1.93075  -0.00614  -0.01668   0.00000  -0.01674   1.91400
    A4        1.91009  -0.00537   0.00000   0.00000   0.00003   1.91012
    A5        1.90327   0.00076   0.01442   0.00000   0.01448   1.91774
    A6        1.89187   0.01302  -0.00836   0.00000  -0.00845   1.88342
    A7        2.12137   0.01711   0.03649   0.00000   0.03602   2.15739
    A8        2.02654   0.00181  -0.01727   0.00000  -0.01761   2.00893
    A9        2.13482  -0.01879  -0.02013   0.00000  -0.02189   2.11292
   A10        2.04328  -0.02590   0.00504   0.00000   0.00412   2.04740
   A11        1.69579   0.03555   0.08438   0.00000   0.08982   1.78561
   A12        2.08702  -0.01882  -0.01450   0.00000  -0.01330   2.07372
   A13        2.14637   0.03385   0.03734   0.00000   0.03494   2.18131
   A14        2.04979  -0.01502  -0.02285   0.00000  -0.02167   2.02812
   A15        1.90812  -0.00637  -0.00603   0.00000  -0.00665   1.90147
   A16        1.92782  -0.01140  -0.02246   0.00000  -0.02193   1.90588
   A17        1.95966   0.02194   0.04132   0.00000   0.04152   2.00118
   A18        1.89823   0.00508   0.00427   0.00000   0.00409   1.90232
   A19        1.88646  -0.01229  -0.01924   0.00000  -0.01902   1.86744
   A20        1.88213   0.00282   0.00151   0.00000   0.00128   1.88341
   A21        1.91375   0.00212   0.00521   0.00000   0.00520   1.91895
   A22        1.90927  -0.00021  -0.00360   0.00000  -0.00359   1.90567
   A23        1.91373   0.00332   0.00526   0.00000   0.00525   1.91898
   A24        1.90869  -0.00200  -0.00282   0.00000  -0.00281   1.90588
   A25        1.90846  -0.00223  -0.00355   0.00000  -0.00358   1.90487
   A26        1.90989  -0.00102  -0.00051   0.00000  -0.00051   1.90939
   A27        2.08023  -0.00844  -0.04577   0.00000  -0.04678   2.03345
   A28        2.04017   0.00124   0.01026   0.00000   0.01224   2.05240
   A29        2.16279   0.00720   0.03551   0.00000   0.03453   2.19731
   A30        1.85108  -0.00931  -0.04486   0.00000  -0.04678   1.80430
   A31        1.95100   0.02384   0.05929   0.00000   0.05984   2.01085
   A32        2.07458   0.02174  -0.03971   0.00000  -0.04538   2.02921
[...]
    14  H    5.487583   4.604099   5.122802   4.204657   3.923180
    15  C    5.402998   4.817831   5.302867   5.189890   3.336163
    16  O    6.597005   5.951317   6.382995   6.245590   4.503548
    17  N    5.119442   4.749153   5.205858   5.360130   3.233447
    18  H    4.212338   3.925223   4.358312   4.657206   2.462991
    19  C    6.347615   6.045870   6.394359   6.741334   4.559045
    20  H    7.145337   6.837469   7.276883   7.436383   5.326265
    21  H    6.789244   6.381675   6.561857   7.101280   4.927790
    22  H    6.318761   6.192662   6.534393   6.992152   4.796686
                    6          7          8          9         10
     6  O    0.000000
     7  N    2.315378   0.000000
     8  H    3.146754   1.011080   0.000000
     9  C    3.172442   1.486824   2.063760   0.000000
    10  H    3.809870   2.075937   2.416706   1.100444   0.000000
    11  C    4.324451   2.435856   2.524470   1.535243   2.147935
    12  H    4.249639   2.724292   2.877455   2.175615   3.065422
    13  H    5.142018   3.386888   3.534768   2.159856   2.481192
    14  H    4.830027   2.648097   2.296191   2.179866   2.479481
    15  C    3.279064   2.672271   3.499961   1.558310   2.097587
    16  O    4.456531   3.720139   4.417065   2.381543   2.758722
    17  N    2.719081   3.086927   4.061905   2.511347   2.921059
    18  H    1.754522   2.706196   3.710568   2.670388   3.164139
    19  C    3.812069   4.529340   5.507846   3.856984   4.202765
    20  H    4.720765   5.073829   5.990569   4.148453   4.285357
    21  H    4.142653   4.947775   5.919678   4.280751   4.826969
    22  H    3.869092   5.013087   6.009211   4.584891   4.862649
                   11         12         13         14         15
    11  C    0.000000
    12  H    1.094874   0.000000
    13  H    1.089863   1.772984   0.000000
    14  H    1.097172   1.779070   1.780821   0.000000
    15  C    2.523319   2.848776   2.661147   3.482918   0.000000
    16  O    2.734497   3.039078   2.380307   3.763740   1.229837
    17  N    3.748867   3.959914   4.004449   4.635293   1.349317
    18  H    4.003784   4.124579   4.498966   4.768705   2.029363
    19  C    4.917450   5.036971   4.960962   5.893518   2.420877
    20  H    5.120677   5.388475   4.947778   6.090772   2.676187
    21  H    5.093602   4.995498   5.109455   6.138901   2.807572
    22  H    5.793370   5.917107   5.934694   6.709993   3.307949
                   16         17         18         19         20
    16  O    0.000000
    17  N    2.269504   0.000000
    18  H    3.138319   1.023234   0.000000
    19  C    2.748866   1.454967   2.143732   0.000000
    20  H    2.627028   2.095074   2.979123   1.092808   0.000000
    21  H    2.909412   2.127542   2.706295   1.097780   1.770086
    22  H    3.801358   2.079212   2.364623   1.092749   1.783698
                   21         22
    21  H    0.000000
    22  H    1.784150   0.000000
 Stoichiometry    C6H12N2O2
 Framework group  C1[X(C6H12N2O2)]
 Deg. of freedom    60
 Full point group                 C1      NOp   1
 Largest Abelian subgroup         C1      NOp   1
 Largest concise Abelian subgroup C1      NOp   1
                         Standard orientation:                         
 ---------------------------------------------------------------------
 Center     Atomic      Atomic             Coordinates (Angstroms)
 Number     Number       Type             X           Y           Z
 ---------------------------------------------------------------------
      1          1           0       -3.774011   -1.250981   -0.584324
      2          6           0       -3.375091   -0.481047    0.082588
      3          1           0       -3.692067   -0.735297    1.098726
      4          1           0       -3.807035    0.486537   -0.190495
      5          6           0       -1.852455   -0.535527    0.027602
      6          8           0       -1.279663   -1.593674    0.293976
      7          7           0       -1.259020    0.634534   -0.335022
      8          1           0       -1.918794    1.377874   -0.520562
      9          6           0        0.130825    1.153909   -0.431075
     10          1           0        0.292330    1.379553   -1.495958
     11          6           0        0.181967    2.475923    0.347793
     12          1           0        0.001730    2.300473    1.413383
     13          1           0        1.166748    2.928692    0.233745
     14          1           0       -0.578148    3.174576   -0.023550
     15          6           0        1.377782    0.293058   -0.067256
     16          8           0        2.412381    0.900560    0.203010
     17          7           0        1.329570   -1.044463   -0.238634
     18          1           0        0.410625   -1.488365   -0.164482
     19          6           0        2.515592   -1.841279    0.035897
     20          1           0        3.368541   -1.438326   -0.515770
     21          1           0        2.775723   -1.842383    1.102410
     22          1           0        2.327049   -2.868154   -0.286717
 ---------------------------------------------------------------------
 Rotational constants (GHZ):      1.8459158      0.9481741      0.6523648

 **********************************************************************

            Population analysis using the SCF density.

 **********************************************************************

 Orbital symmetries:
       Occupied  (A) (A) (A) (A) (A) (A) (A) (A) (A) (A) (A) (A)
                 (A) (A) (A) (A) (A) (A) (A) (A) (A) (A) (A) (A)
                 (A) (A) (A) (A) (A) (A) (A) (A) (A) (A) (A) (A)
                 (A) (A) (A)
       Virtual   (A) (A) (A) (A) (A) (A) (A) (A) (A) (A) (A) (A)
                 (A) (A) (A) (A) (A) (A) (A) (A) (A) (A) (A) (A)
                 (A) (A) (A) (A) (A) (A) (A) (A) (A) (A) (A) (A)
                 (A) (A) (A) (A) (A) (A) (A) (A) (A) (A) (A) (A)
                 (A) (A) (A) (A) (A) (A) (A) (A) (A) (A) (A) (A)
                 (A) (A) (A) (A) (A) (A) (A) (A) (A) (A) (A) (A)
                 (A) (A) (A) (A) (A) (A) (A) (A) (A) (A) (A) (A)
                 (A) (A) (A) (A) (A) (A) (A) (A) (A) (A) (A) (A)
                 (A) (A) (A) (A) (A) (A) (A) (A) (A) (A) (A) (A)
                 (A) (A) (A) (A) (A) (A) (A) (A) (A) (A) (A) (A)
                 (A) (A) (A) (A) (A) (A) (A) (A) (A) (A) (A) (A)
                 (A) (A) (A)
 The electronic state is 1-A.
 Alpha  occ. eigenvalues --  -19.12707 -19.10088 -14.38024 -14.33620 -10.30768
 Alpha  occ. eigenvalues --  -10.27835 -10.24829 -10.20399 -10.20338 -10.18472
 Alpha  occ. eigenvalues --   -1.04525  -1.02070  -0.93852  -0.90142  -0.78716
 Alpha  occ. eigenvalues --   -0.73543  -0.69997  -0.64388  -0.60471  -0.55970
 Alpha  occ. eigenvalues --   -0.52160  -0.50694  -0.48188  -0.45928  -0.44871
 Alpha  occ. eigenvalues --   -0.43438  -0.42169  -0.41700  -0.41240  -0.40027
 Alpha  occ. eigenvalues --   -0.38290  -0.37768  -0.37063  -0.36158  -0.34790
 Alpha  occ. eigenvalues --   -0.27040  -0.26661  -0.24328  -0.23602
 Alpha virt. eigenvalues --    0.01479   0.02827   0.05730   0.10802   0.12471
 Alpha virt. eigenvalues --    0.13323   0.13701   0.14900   0.15467   0.16337
 Alpha virt. eigenvalues --    0.16642   0.17196   0.18572   0.19221   0.20427
 Alpha virt. eigenvalues --    0.22217   0.23662   0.24191   0.28123   0.30828
 Alpha virt. eigenvalues --    0.36397   0.41994   0.44052   0.48055   0.50668
 Alpha virt. eigenvalues --    0.52338   0.53998   0.54470   0.56102   0.56703
 Alpha virt. eigenvalues --    0.56843   0.59578   0.60867   0.61242   0.64085
 Alpha virt. eigenvalues --    0.65517   0.67601   0.71791   0.73549   0.74978
 Alpha virt. eigenvalues --    0.76341   0.77488   0.78417   0.81791   0.83940
 Alpha virt. eigenvalues --    0.84708   0.85713   0.86618   0.87519   0.88590
 Alpha virt. eigenvalues --    0.88854   0.89932   0.92066   0.93726   0.94122
 Alpha virt. eigenvalues --    0.94965   0.96126   0.97746   0.99877   1.01953
 Alpha virt. eigenvalues --    1.05408   1.06505   1.08756   1.12551   1.16924
 Alpha virt. eigenvalues --    1.20805   1.27299   1.28108   1.28916   1.33702
 Alpha virt. eigenvalues --    1.36408   1.39578   1.39965   1.45865   1.47899
 Alpha virt. eigenvalues --    1.50565   1.55194   1.59028   1.63211   1.67755
 Alpha virt. eigenvalues --    1.69879   1.77509   1.78978   1.79080   1.80966
 Alpha virt. eigenvalues --    1.84571   1.86286   1.88190   1.89101   1.90462
 Alpha virt. eigenvalues --    1.93774   1.95286   1.96799   1.99873   2.00788
 Alpha virt. eigenvalues --    2.02051   2.04293   2.07022   2.13406   2.14025
 Alpha virt. eigenvalues --    2.19599   2.20719   2.21193   2.25671   2.29537
 Alpha virt. eigenvalues --    2.31356   2.32370   2.35146   2.37063   2.39306
 Alpha virt. eigenvalues --    2.41955   2.49152   2.52752   2.53625   2.59392
 Alpha virt. eigenvalues --    2.65425   2.67671   2.70881   2.76911   2.84848
 Alpha virt. eigenvalues --    2.91768   2.97475   3.00248   3.14407   3.20955
 Alpha virt. eigenvalues --    3.91628   4.01970   4.08363   4.11781   4.17737
 Alpha virt. eigenvalues --    4.21019   4.28275   4.35612   4.46900   4.63307
          Condensed to atoms (all electrons):
              1          2          3          4          5          6
     1  H    0.513153   0.362724  -0.023069  -0.025399  -0.020436   0.001010
     2  C    0.362724   5.280994   0.364353   0.342680   0.358275  -0.078307
     3  H   -0.023069   0.364353   0.510971  -0.025603  -0.020640   0.000582
     4  H   -0.025399   0.342680  -0.025603   0.578928  -0.029403   0.003153
     5  C   -0.020436   0.358275  -0.020640  -0.029403   4.313262   0.528288
     6  O    0.001010  -0.078307   0.000582   0.003153   0.528288   8.114813
     7  N    0.001078  -0.105971   0.000870   0.005730   0.303199  -0.080617
     8  H   -0.000022   0.000939   0.000033   0.003772  -0.019514   0.003398
     9  C   -0.000186   0.005622  -0.000086   0.000195  -0.023309  -0.000931
    10  H    0.000021  -0.000243  -0.000004   0.000001   0.000973   0.000083
    11  C   -0.000002  -0.000324   0.000020  -0.000020   0.002411  -0.000004
    12  H    0.000001  -0.000029  -0.000005   0.000003   0.000662  -0.000021
    13  H    0.000000   0.000005   0.000000   0.000000  -0.000038   0.000000
    14  H    0.000000  -0.000013   0.000000  -0.000026   0.000009   0.000000
    15  C    0.000003   0.000022   0.000002  -0.000013  -0.000499   0.002720
    16  O    0.000000   0.000000   0.000000   0.000000  -0.000001   0.000002
    17  N    0.000001  -0.000200   0.000001   0.000007   0.003770  -0.045929
    18  H   -0.000024   0.001552  -0.000006  -0.000055  -0.003147   0.078358
    19  C    0.000000   0.000002   0.000000   0.000000   0.000015   0.001043
    20  H    0.000000   0.000000   0.000000   0.000000  -0.000001  -0.000023
    21  H    0.000000   0.000000   0.000000   0.000000   0.000007  -0.000005
    22  H    0.000000   0.000000   0.000000   0.000000  -0.000002   0.000048
              7          8          9         10         11         12
     1  H    0.001078  -0.000022  -0.000186   0.000021  -0.000002   0.000001
     2  C   -0.105971   0.000939   0.005622  -0.000243  -0.000324  -0.000029
     3  H    0.000870   0.000033  -0.000086  -0.000004   0.000020  -0.000005
     4  H    0.005730   0.003772   0.000195   0.000001  -0.000020   0.000003
     5  C    0.303199  -0.019514  -0.023309   0.000973   0.002411   0.000662
     6  O   -0.080617   0.003398  -0.000931   0.000083  -0.000004  -0.000021
     7  N    7.138139   0.293726   0.165290  -0.045011  -0.060412   0.000508
     8  H    0.293726   0.413589  -0.028644  -0.001672  -0.002693  -0.000357
     9  C    0.165290  -0.028644   5.163017   0.373927   0.355942  -0.034667
    10  H   -0.045011  -0.001672   0.373927   0.573374  -0.048850   0.005225
    11  C   -0.060412  -0.002693   0.355942  -0.048850   5.146249   0.373554
    12  H    0.000508  -0.000357  -0.034667   0.005225   0.373554   0.549947
    13  H    0.004889  -0.000193  -0.025854   0.000574   0.359314  -0.019839
    14  H   -0.003857   0.006554  -0.034389  -0.004423   0.358333  -0.033205
    15  C   -0.010825   0.002392   0.315427  -0.032348  -0.030692  -0.004190
    16  O    0.002144  -0.000062  -0.084181  -0.000084  -0.007004   0.000843
    17  N    0.004779  -0.000230  -0.111343  -0.001486   0.003018   0.000244
    18  H   -0.005541   0.000012   0.000494   0.000024  -0.000068  -0.000010
    19  C   -0.000172   0.000008   0.007117  -0.000196  -0.000134  -0.000015
    20  H    0.000001   0.000000   0.000147   0.000033  -0.000023   0.000001
    21  H   -0.000009   0.000000   0.000015  -0.000017   0.000043  -0.000005
    22  H   -0.000006   0.000000  -0.000072   0.000006   0.000000   0.000000
             13         14         15         16         17         18
     1  H    0.000000   0.000000   0.000003   0.000000   0.000001  -0.000024
     2  C    0.000005  -0.000013   0.000022   0.000000  -0.000200   0.001552
     3  H    0.000000   0.000000   0.000002   0.000000   0.000001  -0.000006
     4  H    0.000000  -0.000026  -0.000013   0.000000   0.000007  -0.000055
     5  C   -0.000038   0.000009  -0.000499  -0.000001   0.003770  -0.003147
     6  O    0.000000   0.000000   0.002720   0.000002  -0.045929   0.078358
     7  N    0.004889  -0.003857  -0.010825   0.002144   0.004779  -0.005541
     8  H   -0.000193   0.006554   0.002392  -0.000062  -0.000230   0.000012
     9  C   -0.025854  -0.034389   0.315427  -0.084181  -0.111343   0.000494
    10  H    0.000574  -0.004423  -0.032348  -0.000084  -0.001486   0.000024
    11  C    0.359314   0.358333  -0.030692  -0.007004   0.003018  -0.000068
    12  H   -0.019839  -0.033205  -0.004190   0.000843   0.000244  -0.000010
    13  H    0.499006  -0.025641  -0.005724   0.016302   0.000532  -0.000006
    14  H   -0.025641   0.605364   0.004803   0.000638  -0.000046  -0.000009
    15  C   -0.005724   0.004803   4.321786   0.565494   0.315311  -0.016909
    16  O    0.016302   0.000638   0.565494   8.117795  -0.100215   0.002514
    17  N    0.000532  -0.000046   0.315311  -0.100215   7.161293   0.236939
    18  H   -0.000006  -0.000009  -0.016909   0.002514   0.236939   0.342328
    19  C   -0.000016   0.000002  -0.027079   0.006090   0.267296  -0.021420
    20  H   -0.000001   0.000000  -0.003438   0.007389  -0.039755   0.002068
    21  H   -0.000003   0.000000  -0.004286   0.002522  -0.044273   0.001660
    22  H    0.000000   0.000000   0.005353   0.000661  -0.034221  -0.002666
             19         20         21         22
     1  H    0.000000   0.000000   0.000000   0.000000
     2  C    0.000002   0.000000   0.000000   0.000000
     3  H    0.000000   0.000000   0.000000   0.000000
     4  H    0.000000   0.000000   0.000000   0.000000
     5  C    0.000015  -0.000001   0.000007  -0.000002
     6  O    0.001043  -0.000023  -0.000005   0.000048
     7  N   -0.000172   0.000001  -0.000009  -0.000006
     8  H    0.000008   0.000000   0.000000   0.000000
     9  C    0.007117   0.000147   0.000015  -0.000072
    10  H   -0.000196   0.000033  -0.000017   0.000006
    11  C   -0.000134  -0.000023   0.000043   0.000000
    12  H   -0.000015   0.000001  -0.000005   0.000000
    13  H   -0.000016  -0.000001  -0.000003   0.000000
    14  H    0.000002   0.000000   0.000000   0.000000
    15  C   -0.027079  -0.003438  -0.004286   0.005353
    16  O    0.006090   0.007389   0.002522   0.000661
    17  N    0.267296  -0.039755  -0.044273  -0.034221
    18  H   -0.021420   0.002068   0.001660  -0.002666
    19  C    4.924438   0.384183   0.384194   0.372151
    20  H    0.384183   0.537601  -0.038223  -0.026332
    21  H    0.384194  -0.038223   0.571705  -0.034863
    22  H    0.372151  -0.026332  -0.034863   0.569665
 Mulliken atomic charges:
              1
     1  H    0.191146
     2  C   -0.532081
     3  H    0.192584
     4  H    0.146051
     5  C    0.606122
     6  O   -0.527661
     7  N   -0.607930
     8  H    0.328964
     9  C   -0.043532
    10  H    0.180095
    11  C   -0.448659
    12  H    0.161356
    13  H    0.196693
    14  H    0.125906
    15  C    0.602690
    16  O   -0.530845
    17  N   -0.615493
    18  H    0.383912
    19  C   -0.297506
    20  H    0.176373
    21  H    0.161539
    22  H    0.150277
 Sum of Mulliken atomic charges =   0.00000
 Mulliken charges with hydrogens summed into heavy atoms:
              1
     2  C   -0.002301
     5  C    0.606122
     6  O   -0.527661
     7  N   -0.278966
     9  C    0.136563
    11  C    0.035295
    15  C    0.602690
    16  O   -0.530845
    17  N   -0.231580
    19  C    0.190683
 Sum of Mulliken charges with hydrogens summed into heavy atoms =   0.00000
 Electronic spatial extent (au):  <R**2>=           1768.1667
 Charge=              0.0000 electrons
 Dipole moment (field-independent basis, Debye):
    X=             -3.9133    Y=              1.0723    Z=             -1.1321  Tot=              4.2125
 Quadrupole moment (field-independent basis, Debye-Ang):
   XX=            -59.0271   YY=            -59.4666   ZZ=            -59.6518
   XY=             -9.1023   XZ=             -0.0311   YZ=             -0.8022
 Traceless Quadrupole moment (field-independent basis, Debye-Ang):
   XX=              0.3547   YY=             -0.0847   ZZ=             -0.2700
   XY=             -9.1023   XZ=             -0.0311   YZ=             -0.8022
 Octapole moment (field-independent basis, Debye-Ang**2):
  XXX=            -40.4734  YYY=              2.3334  ZZZ=              2.3367  XYY=              4.5301
  XXY=            -15.1902  XXZ=             -4.0936  XZZ=             -0.2502  YZZ=              0.2411
  YYZ=             -4.8018  XYZ=             -1.7775
 Hexadecapole moment (field-independent basis, Debye-Ang**3):
 XXXX=          -1383.5949 YYYY=           -751.8399 ZZZZ=           -104.3751 XXXY=            -28.4084
 XXXZ=             -8.9652 YYYX=            -18.5976 YYYZ=              0.4255 ZZZX=             -1.0577
 ZZZY=             -4.1625 XXYY=           -352.5932 XXZZ=           -247.9526 YYZZ=           -144.6713
 XXYZ=             -5.9163 YYXZ=              6.8794 ZZXY=              5.1574
 N-N= 5.570895892599D+02 E-N=-2.270167975641D+03  KE= 4.912184464310D+02
 1\1\GINC-NODE007\FOpt\RB3LYP\6-31G(d)\C6H12N2O2\MANAGER\10-Feb-2017\0\
 \# b3lyp/6-31G* Opt=(ModRedundant, maxcycles=1000, calcfc) geom=nocrow
 d\\Phi Psi fixed scan\\0,1\H,0.4204809885,3.1777248341,0.7605643819\C,
 1.0952583931,3.1900357115,-0.1003842526\H,0.4807962287,3.3448303711,-0
 .9926442065\H,1.5925441157,2.2184239042,-0.1781426577\C,2.0401684007,4
 .3778910388,0.0429868592\O,1.567633221,5.5096786075,0.1633597972\N,3.3
 616040055,4.0516657868,0.0335714595\H,3.5287435571,3.0593755814,-0.064
 9491265\C,4.6535628198,4.7874434119,0.0226296916\H,5.1583822554,4.5183
 750839,0.9627018293\C,5.4881544451,4.2327968116,-1.14046728\H,5.008193
 8451,4.4579053407,-2.0984411151\H,6.4761972216,4.6926958211,-1.1323607
 819\H,5.599322447,3.1447140618,-1.0538431588\C,4.7356205812,6.34358861
 19,0.0194422062\O,5.7845586769,6.8436072936,-0.3833085935\N,3.75720268
 54,7.0576089707,0.6140265091\H,2.8265782326,6.6332821474,0.6439004087\
 C,3.8672424317,8.5072749223,0.6713809684\H,4.831071116,8.7889236219,1.
 1025858681\H,3.7969119527,8.9673495748,-0.3228554319\H,3.0614723792,8.
 8926084912,1.3009466252\\Version=EM64L-G09RevA.02\State=1-A\HF=-495.84
 01663\RMSD=4.526e-09\RMSF=3.473e-04\Dipole=-0.5744654,-1.540505,0.2088
 549\Quadrupole=-6.1074827,6.4436618,-0.3361791,-1.2822157,1.5327932,1.
 6579178\PG=C01 [X(C6H12N2O2)]\\@


 HAPPINESS IS NOT HAVING WHAT YOU WANT --
 HAPPINESS IS WANTING WHAT YOU HAVE!

              -- FROM MRS. SEVERN'S DESK
 Job cpu time:  0 days  2 hours  2 minutes 15.0 seconds.
 File lengths (MBytes):  RWF=    186 Int=      0 D2E=      0 Chk=      4 Scr=      2
 Normal termination of Gaussian 09 at Fri Feb 10 18:17:26 2017.
