 Entering Gaussian System, Link 0=g09
 Initial command:
 /home/steboss/Software/g09/l1.exe /home/steboss/projects/phi_psi_scan/alanine/0/4140/Gau-13476.inp -scrdir=/home/steboss/projects/phi_psi_scan/alanine/0/4140/
 Entering Link 1 = /home/steboss/Software/g09/l1.exe PID=     13480.
  
 Copyright (c) 1988,1990,1992,1993,1995,1998,2003,2009, Gaussian, Inc.
                  All Rights Reserved.
  
 This is part of the Gaussian(R) 09 program.  It is based on
 the Gaussian(R) 03 system (copyright 2003, Gaussian, Inc.),
 the Gaussian(R) 98 system (copyright 1998, Gaussian, Inc.),
 the Gaussian(R) 94 system (copyright 1995, Gaussian, Inc.),
 the Gaussian 92(TM) system (copyright 1992, Gaussian, Inc.),
 the Gaussian 90(TM) system (copyright 1990, Gaussian, Inc.),
 the Gaussian 88(TM) system (copyright 1988, Gaussian, Inc.),
 the Gaussian 86(TM) system (copyright 1986, Carnegie Mellon
 University), and the Gaussian 82(TM) system (copyright 1983,
 Carnegie Mellon University). Gaussian is a federally registered
 trademark of Gaussian, Inc.
  
 This software contains proprietary and confidential information,
 including trade secrets, belonging to Gaussian, Inc.
  
 This software is provided under written license and may be
 used, copied, transmitted, or stored only in accord with that
 written license.
  
 The following legend is applicable only to US Government
 contracts under FAR:
  
                    RESTRICTED RIGHTS LEGEND
  
 Use, reproduction and disclosure by the US Government is
 subject to restrictions as set forth in subparagraphs (a)
 and (c) of the Commercial Computer Software - Restricted
 Rights clause in FAR 52.227-19.
  
 Gaussian, Inc.
 340 Quinnipiac St., Bldg. 40, Wallingford CT 06492
  
  
 ---------------------------------------------------------------
 Warning -- This program may not be used in any manner that
 competes with the business of Gaussian, Inc. or will provide
 assistance to any competitor of Gaussian, Inc.  The licensee
 of this program is prohibited from giving any competitor of
 Gaussian, Inc. access to this program.  By using this program,
 the user acknowledges that Gaussian, Inc. is engaged in the
 business of creating and licensing software in the field of
 computational chemistry and represents and warrants to the
 licensee that it is not a competitor of Gaussian, Inc. and that
 it will not use this program in any manner prohibited above.
 ---------------------------------------------------------------
  

 Cite this work as:
 Gaussian 09, Revision A.02,
 M. J. Frisch, G. W. Trucks, H. B. Schlegel, G. E. Scuseria, 
 M. A. Robb, J. R. Cheeseman, G. Scalmani, V. Barone, B. Mennucci, 
 G. A. Petersson, H. Nakatsuji, M. Caricato, X. Li, H. P. Hratchian, 
 A. F. Izmaylov, J. Bloino, G. Zheng, J. L. Sonnenberg, M. Hada, 
 M. Ehara, K. Toyota, R. Fukuda, J. Hasegawa, M. Ishida, T. Nakajima, 
 Y. Honda, O. Kitao, H. Nakai, T. Vreven, J. A. Montgomery, Jr., 
 J. E. Peralta, F. Ogliaro, M. Bearpark, J. J. Heyd, E. Brothers, 
 K. N. Kudin, V. N. Staroverov, R. Kobayashi, J. Normand, 
 K. Raghavachari, A. Rendell, J. C. Burant, S. S. Iyengar, J. Tomasi, 
 M. Cossi, N. Rega, J. M. Millam, M. Klene, J. E. Knox, J. B. Cross, 
 V. Bakken, C. Adamo, J. Jaramillo, R. Gomperts, R. E. Stratmann, 
 O. Yazyev, A. J. Austin, R. Cammi, C. Pomelli, J. W. Ochterski, 
 R. L. Martin, K. Morokuma, V. G. Zakrzewski, G. A. Voth, 
 P. Salvador, J. J. Dannenberg, S. Dapprich, A. D. Daniels, 
 O. Farkas, J. B. Foresman, J. V. Ortiz, J. Cioslowski, 
 and D. J. Fox, Gaussian, Inc., Wallingford CT, 2009.
 
 ******************************************
 Gaussian 09:  EM64L-G09RevA.02 11-Jun-2009
                10-Feb-2017 
 ******************************************
 %chk=structure_270.chk
 %NProcShared=8
 Will use up to    8 processors via shared memory.
 ----------------------------------------------------------------------
 # b3lyp/6-31G* Opt=(ModRedundant, maxcycles=1000, calcfc) geom=nocrowd
 ----------------------------------------------------------------------
 1/6=1000,10=4,14=-1,18=120,19=15,26=3,38=1/1,3;
 2/9=110,12=1,17=6,18=5,40=1/2;
 3/5=1,6=6,7=1,11=2,16=1,25=1,30=1,71=2,74=-5/1,2,3;
 4//1;
 5/5=2,38=5/2;
 8/6=4,10=90,11=11/1;
 11/6=1,8=1,9=11,15=111,16=1/1,2,10;
 10/6=1,7=6,13=1/2;
 6/7=2,8=2,9=2,10=2,28=1/1;
 7/10=1,18=20,25=1/1,2,3,16;
 1/6=1000,10=4,14=-1,18=20,19=15/3(2);
 2/9=110,12=1/2;
 99//99;
 2/9=110,12=1/2;
 3/5=1,6=6,7=1,11=2,16=1,25=1,30=1,71=1,74=-5/1,2,3;
 4/5=5,16=3/1;
 5/5=2,38=5/2;
 7//1,2,3,16;
 1/6=1000,14=-1,18=20,19=15/3(-5);
 2/9=110,12=1/2;
 6/7=2,8=2,9=2,10=2,19=2,28=1/1;
 99/9=1/99;
 ------------------
 Phi Psi fixed scan
 ------------------
 Symbolic Z-matrix:
 Charge =  0 Multiplicity = 1
 H                     0.2496    4.5262    0. 
 C                     1.1178    3.8672    0. 
 H                     1.097     3.238    -0.8898 
 H                     1.097     3.238     0.8898 
 C                     2.4195    4.6711    0. 
 O                     2.3938    5.8999    0. 
 N                     3.5554    3.9697    0. 
 H                     3.5254    2.9601    0. 
 C                     4.8533    4.6139    0. 
 H                     5.4076    4.3155    0.8898 
 C                     5.6613    4.2208   -1.2322 
 H                     5.1233    4.5214   -2.1312 
 H                     6.6305    4.7189   -1.2058 
 H                     5.8085    3.1409   -1.2414 
 C                     4.7127    6.1294    0. 
 O                     4.6551    6.7505    1.059 
 N                     4.6575    6.7246   -1.1937 
 H                     4.7088    6.171    -2.0369 
 C                     4.5242    8.1613   -1.3275 
 H                     4.482     8.6165   -0.3381 
 H                     5.3811    8.557    -1.8727 
 H                     3.6091    8.3926   -1.8727 
 
 The following ModRedundant input section has been read:
 D    5    7    9   15 F                                                       
 D    7    9   15   17 F                                                       

 GradGradGradGradGradGradGradGradGradGradGradGradGradGradGradGradGradGrad
 Berny optimization.
 Initialization pass.
                           ----------------------------
                           !    Initial Parameters    !
                           ! (Angstroms and Degrees)  !
 --------------------------                            --------------------------
 ! Name  Definition              Value          Derivative Info.                !
 --------------------------------------------------------------------------------
 ! R1    R(1,2)                  1.09           calculate D2E/DX2 analytically  !
 ! R2    R(2,3)                  1.09           calculate D2E/DX2 analytically  !
 ! R3    R(2,4)                  1.09           calculate D2E/DX2 analytically  !
 ! R4    R(2,5)                  1.5299         calculate D2E/DX2 analytically  !
 ! R5    R(5,6)                  1.2291         calculate D2E/DX2 analytically  !
 ! R6    R(5,7)                  1.335          calculate D2E/DX2 analytically  !
 ! R7    R(7,8)                  1.01           calculate D2E/DX2 analytically  !
 ! R8    R(7,9)                  1.449          calculate D2E/DX2 analytically  !
 ! R9    R(9,10)                 1.09           calculate D2E/DX2 analytically  !
 ! R10   R(9,11)                 1.525          calculate D2E/DX2 analytically  !
 ! R11   R(9,15)                 1.522          calculate D2E/DX2 analytically  !
 ! R12   R(11,12)                1.09           calculate D2E/DX2 analytically  !
 ! R13   R(11,13)                1.09           calculate D2E/DX2 analytically  !
 ! R14   R(11,14)                1.0899         calculate D2E/DX2 analytically  !
 ! R15   R(15,16)                1.2291         calculate D2E/DX2 analytically  !
 ! R16   R(15,17)                1.335          calculate D2E/DX2 analytically  !
 ! R17   R(17,18)                1.01           calculate D2E/DX2 analytically  !
 ! R18   R(17,19)                1.4491         calculate D2E/DX2 analytically  !
 ! R19   R(19,20)                1.0899         calculate D2E/DX2 analytically  !
 ! R20   R(19,21)                1.09           calculate D2E/DX2 analytically  !
 ! R21   R(19,22)                1.09           calculate D2E/DX2 analytically  !
 ! A1    A(1,2,3)              109.5001         calculate D2E/DX2 analytically  !
 ! A2    A(1,2,4)              109.5001         calculate D2E/DX2 analytically  !
 ! A3    A(1,2,5)              111.1015         calculate D2E/DX2 analytically  !
 ! A4    A(3,2,4)              109.4403         calculate D2E/DX2 analytically  !
 ! A5    A(3,2,5)              108.636          calculate D2E/DX2 analytically  !
 ! A6    A(4,2,5)              108.636          calculate D2E/DX2 analytically  !
 ! A7    A(2,5,6)              120.5004         calculate D2E/DX2 analytically  !
 ! A8    A(2,5,7)              116.6068         calculate D2E/DX2 analytically  !
 ! A9    A(6,5,7)              122.8928         calculate D2E/DX2 analytically  !
 ! A10   A(5,7,8)              119.9926         calculate D2E/DX2 analytically  !
 ! A11   A(5,7,9)              121.9083         calculate D2E/DX2 analytically  !
 ! A12   A(8,7,9)              118.0991         calculate D2E/DX2 analytically  !
 ! A13   A(7,9,10)             109.5            calculate D2E/DX2 analytically  !
 ! A14   A(7,9,11)             111.0992         calculate D2E/DX2 analytically  !
 ! A15   A(7,9,15)             111.0966         calculate D2E/DX2 analytically  !
 ! A16   A(10,9,11)            108.6382         calculate D2E/DX2 analytically  !
 ! A17   A(10,9,15)            108.6373         calculate D2E/DX2 analytically  !
 ! A18   A(11,9,15)            107.7947         calculate D2E/DX2 analytically  !
 ! A19   A(9,11,12)            109.5007         calculate D2E/DX2 analytically  !
 ! A20   A(9,11,13)            109.4959         calculate D2E/DX2 analytically  !
 ! A21   A(9,11,14)            109.4978         calculate D2E/DX2 analytically  !
 ! A22   A(12,11,13)           109.441          calculate D2E/DX2 analytically  !
 ! A23   A(12,11,14)           109.4482         calculate D2E/DX2 analytically  !
 ! A24   A(13,11,14)           109.4436         calculate D2E/DX2 analytically  !
 ! A25   A(9,15,16)            120.4987         calculate D2E/DX2 analytically  !
 ! A26   A(9,15,17)            116.5998         calculate D2E/DX2 analytically  !
 ! A27   A(16,15,17)           122.9016         calculate D2E/DX2 analytically  !
 ! A28   A(15,17,18)           120.001          calculate D2E/DX2 analytically  !
 ! A29   A(15,17,19)           121.8978         calculate D2E/DX2 analytically  !
 ! A30   A(18,17,19)           118.1012         calculate D2E/DX2 analytically  !
 ! A31   A(17,19,20)           109.5013         calculate D2E/DX2 analytically  !
 ! A32   A(17,19,21)           109.4994         calculate D2E/DX2 analytically  !
 ! A33   A(17,19,22)           109.4995         calculate D2E/DX2 analytically  !
 ! A34   A(20,19,21)           109.4436         calculate D2E/DX2 analytically  !
 ! A35   A(20,19,22)           109.446          calculate D2E/DX2 analytically  !
 ! A36   A(21,19,22)           109.4374         calculate D2E/DX2 analytically  !
 ! D1    D(1,2,5,6)              0.0            calculate D2E/DX2 analytically  !
 ! D2    D(1,2,5,7)            180.0            calculate D2E/DX2 analytically  !
 ! D3    D(3,2,5,6)            120.5133         calculate D2E/DX2 analytically  !
 ! D4    D(3,2,5,7)            -59.4867         calculate D2E/DX2 analytically  !
 ! D5    D(4,2,5,6)           -120.5133         calculate D2E/DX2 analytically  !
 ! D6    D(4,2,5,7)             59.4867         calculate D2E/DX2 analytically  !
 ! D7    D(2,5,7,8)              0.0            calculate D2E/DX2 analytically  !
 ! D8    D(2,5,7,9)            180.0            calculate D2E/DX2 analytically  !
 ! D9    D(6,5,7,8)            180.0            calculate D2E/DX2 analytically  !
 ! D10   D(6,5,7,9)              0.0            calculate D2E/DX2 analytically  !
 ! D11   D(5,7,9,10)           119.9998         calculate D2E/DX2 analytically  !
 ! D12   D(5,7,9,11)          -119.9976         calculate D2E/DX2 analytically  !
 ! D13   D(5,7,9,15)             0.0            frozen, calculate D2E/DX2 analyt!
 ! D14   D(8,7,9,10)           -60.0002         calculate D2E/DX2 analytically  !
 ! D15   D(8,7,9,11)            60.0024         calculate D2E/DX2 analytically  !
 ! D16   D(8,7,9,15)           180.0            calculate D2E/DX2 analytically  !
 ! D17   D(7,9,11,12)           60.0024         calculate D2E/DX2 analytically  !
 ! D18   D(7,9,11,13)          179.9986         calculate D2E/DX2 analytically  !
 ! D19   D(7,9,11,14)          -60.0038         calculate D2E/DX2 analytically  !
 ! D20   D(10,9,11,12)        -179.4843         calculate D2E/DX2 analytically  !
 ! D21   D(10,9,11,13)         -59.4881         calculate D2E/DX2 analytically  !
 ! D22   D(10,9,11,14)          60.5095         calculate D2E/DX2 analytically  !
 ! D23   D(15,9,11,12)         -61.938          calculate D2E/DX2 analytically  !
 ! D24   D(15,9,11,13)          58.0582         calculate D2E/DX2 analytically  !
 ! D25   D(15,9,11,14)         178.0558         calculate D2E/DX2 analytically  !
 ! D26   D(7,9,15,16)           90.0012         calculate D2E/DX2 analytically  !
 ! D27   D(7,9,15,17)          -90.0009         frozen, calculate D2E/DX2 analyt!
 ! D28   D(10,9,15,16)         -30.5099         calculate D2E/DX2 analytically  !
 ! D29   D(10,9,15,17)         149.488          calculate D2E/DX2 analytically  !
 ! D30   D(11,9,15,16)        -148.0568         calculate D2E/DX2 analytically  !
 ! D31   D(11,9,15,17)          31.9411         calculate D2E/DX2 analytically  !
 ! D32   D(9,15,17,18)           0.0048         calculate D2E/DX2 analytically  !
 ! D33   D(9,15,17,19)         179.9994         calculate D2E/DX2 analytically  !
 ! D34   D(16,15,17,18)       -179.9974         calculate D2E/DX2 analytically  !
 ! D35   D(16,15,17,19)         -0.0028         calculate D2E/DX2 analytically  !
 ! D36   D(15,17,19,20)          0.0031         calculate D2E/DX2 analytically  !
 ! D37   D(15,17,19,21)        120.005          calculate D2E/DX2 analytically  !
 ! D38   D(15,17,19,22)       -120.0018         calculate D2E/DX2 analytically  !
 ! D39   D(18,17,19,20)        179.9978         calculate D2E/DX2 analytically  !
 ! D40   D(18,17,19,21)        -60.0003         calculate D2E/DX2 analytically  !
 ! D41   D(18,17,19,22)         59.9929         calculate D2E/DX2 analytically  !
 --------------------------------------------------------------------------------
 Trust Radius=3.00D-01 FncErr=1.00D-07 GrdErr=1.00D-06
 Number of steps in this run= 132 maximum allowed number of steps= 132.
 GradGradGradGradGradGradGradGradGradGradGradGradGradGradGradGradGradGrad

                          Input orientation:                          
 ---------------------------------------------------------------------
 Center     Atomic      Atomic             Coordinates (Angstroms)
 Number     Number       Type             X           Y           Z
 ---------------------------------------------------------------------
      1          1           0        0.249600    4.526200    0.000000
      2          6           0        1.117800    3.867200    0.000000
      3          1           0        1.097000    3.238000   -0.889800
      4          1           0        1.097000    3.238000    0.889800
      5          6           0        2.419500    4.671100    0.000000
      6          8           0        2.393800    5.899900    0.000000
      7          7           0        3.555400    3.969700    0.000000
      8          1           0        3.525400    2.960100    0.000000
      9          6           0        4.853300    4.613900    0.000000
     10          1           0        5.407600    4.315500    0.889800
     11          6           0        5.661300    4.220800   -1.232200
     12          1           0        5.123300    4.521400   -2.131200
     13          1           0        6.630500    4.718900   -1.205800
     14          1           0        5.808500    3.140900   -1.241400
     15          6           0        4.712700    6.129400    0.000000
     16          8           0        4.655100    6.750500    1.059000
     17          7           0        4.657500    6.724600   -1.193700
     18          1           0        4.708800    6.171000   -2.036900
     19          6           0        4.524200    8.161300   -1.327500
     20          1           0        4.482000    8.616500   -0.338100
     21          1           0        5.381100    8.557000   -1.872700
     22          1           0        3.609100    8.392600   -1.872700
 ---------------------------------------------------------------------
                    Distance matrix (angstroms):
                    1          2          3          4          5
     1  H    0.000000
     2  C    1.089978   0.000000
     3  H    1.780250   1.089986   0.000000
     4  H    1.780250   1.089986   1.779600   0.000000
     5  C    2.174733   1.529927   2.143485   2.143485   0.000000
     6  O    2.546497   2.400009   3.091787   3.091787   1.229069
     7  N    3.352314   2.439754   2.714933   2.714933   1.335002
     8  H    3.630914   2.572813   2.601173   2.601173   2.037286
     9  C    4.604535   3.809399   4.098126   4.098126   2.434472
    10  H    5.238426   4.403987   4.786361   4.443228   3.137983
    11  C    5.558604   4.720884   4.681449   5.128510   3.497192
    12  H    5.319303   4.584105   4.404462   5.194675   3.446006
    13  H    6.496689   5.706944   5.736945   6.099527   4.380498
    14  H    5.861868   4.906246   4.725599   5.172009   3.920192
    15  C    4.742311   4.247453   4.714364   4.714364   2.717610
    16  O    5.047516   4.684804   5.366149   5.002635   3.231608
    17  N    5.068280   4.703098   4.992584   5.401344   3.263499
    18  H    5.170957   4.727762   4.792017   5.496650   3.411679
    19  C    5.766144   5.639602   6.014662   6.395389   4.286434
    20  H    5.895598   5.829923   6.378939   6.472575   4.464796
    21  H    6.788715   6.608854   6.900099   7.367271   5.232428
    22  H    5.453650   5.494800   5.817787   6.364900   4.332634
                    6          7          8          9         10
     6  O    0.000000
     7  N    2.252773   0.000000
     8  H    3.150070   1.010046   0.000000
     9  C    2.775416   1.448978   2.120937   0.000000
    10  H    3.519241   2.083739   2.484256   1.089970   0.000000
    11  C    3.874823   2.452791   2.769431   1.525027   2.139209
    12  H    3.727257   2.702720   3.087548   2.150225   3.041326
    13  H    4.560520   3.386959   3.766826   2.150214   2.459625
    14  H    4.562163   2.702673   2.605054   2.150165   2.466256
    15  C    2.330229   2.450234   3.384397   1.522008   2.136554
    16  O    2.637893   3.172329   4.094488   2.392869   2.554234
    17  N    2.688752   3.198284   4.108288   2.432758   3.272214
    18  H    3.095429   3.213256   3.982371   2.567957   3.535078
    19  C    3.378578   4.502259   5.460068   3.801922   4.526256
    20  H    3.443081   4.750332   5.746673   4.033978   4.567611
    21  H    4.414878   5.280484   6.186753   4.397001   5.061860
    22  H    3.346268   4.803325   5.746831   4.397000   5.242972
                   11         12         13         14         15
    11  C    0.000000
    12  H    1.089957   0.000000
    13  H    1.090023   1.779613   0.000000
    14  H    1.089925   1.779613   1.779617   0.000000
    15  C    2.461892   2.701161   2.668599   3.416575   0.000000
    16  O    3.558289   3.919882   3.627523   4.432988   1.229050
    17  N    2.697797   2.439255   2.813487   3.764304   1.335002
    18  H    2.314752   1.703491   2.547990   3.320191   2.037328
    19  C    4.102392   3.775411   4.037503   5.182785   2.434421
    20  H    4.638140   4.516228   4.534340   5.705940   2.520556
    21  H    4.392196   4.052080   4.091059   5.469493   3.137994
    22  H    4.693152   4.164831   4.803091   5.728547   3.137995
                   16         17         18         19         20
    16  O    0.000000
    17  N    2.252850   0.000000
    18  H    3.150127   1.009995   0.000000
    19  C    2.775405   1.449061   2.120995   0.000000
    20  H    2.337479   2.083780   2.986274   1.089908   0.000000
    21  H    3.519287   2.083825   2.484340   1.090000   1.779584
    22  H    3.519300   2.083844   2.484312   1.090023   1.779630
                   21         22
    21  H    0.000000
    22  H    1.779610   0.000000
 Stoichiometry    C6H12N2O2
 Framework group  C1[X(C6H12N2O2)]
 Deg. of freedom    60
 Full point group                 C1      NOp   1
 Largest Abelian subgroup         C1      NOp   1
 Largest concise Abelian subgroup C1      NOp   1
                         Standard orientation:                         
 ---------------------------------------------------------------------
 Center     Atomic      Atomic             Coordinates (Angstroms)
 Number     Number       Type             X           Y           Z
 ---------------------------------------------------------------------
      1          1           0        3.180545   -1.911617   -0.519995
      2          6           0        3.066048   -0.837754   -0.372482
      3          1           0        3.358101   -0.312404   -1.281758
      4          1           0        3.700112   -0.514232    0.452967
      5          6           0        1.615506   -0.478370   -0.044686
      6          8           0        0.755847   -1.354171    0.022905
      7          7           0        1.350949    0.814382    0.157879
      8          1           0        2.091688    1.497809    0.091351
      9          6           0        0.016942    1.282540    0.475354
     10          1           0        0.027538    1.781848    1.444175
     11          6           0       -0.483582    2.267999   -0.575386
     12          1           0       -0.508496    1.779725   -1.549539
     13          1           0       -1.486837    2.602702   -0.311565
     14          1           0        0.186201    3.126835   -0.616954
     15          6           0       -0.969934    0.125392    0.535293
     16          8           0       -1.170879   -0.468932    1.592159
     17          7           0       -1.586945   -0.193675   -0.604761
     18          1           0       -1.388456    0.324608   -1.448607
     19          6           0       -2.548214   -1.275489   -0.678367
     20          1           0       -2.654508   -1.735242    0.304094
     21          1           0       -3.512596   -0.883901   -1.001978
     22          1           0       -2.201663   -2.022176   -1.392869
 ---------------------------------------------------------------------
 Rotational constants (GHZ):      1.8878160      1.0703974      0.8578749
 Standard basis: 6-31G(d) (6D, 7F)
 There are   174 symmetry adapted basis functions of A   symmetry.
 Integral buffers will be    131072 words long.
 Raffenetti 2 integral format.
 Two-electron integral symmetry is turned on.
   174 basis functions,   328 primitive gaussians,   174 cartesian basis functions
    39 alpha electrons       39 beta electrons
       nuclear repulsion energy       581.8853923857 Hartrees.
 NAtoms=   22 NActive=   22 NUniq=   22 SFac= 7.50D-01 NAtFMM=   80 NAOKFM=F Big=F
 One-electron integrals computed using PRISM.
 NBasis=   174 RedAO= T  NBF=   174
 NBsUse=   174 1.00D-06 NBFU=   174
 Harris functional with IExCor=  402 diagonalized for initial guess.
 ExpMin= 1.61D-01 ExpMax= 5.48D+03 ExpMxC= 8.25D+02 IAcc=1 IRadAn=         1 AccDes= 0.00D+00
 HarFok:  IExCor=  402 AccDes= 0.00D+00 IRadAn=         1 IDoV= 1
 ScaDFX=  1.000000  1.000000  1.000000  1.000000
 FoFCou: FMM=F IPFlag=           0 FMFlag=      100000 FMFlg1=           0
         NFxFlg=           0 DoJE=T BraDBF=F KetDBF=T FulRan=T
         Omega=  0.000000  0.000000  1.000000  0.000000  0.000000 ICntrl=     500 IOpCl=  0
         NMat0=    1 NMatS0=    1 NMatT0=    0 NMatD0=    1 NMtDS0=    0 NMtDT0=    0
         I1Cent=           4 NGrid=           0.
 Petite list used in FoFCou.
 Initial guess orbital symmetries:
       Occupied  (A) (A) (A) (A) (A) (A) (A) (A) (A) (A) (A) (A)
                 (A) (A) (A) (A) (A) (A) (A) (A) (A) (A) (A) (A)
                 (A) (A) (A) (A) (A) (A) (A) (A) (A) (A) (A) (A)
                 (A) (A) (A)
       Virtual   (A) (A) (A) (A) (A) (A) (A) (A) (A) (A) (A) (A)
                 (A) (A) (A) (A) (A) (A) (A) (A) (A) (A) (A) (A)
                 (A) (A) (A) (A) (A) (A) (A) (A) (A) (A) (A) (A)
                 (A) (A) (A) (A) (A) (A) (A) (A) (A) (A) (A) (A)
                 (A) (A) (A) (A) (A) (A) (A) (A) (A) (A) (A) (A)
                 (A) (A) (A) (A) (A) (A) (A) (A) (A) (A) (A) (A)
                 (A) (A) (A) (A) (A) (A) (A) (A) (A) (A) (A) (A)
                 (A) (A) (A) (A) (A) (A) (A) (A) (A) (A) (A) (A)
                 (A) (A) (A) (A) (A) (A) (A) (A) (A) (A) (A) (A)
                 (A) (A) (A) (A) (A) (A) (A) (A) (A) (A) (A) (A)
                 (A) (A) (A) (A) (A) (A) (A) (A) (A) (A) (A) (A)
                 (A) (A) (A)
 The electronic state of the initial guess is 1-A.
 Requested convergence on RMS density matrix=1.00D-08 within 128 cycles.
 Requested convergence on MAX density matrix=1.00D-06.
 Requested convergence on             energy=1.00D-06.
 No special actions if energy rises.
 Integral accuracy reduced to 1.0D-05 until final iterations.
 Initial convergence to 1.0D-05 achieved.  Increase integral accuracy.
 SCF Done:  E(RB3LYP) =  -495.815265253     A.U. after   14 cycles
             Convg  =    0.5917D-08             -V/T =  2.0085
 Range of M.O.s used for correlation:     1   174
 NBasis=   174 NAE=    39 NBE=    39 NFC=     0 NFV=     0
 NROrb=    174 NOA=    39 NOB=    39 NVA=   135 NVB=   135
 Symmetrizing basis deriv contribution to polar:
 IMax=3 JMax=2 DiffMx= 0.00D+00
 G2DrvN: will do    23 centers at a time, making    1 passes doing MaxLOS=2.
 Calling FoFCou, ICntrl=  3107 FMM=F I1Cent=   0 AccDes= 0.00D+00.
 FoFDir/FoFCou used for L=0 through L=2.
 End of G2Drv Frequency-dependent properties file   721 does not exist.
 End of G2Drv Frequency-dependent properties file   722 does not exist.
          IDoAtm=1111111111111111111111
          Differentiating once with respect to nuclear coordinates.
          There are    69 degrees of freedom in the 1st order CPHF.  IDoFFX=5.
     63 vectors produced by pass  0 Test12= 7.63D-11 1.45D-07 XBig12= 1.92D-01 1.01D-01.
 AX will form    63 AO Fock derivatives at one time.
     63 vectors produced by pass  1 Test12= 7.63D-11 1.45D-07 XBig12= 5.27D-02 9.06D-02.
     63 vectors produced by pass  2 Test12= 7.63D-11 1.45D-07 XBig12= 5.64D-05 1.65D-03.
     63 vectors produced by pass  3 Test12= 7.63D-11 1.45D-07 XBig12= 1.81D-07 8.17D-05.
     31 vectors produced by pass  4 Test12= 7.63D-11 1.45D-07 XBig12= 2.07D-10 2.01D-06.
 Inverted reduced A of dimension   283 with in-core refinement.
 End of Minotr Frequency-dependent properties file   721 does not exist.
 End of Minotr Frequency-dependent properties file   722 does not exist.

 **********************************************************************

            Population analysis using the SCF density.

 **********************************************************************

 Orbital symmetries:
       Occupied  (A) (A) (A) (A) (A) (A) (A) (A) (A) (A) (A) (A)
                 (A) (A) (A) (A) (A) (A) (A) (A) (A) (A) (A) (A)
                 (A) (A) (A) (A) (A) (A) (A) (A) (A) (A) (A) (A)
                 (A) (A) (A)
       Virtual   (A) (A) (A) (A) (A) (A) (A) (A) (A) (A) (A) (A)
                 (A) (A) (A) (A) (A) (A) (A) (A) (A) (A) (A) (A)
                 (A) (A) (A) (A) (A) (A) (A) (A) (A) (A) (A) (A)
                 (A) (A) (A) (A) (A) (A) (A) (A) (A) (A) (A) (A)
                 (A) (A) (A) (A) (A) (A) (A) (A) (A) (A) (A) (A)
                 (A) (A) (A) (A) (A) (A) (A) (A) (A) (A) (A) (A)
                 (A) (A) (A) (A) (A) (A) (A) (A) (A) (A) (A) (A)
                 (A) (A) (A) (A) (A) (A) (A) (A) (A) (A) (A) (A)
                 (A) (A) (A) (A) (A) (A) (A) (A) (A) (A) (A) (A)
                 (A) (A) (A) (A) (A) (A) (A) (A) (A) (A) (A) (A)
                 (A) (A) (A) (A) (A) (A) (A) (A) (A) (A) (A) (A)
                 (A) (A) (A)
 The electronic state is 1-A.
 Alpha  occ. eigenvalues --  -19.09854 -19.07664 -14.36700 -14.34115 -10.28162
 Alpha  occ. eigenvalues --  -10.26431 -10.23343 -10.19983 -10.19555 -10.18915
 Alpha  occ. eigenvalues --   -1.03433  -1.00098  -0.93234  -0.90539  -0.79078
 Alpha  occ. eigenvalues --   -0.73130  -0.69641  -0.65210  -0.60420  -0.57202
 Alpha  occ. eigenvalues --   -0.52500  -0.50629  -0.47114  -0.45168  -0.43699
 Alpha  occ. eigenvalues --   -0.42923  -0.42402  -0.41854  -0.40564  -0.39172
 Alpha  occ. eigenvalues --   -0.38783  -0.37337  -0.36594  -0.35257  -0.34780
 Alpha  occ. eigenvalues --   -0.25616  -0.23012  -0.22691  -0.22162
 Alpha virt. eigenvalues --    0.03694   0.04218   0.06569   0.08432   0.11677
 Alpha virt. eigenvalues --    0.13407   0.13724   0.14562   0.15956   0.16434
 Alpha virt. eigenvalues --    0.17486   0.18177   0.18307   0.19391   0.20469
 Alpha virt. eigenvalues --    0.22200   0.23059   0.27109   0.27891   0.33432
 Alpha virt. eigenvalues --    0.36309   0.40430   0.43698   0.50973   0.52059
 Alpha virt. eigenvalues --    0.52279   0.53550   0.55049   0.55556   0.56702
 Alpha virt. eigenvalues --    0.58108   0.59941   0.61249   0.62397   0.66324
 Alpha virt. eigenvalues --    0.67819   0.70622   0.72538   0.73716   0.74851
 Alpha virt. eigenvalues --    0.76319   0.77983   0.81602   0.82706   0.83706
 Alpha virt. eigenvalues --    0.85562   0.86266   0.87914   0.88158   0.89584
 Alpha virt. eigenvalues --    0.90018   0.90437   0.92199   0.93049   0.94731
 Alpha virt. eigenvalues --    0.95755   0.96948   0.97461   0.98507   1.00614
 Alpha virt. eigenvalues --    1.02544   1.08137   1.12077   1.15776   1.16079
 Alpha virt. eigenvalues --    1.23528   1.29763   1.30779   1.36533   1.40456
 Alpha virt. eigenvalues --    1.41891   1.44159   1.44715   1.47013   1.48697
 Alpha virt. eigenvalues --    1.53876   1.58193   1.59223   1.66888   1.71404
 Alpha virt. eigenvalues --    1.75052   1.76625   1.80843   1.83744   1.85430
 Alpha virt. eigenvalues --    1.86352   1.88823   1.90297   1.93360   1.95009
 Alpha virt. eigenvalues --    1.95248   1.97088   2.01568   2.02646   2.06479
 Alpha virt. eigenvalues --    2.08728   2.12430   2.13468   2.17598   2.18607
 Alpha virt. eigenvalues --    2.20822   2.24202   2.25672   2.28866   2.33274
 Alpha virt. eigenvalues --    2.34571   2.36112   2.38545   2.40814   2.44402
 Alpha virt. eigenvalues --    2.48779   2.50579   2.55561   2.56822   2.65616
 Alpha virt. eigenvalues --    2.68521   2.73129   2.75231   2.81146   2.91466
 Alpha virt. eigenvalues --    2.94923   2.99191   3.03352   3.17893   3.22038
 Alpha virt. eigenvalues --    3.96624   4.03171   4.10303   4.20404   4.24863
 Alpha virt. eigenvalues --    4.30484   4.36693   4.42663   4.50815   4.73530
          Condensed to atoms (all electrons):
              1          2          3          4          5          6
     1  H    0.497339   0.360847  -0.021512  -0.020370  -0.017024   0.004939
     2  C    0.360847   5.345403   0.347922   0.350377   0.343161  -0.074354
     3  H   -0.021512   0.347922   0.562785  -0.027698  -0.026384   0.001252
     4  H   -0.020370   0.350377  -0.027698   0.551502  -0.026840   0.001092
     5  C   -0.017024   0.343161  -0.026384  -0.026840   4.359249   0.584124
     6  O    0.004939  -0.074354   0.001252   0.001092   0.584124   8.090891
     7  N    0.004518  -0.139226   0.005043   0.005455   0.239447  -0.098286
     8  H   -0.000156   0.000637   0.000782   0.000715  -0.018440   0.003853
     9  C   -0.000122   0.005222  -0.000055   0.000001  -0.037613  -0.016070
    10  H    0.000002  -0.000150   0.000000   0.000007   0.002848   0.000461
    11  C    0.000002  -0.000240   0.000013  -0.000003   0.001062   0.000496
    12  H    0.000001  -0.000075   0.000014   0.000000   0.001132  -0.000073
    13  H    0.000000   0.000005   0.000000   0.000000   0.000040   0.000007
    14  H    0.000000   0.000006  -0.000003   0.000000  -0.000100  -0.000002
    15  C    0.000001   0.000466  -0.000032  -0.000013   0.002960   0.036721
    16  O    0.000004  -0.000145   0.000000   0.000008   0.000322  -0.021541
    17  N    0.000005  -0.000184   0.000020   0.000000   0.003236  -0.025259
    18  H    0.000000  -0.000018  -0.000002   0.000000  -0.000143   0.000591
    19  C    0.000000   0.000009   0.000000   0.000000  -0.000114   0.002011
    20  H    0.000000   0.000000   0.000000   0.000000  -0.000016  -0.000089
    21  H    0.000000   0.000000   0.000000   0.000000   0.000001   0.000010
    22  H    0.000000   0.000004   0.000000   0.000000  -0.000039   0.001127
              7          8          9         10         11         12
     1  H    0.004518  -0.000156  -0.000122   0.000002   0.000002   0.000001
     2  C   -0.139226   0.000637   0.005222  -0.000150  -0.000240  -0.000075
     3  H    0.005043   0.000782  -0.000055   0.000000   0.000013   0.000014
     4  H    0.005455   0.000715   0.000001   0.000007  -0.000003   0.000000
     5  C    0.239447  -0.018440  -0.037613   0.002848   0.001062   0.001132
     6  O   -0.098286   0.003853  -0.016070   0.000461   0.000496  -0.000073
     7  N    7.158526   0.299067   0.251836  -0.043843  -0.063798   0.000167
     8  H    0.299067   0.420061  -0.029816  -0.001915  -0.002710   0.000017
     9  C    0.251836  -0.029816   5.100475   0.372363   0.299221  -0.026336
    10  H   -0.043843  -0.001915   0.372363   0.573840  -0.053120   0.006146
    11  C   -0.063798  -0.002710   0.299221  -0.053120   5.230233   0.354248
    12  H    0.000167   0.000017  -0.026336   0.006146   0.354248   0.584555
    13  H    0.005209  -0.000135  -0.031331  -0.000165   0.367168  -0.028480
    14  H   -0.003017   0.003795  -0.026716  -0.004713   0.358025  -0.027922
    15  C   -0.031155   0.003803   0.330181  -0.028984  -0.035894  -0.014308
    16  O    0.000785  -0.000207  -0.072140   0.003392   0.003407  -0.000062
    17  N   -0.001548  -0.000341  -0.117524   0.004911   0.005536  -0.003454
    18  H    0.000211   0.000018  -0.002563   0.000017  -0.000037   0.012837
    19  C   -0.000134   0.000008   0.007048  -0.000135  -0.000037   0.000254
    20  H   -0.000008   0.000001   0.001075  -0.000019  -0.000098  -0.000006
    21  H   -0.000004   0.000000   0.000023   0.000013  -0.000148   0.000079
    22  H    0.000011   0.000000  -0.000381  -0.000003   0.000076  -0.000063
             13         14         15         16         17         18
     1  H    0.000000   0.000000   0.000001   0.000004   0.000005   0.000000
     2  C    0.000005   0.000006   0.000466  -0.000145  -0.000184  -0.000018
     3  H    0.000000  -0.000003  -0.000032   0.000000   0.000020  -0.000002
     4  H    0.000000   0.000000  -0.000013   0.000008   0.000000   0.000000
     5  C    0.000040  -0.000100   0.002960   0.000322   0.003236  -0.000143
     6  O    0.000007  -0.000002   0.036721  -0.021541  -0.025259   0.000591
     7  N    0.005209  -0.003017  -0.031155   0.000785  -0.001548   0.000211
     8  H   -0.000135   0.003795   0.003803  -0.000207  -0.000341   0.000018
     9  C   -0.031331  -0.026716   0.330181  -0.072140  -0.117524  -0.002563
    10  H   -0.000165  -0.004713  -0.028984   0.003392   0.004911   0.000017
    11  C    0.367168   0.358025  -0.035894   0.003407   0.005536  -0.000037
    12  H   -0.028480  -0.027922  -0.014308  -0.000062  -0.003454   0.012837
    13  H    0.541818  -0.025015  -0.000970   0.000068   0.000286  -0.000596
    14  H   -0.025015   0.578981   0.004204  -0.000101   0.000566  -0.000169
    15  C   -0.000970   0.004204   4.360597   0.555008   0.233674  -0.016997
    16  O    0.000068  -0.000101   0.555008   8.146233  -0.093368   0.004172
    17  N    0.000286   0.000566   0.233674  -0.093368   7.120569   0.291439
    18  H   -0.000596  -0.000169  -0.016997   0.004172   0.291439   0.423995
    19  C   -0.000153  -0.000002  -0.025563  -0.011109   0.274123  -0.031155
    20  H   -0.000011   0.000002  -0.001005   0.023622  -0.036418   0.003862
    21  H    0.000011  -0.000003   0.000621   0.000653  -0.046268  -0.000219
    22  H    0.000001   0.000001   0.003139   0.000571  -0.044334  -0.001005
             19         20         21         22
     1  H    0.000000   0.000000   0.000000   0.000000
     2  C    0.000009   0.000000   0.000000   0.000004
     3  H    0.000000   0.000000   0.000000   0.000000
     4  H    0.000000   0.000000   0.000000   0.000000
     5  C   -0.000114  -0.000016   0.000001  -0.000039
     6  O    0.002011  -0.000089   0.000010   0.001127
     7  N   -0.000134  -0.000008  -0.000004   0.000011
     8  H    0.000008   0.000001   0.000000   0.000000
     9  C    0.007048   0.001075   0.000023  -0.000381
    10  H   -0.000135  -0.000019   0.000013  -0.000003
    11  C   -0.000037  -0.000098  -0.000148   0.000076
    12  H    0.000254  -0.000006   0.000079  -0.000063
    13  H   -0.000153  -0.000011   0.000011   0.000001
    14  H   -0.000002   0.000002  -0.000003   0.000001
    15  C   -0.025563  -0.001005   0.000621   0.003139
    16  O   -0.011109   0.023622   0.000653   0.000571
    17  N    0.274123  -0.036418  -0.046268  -0.044334
    18  H   -0.031155   0.003862  -0.000219  -0.001005
    19  C    4.952272   0.375091   0.381809   0.379746
    20  H    0.375091   0.473553  -0.026129  -0.022030
    21  H    0.381809  -0.026129   0.586947  -0.041264
    22  H    0.379746  -0.022030  -0.041264   0.566065
 Mulliken atomic charges:
              1
     1  H    0.191526
     2  C   -0.539668
     3  H    0.157857
     4  H    0.165767
     5  C    0.589130
     6  O   -0.491901
     7  N   -0.589257
     8  H    0.320962
     9  C   -0.006778
    10  H    0.169048
    11  C   -0.463401
    12  H    0.141327
    13  H    0.172239
    14  H    0.142182
    15  C    0.623544
    16  O   -0.539571
    17  N   -0.565667
    18  H    0.315761
    19  C   -0.303968
    20  H    0.208623
    21  H    0.143867
    22  H    0.158377
 Sum of Mulliken atomic charges =   0.00000
 Mulliken charges with hydrogens summed into heavy atoms:
              1
     2  C   -0.024518
     5  C    0.589130
     6  O   -0.491901
     7  N   -0.268295
     9  C    0.162269
    11  C   -0.007652
    15  C    0.623544
    16  O   -0.539571
    17  N   -0.249906
    19  C    0.206899
 Sum of Mulliken charges with hydrogens summed into heavy atoms =   0.00000
 APT atomic charges:
              1
     1  H    0.534155
     2  C   -1.270414
     3  H    0.404057
     4  H    0.479308
     5  C    0.287840
     6  O   -0.474415
     7  N   -0.774629
     8  H    0.720053
     9  C   -0.357411
    10  H    0.489863
    11  C   -1.194055
    12  H    0.235500
    13  H    0.463129
    14  H    0.504071
    15  C   -0.183156
    16  O   -0.116996
    17  N   -0.392585
    18  H    0.486103
    19  C   -1.262148
    20  H    0.432224
    21  H    0.584123
    22  H    0.405383
 Sum of APT charges=   0.00000
 APT Atomic charges with hydrogens summed into heavy atoms:
              1
     1  H    0.000000
     2  C    0.147105
     3  H    0.000000
     4  H    0.000000
     5  C    0.287840
     6  O   -0.474415
     7  N   -0.054575
     8  H    0.000000
     9  C    0.132452
    10  H    0.000000
    11  C    0.008646
    12  H    0.000000
    13  H    0.000000
    14  H    0.000000
    15  C   -0.183156
    16  O   -0.116996
    17  N    0.093518
    18  H    0.000000
    19  C    0.159583
    20  H    0.000000
    21  H    0.000000
    22  H    0.000000
 Sum of APT charges=   0.00000
 Electronic spatial extent (au):  <R**2>=           1523.1110
 Charge=              0.0000 electrons
 Dipole moment (field-independent basis, Debye):
    X=              1.9855    Y=              3.9483    Z=             -3.5165  Tot=              5.6477
 Quadrupole moment (field-independent basis, Debye-Ang):
   XX=            -50.7887   YY=            -58.2996   ZZ=            -62.9513
   XY=              2.4686   XZ=              4.7572   YZ=              2.7347
 Traceless Quadrupole moment (field-independent basis, Debye-Ang):
   XX=              6.5578   YY=             -0.9531   ZZ=             -5.6048
   XY=              2.4686   XZ=              4.7572   YZ=              2.7347
 Octapole moment (field-independent basis, Debye-Ang**2):
  XXX=             10.9091  YYY=              3.1209  ZZZ=             -9.3793  XYY=              0.8468
  XXY=             -2.7086  XXZ=             -5.4537  XZZ=              3.6563  YZZ=              1.4530
  YYZ=              2.3894  XYZ=             -1.5197
 Hexadecapole moment (field-independent basis, Debye-Ang**3):
 XXXX=          -1088.7509 YYYY=           -581.2063 ZZZZ=           -256.8493 XXXY=             14.7089
 XXXZ=              9.2832 YYYX=             15.3562 YYYZ=              7.5343 ZZZX=             12.7084
 ZZZY=              4.6118 XXYY=           -263.2059 XXZZ=           -233.3842 YYZZ=           -139.8607
 XXYZ=              3.3076 YYXZ=             -2.0675 ZZXY=             -2.2594
 N-N= 5.818853923857D+02 E-N=-2.320645506995D+03  KE= 4.916502622933D+02
  Exact polarizability:   0.000   0.000   0.000   0.000   0.000   0.000
 Approx polarizability: 109.575  12.526 119.654   1.569  -2.026 111.357
 Calling FoFJK, ICntrl=    100147 FMM=F ISym2X=0 I1Cent= 0 IOpClX= 0 NMat=1 NMatS=1 NMatT=0.
 ***** Axes restored to original set *****
 -------------------------------------------------------------------
 Center     Atomic                   Forces (Hartrees/Bohr)
 Number     Number              X              Y              Z
 -------------------------------------------------------------------
      1        1           0.003022058    0.002454134    0.000072020
      2        6           0.010748202   -0.001365719    0.000313164
      3        1          -0.003514032   -0.005474435   -0.001944719
      4        1          -0.003512911   -0.005229006    0.001876171
      5        6          -0.042784062    0.026137806    0.002010511
      6        8          -0.014225531   -0.010934263   -0.002815080
      7        7           0.016594543   -0.013169822   -0.000437840
      8        1           0.000095250   -0.000915772    0.000701432
      9        6           0.010735330   -0.003040609   -0.015210443
     10        1           0.000254664    0.004071378    0.005187008
     11        6           0.001591458   -0.011290226    0.004738914
     12        1           0.002091118   -0.008304000   -0.004803379
     13        1           0.003520537   -0.000915832   -0.002185382
     14        1           0.002873312   -0.004054351   -0.004833425
     15        6          -0.010253088    0.012657883    0.040282320
     16        8           0.015377621   -0.001652959    0.000717142
     17        7           0.012081898    0.012970082   -0.020587395
     18        1          -0.002537530    0.006509463    0.002743539
     19        6          -0.001301374   -0.002920205   -0.002578518
     20        1          -0.000163006   -0.003514927    0.000691105
     21        1           0.002568888    0.004547878   -0.002494077
     22        1          -0.003263345    0.003433502   -0.001443069
 -------------------------------------------------------------------
 Cartesian Forces:  Max     0.042784062 RMS     0.010476552

 GradGradGradGradGradGradGradGradGradGradGradGradGradGradGradGradGradGrad
 Berny optimization.
 Internal  Forces:  Max     0.070975280 RMS     0.014235060
 Search for a local minimum.
 Step number   1 out of a maximum of  132
 All quantities printed in internal units (Hartrees-Bohrs-Radians)
 Mixed Optimization -- RFO/linear search
 Second derivative matrix not updated -- analytic derivatives used.
     Eigenvalues ---   -0.00123  -0.00060   0.00045   0.00434   0.00649
     Eigenvalues ---    0.01169   0.01455   0.03092   0.04067   0.04515
     Eigenvalues ---    0.04742   0.04981   0.05791   0.05893   0.05990
     Eigenvalues ---    0.06385   0.06555   0.06674   0.11641   0.11698
     Eigenvalues ---    0.12461   0.12827   0.13231   0.13371   0.13673
     Eigenvalues ---    0.14316   0.15106   0.17495   0.18103   0.18286
     Eigenvalues ---    0.18693   0.20992   0.22282   0.23511   0.24050
     Eigenvalues ---    0.26553   0.29237   0.30803   0.34022   0.34480
     Eigenvalues ---    0.34705   0.34816   0.35057   0.35075   0.35365
     Eigenvalues ---    0.35615   0.35895   0.35906   0.36758   0.39272
     Eigenvalues ---    0.45430   0.46653   0.50142   0.52723   0.61122
     Eigenvalues ---    0.80777   0.82181   1.090941000.000001000.00000
     Eigenvalues --- 1000.000001000.000001000.000001000.000001000.00000
     Eigenvalues --- 1000.000001000.000001000.000001000.000001000.00000
     Eigenvalues --- 1000.000001000.000001000.000001000.000001000.00000
     Eigenvalues --- 1000.000001000.000001000.000001000.000001000.00000
     Eigenvalues --- 1000.000001000.000001000.000001000.000001000.00000
     Eigenvalues --- 1000.000001000.000001000.000001000.000001000.00000
     Eigenvalues --- 1000.000001000.000001000.000001000.000001000.00000
     Eigenvalues --- 1000.000001000.000001000.00000
 RFO step:  Lambda=-2.75986069D-02 EMin=-1.22929747D-03
 Linear search not attempted -- first point.
 Maximum step size (   0.300) exceeded in Quadratic search.
    -- Step size scaled by   0.260
 Iteration  1 RMS(Cart)=  0.05264088 RMS(Int)=  0.00227246
 Iteration  2 RMS(Cart)=  0.00241054 RMS(Int)=  0.00027497
 Iteration  3 RMS(Cart)=  0.00000515 RMS(Int)=  0.00027495
 Iteration  4 RMS(Cart)=  0.00000000 RMS(Int)=  0.00027495
 Iteration  1 RMS(Cart)=  0.00000565 RMS(Int)=  0.00000208
 Iteration  2 RMS(Cart)=  0.00000377 RMS(Int)=  0.00000230
 Iteration  3 RMS(Cart)=  0.00000253 RMS(Int)=  0.00000264
 Iteration  4 RMS(Cart)=  0.00000171 RMS(Int)=  0.00000292
 Iteration  5 RMS(Cart)=  0.00000115 RMS(Int)=  0.00000313
 Iteration  6 RMS(Cart)=  0.00000078 RMS(Int)=  0.00000327
 Variable       Old X    -DE/DX   Delta X   Delta X   Delta X     New X
                                 (Linear)    (Quad)   (Total)
    R1        2.05976  -0.00092   0.00000   0.00001   0.00001   2.05977
    R2        2.05977   0.00481   0.00000   0.00296   0.00296   2.06274
    R3        2.05977   0.00462   0.00000   0.00293   0.00293   2.06270
    R4        2.89114  -0.00069   0.00000  -0.00208  -0.00208   2.88907
    R5        2.32260  -0.01063   0.00000  -0.00236  -0.00236   2.32024
    R6        2.52279   0.04570   0.00000   0.01504   0.01504   2.53783
    R7        1.90871   0.00091   0.00000   0.00062   0.00062   1.90933
    R8        2.73817   0.03385   0.00000   0.00740   0.00740   2.74557
    R9        2.05975   0.00325   0.00000   0.00238   0.00238   2.06213
   R10        2.88188   0.01741   0.00000   0.00644   0.00644   2.88832
   R11        2.87618   0.03074   0.00000   0.01154   0.01154   2.88771
   R12        2.05972   0.00064   0.00000   0.00242   0.00242   2.06214
   R13        2.05984   0.00266   0.00000   0.00214   0.00214   2.06199
   R14        2.05966   0.00445   0.00000   0.00312   0.00312   2.06278
   R15        2.32257  -0.00094   0.00000  -0.00305  -0.00305   2.31952
   R16        2.52279   0.03022   0.00000   0.01054   0.01054   2.53333
   R17        1.90861  -0.00599   0.00000  -0.00072  -0.00072   1.90790
   R18        2.73833   0.00227   0.00000   0.00014   0.00014   2.73846
   R19        2.05963  -0.00083   0.00000   0.00013   0.00013   2.05975
   R20        2.05980   0.00492   0.00000   0.00218   0.00218   2.06198
   R21        2.05985   0.00419   0.00000   0.00367   0.00367   2.06351
    A1        1.91114  -0.00014   0.00000   0.00039   0.00041   1.91155
    A2        1.91114  -0.00021   0.00000  -0.00255  -0.00256   1.90858
    A3        1.93909  -0.00796   0.00000  -0.01013  -0.01011   1.92897
    A4        1.91009  -0.00519   0.00000  -0.00620  -0.00625   1.90384
    A5        1.89606   0.00687   0.00000   0.01415   0.01414   1.91019
    A6        1.89606   0.00668   0.00000   0.00445   0.00442   1.90048
    A7        2.10313  -0.00513   0.00000   0.00832   0.00832   2.11145
    A8        2.03517  -0.02330   0.00000  -0.01004  -0.01004   2.02513
    A9        2.14488   0.02843   0.00000   0.00172   0.00171   2.14660
   A10        2.09427  -0.03537   0.00000  -0.00847  -0.00850   2.08577
   A11        2.12770   0.07098   0.00000   0.01772   0.01769   2.14539
   A12        2.06122  -0.03560   0.00000  -0.00925  -0.00928   2.05194
   A13        1.91114  -0.00046   0.00000  -0.00096  -0.00097   1.91017
   A14        1.93905  -0.02539   0.00000  -0.00631  -0.00642   1.93263
   A15        1.93900   0.02663   0.00000   0.00449   0.00447   1.94347
   A16        1.89609   0.00180   0.00000  -0.00060  -0.00054   1.89555
   A17        1.89608  -0.02047   0.00000  -0.01594  -0.01593   1.88015
   A18        1.88137   0.01759   0.00000   0.01914   0.01915   1.90053
   A19        1.91115   0.00918   0.00000   0.01150   0.01147   1.92261
   A20        1.91106   0.00263   0.00000   0.00343   0.00342   1.91448
   A21        1.91110   0.00444   0.00000   0.00457   0.00455   1.91565
   A22        1.91011  -0.00335   0.00000  -0.00655  -0.00658   1.90352
   A23        1.91023  -0.00849   0.00000  -0.00778  -0.00782   1.90242
   A24        1.91015  -0.00443   0.00000  -0.00518  -0.00519   1.90497
   A25        2.10310  -0.01280   0.00000  -0.00228  -0.00233   2.10077
   A26        2.03505   0.01862   0.00000  -0.00214  -0.00218   2.03287
   A27        2.14504  -0.00582   0.00000   0.00442   0.00437   2.14941
   A28        2.09441   0.00443   0.00000  -0.00356  -0.00511   2.08930
   A29        2.12752  -0.00103   0.00000   0.00132  -0.00024   2.12728
   A30        2.06126  -0.00340   0.00000   0.00224   0.00067   2.06192
   A31        1.91116  -0.00694   0.00000  -0.00897  -0.00896   1.90220
   A32        1.91113   0.00516   0.00000   0.00183   0.00181   1.91294
   A33        1.91113   0.00402   0.00000   0.00940   0.00940   1.92053
   A34        1.91015   0.00039   0.00000   0.00307   0.00307   1.91322
   A35        1.91019  -0.00004   0.00000  -0.00508  -0.00506   1.90514
   A36        1.91004  -0.00259   0.00000  -0.00026  -0.00029   1.90975
    D1        0.00000  -0.00050   0.00000   0.05534   0.05536   0.05536
    D2        3.14159   0.00040   0.00000   0.05247   0.05248  -3.08911
    D3        2.10335  -0.00116   0.00000   0.05870   0.05867   2.16202
    D4       -1.03824  -0.00025   0.00000   0.05583   0.05580  -0.98244
    D5       -2.10335   0.00037   0.00000   0.06189   0.06192  -2.04144
    D6        1.03824   0.00127   0.00000   0.05902   0.05904   1.09728
    D7        0.00000   0.00111   0.00000   0.00620   0.00620   0.00620
    D8        3.14159   0.00126   0.00000   0.02080   0.02079  -3.12080
    D9        3.14159   0.00204   0.00000   0.00326   0.00326  -3.13833
   D10        0.00000   0.00219   0.00000   0.01785   0.01785   0.01785
   D11        2.09439   0.00303   0.00000  -0.01761  -0.01762   2.07678
   D12       -2.09435  -0.01107   0.00000  -0.02297  -0.02294  -2.11729
   D13        0.00000   0.01198   0.00000   0.00000   0.00000   0.00000
   D14       -1.04720   0.00318   0.00000  -0.00328  -0.00329  -1.05049
   D15        1.04724  -0.01092   0.00000  -0.00864  -0.00861   1.03863
   D16        3.14159   0.01213   0.00000   0.01433   0.01432  -3.12727
   D17        1.04724   0.01182   0.00000   0.01189   0.01188   1.05912
   D18        3.14157   0.01496   0.00000   0.01301   0.01301  -3.12861
   D19       -1.04726   0.01387   0.00000   0.01157   0.01156  -1.03571
   D20       -3.13259  -0.00329   0.00000   0.00641   0.00640  -3.12619
   D21       -1.03826  -0.00016   0.00000   0.00753   0.00753  -1.03074
   D22        1.05609  -0.00125   0.00000   0.00609   0.00607   1.06216
   D23       -1.08102  -0.01694   0.00000  -0.00231  -0.00229  -1.08331
   D24        1.01331  -0.01380   0.00000  -0.00118  -0.00116   1.01214
   D25        3.10766  -0.01490   0.00000  -0.00262  -0.00262   3.10504
   D26        1.57082   0.00869   0.00000   0.01748   0.01743   1.58825
   D27       -1.57081  -0.00003   0.00000   0.00000   0.00000  -1.57081
   D28       -0.53250   0.00602   0.00000   0.02619   0.02613  -0.50637
   D29        2.60906  -0.00270   0.00000   0.00871   0.00869   2.61775
   D30       -2.58408   0.00526   0.00000   0.02498   0.02505  -2.55903
   D31        0.55748  -0.00346   0.00000   0.00750   0.00762   0.56509
   D32        0.00008   0.00485   0.00000   0.08937   0.08925   0.08934
   D33        3.14158   0.00294   0.00000  -0.01655  -0.01640   3.12518
   D34       -3.14155  -0.00410   0.00000   0.07143   0.07128  -3.07026
   D35       -0.00005  -0.00601   0.00000  -0.03448  -0.03437  -0.03442
   D36        0.00005   0.00065   0.00000   0.12361   0.12364   0.12369
   D37        2.09448   0.00003   0.00000   0.12299   0.12302   2.21750
   D38       -2.09443   0.00249   0.00000   0.12956   0.12962  -1.96481
   D39        3.14155  -0.00123   0.00000   0.01963   0.01958  -3.12205
   D40       -1.04720  -0.00185   0.00000   0.01901   0.01896  -1.02824
   D41        1.04707   0.00061   0.00000   0.02558   0.02556   1.07263
         Item               Value     Threshold  Converged?
 Maximum Force            0.070975     0.000450     NO 
 RMS     Force            0.014248     0.000300     NO 
 Maximum Displacement     0.243695     0.001800     NO 
 RMS     Displacement     0.052922     0.001200     NO 
 Predicted change in Energy=-6.794995D-03
 GradGradGradGradGradGradGradGradGradGradGradGradGradGradGradGradGradGrad

                          Input orientation:                          
 ---------------------------------------------------------------------
 Center     Atomic      Atomic             Coordinates (Angstroms)
 Number     Number       Type             X           Y           Z
 ---------------------------------------------------------------------
      1          1           0        0.235904    4.487398   -0.061060
      2          6           0        1.111931    3.841294   -0.004557
      3          1           0        1.114232    3.154786   -0.853199
      4          1           0        1.076619    3.264133    0.921232
      5          6           0        2.393967    4.674037   -0.020064
      6          8           0        2.350448    5.901040   -0.030502
      7          7           0        3.545587    3.983161   -0.017956
      8          1           0        3.519939    2.973128   -0.012029
      9          6           0        4.850090    4.622719   -0.006064
     10          1           0        5.390550    4.328827    0.895221
     11          6           0        5.670054    4.202030   -1.225405
     12          1           0        5.158873    4.498469   -2.142801
     13          1           0        6.649886    4.681069   -1.192654
     14          1           0        5.801180    3.118360   -1.225903
     15          6           0        4.723110    6.145518    0.003370
     16          8           0        4.683787    6.758300    1.066176
     17          7           0        4.680479    6.749095   -1.192890
     18          1           0        4.653851    6.191372   -2.034056
     19          6           0        4.541286    8.185845   -1.320794
     20          1           0        4.610958    8.638355   -0.331640
     21          1           0        5.336280    8.575320   -1.958688
     22          1           0        3.571489    8.430246   -1.759138
 ---------------------------------------------------------------------
                    Distance matrix (angstroms):
                    1          2          3          4          5
     1  H    0.000000
     2  C    1.089985   0.000000
     3  H    1.781797   1.091554   0.000000
     4  H    1.779909   1.091535   1.778195   0.000000
     5  C    2.166507   1.528829   2.154056   2.146921   0.000000
     6  O    2.543740   2.403570   3.122013   3.079239   1.227819
     7  N    3.348151   2.437824   2.700985   2.737677   1.342960
     8  H    3.616671   2.559741   2.554994   2.631629   2.039846
     9  C    4.616498   3.818961   4.102328   4.116396   2.456699
    10  H    5.244997   4.399303   4.766785   4.443450   3.152210
    11  C    5.564811   4.732555   4.689431   5.156291   3.522553
    12  H    5.345035   4.624036   4.452828   5.251350   3.490207
    13  H    6.515918   5.725883   5.752237   6.126787   4.414506
    14  H    5.848369   4.899324   4.701884   5.191619   3.934879
    15  C    4.784196   4.283705   4.764681   4.737272   2.755125
    16  O    5.119699   4.734294   5.423193   5.024128   3.281363
    17  N    5.113762   4.754153   5.074698   5.440797   3.302957
    18  H    5.129766   4.710300   4.810839   5.486259   3.386081
    19  C    5.813928   5.689295   6.105317   6.422916   4.316906
    20  H    6.036949   5.946593   6.524464   6.553129   4.552795
    21  H    6.806316   6.638882   6.959165   7.392385   5.256946
    22  H    5.436511   5.494221   5.889763   6.332257   4.303492
                    6          7          8          9         10
     6  O    0.000000
     7  N    2.259817   0.000000
     8  H    3.152891   1.010376   0.000000
     9  C    2.807653   1.452896   2.119077   0.000000
    10  H    3.545566   2.087407   2.481976   1.091230   0.000000
    11  C    3.915892   2.453405   2.757802   1.528434   2.142721
    12  H    3.783684   2.717205   3.090786   2.162506   3.051562
    13  H    4.617801   3.391705   3.755996   2.156540   2.463579
    14  H    4.591279   2.700873   2.588173   2.157701   2.476492
    15  C    2.385465   2.462276   3.392921   1.528113   2.131018
    16  O    2.716996   3.189395   4.104216   2.395425   2.535957
    17  N    2.738501   3.212295   4.123010   2.441065   3.274463
    18  H    3.066625   3.188903   3.966289   2.571368   3.548586
    19  C    3.418327   4.511248   5.470689   3.810478   4.528638
    20  H    3.562791   4.785838   5.778172   4.035903   4.548075
    21  H    4.448018   5.297258   6.202671   4.435332   5.116683
    22  H    3.297879   4.775872   5.730200   4.382391   5.213084
                   11         12         13         14         15
    11  C    0.000000
    12  H    1.091237   0.000000
    13  H    1.091157   1.777425   0.000000
    14  H    1.091575   1.777065   1.778615   0.000000
    15  C    2.486711   2.740202   2.699545   3.440499   0.000000
    16  O    3.571915   3.953489   3.644550   4.444250   1.227438
    17  N    2.732738   2.489279   2.855747   3.799908   1.340582
    18  H    2.375724   1.769970   2.640668   3.378295   2.039118
    19  C    4.141739   3.828035   4.092196   5.222619   2.439141
    20  H    4.647739   4.551832   4.534168   5.717227   2.517747
    21  H    4.446883   4.084860   4.180616   5.525533   3.182701
    22  H    4.750438   4.257448   4.884031   5.785499   3.106872
                   16         17         18         19         20
    16  O    0.000000
    17  N    2.259087   0.000000
    18  H    3.151784   1.009616   0.000000
    19  C    2.784927   1.449133   2.121164   0.000000
    20  H    2.343886   2.077471   2.981239   1.089975   0.000000
    21  H    3.588469   2.086053   2.480846   1.091152   1.782512
    22  H    3.466267   2.092072   2.501929   1.091963   1.778076
                   21         22
    21  H    0.000000
    22  H    1.781952   0.000000
 Stoichiometry    C6H12N2O2
 Framework group  C1[X(C6H12N2O2)]
 Deg. of freedom    60
 Full point group                 C1      NOp   1
 Largest Abelian subgroup         C1      NOp   1
 Largest concise Abelian subgroup C1      NOp   1
                         Standard orientation:                         
 ---------------------------------------------------------------------
 Center     Atomic      Atomic             Coordinates (Angstroms)
 Number     Number       Type             X           Y           Z
 ---------------------------------------------------------------------
      1          1           0        3.213097   -1.889492   -0.543764
      2          6           0        3.093905   -0.824418   -0.345072
      3          1           0        3.427011   -0.251951   -1.212720
      4          1           0        3.700285   -0.547617    0.519297
      5          6           0        1.630644   -0.494893   -0.049104
      6          8           0        0.781272   -1.380073    0.001519
      7          7           0        1.347438    0.802587    0.150601
      8          1           0        2.087617    1.487974    0.093680
      9          6           0        0.012097    1.279746    0.466974
     10          1           0        0.022924    1.769697    1.441969
     11          6           0       -0.464755    2.286540   -0.579490
     12          1           0       -0.500125    1.817311   -1.564056
     13          1           0       -1.462414    2.643290   -0.318665
     14          1           0        0.221049    3.135053   -0.614622
     15          6           0       -0.988669    0.127036    0.536659
     16          8           0       -1.204751   -0.443529    1.601727
     17          7           0       -1.611012   -0.194028   -0.606479
     18          1           0       -1.349038    0.267338   -1.465453
     19          6           0       -2.567279   -1.280477   -0.678373
     20          1           0       -2.755929   -1.654065    0.328051
     21          1           0       -3.499396   -0.919398   -1.115857
     22          1           0       -2.167893   -2.090441   -1.292241
 ---------------------------------------------------------------------
 Rotational constants (GHZ):      1.8737844      1.0527044      0.8442700
 Standard basis: 6-31G(d) (6D, 7F)
 There are   174 symmetry adapted basis functions of A   symmetry.
 Integral buffers will be    131072 words long.
 Raffenetti 2 integral format.
 Two-electron integral symmetry is turned on.
   174 basis functions,   328 primitive gaussians,   174 cartesian basis functions
    39 alpha electrons       39 beta electrons
       nuclear repulsion energy       578.8415999701 Hartrees.
 NAtoms=   22 NActive=   22 NUniq=   22 SFac= 7.50D-01 NAtFMM=   80 NAOKFM=F Big=F
 One-electron integrals computed using PRISM.
 NBasis=   174 RedAO= T  NBF=   174
 NBsUse=   174 1.00D-06 NBFU=   174
 Initial guess read from the read-write file.
 B after Tr=     0.000000    0.000000    0.000000
         Rot=    1.000000    0.000000    0.000000    0.000000 Ang=   0.00 deg.
 Initial guess orbital symmetries:
       Occupied  (A) (A) (A) (A) (A) (A) (A) (A) (A) (A) (A) (A)
                 (A) (A) (A) (A) (A) (A) (A) (A) (A) (A) (A) (A)
                 (A) (A) (A) (A) (A) (A) (A) (A) (A) (A) (A) (A)
                 (A) (A) (A)
       Virtual   (A) (A) (A) (A) (A) (A) (A) (A) (A) (A) (A) (A)
                 (A) (A) (A) (A) (A) (A) (A) (A) (A) (A) (A) (A)
                 (A) (A) (A) (A) (A) (A) (A) (A) (A) (A) (A) (A)
                 (A) (A) (A) (A) (A) (A) (A) (A) (A) (A) (A) (A)
                 (A) (A) (A) (A) (A) (A) (A) (A) (A) (A) (A) (A)
                 (A) (A) (A) (A) (A) (A) (A) (A) (A) (A) (A) (A)
                 (A) (A) (A) (A) (A) (A) (A) (A) (A) (A) (A) (A)
                 (A) (A) (A) (A) (A) (A) (A) (A) (A) (A) (A) (A)
                 (A) (A) (A) (A) (A) (A) (A) (A) (A) (A) (A) (A)
                 (A) (A) (A) (A) (A) (A) (A) (A) (A) (A) (A) (A)
                 (A) (A) (A) (A) (A) (A) (A) (A) (A) (A) (A) (A)
                 (A) (A) (A)
 Harris functional with IExCor=  402 diagonalized for initial guess.
 ExpMin= 1.61D-01 ExpMax= 5.48D+03 ExpMxC= 8.25D+02 IAcc=1 IRadAn=         1 AccDes= 0.00D+00
 HarFok:  IExCor=  402 AccDes= 0.00D+00 IRadAn=         1 IDoV= 1
 ScaDFX=  1.000000  1.000000  1.000000  1.000000
 FoFCou: FMM=F IPFlag=           0 FMFlag=      100000 FMFlg1=           0
         NFxFlg=           0 DoJE=T BraDBF=F KetDBF=T FulRan=T
         Omega=  0.000000  0.000000  1.000000  0.000000  0.000000 ICntrl=     500 IOpCl=  0
         NMat0=    1 NMatS0=    1 NMatT0=    0 NMatD0=    1 NMtDS0=    0 NMtDT0=    0
         I1Cent=           4 NGrid=           0.
 Petite list used in FoFCou.
 Requested convergence on RMS density matrix=1.00D-08 within 128 cycles.
 Requested convergence on MAX density matrix=1.00D-06.
 Requested convergence on             energy=1.00D-06.
 No special actions if energy rises.
 Integral accuracy reduced to 1.0D-05 until final iterations.
 Initial convergence to 1.0D-05 achieved.  Increase integral accuracy.
 SCF Done:  E(RB3LYP) =  -495.822084693     A.U. after   12 cycles
             Convg  =    0.4338D-08             -V/T =  2.0087
 Calling FoFJK, ICntrl=      2127 FMM=F ISym2X=0 I1Cent= 0 IOpClX= 0 NMat=1 NMatS=1 NMatT=0.
 ***** Axes restored to original set *****
 -------------------------------------------------------------------
 Center     Atomic                   Forces (Hartrees/Bohr)
 Number     Number              X              Y              Z
 -------------------------------------------------------------------
      1        1           0.002262748    0.001935800   -0.000036693
      2        6           0.008572869   -0.000995262    0.000216266
      3        1          -0.002659980   -0.004304756   -0.001194743
      4        1          -0.002781158   -0.003916284    0.001584421
      5        6          -0.032921277    0.019531563    0.001086114
      6        8          -0.010776649   -0.008565035   -0.002188465
      7        7           0.012569734   -0.009319089   -0.000048000
      8        1           0.000051404   -0.000689117    0.000787744
      9        6           0.008503715   -0.002352346   -0.014391780
     10        1          -0.000249039    0.003406750    0.004258277
     11        6           0.001448801   -0.008428889    0.004342379
     12        1           0.001502138   -0.006530823   -0.003565953
     13        1           0.002755071   -0.000874807   -0.001653712
     14        1           0.002261689   -0.003135368   -0.003688258
     15        6          -0.009647936    0.009478579    0.032057436
     16        8           0.012448054   -0.001357039    0.000416512
     17        7           0.011262299    0.010035958   -0.015767840
     18        1          -0.001947835    0.004881365    0.002201440
     19        6          -0.001749773   -0.002345216   -0.002172467
     20        1           0.000019511   -0.002607333    0.000518290
     21        1           0.001693981    0.003466778   -0.002117660
     22        1          -0.002618366    0.002684571   -0.000643308
 -------------------------------------------------------------------
 Cartesian Forces:  Max     0.032921277 RMS     0.008236264

 GradGradGradGradGradGradGradGradGradGradGradGradGradGradGradGradGradGrad
 Berny optimization.
 Using GEDIIS/GDIIS optimizer.
 Internal  Forces:  Max     0.054470326 RMS     0.010925109
 Search for a local minimum.
 Step number   2 out of a maximum of  132
 All quantities printed in internal units (Hartrees-Bohrs-Radians)
 Mixed Optimization -- RFO/linear search
 Update second derivatives using D2CorX and points    1    2
 DE= -6.82D-03 DEPred=-6.79D-03 R= 1.00D+00
 SS=  1.41D+00  RLast= 3.00D-01 DXNew= 5.0454D-01 8.9989D-01
 Trust test= 1.00D+00 RLast= 3.00D-01 DXMaxT set to 5.05D-01
 Use linear search instead of GDIIS.
 Linear search step of   0.594 exceeds DXMaxT=   0.505 but not scaled.
 Quartic linear search produced a step of  2.00000.
 Iteration  1 RMS(Cart)=  0.09865028 RMS(Int)=  0.01136889
 Iteration  2 RMS(Cart)=  0.01647738 RMS(Int)=  0.00168338
 Iteration  3 RMS(Cart)=  0.00033590 RMS(Int)=  0.00165971
 Iteration  4 RMS(Cart)=  0.00000029 RMS(Int)=  0.00165971
 Iteration  1 RMS(Cart)=  0.00003654 RMS(Int)=  0.00001338
 Iteration  2 RMS(Cart)=  0.00002458 RMS(Int)=  0.00001478
 Iteration  3 RMS(Cart)=  0.00001660 RMS(Int)=  0.00001699
 Iteration  4 RMS(Cart)=  0.00001124 RMS(Int)=  0.00001884
 Iteration  5 RMS(Cart)=  0.00000762 RMS(Int)=  0.00002021
 Iteration  6 RMS(Cart)=  0.00000517 RMS(Int)=  0.00002118
 Iteration  7 RMS(Cart)=  0.00000351 RMS(Int)=  0.00002185
 Iteration  8 RMS(Cart)=  0.00000238 RMS(Int)=  0.00002232
 Iteration  9 RMS(Cart)=  0.00000162 RMS(Int)=  0.00002263
 Iteration 10 RMS(Cart)=  0.00000110 RMS(Int)=  0.00002285
 Iteration 11 RMS(Cart)=  0.00000075 RMS(Int)=  0.00002300
 Variable       Old X    -DE/DX   Delta X   Delta X   Delta X     New X
                                 (Linear)    (Quad)   (Total)
    R1        2.05977  -0.00067   0.00002   0.00000   0.00002   2.05980
    R2        2.06274   0.00363   0.00593   0.00000   0.00593   2.06867
    R3        2.06270   0.00351   0.00585   0.00000   0.00585   2.06856
    R4        2.88907  -0.00055  -0.00415   0.00000  -0.00415   2.88492
    R5        2.32024  -0.00816  -0.00472   0.00000  -0.00472   2.31552
    R6        2.53783   0.03474   0.03008   0.00000   0.03008   2.56790
    R7        1.90933   0.00069   0.00125   0.00000   0.00125   1.91058
    R8        2.74557   0.02584   0.01481   0.00000   0.01481   2.76038
    R9        2.06213   0.00248   0.00476   0.00000   0.00476   2.06689
   R10        2.88832   0.01314   0.01288   0.00000   0.01288   2.90120
   R11        2.88771   0.02346   0.02307   0.00000   0.02307   2.91079
   R12        2.06214   0.00052   0.00484   0.00000   0.00484   2.06698
   R13        2.06199   0.00204   0.00429   0.00000   0.00429   2.06627
   R14        2.06278   0.00339   0.00624   0.00000   0.00624   2.06901
   R15        2.31952  -0.00072  -0.00609   0.00000  -0.00609   2.31343
   R16        2.53333   0.02309   0.02109   0.00000   0.02109   2.55442
   R17        1.90790  -0.00448  -0.00143   0.00000  -0.00143   1.90646
   R18        2.73846   0.00183   0.00027   0.00000   0.00027   2.73873
   R19        2.05975  -0.00061   0.00025   0.00000   0.00025   2.06001
   R20        2.06198   0.00371   0.00436   0.00000   0.00436   2.06634
   R21        2.06351   0.00318   0.00733   0.00000   0.00733   2.07084
    A1        1.91155  -0.00011   0.00083   0.00000   0.00100   1.91255
    A2        1.90858  -0.00019  -0.00511   0.00000  -0.00513   1.90345
    A3        1.92897  -0.00613  -0.02023   0.00000  -0.02014   1.90883
    A4        1.90384  -0.00406  -0.01250   0.00000  -0.01279   1.89105
    A5        1.91019   0.00531   0.02827   0.00000   0.02822   1.93841
    A6        1.90048   0.00520   0.00885   0.00000   0.00869   1.90917
    A7        2.11145  -0.00391   0.01664   0.00000   0.01663   2.12808
    A8        2.02513  -0.01784  -0.02008   0.00000  -0.02008   2.00505
    A9        2.14660   0.02175   0.00343   0.00000   0.00342   2.15002
   A10        2.08577  -0.02714  -0.01700   0.00000  -0.01717   2.06860
   A11        2.14539   0.05447   0.03539   0.00000   0.03522   2.18061
   A12        2.05194  -0.02733  -0.01856   0.00000  -0.01873   2.03320
   A13        1.91017  -0.00048  -0.00193   0.00000  -0.00197   1.90820
   A14        1.93263  -0.01960  -0.01283   0.00000  -0.01348   1.91915
   A15        1.94347   0.02045   0.00894   0.00000   0.00876   1.95223
   A16        1.89555   0.00145  -0.00109   0.00000  -0.00076   1.89479
   A17        1.88015  -0.01598  -0.03186   0.00000  -0.03181   1.84834
   A18        1.90053   0.01393   0.03831   0.00000   0.03838   1.93891
   A19        1.92261   0.00694   0.02293   0.00000   0.02275   1.94537
   A20        1.91448   0.00209   0.00683   0.00000   0.00673   1.92121
   A21        1.91565   0.00339   0.00910   0.00000   0.00899   1.92464
   A22        1.90352  -0.00257  -0.01317   0.00000  -0.01333   1.89019
   A23        1.90242  -0.00656  -0.01563   0.00000  -0.01581   1.88660
   A24        1.90497  -0.00347  -0.01037   0.00000  -0.01040   1.89457
   A25        2.10077  -0.00973  -0.00466   0.00000  -0.00494   2.09583
   A26        2.03287   0.01409  -0.00436   0.00000  -0.00464   2.02822
   A27        2.14941  -0.00447   0.00874   0.00000   0.00846   2.15787
   A28        2.08930   0.00322  -0.01022   0.00000  -0.01950   2.06981
   A29        2.12728  -0.00085  -0.00047   0.00000  -0.00967   2.11761
   A30        2.06192  -0.00255   0.00134   0.00000  -0.00827   2.05366
   A31        1.90220  -0.00523  -0.01792   0.00000  -0.01786   1.88434
   A32        1.91294   0.00395   0.00363   0.00000   0.00353   1.91647
   A33        1.92053   0.00308   0.01880   0.00000   0.01876   1.93929
   A34        1.91322   0.00024   0.00614   0.00000   0.00614   1.91937
   A35        1.90514  -0.00008  -0.01012   0.00000  -0.01000   1.89513
   A36        1.90975  -0.00199  -0.00058   0.00000  -0.00075   1.90901
    D1        0.05536  -0.00038   0.11072   0.00000   0.11080   0.16616
    D2       -3.08911   0.00041   0.10497   0.00000   0.10503  -2.98408
    D3        2.16202  -0.00096   0.11734   0.00000   0.11717   2.27920
    D4       -0.98244  -0.00017   0.11159   0.00000   0.11140  -0.87105
    D5       -2.04144   0.00034   0.12383   0.00000   0.12396  -1.91748
    D6        1.09728   0.00112   0.11808   0.00000   0.11818   1.21546
    D7        0.00620   0.00092   0.01240   0.00000   0.01241   0.01861
    D8       -3.12080   0.00108   0.04158   0.00000   0.04153  -3.07927
    D9       -3.13833   0.00167   0.00653   0.00000   0.00657  -3.13175
   D10        0.01785   0.00183   0.03570   0.00000   0.03570   0.05355
   D11        2.07678   0.00212  -0.03523   0.00000  -0.03524   2.04154
   D12       -2.11729  -0.00858  -0.04587   0.00000  -0.04567  -2.16295
   D13        0.00000   0.00956   0.00000   0.00000   0.00000   0.00000
   D14       -1.05049   0.00230  -0.00659   0.00000  -0.00664  -1.05714
   D15        1.03863  -0.00841  -0.01723   0.00000  -0.01707   1.02155
   D16       -3.12727   0.00974   0.02864   0.00000   0.02859  -3.09868
   D17        1.05912   0.00906   0.02376   0.00000   0.02374   1.08286
   D18       -3.12861   0.01156   0.02602   0.00000   0.02603  -3.10257
   D19       -1.03571   0.01068   0.02311   0.00000   0.02304  -1.01266
   D20       -3.12619  -0.00256   0.01280   0.00000   0.01275  -3.11344
   D21       -1.03074  -0.00006   0.01506   0.00000   0.01504  -1.01569
   D22        1.06216  -0.00094   0.01215   0.00000   0.01205   1.07422
   D23       -1.08331  -0.01312  -0.00459   0.00000  -0.00450  -1.08781
   D24        1.01214  -0.01062  -0.00233   0.00000  -0.00221   1.00993
   D25        3.10504  -0.01150  -0.00524   0.00000  -0.00520   3.09985
   D26        1.58825   0.00643   0.03487   0.00000   0.03460   1.62285
   D27       -1.57081  -0.00053   0.00000   0.00000   0.00000  -1.57081
   D28       -0.50637   0.00502   0.05226   0.00000   0.05192  -0.45445
   D29        2.61775  -0.00194   0.01739   0.00000   0.01732   2.63507
   D30       -2.55903   0.00462   0.05010   0.00000   0.05051  -2.50851
   D31        0.56509  -0.00233   0.01523   0.00000   0.01592   0.58101
   D32        0.08934   0.00417   0.17850   0.00000   0.17749   0.26683
   D33        3.12518   0.00207  -0.03281   0.00000  -0.03162   3.09356
   D34       -3.07026  -0.00305   0.14257   0.00000   0.14138  -2.92889
   D35       -0.03442  -0.00515  -0.06874   0.00000  -0.06773  -0.10215
   D36        0.12369   0.00074   0.24728   0.00000   0.24712   0.37082
   D37        2.21750   0.00023   0.24604   0.00000   0.24587   2.46337
   D38       -1.96481   0.00220   0.25924   0.00000   0.25924  -1.70556
   D39       -3.12205  -0.00099   0.03916   0.00000   0.03922  -3.08283
   D40       -1.02824  -0.00150   0.03792   0.00000   0.03797  -0.99028
   D41        1.07263   0.00047   0.05112   0.00000   0.05134   1.12397
         Item               Value     Threshold  Converged?
 Maximum Force            0.054452     0.000450     NO 
 RMS     Force            0.010928     0.000300     NO 
 Maximum Displacement     0.481240     0.001800     NO 
 RMS     Displacement     0.106757     0.001200     NO 
 Predicted change in Energy=-9.025415D-03
 GradGradGradGradGradGradGradGradGradGradGradGradGradGradGradGradGradGrad

                          Input orientation:                          
 ---------------------------------------------------------------------
 Center     Atomic      Atomic             Coordinates (Angstroms)
 Number     Number       Type             X           Y           Z
 ---------------------------------------------------------------------
      1          1           0        0.215616    4.399197   -0.185389
      2          6           0        1.103407    3.790639   -0.013404
      3          1           0        1.156829    2.998476   -0.767043
      4          1           0        1.030479    3.322932    0.973587
      5          6           0        2.343724    4.679341   -0.062670
      6          8           0        2.264233    5.901580   -0.097604
      7          7           0        3.526762    4.010843   -0.053841
      8          1           0        3.510026    3.000161   -0.032954
      9          6           0        4.843856    4.641597   -0.019997
     10          1           0        5.356643    4.359747    0.904071
     11          6           0        5.685141    4.162458   -1.211487
     12          1           0        5.227948    4.445808   -2.163894
     13          1           0        6.685003    4.602689   -1.166193
     14          1           0        5.783403    3.072168   -1.192497
     15          6           0        4.743149    6.178419    0.005098
     16          8           0        4.739688    6.775769    1.073678
     17          7           0        4.725153    6.795223   -1.197580
     18          1           0        4.542361    6.242017   -2.021197
     19          6           0        4.573818    8.232556   -1.305148
     20          1           0        4.865619    8.673635   -0.351924
     21          1           0        5.214754    8.613769   -2.104854
     22          1           0        3.532889    8.505476   -1.512159
 ---------------------------------------------------------------------
                    Distance matrix (angstroms):
                    1          2          3          4          5
     1  H    0.000000
     2  C    1.089997   0.000000
     3  H    1.784999   1.094691   0.000000
     4  H    1.779206   1.094632   1.775114   0.000000
     5  C    2.149973   1.526631   2.174895   2.153667   0.000000
     6  O    2.541986   2.410535   3.178444   3.052707   1.225320
     7  N    3.336437   2.433675   2.673972   2.785724   1.358876
     8  H    3.582412   2.533190   2.465041   2.695451   2.044697
     9  C    4.637534   3.836031   4.105131   4.155470   2.500781
    10  H    5.255344   4.388128   4.720606   4.449215   3.180316
    11  C    5.569976   4.750362   4.696594   5.210109   3.570997
    12  H    5.388890   4.697414   4.540922   5.359420   3.576092
    13  H    6.546476   5.756958   5.770054   6.179812   4.479994
    14  H    5.811671   4.879429   4.646679   5.229253   3.961175
    15  C    4.868313   4.353108   4.854887   4.782853   2.830029
    16  O    5.263134   4.828591   5.522054   5.068563   3.380376
    17  N    5.205900   4.852509   5.228153   5.515558   3.381743
    18  H    5.048455   4.676205   4.853379   5.461053   3.333435
    19  C    5.911212   5.782991   6.273832   6.469335   4.375204
    20  H    6.318313   6.173531   6.792266   6.715303   4.732653
    21  H    6.814568   6.673823   7.056062   7.414708   5.281387
    22  H    5.442991   5.511655   6.043832   6.268951   4.260803
                    6          7          8          9         10
     6  O    0.000000
     7  N    2.273935   0.000000
     8  H    3.158229   1.011037   0.000000
     9  C    2.871939   1.460730   2.115085   0.000000
    10  H    3.597721   2.094707   2.477193   1.093751   0.000000
    11  C    3.995985   2.453922   2.733313   1.535247   2.149982
    12  H    3.895181   2.745096   3.095490   2.186814   3.071869
[...]
    13  H    6.484544   5.822545   5.820732   6.438972   4.556462
    14  H    5.654071   4.929147   4.632957   5.613170   4.018077
    15  C    5.025249   4.444492   4.949789   4.815986   2.943257
    16  O    5.606079   4.965632   5.559971   5.081762   3.567097
    17  N    5.357479   5.020053   5.562662   5.563714   3.513509
    18  H    4.909586   4.690156   5.157659   5.400701   3.275106
    19  C    6.066170   5.879507   6.592642   6.308786   4.430164
    20  H    6.833245   6.534749   7.247794   6.840393   5.063611
    21  H    6.672563   6.596478   7.267866   7.130964   5.184316
    22  H    5.550395   5.480164   6.322841   5.822938   4.153040
                    6          7          8          9         10
     6  O    0.000000
     7  N    2.289216   0.000000
     8  H    3.155693   1.011408   0.000000
     9  C    2.958759   1.471708   2.100826   0.000000
    10  H    3.665854   2.080665   2.379448   1.095860   0.000000
    11  C    4.088707   2.465197   2.773640   1.535336   2.154181
    12  H    3.993301   2.750787   3.162976   2.191128   3.078926
    13  H    4.844976   3.417238   3.760007   2.176662   2.500223
    14  H    4.719914   2.711673   2.602924   2.174902   2.485320
    15  C    2.682980   2.528152   3.417998   1.550613   2.085372
    16  O    3.209161   3.299554   4.106537   2.402660   2.416357
    17  N    2.979705   3.299616   4.239858   2.486148   3.283915
    18  H    2.843693   3.107102   4.007204   2.602325   3.601734
    19  C    3.553755   4.533919   5.522182   3.831669   4.501016
    20  H    4.238552   5.053402   6.008533   4.151428   4.588626
    21  H    4.317614   5.270358   6.237746   4.574655   5.332820
    22  H    3.078843   4.582340   5.593503   4.190142   4.864101
                   11         12         13         14         15
    11  C    0.000000
    12  H    1.094857   0.000000
    13  H    1.094468   1.776840   0.000000
    14  H    1.096851   1.767435   1.773328   0.000000
    15  C    2.586641   2.925411   2.794966   3.526232   0.000000
    16  O    3.591896   4.092940   3.631433   4.434331   1.221556
    17  N    2.912804   2.775456   3.023836   3.985244   1.370110
    18  H    2.743346   2.254191   3.089173   3.747934   2.020743
    19  C    4.358212   4.171558   4.345027   5.437837   2.429096
    20  H    4.745626   4.767717   4.537837   5.818089   2.642975
    21  H    4.801534   4.416938   4.718154   5.885177   3.324875
    22  H    4.958376   4.750331   5.129873   5.985448   2.813475
                   16         17         18         19         20
    16  O    0.000000
    17  N    2.280789   0.000000
    18  H    3.120255   1.012087   0.000000
    19  C    2.765790   1.457895   2.097491   0.000000
    20  H    2.546605   2.082686   2.960066   1.090899   0.000000
    21  H    3.800430   2.088767   2.384263   1.093349   1.782239
    22  H    3.007519   2.121461   2.562882   1.097417   1.775557
                   21         22
    21  H    0.000000
    22  H    1.791276   0.000000
 Stoichiometry    C6H12N2O2
 Framework group  C1[X(C6H12N2O2)]
 Deg. of freedom    60
 Full point group                 C1      NOp   1
 Largest Abelian subgroup         C1      NOp   1
 Largest concise Abelian subgroup C1      NOp   1
                         Standard orientation:                         
 ---------------------------------------------------------------------
 Center     Atomic      Atomic             Coordinates (Angstroms)
 Number     Number       Type             X           Y           Z
 ---------------------------------------------------------------------
      1          1           0        3.451286   -1.516850   -0.865935
      2          6           0        3.220952   -0.771164   -0.101488
      3          1           0        3.800642    0.137054   -0.296026
      4          1           0        3.531639   -1.181719    0.865917
      5          6           0        1.714027   -0.546902   -0.078288
      6          8           0        0.925819   -1.476260   -0.197121
      7          7           0        1.331907    0.760472    0.072382
      8          1           0        2.072265    1.435141    0.212523
      9          6           0       -0.016293    1.270830    0.368722
     10          1           0        0.013088    1.708013    1.373172
     11          6           0       -0.398488    2.367063   -0.635996
     12          1           0       -0.413793    1.988240   -1.663114
     13          1           0       -1.386124    2.776588   -0.402066
     14          1           0        0.327540    3.188368   -0.598246
     15          6           0       -1.082086    0.154206    0.515817
     16          8           0       -1.402242   -0.233677    1.629031
     17          7           0       -1.740838   -0.217977   -0.626430
     18          1           0       -1.212375   -0.112052   -1.483066
     19          6           0       -2.606622   -1.389871   -0.576026
     20          1           0       -3.282286   -1.290183    0.274621
     21          1           0       -3.190789   -1.442593   -1.498730
     22          1           0       -2.026134   -2.312955   -0.452443
 ---------------------------------------------------------------------
 Rotational constants (GHZ):      1.8118151      0.9791888      0.7806617

 **********************************************************************

            Population analysis using the SCF density.

 **********************************************************************

 Orbital symmetries:
       Occupied  (A) (A) (A) (A) (A) (A) (A) (A) (A) (A) (A) (A)
                 (A) (A) (A) (A) (A) (A) (A) (A) (A) (A) (A) (A)
                 (A) (A) (A) (A) (A) (A) (A) (A) (A) (A) (A) (A)
                 (A) (A) (A)
       Virtual   (A) (A) (A) (A) (A) (A) (A) (A) (A) (A) (A) (A)
                 (A) (A) (A) (A) (A) (A) (A) (A) (A) (A) (A) (A)
                 (A) (A) (A) (A) (A) (A) (A) (A) (A) (A) (A) (A)
                 (A) (A) (A) (A) (A) (A) (A) (A) (A) (A) (A) (A)
                 (A) (A) (A) (A) (A) (A) (A) (A) (A) (A) (A) (A)
                 (A) (A) (A) (A) (A) (A) (A) (A) (A) (A) (A) (A)
                 (A) (A) (A) (A) (A) (A) (A) (A) (A) (A) (A) (A)
                 (A) (A) (A) (A) (A) (A) (A) (A) (A) (A) (A) (A)
                 (A) (A) (A) (A) (A) (A) (A) (A) (A) (A) (A) (A)
                 (A) (A) (A) (A) (A) (A) (A) (A) (A) (A) (A) (A)
                 (A) (A) (A) (A) (A) (A) (A) (A) (A) (A) (A) (A)
                 (A) (A) (A)
 The electronic state is 1-A.
 Alpha  occ. eigenvalues --  -19.11189 -19.10296 -14.36805 -14.34694 -10.29256
 Alpha  occ. eigenvalues --  -10.27821 -10.23956 -10.20290 -10.19573 -10.19427
 Alpha  occ. eigenvalues --   -1.03458  -1.02023  -0.92734  -0.90687  -0.78381
 Alpha  occ. eigenvalues --   -0.73184  -0.69411  -0.64820  -0.59671  -0.56294
 Alpha  occ. eigenvalues --   -0.52050  -0.49724  -0.47290  -0.45278  -0.43926
 Alpha  occ. eigenvalues --   -0.43631  -0.42261  -0.41459  -0.40262  -0.39957
 Alpha  occ. eigenvalues --   -0.38743  -0.37564  -0.37343  -0.35877  -0.34930
 Alpha  occ. eigenvalues --   -0.26010  -0.25316  -0.24671  -0.23321
 Alpha virt. eigenvalues --    0.02114   0.03041   0.06257   0.08900   0.11509
 Alpha virt. eigenvalues --    0.13094   0.13744   0.14938   0.15615   0.15997
 Alpha virt. eigenvalues --    0.16909   0.17824   0.18129   0.19080   0.19819
 Alpha virt. eigenvalues --    0.20475   0.22513   0.24909   0.27790   0.32556
 Alpha virt. eigenvalues --    0.34350   0.40096   0.41563   0.50362   0.51420
 Alpha virt. eigenvalues --    0.52466   0.53429   0.54955   0.55902   0.56749
 Alpha virt. eigenvalues --    0.58023   0.59283   0.59909   0.63157   0.64471
 Alpha virt. eigenvalues --    0.66777   0.68961   0.71918   0.72929   0.74777
 Alpha virt. eigenvalues --    0.76444   0.77073   0.77688   0.82614   0.83539
 Alpha virt. eigenvalues --    0.85391   0.85989   0.87270   0.88019   0.88725
 Alpha virt. eigenvalues --    0.90174   0.90725   0.91436   0.93392   0.93767
 Alpha virt. eigenvalues --    0.94584   0.95148   0.96780   0.98201   0.98573
 Alpha virt. eigenvalues --    1.01624   1.07060   1.07504   1.09980   1.15856
 Alpha virt. eigenvalues --    1.21780   1.24408   1.28551   1.29510   1.34082
 Alpha virt. eigenvalues --    1.36984   1.39644   1.42599   1.46337   1.46578
 Alpha virt. eigenvalues --    1.51583   1.58116   1.60415   1.63568   1.70804
 Alpha virt. eigenvalues --    1.71385   1.73612   1.77908   1.80710   1.80955
 Alpha virt. eigenvalues --    1.83496   1.86418   1.90170   1.91166   1.91504
 Alpha virt. eigenvalues --    1.93088   1.95080   1.98504   2.00353   2.01819
 Alpha virt. eigenvalues --    2.05446   2.06759   2.09370   2.12154   2.18893
 Alpha virt. eigenvalues --    2.21033   2.22139   2.23282   2.25630   2.29646
 Alpha virt. eigenvalues --    2.31056   2.34707   2.37920   2.38885   2.40148
 Alpha virt. eigenvalues --    2.44037   2.46577   2.53247   2.55627   2.60510
 Alpha virt. eigenvalues --    2.65342   2.70578   2.73700   2.74495   2.87090
 Alpha virt. eigenvalues --    2.91031   2.98395   3.00659   3.11633   3.16396
 Alpha virt. eigenvalues --    3.92177   3.96344   4.06121   4.13852   4.22256
 Alpha virt. eigenvalues --    4.24859   4.29493   4.38010   4.48209   4.66685
          Condensed to atoms (all electrons):
              1          2          3          4          5          6
     1  H    0.515290   0.359357  -0.025721  -0.022172  -0.019353   0.002495
     2  C    0.359357   5.328059   0.339355   0.363222   0.341427  -0.079730
     3  H   -0.025721   0.339355   0.582023  -0.026066  -0.025528   0.002947
     4  H   -0.022172   0.363222  -0.026066   0.515588  -0.020055  -0.000140
     5  C   -0.019353   0.341427  -0.025528  -0.020055   4.305060   0.578873
     6  O    0.002495  -0.079730   0.002947  -0.000140   0.578873   8.077341
     7  N    0.003150  -0.120110   0.006503   0.000107   0.276073  -0.086523
     8  H   -0.000048   0.002337   0.001849  -0.000050  -0.016854   0.003647
     9  C   -0.000111   0.005686   0.000181  -0.000197  -0.031074  -0.007367
    10  H   -0.000004  -0.000218  -0.000003   0.000039   0.002506   0.000281
    11  C    0.000009  -0.000262  -0.000006  -0.000003   0.001004   0.000068
    12  H   -0.000001  -0.000021   0.000002   0.000001   0.000659  -0.000066
    13  H    0.000000   0.000004   0.000000   0.000000   0.000007   0.000003
    14  H    0.000000  -0.000001  -0.000004   0.000000  -0.000051  -0.000001
    15  C    0.000006   0.000337  -0.000026  -0.000007   0.005524   0.020841
    16  O    0.000000  -0.000031   0.000000   0.000003   0.000483  -0.003294
    17  N    0.000001  -0.000033   0.000001   0.000000   0.000877  -0.008062
    18  H   -0.000001   0.000033  -0.000003   0.000001   0.001010   0.003796
    19  C    0.000000  -0.000001   0.000000   0.000000  -0.000075  -0.001197
    20  H    0.000000   0.000000   0.000000   0.000000   0.000003   0.000013
    21  H    0.000000   0.000000   0.000000   0.000000  -0.000001  -0.000018
    22  H    0.000000   0.000009   0.000000   0.000000  -0.000067   0.003791
              7          8          9         10         11         12
     1  H    0.003150  -0.000048  -0.000111  -0.000004   0.000009  -0.000001
     2  C   -0.120110   0.002337   0.005686  -0.000218  -0.000262  -0.000021
     3  H    0.006503   0.001849   0.000181  -0.000003  -0.000006   0.000002
     4  H    0.000107  -0.000050  -0.000197   0.000039  -0.000003   0.000001
     5  C    0.276073  -0.016854  -0.031074   0.002506   0.001004   0.000659
     6  O   -0.086523   0.003647  -0.007367   0.000281   0.000068  -0.000066
     7  N    7.135464   0.292234   0.225828  -0.041798  -0.059545   0.000426
     8  H    0.292234   0.422474  -0.027764  -0.004346  -0.001294  -0.000178
     9  C    0.225828  -0.027764   5.092863   0.367605   0.323370  -0.026720
    10  H   -0.041798  -0.004346   0.367605   0.575807  -0.049508   0.005117
    11  C   -0.059545  -0.001294   0.323370  -0.049508   5.166854   0.362498
    12  H    0.000426  -0.000178  -0.026720   0.005117   0.362498   0.567624
    13  H    0.004531  -0.000188  -0.028105   0.000336   0.364877  -0.025220
    14  H   -0.003090   0.003500  -0.025796  -0.005519   0.361202  -0.030918
    15  C   -0.029393   0.003646   0.346512  -0.035503  -0.031399  -0.007801
    16  O    0.001151  -0.000181  -0.071841   0.007127   0.002130  -0.000034
    17  N    0.000760  -0.000243  -0.117901   0.005629   0.007589   0.001717
    18  H   -0.000396   0.000024   0.001099   0.000060  -0.002166   0.004705
    19  C   -0.000107   0.000007   0.006680  -0.000198   0.000006  -0.000069
    20  H   -0.000005   0.000000   0.000470   0.000006  -0.000080   0.000002
    21  H   -0.000001   0.000000  -0.000091   0.000004  -0.000030   0.000015
    22  H   -0.000007   0.000000  -0.000270  -0.000010   0.000035  -0.000002
             13         14         15         16         17         18
     1  H    0.000000   0.000000   0.000006   0.000000   0.000001  -0.000001
     2  C    0.000004  -0.000001   0.000337  -0.000031  -0.000033   0.000033
     3  H    0.000000  -0.000004  -0.000026   0.000000   0.000001  -0.000003
     4  H    0.000000   0.000000  -0.000007   0.000003   0.000000   0.000001
     5  C    0.000007  -0.000051   0.005524   0.000483   0.000877   0.001010
     6  O    0.000003  -0.000001   0.020841  -0.003294  -0.008062   0.003796
     7  N    0.004531  -0.003090  -0.029393   0.001151   0.000760  -0.000396
     8  H   -0.000188   0.003500   0.003646  -0.000181  -0.000243   0.000024
     9  C   -0.028105  -0.025796   0.346512  -0.071841  -0.117901   0.001099
    10  H    0.000336  -0.005519  -0.035503   0.007127   0.005629   0.000060
    11  C    0.364877   0.361202  -0.031399   0.002130   0.007589  -0.002166
    12  H   -0.025220  -0.030918  -0.007801  -0.000034   0.001717   0.004705
    13  H    0.542709  -0.027797  -0.001664   0.000106   0.000979  -0.000166
    14  H   -0.027797   0.583270   0.003492  -0.000088   0.000227  -0.000128
    15  C   -0.001664   0.003492   4.326189   0.578282   0.258183  -0.018913
    16  O    0.000106  -0.000088   0.578282   8.074867  -0.098801   0.003577
    17  N    0.000979   0.000227   0.258183  -0.098801   7.063720   0.292769
    18  H   -0.000166  -0.000128  -0.018913   0.003577   0.292769   0.422020
    19  C   -0.000071   0.000003  -0.026435   0.003796   0.280200  -0.034122
    20  H   -0.000003   0.000000  -0.004253   0.010224  -0.037732   0.004673
    21  H   -0.000002   0.000000   0.005105   0.000619  -0.035923  -0.002444
    22  H    0.000002   0.000001  -0.001484   0.001296  -0.046079  -0.000779
             19         20         21         22
     1  H    0.000000   0.000000   0.000000   0.000000
     2  C   -0.000001   0.000000   0.000000   0.000009
     3  H    0.000000   0.000000   0.000000   0.000000
     4  H    0.000000   0.000000   0.000000   0.000000
     5  C   -0.000075   0.000003  -0.000001  -0.000067
     6  O   -0.001197   0.000013  -0.000018   0.003791
     7  N   -0.000107  -0.000005  -0.000001  -0.000007
     8  H    0.000007   0.000000   0.000000   0.000000
     9  C    0.006680   0.000470  -0.000091  -0.000270
    10  H   -0.000198   0.000006   0.000004  -0.000010
    11  C    0.000006  -0.000080  -0.000030   0.000035
    12  H   -0.000069   0.000002   0.000015  -0.000002
    13  H   -0.000071  -0.000003  -0.000002   0.000002
    14  H    0.000003   0.000000   0.000000   0.000001
    15  C   -0.026435  -0.004253   0.005105  -0.001484
    16  O    0.003796   0.010224   0.000619   0.001296
    17  N    0.280200  -0.037732  -0.035923  -0.046079
    18  H   -0.034122   0.004673  -0.002444  -0.000779
    19  C    4.943624   0.382244   0.370569   0.382538
    20  H    0.382244   0.516770  -0.025599  -0.032736
    21  H    0.370569  -0.025599   0.580168  -0.035817
    22  H    0.382538  -0.032736  -0.035817   0.552224
 Mulliken atomic charges:
              1
     1  H    0.187102
     2  C   -0.539420
     3  H    0.144494
     4  H    0.189730
     5  C    0.599555
     6  O   -0.507700
     7  N   -0.605253
     8  H    0.321428
     9  C   -0.033059
    10  H    0.172592
    11  C   -0.445348
    12  H    0.148265
    13  H    0.169663
    14  H    0.141699
    15  C    0.608760
    16  O   -0.509392
    17  N   -0.567880
    18  H    0.325351
    19  C   -0.307392
    20  H    0.186003
    21  H    0.143447
    22  H    0.177357
 Sum of Mulliken atomic charges =   0.00000
 Mulliken charges with hydrogens summed into heavy atoms:
              1
     2  C   -0.018094
     5  C    0.599555
     6  O   -0.507700
     7  N   -0.283825
     9  C    0.139533
    11  C    0.014279
    15  C    0.608760
    16  O   -0.509392
    17  N   -0.242529
    19  C    0.199415
 Sum of Mulliken charges with hydrogens summed into heavy atoms =   0.00000
 Electronic spatial extent (au):  <R**2>=           1635.1871
 Charge=              0.0000 electrons
 Dipole moment (field-independent basis, Debye):
    X=              2.5005    Y=              3.0227    Z=             -2.6235  Tot=              4.7193
 Quadrupole moment (field-independent basis, Debye-Ang):
   XX=            -51.9174   YY=            -58.8669   ZZ=            -62.7971
   XY=              3.6241   XZ=              5.7069   YZ=              2.1410
 Traceless Quadrupole moment (field-independent basis, Debye-Ang):
   XX=              5.9431   YY=             -1.0065   ZZ=             -4.9366
   XY=              3.6241   XZ=              5.7069   YZ=              2.1410
 Octapole moment (field-independent basis, Debye-Ang**2):
  XXX=             17.6243  YYY=              6.1054  ZZZ=            -10.2856  XYY=             -1.2173
  XXY=             -7.0077  XXZ=             -3.1932  XZZ=              5.1686  YZZ=             -1.7130
  YYZ=              3.5973  XYZ=             -2.7710
 Hexadecapole moment (field-independent basis, Debye-Ang**3):
 XXXX=          -1184.8030 YYYY=           -624.0129 ZZZZ=           -246.8958 XXXY=             14.6928
 XXXZ=              4.9463 YYYX=             15.2071 YYYZ=              5.0903 ZZZX=             16.3696
 ZZZY=              6.1596 XXYY=           -288.9076 XXZZ=           -252.1315 YYZZ=           -144.1638
 XXYZ=              8.2639 YYXZ=              0.5154 ZZXY=             -3.1819
 N-N= 5.657521964897D+02 E-N=-2.287766398925D+03  KE= 4.912285827728D+02
 1\1\GINC-NODE006\FOpt\RB3LYP\6-31G(d)\C6H12N2O2\STEBOSS\10-Feb-2017\0\
 \# b3lyp/6-31G* Opt=(ModRedundant, maxcycles=1000, calcfc) geom=nocrow
 d\\Phi Psi fixed scan\\0,1\H,0.2861158224,4.0667377263,-0.6702251962\C
 ,1.0843178963,3.7434822537,0.0019806089\H,1.3021226642,2.6856480201,-0
 .1777185107\H,0.7175376123,3.8536788494,1.0287638394\C,2.2852674851,4.
 6610991774,-0.191287707\O,2.1511141723,5.8680242088,-0.347597226\N,3.4
 98908854,4.0247110591,-0.1858749946\H,3.488170218,3.0311924856,0.00320
 85466\C,4.8329530798,4.6413446724,-0.1083197179\H,5.2675226918,4.36001
 48702,0.8575544407\C,5.7307253193,4.1002489252,-1.2301385581\H,5.32465
 83674,4.3296520178,-2.2206913437\H,6.7357406429,4.5277668677,-1.159203
 0928\H,5.819321004,3.0095952751,-1.1545845044\C,4.7952273155,6.1892764
 299,-0.0253481767\O,4.9001607714,6.7396771621,1.0601226018\N,4.8206936
 399,6.8672076426,-1.215710873\H,4.4087868559,6.3775242232,-1.999842435
 3\C,4.5920081598,8.3069443921,-1.1978215142\H,5.250540262,8.7572466238
 ,-0.4537621988\H,4.824547768,8.7180315725,-2.1838971058\H,3.5540593977
 ,8.5453955449,-0.9330068824\\Version=EM64L-G09RevA.02\State=1-A\HF=-49
 5.8373744\RMSD=4.125e-09\RMSF=5.676e-04\Dipole=0.0186923,-1.5806386,-0
 .9739867\Quadrupole=-1.508123,4.1798226,-2.6716996,1.7777957,-2.209422
 ,-4.8051231\PG=C01 [X(C6H12N2O2)]\\@


 You can't act like a skunk without someone's getting wind of it.
 -- Lorene Workman
 Job cpu time:  0 days  1 hours 16 minutes 31.1 seconds.
 File lengths (MBytes):  RWF=    186 Int=      0 D2E=      0 Chk=      4 Scr=      2
 Normal termination of Gaussian 09 at Fri Feb 10 18:10:46 2017.
