 Entering Gaussian System, Link 0=g09
 Initial command:
 /home/steboss/Software/g09/l1.exe /home/steboss/projects/phi_psi_scan/alanine/0/4134/Gau-24037.inp -scrdir=/home/steboss/projects/phi_psi_scan/alanine/0/4134/
 Entering Link 1 = /home/steboss/Software/g09/l1.exe PID=     24041.
  
 Copyright (c) 1988,1990,1992,1993,1995,1998,2003,2009, Gaussian, Inc.
                  All Rights Reserved.
  
 This is part of the Gaussian(R) 09 program.  It is based on
 the Gaussian(R) 03 system (copyright 2003, Gaussian, Inc.),
 the Gaussian(R) 98 system (copyright 1998, Gaussian, Inc.),
 the Gaussian(R) 94 system (copyright 1995, Gaussian, Inc.),
 the Gaussian 92(TM) system (copyright 1992, Gaussian, Inc.),
 the Gaussian 90(TM) system (copyright 1990, Gaussian, Inc.),
 the Gaussian 88(TM) system (copyright 1988, Gaussian, Inc.),
 the Gaussian 86(TM) system (copyright 1986, Carnegie Mellon
 University), and the Gaussian 82(TM) system (copyright 1983,
 Carnegie Mellon University). Gaussian is a federally registered
 trademark of Gaussian, Inc.
  
 This software contains proprietary and confidential information,
 including trade secrets, belonging to Gaussian, Inc.
  
 This software is provided under written license and may be
 used, copied, transmitted, or stored only in accord with that
 written license.
  
 The following legend is applicable only to US Government
 contracts under FAR:
  
                    RESTRICTED RIGHTS LEGEND
  
 Use, reproduction and disclosure by the US Government is
 subject to restrictions as set forth in subparagraphs (a)
 and (c) of the Commercial Computer Software - Restricted
 Rights clause in FAR 52.227-19.
  
 Gaussian, Inc.
 340 Quinnipiac St., Bldg. 40, Wallingford CT 06492
  
  
 ---------------------------------------------------------------
 Warning -- This program may not be used in any manner that
 competes with the business of Gaussian, Inc. or will provide
 assistance to any competitor of Gaussian, Inc.  The licensee
 of this program is prohibited from giving any competitor of
 Gaussian, Inc. access to this program.  By using this program,
 the user acknowledges that Gaussian, Inc. is engaged in the
 business of creating and licensing software in the field of
 computational chemistry and represents and warrants to the
 licensee that it is not a competitor of Gaussian, Inc. and that
 it will not use this program in any manner prohibited above.
 ---------------------------------------------------------------
  

 Cite this work as:
 Gaussian 09, Revision A.02,
 M. J. Frisch, G. W. Trucks, H. B. Schlegel, G. E. Scuseria, 
 M. A. Robb, J. R. Cheeseman, G. Scalmani, V. Barone, B. Mennucci, 
 G. A. Petersson, H. Nakatsuji, M. Caricato, X. Li, H. P. Hratchian, 
 A. F. Izmaylov, J. Bloino, G. Zheng, J. L. Sonnenberg, M. Hada, 
 M. Ehara, K. Toyota, R. Fukuda, J. Hasegawa, M. Ishida, T. Nakajima, 
 Y. Honda, O. Kitao, H. Nakai, T. Vreven, J. A. Montgomery, Jr., 
 J. E. Peralta, F. Ogliaro, M. Bearpark, J. J. Heyd, E. Brothers, 
 K. N. Kudin, V. N. Staroverov, R. Kobayashi, J. Normand, 
 K. Raghavachari, A. Rendell, J. C. Burant, S. S. Iyengar, J. Tomasi, 
 M. Cossi, N. Rega, J. M. Millam, M. Klene, J. E. Knox, J. B. Cross, 
 V. Bakken, C. Adamo, J. Jaramillo, R. Gomperts, R. E. Stratmann, 
 O. Yazyev, A. J. Austin, R. Cammi, C. Pomelli, J. W. Ochterski, 
 R. L. Martin, K. Morokuma, V. G. Zakrzewski, G. A. Voth, 
 P. Salvador, J. J. Dannenberg, S. Dapprich, A. D. Daniels, 
 O. Farkas, J. B. Foresman, J. V. Ortiz, J. Cioslowski, 
 and D. J. Fox, Gaussian, Inc., Wallingford CT, 2009.
 
 ******************************************
 Gaussian 09:  EM64L-G09RevA.02 11-Jun-2009
                10-Feb-2017 
 ******************************************
 %chk=structure_180.chk
 %NProcShared=8
 Will use up to    8 processors via shared memory.
 ----------------------------------------------------------------------
 # b3lyp/6-31G* Opt=(ModRedundant, maxcycles=1000, calcfc) geom=nocrowd
 ----------------------------------------------------------------------
 1/6=1000,10=4,14=-1,18=120,19=15,26=3,38=1/1,3;
 2/9=110,12=1,17=6,18=5,40=1/2;
 3/5=1,6=6,7=1,11=2,16=1,25=1,30=1,71=2,74=-5/1,2,3;
 4//1;
 5/5=2,38=5/2;
 8/6=4,10=90,11=11/1;
 11/6=1,8=1,9=11,15=111,16=1/1,2,10;
 10/6=1,7=6,13=1/2;
 6/7=2,8=2,9=2,10=2,28=1/1;
 7/10=1,18=20,25=1/1,2,3,16;
 1/6=1000,10=4,14=-1,18=20,19=15/3(2);
 2/9=110,12=1/2;
 99//99;
 2/9=110,12=1/2;
 3/5=1,6=6,7=1,11=2,16=1,25=1,30=1,71=1,74=-5/1,2,3;
 4/5=5,16=3/1;
 5/5=2,38=5/2;
 7//1,2,3,16;
 1/6=1000,14=-1,18=20,19=15/3(-5);
 2/9=110,12=1/2;
 6/7=2,8=2,9=2,10=2,19=2,28=1/1;
 99/9=1/99;
 ------------------
 Phi Psi fixed scan
 ------------------
 Symbolic Z-matrix:
 Charge =  0 Multiplicity = 1
 H                     0.2496    4.5262    0. 
 C                     1.1178    3.8672    0. 
 H                     1.097     3.238    -0.8898 
 H                     1.097     3.238     0.8898 
 C                     2.4195    4.6711    0. 
 O                     2.3938    5.8999    0. 
 N                     3.5554    3.9697    0. 
 H                     3.5254    2.9601    0. 
 C                     4.8533    4.6139    0. 
 H                     5.4076    4.3155    0.8898 
 C                     5.6613    4.2208   -1.2322 
 H                     5.1233    4.5214   -2.1312 
 H                     6.6305    4.7189   -1.2058 
 H                     5.8085    3.1409   -1.2414 
 C                     4.7127    6.1294    0. 
 O                     3.6006    6.6527    0. 
 N                     5.846     6.8349    0. 
 H                     6.737     6.3592    0. 
 C                     5.8461    8.2839    0. 
 H                     4.8186    8.6477    0. 
 H                     6.3598    8.6477    0.8898 
 H                     6.3598    8.6477   -0.8898 
 
 The following ModRedundant input section has been read:
 D    5    7    9   15 F                                                       
 D    7    9   15   17 F                                                       

 GradGradGradGradGradGradGradGradGradGradGradGradGradGradGradGradGradGrad
 Berny optimization.
 Initialization pass.
                           ----------------------------
                           !    Initial Parameters    !
                           ! (Angstroms and Degrees)  !
 --------------------------                            --------------------------
 ! Name  Definition              Value          Derivative Info.                !
 --------------------------------------------------------------------------------
 ! R1    R(1,2)                  1.09           calculate D2E/DX2 analytically  !
 ! R2    R(2,3)                  1.09           calculate D2E/DX2 analytically  !
 ! R3    R(2,4)                  1.09           calculate D2E/DX2 analytically  !
 ! R4    R(2,5)                  1.5299         calculate D2E/DX2 analytically  !
 ! R5    R(5,6)                  1.2291         calculate D2E/DX2 analytically  !
 ! R6    R(5,7)                  1.335          calculate D2E/DX2 analytically  !
 ! R7    R(6,16)                 1.4223         calculate D2E/DX2 analytically  !
 ! R8    R(7,8)                  1.01           calculate D2E/DX2 analytically  !
 ! R9    R(7,9)                  1.449          calculate D2E/DX2 analytically  !
 ! R10   R(9,10)                 1.09           calculate D2E/DX2 analytically  !
 ! R11   R(9,11)                 1.525          calculate D2E/DX2 analytically  !
 ! R12   R(9,15)                 1.522          calculate D2E/DX2 analytically  !
 ! R13   R(11,12)                1.09           calculate D2E/DX2 analytically  !
 ! R14   R(11,13)                1.09           calculate D2E/DX2 analytically  !
 ! R15   R(11,14)                1.0899         calculate D2E/DX2 analytically  !
 ! R16   R(15,16)                1.2291         calculate D2E/DX2 analytically  !
 ! R17   R(15,17)                1.335          calculate D2E/DX2 analytically  !
 ! R18   R(17,18)                1.01           calculate D2E/DX2 analytically  !
 ! R19   R(17,19)                1.449          calculate D2E/DX2 analytically  !
 ! R20   R(19,20)                1.09           calculate D2E/DX2 analytically  !
 ! R21   R(19,21)                1.0899         calculate D2E/DX2 analytically  !
 ! R22   R(19,22)                1.0899         calculate D2E/DX2 analytically  !
 ! A1    A(1,2,3)              109.5001         calculate D2E/DX2 analytically  !
 ! A2    A(1,2,4)              109.5001         calculate D2E/DX2 analytically  !
 ! A3    A(1,2,5)              111.1015         calculate D2E/DX2 analytically  !
 ! A4    A(3,2,4)              109.4403         calculate D2E/DX2 analytically  !
 ! A5    A(3,2,5)              108.636          calculate D2E/DX2 analytically  !
 ! A6    A(4,2,5)              108.636          calculate D2E/DX2 analytically  !
 ! A7    A(2,5,6)              120.5004         calculate D2E/DX2 analytically  !
 ! A8    A(2,5,7)              116.6068         calculate D2E/DX2 analytically  !
 ! A9    A(6,5,7)              122.8928         calculate D2E/DX2 analytically  !
 ! A10   A(5,6,16)             120.7577         calculate D2E/DX2 analytically  !
 ! A11   A(5,7,8)              119.9926         calculate D2E/DX2 analytically  !
 ! A12   A(5,7,9)              121.9083         calculate D2E/DX2 analytically  !
 ! A13   A(8,7,9)              118.0991         calculate D2E/DX2 analytically  !
 ! A14   A(7,9,10)             109.5            calculate D2E/DX2 analytically  !
 ! A15   A(7,9,11)             111.0992         calculate D2E/DX2 analytically  !
 ! A16   A(7,9,15)             111.0966         calculate D2E/DX2 analytically  !
 ! A17   A(10,9,11)            108.6382         calculate D2E/DX2 analytically  !
 ! A18   A(10,9,15)            108.6373         calculate D2E/DX2 analytically  !
 ! A19   A(11,9,15)            107.7947         calculate D2E/DX2 analytically  !
 ! A20   A(9,11,12)            109.5007         calculate D2E/DX2 analytically  !
 ! A21   A(9,11,13)            109.4959         calculate D2E/DX2 analytically  !
 ! A22   A(9,11,14)            109.4978         calculate D2E/DX2 analytically  !
 ! A23   A(12,11,13)           109.441          calculate D2E/DX2 analytically  !
 ! A24   A(12,11,14)           109.4482         calculate D2E/DX2 analytically  !
 ! A25   A(13,11,14)           109.4436         calculate D2E/DX2 analytically  !
 ! A26   A(9,15,16)            120.4998         calculate D2E/DX2 analytically  !
 ! A27   A(9,15,17)            116.6026         calculate D2E/DX2 analytically  !
 ! A28   A(16,15,17)           122.8976         calculate D2E/DX2 analytically  !
 ! A29   A(6,16,15)            122.8448         calculate D2E/DX2 analytically  !
 ! A30   A(15,17,18)           119.9995         calculate D2E/DX2 analytically  !
 ! A31   A(15,17,19)           121.907          calculate D2E/DX2 analytically  !
 ! A32   A(18,17,19)           118.0936         calculate D2E/DX2 analytically  !
 ! A33   A(17,19,20)           109.4932         calculate D2E/DX2 analytically  !
 ! A34   A(17,19,21)           109.5002         calculate D2E/DX2 analytically  !
 ! A35   A(17,19,22)           109.5002         calculate D2E/DX2 analytically  !
 ! A36   A(20,19,21)           109.4437         calculate D2E/DX2 analytically  !
 ! A37   A(20,19,22)           109.4437         calculate D2E/DX2 analytically  !
 ! A38   A(21,19,22)           109.4463         calculate D2E/DX2 analytically  !
 ! D1    D(1,2,5,6)              0.0            calculate D2E/DX2 analytically  !
 ! D2    D(1,2,5,7)            180.0            calculate D2E/DX2 analytically  !
 ! D3    D(3,2,5,6)            120.5133         calculate D2E/DX2 analytically  !
 ! D4    D(3,2,5,7)            -59.4867         calculate D2E/DX2 analytically  !
 ! D5    D(4,2,5,6)           -120.5133         calculate D2E/DX2 analytically  !
 ! D6    D(4,2,5,7)             59.4867         calculate D2E/DX2 analytically  !
 ! D7    D(2,5,6,16)           180.0            calculate D2E/DX2 analytically  !
 ! D8    D(7,5,6,16)             0.0            calculate D2E/DX2 analytically  !
 ! D9    D(2,5,7,8)              0.0            calculate D2E/DX2 analytically  !
 ! D10   D(2,5,7,9)            180.0            calculate D2E/DX2 analytically  !
 ! D11   D(6,5,7,8)            180.0            calculate D2E/DX2 analytically  !
 ! D12   D(6,5,7,9)              0.0            calculate D2E/DX2 analytically  !
 ! D13   D(5,6,16,15)            0.0            calculate D2E/DX2 analytically  !
 ! D14   D(5,7,9,10)           119.9998         calculate D2E/DX2 analytically  !
 ! D15   D(5,7,9,11)          -119.9976         calculate D2E/DX2 analytically  !
 ! D16   D(5,7,9,15)             0.0            frozen, calculate D2E/DX2 analyt!
 ! D17   D(8,7,9,10)           -60.0002         calculate D2E/DX2 analytically  !
 ! D18   D(8,7,9,11)            60.0024         calculate D2E/DX2 analytically  !
 ! D19   D(8,7,9,15)           180.0            calculate D2E/DX2 analytically  !
 ! D20   D(7,9,11,12)           60.0024         calculate D2E/DX2 analytically  !
 ! D21   D(7,9,11,13)          179.9986         calculate D2E/DX2 analytically  !
 ! D22   D(7,9,11,14)          -60.0038         calculate D2E/DX2 analytically  !
 ! D23   D(10,9,11,12)        -179.4843         calculate D2E/DX2 analytically  !
 ! D24   D(10,9,11,13)         -59.4881         calculate D2E/DX2 analytically  !
 ! D25   D(10,9,11,14)          60.5095         calculate D2E/DX2 analytically  !
 ! D26   D(15,9,11,12)         -61.938          calculate D2E/DX2 analytically  !
 ! D27   D(15,9,11,13)          58.0582         calculate D2E/DX2 analytically  !
 ! D28   D(15,9,11,14)         178.0558         calculate D2E/DX2 analytically  !
 ! D29   D(7,9,15,16)            0.0            calculate D2E/DX2 analytically  !
 ! D30   D(7,9,15,17)          180.0            frozen, calculate D2E/DX2 analyt!
 ! D31   D(10,9,15,16)        -120.5111         calculate D2E/DX2 analytically  !
 ! D32   D(10,9,15,17)          59.4889         calculate D2E/DX2 analytically  !
 ! D33   D(11,9,15,16)         121.942          calculate D2E/DX2 analytically  !
 ! D34   D(11,9,15,17)         -58.058          calculate D2E/DX2 analytically  !
 ! D35   D(9,15,16,6)            0.0            calculate D2E/DX2 analytically  !
 ! D36   D(17,15,16,6)         180.0            calculate D2E/DX2 analytically  !
 ! D37   D(9,15,17,18)           0.0            calculate D2E/DX2 analytically  !
 ! D38   D(9,15,17,19)         180.0            calculate D2E/DX2 analytically  !
 ! D39   D(16,15,17,18)        180.0            calculate D2E/DX2 analytically  !
 ! D40   D(16,15,17,19)          0.0            calculate D2E/DX2 analytically  !
 ! D41   D(15,17,19,20)          0.0            calculate D2E/DX2 analytically  !
 ! D42   D(15,17,19,21)        119.9975         calculate D2E/DX2 analytically  !
 ! D43   D(15,17,19,22)       -119.9975         calculate D2E/DX2 analytically  !
 ! D44   D(18,17,19,20)        180.0            calculate D2E/DX2 analytically  !
 ! D45   D(18,17,19,21)        -60.0025         calculate D2E/DX2 analytically  !
 ! D46   D(18,17,19,22)         60.0025         calculate D2E/DX2 analytically  !
 --------------------------------------------------------------------------------
 Trust Radius=3.00D-01 FncErr=1.00D-07 GrdErr=1.00D-06
 Number of steps in this run= 132 maximum allowed number of steps= 132.
 GradGradGradGradGradGradGradGradGradGradGradGradGradGradGradGradGradGrad

                          Input orientation:                          
 ---------------------------------------------------------------------
 Center     Atomic      Atomic             Coordinates (Angstroms)
 Number     Number       Type             X           Y           Z
 ---------------------------------------------------------------------
      1          1           0        0.249600    4.526200    0.000000
      2          6           0        1.117800    3.867200    0.000000
      3          1           0        1.097000    3.238000   -0.889800
      4          1           0        1.097000    3.238000    0.889800
      5          6           0        2.419500    4.671100    0.000000
      6          8           0        2.393800    5.899900    0.000000
      7          7           0        3.555400    3.969700    0.000000
      8          1           0        3.525400    2.960100    0.000000
      9          6           0        4.853300    4.613900    0.000000
     10          1           0        5.407600    4.315500    0.889800
     11          6           0        5.661300    4.220800   -1.232200
     12          1           0        5.123300    4.521400   -2.131200
     13          1           0        6.630500    4.718900   -1.205800
     14          1           0        5.808500    3.140900   -1.241400
     15          6           0        4.712700    6.129400    0.000000
     16          8           0        3.600600    6.652700    0.000000
     17          7           0        5.846000    6.834900    0.000000
     18          1           0        6.737000    6.359200    0.000000
     19          6           0        5.846100    8.283900    0.000000
     20          1           0        4.818600    8.647700    0.000000
     21          1           0        6.359800    8.647700    0.889800
     22          1           0        6.359800    8.647700   -0.889800
 ---------------------------------------------------------------------
                    Distance matrix (angstroms):
                    1          2          3          4          5
     1  H    0.000000
     2  C    1.089978   0.000000
     3  H    1.780250   1.089986   0.000000
     4  H    1.780250   1.089986   1.779600   0.000000
     5  C    2.174733   1.529927   2.143485   2.143485   0.000000
     6  O    2.546497   2.400009   3.091787   3.091787   1.229069
     7  N    3.352314   2.439754   2.714933   2.714933   1.335002
     8  H    3.630914   2.572813   2.601173   2.601173   2.037286
     9  C    4.604535   3.809399   4.098126   4.098126   2.434472
    10  H    5.238426   4.403987   4.786361   4.443228   3.137983
    11  C    5.558604   4.720884   4.681449   5.128510   3.497192
    12  H    5.319303   4.584105   4.404462   5.194675   3.446006
    13  H    6.496689   5.706944   5.736945   6.099527   4.380498
    14  H    5.861868   4.906246   4.725599   5.172009   3.920192
    15  C    4.742311   4.247453   4.714364   4.714364   2.717610
    16  O    3.968779   3.731395   4.326654   4.326654   2.306889
    17  N    6.053907   5.582394   6.023490   6.023490   4.052522
    18  H    6.741383   6.146989   6.507168   6.507168   4.635783
    19  C    6.741003   6.470244   6.986186   6.986186   4.979348
    20  H    6.153253   6.045585   6.626229   6.626229   4.644247
    21  H    7.423816   7.150069   7.754282   7.547312   5.668426
    22  H    7.423816   7.150069   7.547312   7.754282   5.668426
                    6          7          8          9         10
     6  O    0.000000
     7  N    2.252773   0.000000
     8  H    3.150070   1.010046   0.000000
     9  C    2.775416   1.448978   2.120937   0.000000
    10  H    3.519241   2.083739   2.484256   1.089970   0.000000
    11  C    3.874823   2.452791   2.769431   1.525027   2.139209
    12  H    3.727257   2.702720   3.087548   2.150225   3.041326
    13  H    4.560520   3.386959   3.766826   2.150214   2.459625
    14  H    4.562163   2.702673   2.605054   2.150165   2.466256
    15  C    2.330229   2.450234   3.384397   1.522008   2.136554
    16  O    1.422348   2.683381   3.693366   2.392898   3.085368
    17  N    3.576578   3.668272   4.516554   2.432754   2.707640
    18  H    4.367418   3.978981   4.676351   2.567956   2.595334
    19  C    4.195454   4.884632   5.807624   3.801914   4.090504
    20  H    3.664705   4.845550   5.832766   4.033949   4.461684
    21  H    4.906252   5.526309   6.416725   4.396911   4.435611
    22  H    4.906252   5.526309   6.416725   4.396911   4.779291
                   11         12         13         14         15
    11  C    0.000000
    12  H    1.089957   0.000000
    13  H    1.090023   1.779613   0.000000
    14  H    1.089925   1.779613   1.779617   0.000000
    15  C    2.461892   2.701161   2.668599   3.416575   0.000000
    16  O    3.417446   3.376843   3.791283   4.329969   1.229068
    17  N    2.895850   3.227474   2.558681   3.897193   1.334953
    18  H    2.692248   3.244002   2.038598   3.572204   2.037302
    19  C    4.249853   4.384160   3.844277   5.290835   2.434433
    20  H    4.671820   4.654160   4.491370   5.731127   2.520526
    21  H    4.958652   5.261343   4.460974   5.930497   3.137916
    22  H    4.494728   4.482896   3.950773   5.545485   3.137916
                   16         17         18         19         20
    16  O    0.000000
    17  N    2.252780   0.000000
    18  H    3.150103   1.010035   0.000000
    19  C    2.775443   1.449000   2.120890   0.000000
    20  H    2.337424   2.083697   2.986217   1.090003   0.000000
    21  H    3.519226   2.083741   2.484201   1.089946   1.779618
    22  H    3.519226   2.083741   2.484201   1.089946   1.779618
                   21         22
    21  H    0.000000
    22  H    1.779600   0.000000
 Stoichiometry    C6H12N2O2
 Framework group  C1[X(C6H12N2O2)]
 Deg. of freedom    60
 Full point group                 C1      NOp   1
 Largest Abelian subgroup         C1      NOp   1
 Largest concise Abelian subgroup C1      NOp   1
                         Standard orientation:                         
 ---------------------------------------------------------------------
 Center     Atomic      Atomic             Coordinates (Angstroms)
 Number     Number       Type             X           Y           Z
 ---------------------------------------------------------------------
      1          1           0       -3.562198   -1.586039    0.320785
      2          6           0       -3.301944   -0.560600    0.058497
      3          1           0       -3.697042    0.119447    0.813151
      4          1           0       -3.730692   -0.313446   -0.912667
      5          6           0       -1.784638   -0.379409   -0.016537
      6          8           0       -1.031716   -1.325033    0.205977
      7          7           0       -1.343000    0.840513   -0.331145
      8          1           0       -2.001339    1.586444   -0.505413
      9          6           0        0.070903    1.140271   -0.433902
     10          1           0        0.297185    1.485921   -1.442544
     11          6           0        0.474917    2.227677    0.556062
     12          1           0        0.262861    1.892487    1.571289
     13          1           0        1.540965    2.432195    0.456754
     14          1           0       -0.089748    3.136546    0.348584
     15          6           0        0.914857   -0.092047   -0.141251
     16          8           0        0.379694   -1.162734    0.137747
     17          7           0        2.239392    0.061466   -0.205583
     18          1           0        2.632659    0.962002   -0.439135
     19          6           0        3.150869   -1.035169    0.051717
     20          1           0        2.581133   -1.933816    0.288237
     21          1           0        3.762110   -1.215343   -0.832536
     22          1           0        3.795760   -0.782450    0.893282
 ---------------------------------------------------------------------
 Rotational constants (GHZ):      2.4690888      0.9655250      0.7300887
 Standard basis: 6-31G(d) (6D, 7F)
 There are   174 symmetry adapted basis functions of A   symmetry.
 Integral buffers will be    131072 words long.
 Raffenetti 2 integral format.
 Two-electron integral symmetry is turned on.
   174 basis functions,   328 primitive gaussians,   174 cartesian basis functions
    39 alpha electrons       39 beta electrons
       nuclear repulsion energy       587.0870642049 Hartrees.
 NAtoms=   22 NActive=   22 NUniq=   22 SFac= 7.50D-01 NAtFMM=   80 NAOKFM=F Big=F
 One-electron integrals computed using PRISM.
 NBasis=   174 RedAO= T  NBF=   174
 NBsUse=   174 1.00D-06 NBFU=   174
 Harris functional with IExCor=  402 diagonalized for initial guess.
 ExpMin= 1.61D-01 ExpMax= 5.48D+03 ExpMxC= 8.25D+02 IAcc=1 IRadAn=         1 AccDes= 0.00D+00
 HarFok:  IExCor=  402 AccDes= 0.00D+00 IRadAn=         1 IDoV= 1
 ScaDFX=  1.000000  1.000000  1.000000  1.000000
 FoFCou: FMM=F IPFlag=           0 FMFlag=      100000 FMFlg1=           0
         NFxFlg=           0 DoJE=T BraDBF=F KetDBF=T FulRan=T
         Omega=  0.000000  0.000000  1.000000  0.000000  0.000000 ICntrl=     500 IOpCl=  0
         NMat0=    1 NMatS0=    1 NMatT0=    0 NMatD0=    1 NMtDS0=    0 NMtDT0=    0
         I1Cent=           4 NGrid=           0.
 Petite list used in FoFCou.
 Initial guess orbital symmetries:
       Occupied  (A) (A) (A) (A) (A) (A) (A) (A) (A) (A) (A) (A)
                 (A) (A) (A) (A) (A) (A) (A) (A) (A) (A) (A) (A)
                 (A) (A) (A) (A) (A) (A) (A) (A) (A) (A) (A) (A)
                 (A) (A) (A)
       Virtual   (A) (A) (A) (A) (A) (A) (A) (A) (A) (A) (A) (A)
                 (A) (A) (A) (A) (A) (A) (A) (A) (A) (A) (A) (A)
                 (A) (A) (A) (A) (A) (A) (A) (A) (A) (A) (A) (A)
                 (A) (A) (A) (A) (A) (A) (A) (A) (A) (A) (A) (A)
                 (A) (A) (A) (A) (A) (A) (A) (A) (A) (A) (A) (A)
                 (A) (A) (A) (A) (A) (A) (A) (A) (A) (A) (A) (A)
                 (A) (A) (A) (A) (A) (A) (A) (A) (A) (A) (A) (A)
                 (A) (A) (A) (A) (A) (A) (A) (A) (A) (A) (A) (A)
                 (A) (A) (A) (A) (A) (A) (A) (A) (A) (A) (A) (A)
                 (A) (A) (A) (A) (A) (A) (A) (A) (A) (A) (A) (A)
                 (A) (A) (A) (A) (A) (A) (A) (A) (A) (A) (A) (A)
                 (A) (A) (A)
 The electronic state of the initial guess is 1-A.
 Requested convergence on RMS density matrix=1.00D-08 within 128 cycles.
 Requested convergence on MAX density matrix=1.00D-06.
 Requested convergence on             energy=1.00D-06.
 No special actions if energy rises.
 Integral accuracy reduced to 1.0D-05 until final iterations.
 EnCoef did     4 forward-backward iterations
 Problem detected with inexpensive integrals.
 Switching to full accuracy and repeating last cycle.
 EnCoef did     4 forward-backward iterations
 EnCoef did     2 forward-backward iterations
 EnCoef did     3 forward-backward iterations
 Restarting incremental Fock formation.
 SCF Done:  E(RB3LYP) =  -495.485995426     A.U. after   25 cycles
             Convg  =    0.8534D-08             -V/T =  2.0059
 Range of M.O.s used for correlation:     1   174
 NBasis=   174 NAE=    39 NBE=    39 NFC=     0 NFV=     0
 NROrb=    174 NOA=    39 NOB=    39 NVA=   135 NVB=   135

 **** Warning!!: The smallest alpha delta epsilon is  0.45661464D-01

 Symmetrizing basis deriv contribution to polar:
 IMax=3 JMax=2 DiffMx= 0.00D+00
 G2DrvN: will do    23 centers at a time, making    1 passes doing MaxLOS=2.
 Calling FoFCou, ICntrl=  3107 FMM=F I1Cent=   0 AccDes= 0.00D+00.
 FoFDir/FoFCou used for L=0 through L=2.
 End of G2Drv Frequency-dependent properties file   721 does not exist.
 End of G2Drv Frequency-dependent properties file   722 does not exist.
          IDoAtm=1111111111111111111111
          Differentiating once with respect to nuclear coordinates.
          There are    69 degrees of freedom in the 1st order CPHF.  IDoFFX=5.
     63 vectors produced by pass  0 Test12= 7.63D-11 1.45D-07 XBig12= 1.07D+01 3.19D+00.
 AX will form    63 AO Fock derivatives at one time.
     63 vectors produced by pass  1 Test12= 7.63D-11 1.45D-07 XBig12= 3.46D-01 1.34D-01.
     63 vectors produced by pass  2 Test12= 7.63D-11 1.45D-07 XBig12= 5.92D-04 3.90D-03.
     63 vectors produced by pass  3 Test12= 7.63D-11 1.45D-07 XBig12= 9.54D-07 1.21D-04.
     34 vectors produced by pass  4 Test12= 7.63D-11 1.45D-07 XBig12= 1.20D-09 4.29D-06.
 Inverted reduced A of dimension   286 with in-core refinement.
 End of Minotr Frequency-dependent properties file   721 does not exist.
 End of Minotr Frequency-dependent properties file   722 does not exist.

 **********************************************************************

            Population analysis using the SCF density.

 **********************************************************************

 Orbital symmetries:
       Occupied  (A) (A) (A) (A) (A) (A) (A) (A) (A) (A) (A) (A)
                 (A) (A) (A) (A) (A) (A) (A) (A) (A) (A) (A) (A)
                 (A) (A) (A) (A) (A) (A) (A) (A) (A) (A) (A) (A)
                 (A) (A) (A)
       Virtual   (A) (A) (A) (A) (A) (A) (A) (A) (A) (A) (A) (A)
                 (A) (A) (A) (A) (A) (A) (A) (A) (A) (A) (A) (A)
                 (A) (A) (A) (A) (A) (A) (A) (A) (A) (A) (A) (A)
                 (A) (A) (A) (A) (A) (A) (A) (A) (A) (A) (A) (A)
                 (A) (A) (A) (A) (A) (A) (A) (A) (A) (A) (A) (A)
                 (A) (A) (A) (A) (A) (A) (A) (A) (A) (A) (A) (A)
                 (A) (A) (A) (A) (A) (A) (A) (A) (A) (A) (A) (A)
                 (A) (A) (A) (A) (A) (A) (A) (A) (A) (A) (A) (A)
                 (A) (A) (A) (A) (A) (A) (A) (A) (A) (A) (A) (A)
                 (A) (A) (A) (A) (A) (A) (A) (A) (A) (A) (A) (A)
                 (A) (A) (A) (A) (A) (A) (A) (A) (A) (A) (A) (A)
                 (A) (A) (A)
 The electronic state is 1-A.
 Alpha  occ. eigenvalues --  -19.15043 -19.14631 -14.34465 -14.33689 -10.24054
 Alpha  occ. eigenvalues --  -10.23126 -10.22833 -10.20355 -10.18027 -10.17671
 Alpha  occ. eigenvalues --   -1.14139  -1.00500  -0.93506  -0.90365  -0.77482
 Alpha  occ. eigenvalues --   -0.72282  -0.69470  -0.64772  -0.63187  -0.58116
 Alpha  occ. eigenvalues --   -0.54264  -0.50817  -0.49230  -0.46383  -0.43723
 Alpha  occ. eigenvalues --   -0.43585  -0.43031  -0.40883  -0.40629  -0.39511
 Alpha  occ. eigenvalues --   -0.38778  -0.38204  -0.37172  -0.34881  -0.34297
 Alpha  occ. eigenvalues --   -0.31153  -0.25972  -0.23242  -0.02509
 Alpha virt. eigenvalues --    0.02057   0.05248   0.07614   0.09040   0.13038
 Alpha virt. eigenvalues --    0.13751   0.14558   0.15278   0.16565   0.17241
 Alpha virt. eigenvalues --    0.17566   0.18207   0.18701   0.18906   0.20667
 Alpha virt. eigenvalues --    0.22313   0.24374   0.27115   0.27821   0.32722
 Alpha virt. eigenvalues --    0.37371   0.42310   0.44994   0.52095   0.52280
 Alpha virt. eigenvalues --    0.53367   0.54235   0.55377   0.56673   0.56705
 Alpha virt. eigenvalues --    0.57965   0.60250   0.61195   0.62789   0.64007
 Alpha virt. eigenvalues --    0.66324   0.70618   0.73473   0.74047   0.75473
 Alpha virt. eigenvalues --    0.76798   0.79064   0.80732   0.83012   0.83161
 Alpha virt. eigenvalues --    0.84570   0.87995   0.88191   0.88935   0.89445
 Alpha virt. eigenvalues --    0.90341   0.91622   0.92382   0.94293   0.95551
 Alpha virt. eigenvalues --    0.95875   0.97027   0.97446   1.01216   1.01574
 Alpha virt. eigenvalues --    1.05034   1.12647   1.15739   1.17303   1.27134
 Alpha virt. eigenvalues --    1.28428   1.29885   1.33650   1.36981   1.39013
 Alpha virt. eigenvalues --    1.39751   1.42249   1.45924   1.49393   1.52356
 Alpha virt. eigenvalues --    1.54559   1.57607   1.59081   1.65763   1.68016
 Alpha virt. eigenvalues --    1.72689   1.74900   1.78205   1.80090   1.84355
 Alpha virt. eigenvalues --    1.86561   1.88645   1.92802   1.93500   1.95673
 Alpha virt. eigenvalues --    1.97396   2.00362   2.02150   2.06530   2.09653
 Alpha virt. eigenvalues --    2.13006   2.14461   2.19077   2.19910   2.22562
 Alpha virt. eigenvalues --    2.24639   2.26327   2.28760   2.31978   2.33022
 Alpha virt. eigenvalues --    2.35023   2.36270   2.41166   2.43242   2.45444
 Alpha virt. eigenvalues --    2.50032   2.56307   2.58453   2.64087   2.66331
 Alpha virt. eigenvalues --    2.69528   2.73046   2.78618   2.83506   2.90783
 Alpha virt. eigenvalues --    2.93094   3.08664   3.12681   3.33882   3.53376
 Alpha virt. eigenvalues --    3.95647   4.05266   4.05681   4.18496   4.25201
 Alpha virt. eigenvalues --    4.27851   4.37323   4.50379   4.64555   4.77789
          Condensed to atoms (all electrons):
              1          2          3          4          5          6
     1  H    0.519780   0.367612  -0.022948  -0.023783  -0.021362   0.002780
     2  C    0.367612   5.335694   0.269738   0.385023   0.338816  -0.049409
     3  H   -0.022948   0.269738   0.688063  -0.046064  -0.037887   0.002234
     4  H   -0.023783   0.385023  -0.046064   0.561663  -0.039435   0.000570
     5  C   -0.021362   0.338816  -0.037887  -0.039435   4.716734   0.328677
     6  O    0.002780  -0.049409   0.002234   0.000570   0.328677   8.539318
     7  N    0.003809  -0.141086   0.023827  -0.003828   0.202138  -0.090330
     8  H   -0.000074   0.009905  -0.007412   0.004168  -0.010721   0.006108
     9  C   -0.000174   0.012192  -0.001813   0.000357   0.011366   0.017518
    10  H    0.000003   0.000330  -0.000087   0.000063   0.003262   0.003733
    11  C    0.000004  -0.001062   0.000467  -0.000042  -0.014099  -0.001656
    12  H    0.000001   0.000087  -0.000077   0.000003   0.003599   0.000300
    13  H    0.000000  -0.000004   0.000003   0.000000  -0.000432  -0.000103
    14  H    0.000000   0.000157  -0.000129   0.000011   0.002615   0.000127
    15  C    0.000047  -0.000685  -0.000026  -0.000052   0.007334   0.022632
    16  O   -0.000081  -0.004270   0.000632  -0.000232   0.004616  -0.484743
    17  N    0.000000  -0.000025   0.000002  -0.000001  -0.001497  -0.001514
    18  H    0.000000   0.000004   0.000000   0.000000   0.000207   0.000479
    19  C    0.000000   0.000000   0.000000   0.000000   0.000006  -0.000318
    20  H    0.000000   0.000003   0.000000   0.000000  -0.000013   0.001250
    21  H    0.000000   0.000000   0.000000   0.000000   0.000000  -0.000013
    22  H    0.000000   0.000000   0.000000   0.000000   0.000005   0.000051
              7          8          9         10         11         12
     1  H    0.003809  -0.000074  -0.000174   0.000003   0.000004   0.000001
     2  C   -0.141086   0.009905   0.012192   0.000330  -0.001062   0.000087
     3  H    0.023827  -0.007412  -0.001813  -0.000087   0.000467  -0.000077
     4  H   -0.003828   0.004168   0.000357   0.000063  -0.000042   0.000003
     5  C    0.202138  -0.010721   0.011366   0.003262  -0.014099   0.003599
     6  O   -0.090330   0.006108   0.017518   0.003733  -0.001656   0.000300
     7  N    7.313279   0.259964   0.125076  -0.055469  -0.002707  -0.006053
     8  H    0.259964   0.442752  -0.014377   0.004473  -0.013637   0.000508
     9  C    0.125076  -0.014377   5.042279   0.382734   0.306805  -0.022306
    10  H   -0.055469   0.004473   0.382734   0.648056  -0.077838   0.006843
    11  C   -0.002707  -0.013637   0.306805  -0.077838   5.246404   0.359935
    12  H   -0.006053   0.000508  -0.022306   0.006843   0.359935   0.544282
    13  H    0.007109  -0.000488  -0.035008  -0.003242   0.367534  -0.026940
    14  H   -0.019110   0.010267  -0.018511   0.003754   0.295988  -0.023552
    15  C   -0.017435   0.001500   0.405318  -0.058022  -0.050573   0.000311
    16  O    0.025969  -0.001761  -0.098466  -0.003799   0.003955  -0.000383
    17  N    0.005285  -0.000236  -0.101301  -0.008873   0.002161  -0.002997
    18  H   -0.000521   0.000087  -0.001637   0.010539   0.000154   0.000963
    19  C   -0.000079   0.000003   0.005390  -0.000069   0.000142  -0.000071
    20  H   -0.000035   0.000002   0.001086   0.000067  -0.000060   0.000015
    21  H    0.000001   0.000000  -0.000266  -0.000004  -0.000005   0.000000
    22  H   -0.000004   0.000000   0.000145   0.000045   0.000059   0.000039
             13         14         15         16         17         18
     1  H    0.000000   0.000000   0.000047  -0.000081   0.000000   0.000000
     2  C   -0.000004   0.000157  -0.000685  -0.004270  -0.000025   0.000004
     3  H    0.000003  -0.000129  -0.000026   0.000632   0.000002   0.000000
     4  H    0.000000   0.000011  -0.000052  -0.000232  -0.000001   0.000000
     5  C   -0.000432   0.002615   0.007334   0.004616  -0.001497   0.000207
     6  O   -0.000103   0.000127   0.022632  -0.484743  -0.001514   0.000479
     7  N    0.007109  -0.019110  -0.017435   0.025969   0.005285  -0.000521
     8  H   -0.000488   0.010267   0.001500  -0.001761  -0.000236   0.000087
     9  C   -0.035008  -0.018511   0.405318  -0.098466  -0.101301  -0.001637
    10  H   -0.003242   0.003754  -0.058022  -0.003799  -0.008873   0.010539
    11  C    0.367534   0.295988  -0.050573   0.003955   0.002161   0.000154
    12  H   -0.026940  -0.023552   0.000311  -0.000383  -0.002997   0.000963
    13  H    0.600952  -0.040144  -0.014712   0.000481   0.014792  -0.005395
    14  H   -0.040144   0.663192   0.006367  -0.000407  -0.001212   0.001586
    15  C   -0.014712   0.006367   4.768444   0.264387   0.184662  -0.008052
    16  O    0.000481  -0.000407   0.264387   8.665457  -0.048342   0.001490
    17  N    0.014792  -0.001212   0.184662  -0.048342   7.192373   0.218935
    18  H   -0.005395   0.001586  -0.008052   0.001490   0.218935   0.517700
    19  C   -0.000064   0.000013  -0.045018  -0.008488   0.308235  -0.036654
    20  H   -0.000051   0.000003   0.007600   0.014500  -0.041944   0.006817
    21  H    0.000020   0.000000  -0.000634   0.000195  -0.041918  -0.004520
    22  H   -0.000250   0.000004   0.011897   0.000807  -0.069348   0.010188
             19         20         21         22
     1  H    0.000000   0.000000   0.000000   0.000000
     2  C    0.000000   0.000003   0.000000   0.000000
     3  H    0.000000   0.000000   0.000000   0.000000
     4  H    0.000000   0.000000   0.000000   0.000000
     5  C    0.000006  -0.000013   0.000000   0.000005
     6  O   -0.000318   0.001250  -0.000013   0.000051
     7  N   -0.000079  -0.000035   0.000001  -0.000004
     8  H    0.000003   0.000002   0.000000   0.000000
     9  C    0.005390   0.001086  -0.000266   0.000145
    10  H   -0.000069   0.000067  -0.000004   0.000045
    11  C    0.000142  -0.000060  -0.000005   0.000059
    12  H   -0.000071   0.000015   0.000000   0.000039
    13  H   -0.000064  -0.000051   0.000020  -0.000250
    14  H    0.000013   0.000003   0.000000   0.000004
    15  C   -0.045018   0.007600  -0.000634   0.011897
    16  O   -0.008488   0.014500   0.000195   0.000807
    17  N    0.308235  -0.041944  -0.041918  -0.069348
    18  H   -0.036654   0.006817  -0.004520   0.010188
    19  C    4.982946   0.357563   0.390973   0.345767
    20  H    0.357563   0.507322  -0.030004  -0.013601
    21  H    0.390973  -0.030004   0.580386  -0.045051
    22  H    0.345767  -0.013601  -0.045051   0.620435
 Mulliken atomic charges:
              1
     1  H    0.174387
     2  C   -0.523018
     3  H    0.131480
     4  H    0.161579
     5  C    0.506070
     6  O   -0.297690
     7  N   -0.629801
     8  H    0.308969
     9  C   -0.016407
    10  H    0.143503
    11  C   -0.421929
    12  H    0.165494
    13  H    0.135944
    14  H    0.118982
    15  C    0.514710
    16  O   -0.331520
    17  N   -0.607237
    18  H    0.287631
    19  C   -0.300277
    20  H    0.189479
    21  H    0.150840
    22  H    0.138812
 Sum of Mulliken atomic charges =   0.00000
 Mulliken charges with hydrogens summed into heavy atoms:
              1
     2  C   -0.055572
     5  C    0.506070
     6  O   -0.297690
     7  N   -0.320832
     9  C    0.127096
    11  C   -0.001508
    15  C    0.514710
    16  O   -0.331520
    17  N   -0.319607
    19  C    0.178854
 Sum of Mulliken charges with hydrogens summed into heavy atoms =   0.00000
 APT atomic charges:
              1
     1  H    0.533241
     2  C   -1.169635
     3  H    0.245153
     4  H    0.507065
     5  C    0.168818
     6  O   -0.357438
     7  N   -0.847977
     8  H    0.695133
     9  C   -0.355442
    10  H    0.408954
    11  C   -1.108496
    12  H    0.288944
    13  H    0.408966
    14  H    0.421068
    15  C    0.140411
    16  O   -0.070893
    17  N   -0.558631
    18  H    0.539764
    19  C   -1.240985
    20  H    0.287566
    21  H    0.569608
    22  H    0.494805
 Sum of APT charges=   0.00000
 APT Atomic charges with hydrogens summed into heavy atoms:
              1
     1  H    0.000000
     2  C    0.115825
     3  H    0.000000
     4  H    0.000000
     5  C    0.168818
     6  O   -0.357438
     7  N   -0.152844
     8  H    0.000000
     9  C    0.053512
    10  H    0.000000
    11  C    0.010482
    12  H    0.000000
    13  H    0.000000
    14  H    0.000000
    15  C    0.140411
    16  O   -0.070893
    17  N   -0.018867
    18  H    0.000000
    19  C    0.110994
    20  H    0.000000
    21  H    0.000000
    22  H    0.000000
 Sum of APT charges=   0.00000
 Electronic spatial extent (au):  <R**2>=           1628.7257
 Charge=              0.0000 electrons
 Dipole moment (field-independent basis, Debye):
    X=              0.6233    Y=              3.0422    Z=             -1.1212  Tot=              3.3015
 Quadrupole moment (field-independent basis, Debye-Ang):
   XX=            -51.7296   YY=            -60.2023   ZZ=            -60.6848
   XY=             -1.5807   XZ=              0.4437   YZ=             -1.1305
 Traceless Quadrupole moment (field-independent basis, Debye-Ang):
   XX=              5.8093   YY=             -2.6634   ZZ=             -3.1459
   XY=             -1.5807   XZ=              0.4437   YZ=             -1.1305
 Octapole moment (field-independent basis, Debye-Ang**2):
  XXX=             10.2168  YYY=             -3.4281  ZZZ=              0.5195  XYY=              0.6703
  XXY=              0.0911  XXZ=             -5.9757  XZZ=             -0.4576  YZZ=             -2.3207
  YYZ=             -3.2099  XYZ=              0.4250
 Hexadecapole moment (field-independent basis, Debye-Ang**3):
 XXXX=          -1419.2443 YYYY=           -573.1296 ZZZZ=           -116.2618 XXXY=              3.0915
 XXXZ=             10.1380 YYYX=             -9.9849 YYYZ=            -11.3053 ZZZX=              0.5806
 ZZZY=             -2.6311 XXYY=           -312.9683 XXZZ=           -264.6591 YYZZ=           -114.7789
 XXYZ=             -7.7004 YYXZ=              0.0055 ZZXY=             -0.8271
 N-N= 5.870870642049D+02 E-N=-2.331110530234D+03  KE= 4.925585445703D+02
  Exact polarizability:   0.000   0.000   0.000   0.000   0.000   0.000
 Approx polarizability: 333.717  33.328 191.441   0.545 -22.307  88.999
 Calling FoFJK, ICntrl=    100147 FMM=F ISym2X=0 I1Cent= 0 IOpClX= 0 NMat=1 NMatS=1 NMatT=0.
 ***** Axes restored to original set *****
 -------------------------------------------------------------------
 Center     Atomic                   Forces (Hartrees/Bohr)
 Number     Number              X              Y              Z
 -------------------------------------------------------------------
      1        1           0.001135051    0.001503829   -0.000378711
      2        6           0.016200382    0.008059127   -0.030827195
      3        1          -0.012493889   -0.014421450   -0.005351411
      4        1           0.001159649   -0.001734515    0.003226897
      5        6          -0.057148436   -0.064511909   -0.004751384
      6        8          -0.225717369   -0.054652881    0.100424491
      7        7           0.042328348   -0.021298954    0.012382400
      8        1          -0.000229322   -0.000779820    0.005774810
      9        6           0.001916107    0.015576620   -0.029791242
     10        1           0.001691304   -0.002636948    0.007980251
     11        6          -0.003338466   -0.007186932    0.002656745
     12        1           0.000142707    0.000162618   -0.002431125
     13        1           0.003104894   -0.003066171   -0.003930427
     14        1           0.005904187   -0.008161023   -0.003534511
     15        6           0.044836405   -0.077024313   -0.006628648
     16        8           0.135203589    0.195259006   -0.077552091
     17        7           0.029718701    0.029699379    0.022899971
     18        1           0.005145514    0.001028100    0.013283309
     19        6           0.006278912   -0.007235135   -0.001159542
     20        1          -0.000431425   -0.001954412   -0.000139971
     21        1           0.000171048    0.006600749    0.002460196
     22        1           0.004422110    0.006775037   -0.004612813
 -------------------------------------------------------------------
 Cartesian Forces:  Max     0.225717369 RMS     0.047698288

 GradGradGradGradGradGradGradGradGradGradGradGradGradGradGradGradGradGrad
 Berny optimization.
 Internal  Forces:  Max     0.252523155 RMS     0.030916242
 Search for a local minimum.
 Step number   1 out of a maximum of  132
 All quantities printed in internal units (Hartrees-Bohrs-Radians)
 Mixed Optimization -- RFO/linear search
 Second derivative matrix not updated -- analytic derivatives used.
     Eigenvalues ---   -2.31137  -0.00791  -0.00402  -0.00275  -0.00074
     Eigenvalues ---   -0.00033   0.00137   0.00375   0.00695   0.01800
     Eigenvalues ---    0.03718   0.04282   0.04697   0.04904   0.05920
     Eigenvalues ---    0.06023   0.06082   0.06437   0.06532   0.10627
     Eigenvalues ---    0.11581   0.12041   0.12510   0.12900   0.13413
     Eigenvalues ---    0.13473   0.14033   0.14914   0.15918   0.16316
     Eigenvalues ---    0.17696   0.18255   0.19011   0.19426   0.20979
     Eigenvalues ---    0.21491   0.22054   0.26512   0.29030   0.32140
     Eigenvalues ---    0.32977   0.33256   0.33814   0.34240   0.34499
     Eigenvalues ---    0.35134   0.35205   0.35506   0.35740   0.35777
     Eigenvalues ---    0.36928   0.39784   0.43736   0.45386   0.49420
     Eigenvalues ---    0.55727   0.65175   0.807671000.000001000.00000
     Eigenvalues --- 1000.000001000.000001000.000001000.000001000.00000
     Eigenvalues --- 1000.000001000.000001000.000001000.000001000.00000
     Eigenvalues --- 1000.000001000.000001000.000001000.000001000.00000
     Eigenvalues --- 1000.000001000.000001000.000001000.000001000.00000
     Eigenvalues --- 1000.000001000.000001000.000001000.000001000.00000
     Eigenvalues --- 1000.000001000.000001000.000001000.000001000.00000
     Eigenvalues --- 1000.000001000.000001000.000001000.000001000.00000
     Eigenvalues --- 1000.000001000.000001000.000001000.000001000.00000
     Eigenvalues --- 1000.000001000.000001000.000001000.000001000.00000
     Eigenvalues --- 1000.00000
 RFO step:  Lambda=-2.32673128D+00 EMin=-2.31137453D+00
 Linear search not attempted -- first point.
 Maximum step size (   0.300) exceeded in Quadratic search.
    -- Step size scaled by   0.316
 Iteration  1 RMS(Cart)=  0.04850786 RMS(Int)=  0.00179966
 Iteration  2 RMS(Cart)=  0.00278502 RMS(Int)=  0.00030384
 Iteration  3 RMS(Cart)=  0.00000346 RMS(Int)=  0.00030383
 Iteration  4 RMS(Cart)=  0.00000000 RMS(Int)=  0.00030383
 Iteration  1 RMS(Cart)=  0.00013405 RMS(Int)=  0.00008797
 Iteration  2 RMS(Cart)=  0.00009302 RMS(Int)=  0.00009530
 Iteration  3 RMS(Cart)=  0.00006680 RMS(Int)=  0.00010822
 Iteration  4 RMS(Cart)=  0.00004960 RMS(Int)=  0.00012085
 Iteration  5 RMS(Cart)=  0.00003796 RMS(Int)=  0.00013194
 Iteration  6 RMS(Cart)=  0.00002978 RMS(Int)=  0.00014143
 Iteration  7 RMS(Cart)=  0.00002382 RMS(Int)=  0.00014950
 Iteration  8 RMS(Cart)=  0.00001934 RMS(Int)=  0.00015635
 Iteration  9 RMS(Cart)=  0.00001587 RMS(Int)=  0.00016217
 Iteration 10 RMS(Cart)=  0.00001312 RMS(Int)=  0.00016712
 Iteration 11 RMS(Cart)=  0.00001091 RMS(Int)=  0.00017132
 Iteration 12 RMS(Cart)=  0.00000911 RMS(Int)=  0.00017489
 Iteration 13 RMS(Cart)=  0.00000762 RMS(Int)=  0.00017792
 Iteration 14 RMS(Cart)=  0.00000639 RMS(Int)=  0.00018049
 Iteration 15 RMS(Cart)=  0.00000537 RMS(Int)=  0.00018266
 Iteration 16 RMS(Cart)=  0.00000451 RMS(Int)=  0.00018450
 Iteration 17 RMS(Cart)=  0.00000380 RMS(Int)=  0.00018606
 Iteration 18 RMS(Cart)=  0.00000320 RMS(Int)=  0.00018738
 Iteration 19 RMS(Cart)=  0.00000269 RMS(Int)=  0.00018849
 Iteration 20 RMS(Cart)=  0.00000227 RMS(Int)=  0.00018943
 Iteration 21 RMS(Cart)=  0.00000191 RMS(Int)=  0.00019022
 Iteration 22 RMS(Cart)=  0.00000161 RMS(Int)=  0.00019089
 Iteration 23 RMS(Cart)=  0.00000136 RMS(Int)=  0.00019146
 Iteration 24 RMS(Cart)=  0.00000114 RMS(Int)=  0.00019194
 Iteration 25 RMS(Cart)=  0.00000096 RMS(Int)=  0.00019234
 Variable       Old X    -DE/DX   Delta X   Delta X   Delta X     New X
                                 (Linear)    (Quad)   (Total)
    R1        2.05976   0.00001   0.00000  -0.00098  -0.00098   2.05878
    R2        2.05977   0.01293   0.00000   0.00080   0.00080   2.06058
    R3        2.05977   0.00361   0.00000   0.00010   0.00010   2.05987
    R4        2.89114  -0.00164   0.00000   0.00954   0.00954   2.90069
    R5        2.32260   0.07843   0.00000  -0.05117  -0.05124   2.27136
    R6        2.52279   0.05661   0.00000   0.00760   0.00762   2.53041
    R7        2.68785   0.25252   0.00000   0.21764   0.21758   2.90543
    R8        1.90871   0.00079   0.00000   0.00483   0.00483   1.91353
    R9        2.73817   0.02459   0.00000   0.01989   0.01995   2.75812
   R10        2.05975   0.00810   0.00000   0.00027   0.00027   2.06001
   R11        2.88188   0.01363   0.00000   0.00312   0.00312   2.88501
   R12        2.87618   0.01921   0.00000   0.01550   0.01553   2.89171
   R13        2.05972   0.00198   0.00000   0.00018   0.00018   2.05990
   R14        2.05984   0.00126   0.00000  -0.00044  -0.00044   2.05940
   R15        2.05966   0.00892   0.00000   0.00065   0.00065   2.06031
   R16        2.32260   0.09853   0.00000  -0.04475  -0.04473   2.27787
   R17        2.52270   0.05692   0.00000  -0.00791  -0.00791   2.51479
   R18        1.90869   0.00406   0.00000   0.01155   0.01155   1.92024
   R19        2.73821   0.00418   0.00000   0.00070   0.00070   2.73891
   R20        2.05981  -0.00025   0.00000   0.00018   0.00018   2.05999
   R21        2.05970   0.00429   0.00000  -0.00068  -0.00068   2.05902
   R22        2.05970   0.00812   0.00000  -0.00073  -0.00073   2.05897
    A1        1.91114  -0.00604   0.00000   0.00045   0.00045   1.91159
    A2        1.91114   0.00122   0.00000   0.00014   0.00013   1.91127
    A3        1.93909  -0.00630   0.00000  -0.00364  -0.00363   1.93545
    A4        1.91009  -0.00728   0.00000  -0.00325  -0.00325   1.90684
    A5        1.89606   0.02397   0.00000   0.00637   0.00637   1.90242
    A6        1.89606  -0.00551   0.00000  -0.00007  -0.00007   1.89598
    A7        2.10313   0.00749   0.00000   0.01889   0.01896   2.12209
    A8        2.03517  -0.00107   0.00000  -0.00732  -0.00722   2.02795
    A9        2.14488  -0.00642   0.00000  -0.01157  -0.01203   2.13285
   A10        2.10762  -0.03558   0.00000  -0.01050  -0.01111   2.09651
   A11        2.09427  -0.02070   0.00000  -0.00694  -0.00686   2.08740
   A12        2.12770   0.04100   0.00000   0.02461   0.02417   2.15187
   A13        2.06122  -0.02030   0.00000  -0.01767  -0.01759   2.04362
   A14        1.91114  -0.00852   0.00000   0.00158   0.00164   1.91278
   A15        1.93905  -0.01313   0.00000  -0.00843  -0.00836   1.93069
   A16        1.93900   0.02319   0.00000   0.01781   0.01762   1.95662
   A17        1.89609   0.00450   0.00000   0.00218   0.00211   1.89821
   A18        1.89608  -0.00687   0.00000  -0.00766  -0.00765   1.88843
   A19        1.88137   0.00076   0.00000  -0.00588  -0.00578   1.87559
   A20        1.91115  -0.00006   0.00000   0.00078   0.00077   1.91192
   A21        1.91106   0.00639   0.00000   0.00665   0.00665   1.91771
   A22        1.91110   0.00637   0.00000  -0.00566  -0.00566   1.90544
   A23        1.91011  -0.00313   0.00000  -0.00029  -0.00030   1.90980
   A24        1.91023  -0.00282   0.00000   0.00026   0.00025   1.91048
   A25        1.91015  -0.00675   0.00000  -0.00173  -0.00171   1.90844
   A26        2.10312   0.01092   0.00000  -0.01286  -0.01366   2.08946
   A27        2.03510  -0.00247   0.00000  -0.01656  -0.01682   2.01828
   A28        2.14497  -0.00845   0.00000   0.02943   0.02890   2.17387
   A29        2.14405  -0.03310   0.00000  -0.00748  -0.00794   2.13610
   A30        2.09439  -0.00067   0.00000   0.00745   0.00742   2.10181
   A31        2.12768   0.00769   0.00000  -0.00439  -0.00442   2.12326
   A32        2.06112  -0.00702   0.00000  -0.00306  -0.00308   2.05804
   A33        1.91102  -0.00564   0.00000  -0.00416  -0.00417   1.90685
   A34        1.91114   0.00771   0.00000  -0.00076  -0.00076   1.91037
   A35        1.91114   0.00597   0.00000  -0.00360  -0.00361   1.90753
   A36        1.91015  -0.00223   0.00000   0.00287   0.00287   1.91302
   A37        1.91015  -0.00088   0.00000   0.00381   0.00380   1.91395
   A38        1.91020  -0.00494   0.00000   0.00186   0.00185   1.91205
    D1        0.00000  -0.00413   0.00000   0.02122   0.02122   0.02122
    D2        3.14159  -0.00102   0.00000  -0.00432  -0.00431   3.13729
    D3        2.10335   0.00000   0.00000   0.02365   0.02364   2.12699
    D4       -1.03824   0.00311   0.00000  -0.00189  -0.00189  -1.04013
    D5       -2.10335   0.00182   0.00000   0.02335   0.02334  -2.08001
    D6        1.03824   0.00493   0.00000  -0.00219  -0.00218   1.03606
    D7        3.14159   0.02949   0.00000   0.03158   0.03070  -3.11089
    D8        0.00000   0.02618   0.00000   0.05878   0.05777   0.05777
    D9        0.00000  -0.01356   0.00000  -0.00521  -0.00554  -0.00554
   D10        3.14159  -0.01161   0.00000  -0.03138  -0.03195   3.10965
   D11        3.14159  -0.01037   0.00000  -0.03141  -0.03124   3.11035
   D12        0.00000  -0.00842   0.00000  -0.05759  -0.05765  -0.05765
   D13        0.00000  -0.03289   0.00000   0.00414   0.00424   0.00424
   D14        2.09439  -0.00386   0.00000   0.00274   0.00280   2.09719
   D15       -2.09435  -0.01210   0.00000   0.00116   0.00122  -2.09314
   D16        0.00000  -0.00442   0.00000   0.00000   0.00001   0.00001
   D17       -1.04720  -0.00195   0.00000  -0.02295  -0.02299  -1.07019
   D18        1.04724  -0.01019   0.00000  -0.02453  -0.02457   1.02267
   D19        3.14159  -0.00250   0.00000  -0.02570  -0.02578   3.11581
   D20        1.04724   0.01229   0.00000   0.00767   0.00759   1.05483
   D21        3.14157   0.01234   0.00000   0.01186   0.01180  -3.12982
   D22       -1.04726   0.01189   0.00000   0.01035   0.01027  -1.03699
   D23       -3.13259  -0.00347   0.00000   0.00582   0.00582  -3.12677
   D24       -1.03826  -0.00343   0.00000   0.01001   0.01003  -1.02824
   D25        1.05609  -0.00388   0.00000   0.00850   0.00850   1.06459
   D26       -1.08102  -0.00877   0.00000  -0.00531  -0.00524  -1.08627
   D27        1.01331  -0.00873   0.00000  -0.00111  -0.00104   1.01227
   D28        3.10766  -0.00918   0.00000  -0.00262  -0.00256   3.10510
   D29        0.00000  -0.00194   0.00000   0.05759   0.05762   0.05762
   D30        3.14159  -0.01247   0.00000   0.00000   0.00001  -3.14159
   D31       -2.10332  -0.00130   0.00000   0.04956   0.04964  -2.05367
   D32        1.03828  -0.01183   0.00000  -0.00802  -0.00797   1.03030
   D33        2.12829  -0.00335   0.00000   0.05432   0.05433   2.18262
   D34       -1.01330  -0.01388   0.00000  -0.00326  -0.00328  -1.01659
   D35        0.00000   0.01935   0.00000  -0.06256  -0.06169  -0.06169
   D36        3.14159   0.03056   0.00000  -0.00123   0.00139  -3.14020
   D37        0.00000  -0.00464   0.00000   0.04835   0.04916   0.04916
   D38        3.14159  -0.00153   0.00000   0.06199   0.06285  -3.07875
   D39        3.14159  -0.01544   0.00000  -0.01075  -0.01160   3.12999
   D40        0.00000  -0.01234   0.00000   0.00289   0.00208   0.00208
   D41        0.00000  -0.00222   0.00000  -0.01320  -0.01318  -0.01318
   D42        2.09435  -0.00368   0.00000  -0.01270  -0.01269   2.08167
   D43       -2.09435  -0.00134   0.00000  -0.01311  -0.01309  -2.10744
   D44        3.14159   0.00083   0.00000   0.00019   0.00017  -3.14142
   D45       -1.04724  -0.00063   0.00000   0.00069   0.00067  -1.04657
   D46        1.04724   0.00170   0.00000   0.00029   0.00027   1.04751
         Item               Value     Threshold  Converged?
 Maximum Force            0.252631     0.000450     NO 
 RMS     Force            0.031065     0.000300     NO 
 Maximum Displacement     0.162642     0.001800     NO 
 RMS     Displacement     0.050583     0.001200     NO 
 Predicted change in Energy=-1.175175D-01
 GradGradGradGradGradGradGradGradGradGradGradGradGradGradGradGradGradGrad

                          Input orientation:                          
 ---------------------------------------------------------------------
 Center     Atomic      Atomic             Coordinates (Angstroms)
 Number     Number       Type             X           Y           Z
 ---------------------------------------------------------------------
      1          1           0        0.210241    4.440134   -0.029799
      2          6           0        1.099740    3.811128   -0.021466
      3          1           0        1.111107    3.184139   -0.913516
      4          1           0        1.088059    3.175880    0.864258
      5          6           0        2.374422    4.665908    0.004871
      6          8           0        2.326803    5.866523    0.035720
      7          7           0        3.534320    3.997063    0.022153
      8          1           0        3.527826    2.984485    0.022239
      9          6           0        4.837891    4.653394    0.009106
     10          1           0        5.395052    4.377550    0.904555
     11          6           0        5.640712    4.230103   -1.218516
     12          1           0        5.101542    4.513760   -2.122426
     13          1           0        6.615411    4.717469   -1.209931
     14          1           0        5.777529    3.148586   -1.201437
     15          6           0        4.714556    6.178234   -0.026243
     16          8           0        3.624571    6.690802    0.020507
     17          7           0        5.863982    6.848742   -0.039871
     18          1           0        6.749551    6.351338   -0.070061
     19          6           0        5.900291    8.296985    0.004305
     20          1           0        4.880642    8.681417    0.033425
     21          1           0        6.438255    8.619534    0.895233
     22          1           0        6.408098    8.671627   -0.883905
 ---------------------------------------------------------------------
                    Distance matrix (angstroms):
                    1          2          3          4          5
     1  H    0.000000
     2  C    1.089461   0.000000
     3  H    1.780460   1.090412   0.000000
     4  H    1.779955   1.090039   1.777942   0.000000
     5  C    2.176202   1.534978   2.152915   2.147897   0.000000
     6  O    2.553178   2.394494   3.094212   3.075796   1.201954
     7  N    3.353880   2.442059   2.721816   2.714346   1.339035
     8  H    3.623257   2.565317   2.599236   2.588066   2.039075
     9  C    4.632725   3.831987   4.110823   4.120142   2.463505
    10  H    5.268700   4.430356   4.804352   4.471669   3.164931
    11  C    5.563019   4.714753   4.658797   5.116247   3.515004
    12  H    5.320652   4.574073   4.376406   5.178634   3.462041
    13  H    6.518882   5.714589   5.721566   6.101669   4.411846
    14  H    5.833997   4.869599   4.675431   5.124350   3.916450
    15  C    4.828029   4.320892   4.768302   4.791514   2.786454
    16  O    4.089706   3.830020   4.414362   4.415936   2.379772
    17  N    6.145428   5.650260   6.064849   6.092356   4.116284
    18  H    6.812995   6.194787   6.521856   6.558122   4.689140
    19  C    6.874091   6.570301   7.065400   7.079746   5.061271
    20  H    6.309130   6.165869   6.732470   6.736832   4.733525
    21  H    7.557197   7.242985   7.822633   7.632753   5.739219
    22  H    7.553044   7.248925   7.627026   7.846154   5.753803
                    6          7          8          9         10
     6  O    0.000000
     7  N    2.225569   0.000000
     8  H    3.122303   1.012599   0.000000
     9  C    2.788898   1.459534   2.121721   0.000000
    10  H    3.519384   2.094213   2.491113   1.090113   0.000000
    11  C    3.902944   2.455699   2.748695   1.526680   2.142316
    12  H    3.766529   2.705990   3.068364   2.152310   3.044226
    13  H    4.611304   3.395605   3.748954   2.156324   2.464928
    14  H    4.563468   2.692410   2.566218   2.147739   2.468166
    15  C    2.408811   2.480485   3.407449   1.530228   2.138205
    16  O    1.537488   2.695251   3.707580   2.371351   3.044221
    17  N    3.671798   3.682831   4.515968   2.423801   2.686750
    18  H    4.450498   3.986079   4.660872   2.558070   2.584643
    19  C    4.321799   4.907898   5.818210   3.795322   4.053108
    20  H    3.800753   4.874000   5.855362   4.028323   4.421171
    21  H    5.022137   5.528322   6.402069   4.367682   4.368385
    22  H    5.036992   5.561573   6.438995   4.405589   4.760667
                   11         12         13         14         15
    11  C    0.000000
    12  H    1.090054   0.000000
    13  H    1.089787   1.779309   0.000000
    14  H    1.090270   1.780134   1.778626   0.000000
    15  C    2.464649   2.704481   2.673612   3.419029   0.000000
    16  O    3.413948   3.393099   3.788554   4.321535   1.205396
    17  N    2.880334   3.220325   2.544801   3.879158   1.330769
    18  H    2.654827   3.210113   1.996703   3.533052   2.042813
    19  C    4.254668   4.412910   3.846908   5.289130   2.428169
    20  H    4.686070   4.697431   4.502026   5.739469   2.509396
    21  H    4.936710   5.267869   4.437252   5.896088   3.127331
    22  H    4.519733   4.530881   3.972989   5.567982   3.133796
                   16         17         18         19         20
    16  O    0.000000
    17  N    2.245785   0.000000
    18  H    3.144668   1.016147   0.000000
    19  C    2.785495   1.449371   2.124221   0.000000
    20  H    2.353811   2.081112   2.988779   1.090101   0.000000
    21  H    3.521643   2.083245   2.484635   1.089585   1.781208
    22  H    3.534070   2.081193   2.482474   1.089561   1.781772
                   21         22
    21  H    0.000000
    22  H    1.780156   0.000000
 Stoichiometry    C6H12N2O2
 Framework group  C1[X(C6H12N2O2)]
 Deg. of freedom    60
 Full point group                 C1      NOp   1
 Largest Abelian subgroup         C1      NOp   1
 Largest concise Abelian subgroup C1      NOp   1
                         Standard orientation:                         
 ---------------------------------------------------------------------
 Center     Atomic      Atomic             Coordinates (Angstroms)
 Number     Number       Type             X           Y           Z
 ---------------------------------------------------------------------
      1          1           0       -3.647716   -1.519671    0.349920
      2          6           0       -3.350566   -0.507806    0.076503
      3          1           0       -3.717675    0.194732    0.825281
      4          1           0       -3.775950   -0.253293   -0.894299
      5          6           0       -1.822588   -0.390976   -0.011757
      6          8           0       -1.106564   -1.336419    0.183542
      7          7           0       -1.340211    0.812289   -0.347138
      8          1           0       -1.980914    1.574992   -0.529182
      9          6           0        0.086450    1.106589   -0.438051
     10          1           0        0.329142    1.430438   -1.450261
     11          6           0        0.469729    2.216446    0.537689
     12          1           0        0.246108    1.899654    1.556440
     13          1           0        1.533977    2.434516    0.451335
     14          1           0       -0.103069    3.113765    0.302293
     15          6           0        0.948397   -0.113706   -0.107107
     16          8           0        0.421053   -1.172249    0.126081
     17          7           0        2.264018    0.076824   -0.168617
     18          1           0        2.641484    0.996217   -0.380258
     19          6           0        3.200537   -1.008673    0.044235
     20          1           0        2.647837   -1.923315    0.259344
     21          1           0        3.804023   -1.148368   -0.852138
     22          1           0        3.848440   -0.765356    0.885759
 ---------------------------------------------------------------------
 Rotational constants (GHZ):      2.5151334      0.9366423      0.7160629
 Standard basis: 6-31G(d) (6D, 7F)
 There are   174 symmetry adapted basis functions of A   symmetry.
 Integral buffers will be    131072 words long.
 Raffenetti 2 integral format.
 Two-electron integral symmetry is turned on.
   174 basis functions,   328 primitive gaussians,   174 cartesian basis functions
    39 alpha electrons       39 beta electrons
       nuclear repulsion energy       583.7668656215 Hartrees.
 NAtoms=   22 NActive=   22 NUniq=   22 SFac= 7.50D-01 NAtFMM=   80 NAOKFM=F Big=F
 One-electron integrals computed using PRISM.
 NBasis=   174 RedAO= T  NBF=   174
 NBsUse=   174 1.00D-06 NBFU=   174
 Initial guess read from the read-write file.
 B after Tr=     0.000000    0.000000    0.000000
         Rot=    1.000000    0.000000    0.000000    0.000000 Ang=   0.00 deg.
 Initial guess orbital symmetries:
       Occupied  (A) (A) (A) (A) (A) (A) (A) (A) (A) (A) (A) (A)
                 (A) (A) (A) (A) (A) (A) (A) (A) (A) (A) (A) (A)
                 (A) (A) (A) (A) (A) (A) (A) (A) (A) (A) (A) (A)
                 (A) (A) (A)
       Virtual   (A) (A) (A) (A) (A) (A) (A) (A) (A) (A) (A) (A)
                 (A) (A) (A) (A) (A) (A) (A) (A) (A) (A) (A) (A)
                 (A) (A) (A) (A) (A) (A) (A) (A) (A) (A) (A) (A)
                 (A) (A) (A) (A) (A) (A) (A) (A) (A) (A) (A) (A)
                 (A) (A) (A) (A) (A) (A) (A) (A) (A) (A) (A) (A)
                 (A) (A) (A) (A) (A) (A) (A) (A) (A) (A) (A) (A)
                 (A) (A) (A) (A) (A) (A) (A) (A) (A) (A) (A) (A)
                 (A) (A) (A) (A) (A) (A) (A) (A) (A) (A) (A) (A)
                 (A) (A) (A) (A) (A) (A) (A) (A) (A) (A) (A) (A)
                 (A) (A) (A) (A) (A) (A) (A) (A) (A) (A) (A) (A)
                 (A) (A) (A) (A) (A) (A) (A) (A) (A) (A) (A) (A)
                 (A) (A) (A)
 Harris functional with IExCor=  402 diagonalized for initial guess.
 ExpMin= 1.61D-01 ExpMax= 5.48D+03 ExpMxC= 8.25D+02 IAcc=1 IRadAn=         1 AccDes= 0.00D+00
 HarFok:  IExCor=  402 AccDes= 0.00D+00 IRadAn=         1 IDoV= 1
 ScaDFX=  1.000000  1.000000  1.000000  1.000000
 FoFCou: FMM=F IPFlag=           0 FMFlag=      100000 FMFlg1=           0
         NFxFlg=           0 DoJE=T BraDBF=F KetDBF=T FulRan=T
         Omega=  0.000000  0.000000  1.000000  0.000000  0.000000 ICntrl=     500 IOpCl=  0
         NMat0=    1 NMatS0=    1 NMatT0=    0 NMatD0=    1 NMtDS0=    0 NMtDT0=    0
         I1Cent=           4 NGrid=           0.
 Petite list used in FoFCou.
 Requested convergence on RMS density matrix=1.00D-08 within 128 cycles.
 Requested convergence on MAX density matrix=1.00D-06.
 Requested convergence on             energy=1.00D-06.
 No special actions if energy rises.
 Integral accuracy reduced to 1.0D-05 until final iterations.
 Initial convergence to 1.0D-05 achieved.  Increase integral accuracy.
 SCF Done:  E(RB3LYP) =  -495.576421278     A.U. after   21 cycles
             Convg  =    0.2487D-08             -V/T =  2.0055
 Calling FoFJK, ICntrl=      2127 FMM=F ISym2X=0 I1Cent= 0 IOpClX= 0 NMat=1 NMatS=1 NMatT=0.
 ***** Axes restored to original set *****
 -------------------------------------------------------------------
 Center     Atomic                   Forces (Hartrees/Bohr)
 Number     Number              X              Y              Z
 -------------------------------------------------------------------
      1        1           0.003491831    0.002993485    0.000020435
      2        6           0.007383601   -0.013946373   -0.003097965
      3        1          -0.005435205   -0.007693199   -0.002962807
      4        1          -0.004564565   -0.006666248    0.002680418
      5        6          -0.060358995    0.006288355    0.003819115
      6        8          -0.326690153   -0.186131555    0.005879716
      7        7           0.029010738   -0.013027500    0.001392176
      8        1           0.000283797   -0.002367783   -0.000511215
      9        6           0.009078529   -0.007367711   -0.009298227
     10        1           0.003295515   -0.002058182    0.005958497
     11        6          -0.000625183   -0.006368886    0.003523562
     12        1           0.000558573   -0.000008600   -0.003678221
     13        1           0.004436813   -0.003142668   -0.003682539
     14        1           0.002911333   -0.004879328   -0.004169761
     15        6          -0.012616095    0.010276503    0.013688978
     16        8           0.302192378    0.223443482   -0.007616517
     17        7           0.027995479    0.004716610   -0.001689069
     18        1           0.010466015    0.002083285    0.000420077
     19        6           0.005184639   -0.001299979   -0.000940588
     20        1          -0.001160600   -0.003995752   -0.000095338
     21        1           0.002690323    0.004236816    0.002904384
     22        1           0.002471231    0.004915227   -0.002545111
 -------------------------------------------------------------------
 Cartesian Forces:  Max     0.326690153 RMS     0.066264333

 GradGradGradGradGradGradGradGradGradGradGradGradGradGradGradGradGradGrad
 Berny optimization.
 Using GEDIIS/GDIIS optimizer.
 Internal  Forces:  Max     0.384686755 RMS     0.039934218
 Search for a local minimum.
 Step number   2 out of a maximum of  132
 All quantities printed in internal units (Hartrees-Bohrs-Radians)
 Mixed Optimization -- RFO/linear search
 Update second derivatives using D2CorX and points    1    2
 DE= -9.04D-02 DEPred=-1.18D-01 R= 7.69D-01
 SS=  1.41D+00  RLast= 3.00D-01 DXNew= 5.0454D-01 8.9977D-01
 Trust test= 7.69D-01 RLast= 3.00D-01 DXMaxT set to 5.05D-01
 Use linear search instead of GDIIS.
     Eigenvalues ---   -0.89288  -0.00737  -0.00386  -0.00271  -0.00074
     Eigenvalues ---   -0.00032   0.00136   0.00374   0.00679   0.01528
     Eigenvalues ---    0.03668   0.04251   0.04697   0.04904   0.05912
     Eigenvalues ---    0.06018   0.06082   0.06436   0.06532   0.10602
     Eigenvalues ---    0.11582   0.12037   0.12459   0.12875   0.13415
     Eigenvalues ---    0.13475   0.13880   0.14935   0.15914   0.16286
     Eigenvalues ---    0.17685   0.18196   0.18993   0.19407   0.20951
     Eigenvalues ---    0.21427   0.21883   0.26505   0.29000   0.32142
     Eigenvalues ---    0.32938   0.33228   0.33797   0.34221   0.34498
     Eigenvalues ---    0.35125   0.35203   0.35500   0.35740   0.35776
     Eigenvalues ---    0.36887   0.39785   0.43740   0.45384   0.49307
     Eigenvalues ---    0.55724   0.65180   0.780681000.000001000.00000
     Eigenvalues --- 1000.000001000.000001000.000001000.000001000.00000
     Eigenvalues --- 1000.000001000.000001000.000001000.000001000.00000
     Eigenvalues --- 1000.000001000.000001000.000001000.000001000.00000
     Eigenvalues --- 1000.000001000.000001000.000001000.000001000.00000
     Eigenvalues --- 1000.000001000.000001000.000001000.000001000.00000
     Eigenvalues --- 1000.000001000.000001000.000001000.000001000.00000
     Eigenvalues --- 1000.000001000.000001000.000001000.000001000.00000
     Eigenvalues --- 1000.000001000.000001000.000001000.000001000.00000
     Eigenvalues --- 1000.000001000.000001000.000001000.000001000.00000
     Eigenvalues --- 1000.00000
 RFO step:  Lambda=-9.97065088D-01 EMin=-8.92884568D-01
 Skip linear search -- no minimum in search direction.
 Maximum step size (   0.505) exceeded in Quadratic search.
    -- Step size scaled by   0.431
 Iteration  1 RMS(Cart)=  0.06246932 RMS(Int)=  0.01807292
 Iteration  2 RMS(Cart)=  0.03003646 RMS(Int)=  0.00091545
 Iteration  3 RMS(Cart)=  0.00029143 RMS(Int)=  0.00090285
 Iteration  4 RMS(Cart)=  0.00000016 RMS(Int)=  0.00090285
 Iteration  1 RMS(Cart)=  0.00042540 RMS(Int)=  0.00032319
 Iteration  2 RMS(Cart)=  0.00031907 RMS(Int)=  0.00034598
 Iteration  3 RMS(Cart)=  0.00024616 RMS(Int)=  0.00039208
 Iteration  4 RMS(Cart)=  0.00019429 RMS(Int)=  0.00044247
 Iteration  5 RMS(Cart)=  0.00015605 RMS(Int)=  0.00049007
 Iteration  6 RMS(Cart)=  0.00012697 RMS(Int)=  0.00053272
 Iteration  7 RMS(Cart)=  0.00010429 RMS(Int)=  0.00056999
 Iteration  8 RMS(Cart)=  0.00008624 RMS(Int)=  0.00060217
 Iteration  9 RMS(Cart)=  0.00007166 RMS(Int)=  0.00062973
 Iteration 10 RMS(Cart)=  0.00005974 RMS(Int)=  0.00065323
 Iteration 11 RMS(Cart)=  0.00004993 RMS(Int)=  0.00067320
 Iteration 12 RMS(Cart)=  0.00004180 RMS(Int)=  0.00069013
 Iteration 13 RMS(Cart)=  0.00003504 RMS(Int)=  0.00070446
 Iteration 14 RMS(Cart)=  0.00002940 RMS(Int)=  0.00071657
 Iteration 15 RMS(Cart)=  0.00002468 RMS(Int)=  0.00072679
 Iteration 16 RMS(Cart)=  0.00002073 RMS(Int)=  0.00073542
 Iteration 17 RMS(Cart)=  0.00001741 RMS(Int)=  0.00074270
 Iteration 18 RMS(Cart)=  0.00001463 RMS(Int)=  0.00074883
 Iteration 19 RMS(Cart)=  0.00001230 RMS(Int)=  0.00075399
 Iteration 20 RMS(Cart)=  0.00001033 RMS(Int)=  0.00075834
 Iteration 21 RMS(Cart)=  0.00000869 RMS(Int)=  0.00076200
 Iteration 22 RMS(Cart)=  0.00000730 RMS(Int)=  0.00076509
 Iteration 23 RMS(Cart)=  0.00000614 RMS(Int)=  0.00076768
 Iteration 24 RMS(Cart)=  0.00000516 RMS(Int)=  0.00076986
 Iteration 25 RMS(Cart)=  0.00000434 RMS(Int)=  0.00077170
 Iteration 26 RMS(Cart)=  0.00000365 RMS(Int)=  0.00077324
 Iteration 27 RMS(Cart)=  0.00000307 RMS(Int)=  0.00077454
 Iteration 28 RMS(Cart)=  0.00000258 RMS(Int)=  0.00077563
 Iteration 29 RMS(Cart)=  0.00000217 RMS(Int)=  0.00077655
 Iteration 30 RMS(Cart)=  0.00000182 RMS(Int)=  0.00077732
 Iteration 31 RMS(Cart)=  0.00000153 RMS(Int)=  0.00077797
 Iteration 32 RMS(Cart)=  0.00000129 RMS(Int)=  0.00077852
 Iteration 33 RMS(Cart)=  0.00000108 RMS(Int)=  0.00077898
 Iteration 34 RMS(Cart)=  0.00000091 RMS(Int)=  0.00077937
 Variable       Old X    -DE/DX   Delta X   Delta X   Delta X     New X
                                 (Linear)    (Quad)   (Total)
    R1        2.05878  -0.00112   0.00000  -0.00204  -0.00204   2.05674
    R2        2.06058   0.00679   0.00000  -0.00573  -0.00573   2.05485
    R3        2.05987   0.00611   0.00000   0.00599   0.00599   2.06587
    R4        2.90069   0.01343   0.00000   0.02487   0.02487   2.92556
    R5        2.27136   0.01825   0.00000  -0.09549  -0.09553   2.17584
    R6        2.53041   0.05175   0.00000   0.01756   0.01824   2.54865
    R7        2.90543   0.38469   0.00000   0.39171   0.39119   3.29662
    R8        1.91353   0.00237   0.00000   0.00526   0.00526   1.91879
    R9        2.75812   0.03497   0.00000   0.03258   0.03305   2.79117
   R10        2.06001   0.00710   0.00000   0.00080   0.00080   2.06082
   R11        2.88501   0.01426   0.00000   0.00673   0.00673   2.89174
   R12        2.89171   0.03881   0.00000   0.04285   0.04258   2.93429
   R13        2.05990   0.00277   0.00000   0.00178   0.00178   2.06168
   R14        2.05940   0.00253   0.00000   0.00249   0.00249   2.06189
   R15        2.06031   0.00514   0.00000  -0.00316  -0.00316   2.05715
   R16        2.27787   0.02945   0.00000  -0.09781  -0.09803   2.17983
   R17        2.51479   0.04655   0.00000  -0.00423  -0.00423   2.51056
   R18        1.92024   0.00809   0.00000   0.01287   0.01287   1.93311
   R19        2.73891   0.00406   0.00000   0.00206   0.00206   2.74097
   R20        2.05999  -0.00033   0.00000   0.00011   0.00011   2.06010
   R21        2.05902   0.00496   0.00000   0.00195   0.00196   2.06097
   R22        2.05897   0.00492   0.00000  -0.00366  -0.00366   2.05531
    A1        1.91159  -0.00113   0.00000   0.00699   0.00691   1.91850
    A2        1.91127  -0.00062   0.00000  -0.00385  -0.00383   1.90744
    A3        1.93545  -0.01006   0.00000  -0.00912  -0.00915   1.92630
    A4        1.90684  -0.00695   0.00000  -0.00484  -0.00477   1.90207
    A5        1.90242   0.01055   0.00000  -0.01279  -0.01279   1.88963
    A6        1.89598   0.00829   0.00000   0.02367   0.02371   1.91969
    A7        2.12209   0.02673   0.00000   0.04116   0.04087   2.16296
    A8        2.02795  -0.01451   0.00000  -0.02493  -0.02521   2.00274
    A9        2.13285  -0.01220   0.00000  -0.01706  -0.01702   2.11583
   A10        2.09651  -0.03899   0.00000  -0.02327  -0.02457   2.07193
   A11        2.08740  -0.02654   0.00000  -0.01480  -0.01495   2.07245
   A12        2.15187   0.05375   0.00000   0.04280   0.04278   2.19465
   A13        2.04362  -0.02721   0.00000  -0.02856  -0.02861   2.01501
   A14        1.91278  -0.00479   0.00000   0.00172   0.00211   1.91489
   A15        1.93069  -0.01876   0.00000  -0.01153  -0.01166   1.91903
   A16        1.95662   0.02862   0.00000   0.02490   0.02436   1.98098
   A17        1.89821   0.00471   0.00000   0.00243   0.00226   1.90046
   A18        1.88843  -0.00919   0.00000  -0.01026  -0.01039   1.87804
   A19        1.87559  -0.00079   0.00000  -0.00785  -0.00731   1.86828
   A20        1.91192   0.00140   0.00000   0.00280   0.00278   1.91470
   A21        1.91771   0.00681   0.00000   0.01039   0.01038   1.92808
   A22        1.90544   0.00507   0.00000  -0.00719  -0.00718   1.89825
   A23        1.90980  -0.00365   0.00000  -0.00157  -0.00161   1.90819
   A24        1.91048  -0.00370   0.00000  -0.00127  -0.00127   1.90921
   A25        1.90844  -0.00596   0.00000  -0.00320  -0.00318   1.90526
   A26        2.08946   0.00117   0.00000  -0.02078  -0.02312   2.06634
   A27        2.01828  -0.01786   0.00000  -0.03513  -0.03465   1.98363
   A28        2.17387   0.01679   0.00000   0.05133   0.04931   2.22318
   A29        2.13610  -0.03238   0.00000  -0.01325  -0.01417   2.12193
   A30        2.10181   0.00531   0.00000   0.01289   0.01289   2.11470
   A31        2.12326   0.00271   0.00000  -0.00951  -0.00951   2.11374
   A32        2.05804  -0.00803   0.00000  -0.00336  -0.00336   2.05468
   A33        1.90685  -0.00792   0.00000  -0.00827  -0.00828   1.89857
   A34        1.91037   0.00460   0.00000  -0.00384  -0.00385   1.90653
   A35        1.90753   0.00562   0.00000  -0.00094  -0.00095   1.90659
   A36        1.91302   0.00076   0.00000   0.00649   0.00647   1.91950
   A37        1.91395   0.00049   0.00000   0.00409   0.00408   1.91803
   A38        1.91205  -0.00353   0.00000   0.00240   0.00240   1.91445
    D1        0.02122  -0.00052   0.00000   0.03514   0.03476   0.05598
    D2        3.13729   0.00022   0.00000  -0.00132  -0.00103   3.13626
    D3        2.12699  -0.00139   0.00000   0.02980   0.02953   2.15652
    D4       -1.04013  -0.00065   0.00000  -0.00665  -0.00626  -1.04639
    D5       -2.08001   0.00113   0.00000   0.03035   0.02999  -2.05002
    D6        1.03606   0.00187   0.00000  -0.00611  -0.00579   1.03026
    D7       -3.11089  -0.00018   0.00000  -0.02402  -0.02477  -3.13566
    D8        0.05777  -0.00099   0.00000   0.01469   0.01328   0.07105
    D9       -0.00554  -0.00237   0.00000   0.01676   0.01661   0.01107
   D10        3.10965  -0.00255   0.00000  -0.00945  -0.00910   3.10054
   D11        3.11035  -0.00101   0.00000  -0.01901  -0.01718   3.09318
   D12       -0.05765  -0.00119   0.00000  -0.04523  -0.04289  -0.10054
   D13        0.00424  -0.00099   0.00000   0.07154   0.07194   0.07618
   D14        2.09719   0.00320   0.00000   0.00437   0.00432   2.10151
   D15       -2.09314  -0.00579   0.00000   0.00124   0.00117  -2.09197
   D16        0.00001  -0.00053   0.00000   0.00000   0.00000   0.00001
   D17       -1.07019   0.00299   0.00000  -0.02107  -0.02050  -1.09069
[...]
    14  H    5.679002   4.785799   4.531897   5.226910   3.880457
    15  C    5.237080   4.534248   5.078882   4.647031   3.176247
    16  O    4.814536   4.309488   5.073372   4.390304   2.982522
    17  N    6.602905   5.860431   6.340564   5.904000   4.533599
    18  H    7.107254   6.287281   6.613632   6.372837   4.994324
    19  C    7.539664   6.913193   7.525023   6.906898   5.567126
    20  H    8.404720   7.713649   8.287068   7.609307   6.440002
    21  H    7.987709   7.437871   8.039418   7.565573   5.998196
    22  H    7.159576   6.626241   7.365308   6.542965   5.351680
                    6          7          8          9         10
     6  O    0.000000
     7  N    2.323392   0.000000
     8  H    3.129757   1.012868   0.000000
     9  C    3.198031   1.474130   2.036036   0.000000
    10  H    4.001173   2.074848   2.176063   1.099602   0.000000
    11  C    4.137655   2.440018   2.827488   1.545981   2.158158
    12  H    3.917284   2.778485   3.379068   2.180152   3.068272
    13  H    5.080177   3.411152   3.729229   2.219987   2.489771
    14  H    4.554015   2.581101   2.608387   2.173552   2.532135
    15  C    3.223952   2.585524   3.365550   1.550108   2.107816
    16  O    2.691196   2.953576   3.817517   2.460740   3.022459
    17  N    4.575093   3.775610   4.425328   2.434939   2.645334
    18  H    5.172838   4.007151   4.530051   2.548357   2.642683
    19  C    5.370476   5.041481   5.759103   3.816375   4.020162
    20  H    6.352143   5.803284   6.409612   4.485349   4.459777
    21  H    5.642078   5.529014   6.332144   4.351571   4.753245
    22  H    5.051046   5.073411   5.823341   4.060287   4.269457
                   11         12         13         14         15
    11  C    0.000000
    12  H    1.094206   0.000000
    13  H    1.096260   1.780572   0.000000
    14  H    1.094776   1.769734   1.761653   0.000000
    15  C    2.570877   2.816903   2.882086   3.511823   0.000000
    16  O    3.618760   3.670028   4.059323   4.498818   1.216507
    17  N    2.936387   3.258817   2.708060   3.953486   1.377051
    18  H    2.566495   3.015588   1.998407   3.522691   2.068118
    19  C    4.314197   4.455490   4.009942   5.365172   2.464931
    20  H    4.917818   5.202964   4.418895   5.909991   3.304553
    21  H    4.582040   4.480319   4.262495   5.669720   3.023744
    22  H    4.864012   4.985873   4.757204   5.893266   2.561170
                   16         17         18         19         20
    16  O    0.000000
    17  N    2.266668   0.000000
    18  H    3.154377   1.008670   0.000000
    19  C    2.779543   1.453868   2.117484   0.000000
    20  H    3.724446   2.094018   2.427028   1.094423   0.000000
    21  H    3.268556   2.129446   2.595768   1.098294   1.784145
    22  H    2.393277   2.068658   2.963286   1.090569   1.784916
                   21         22
    21  H    0.000000
    22  H    1.774631   0.000000
 Stoichiometry    C6H12N2O2
 Framework group  C1[X(C6H12N2O2)]
 Deg. of freedom    60
 Full point group                 C1      NOp   1
 Largest Abelian subgroup         C1      NOp   1
 Largest concise Abelian subgroup C1      NOp   1
                         Standard orientation:                         
 ---------------------------------------------------------------------
 Center     Atomic      Atomic             Coordinates (Angstroms)
 Number     Number       Type             X           Y           Z
 ---------------------------------------------------------------------
      1          1           0       -4.090873   -1.065102   -0.090173
      2          6           0       -3.428115   -0.350984   -0.580446
      3          1           0       -3.902383    0.638179   -0.579996
      4          1           0       -3.289792   -0.656425   -1.625059
      5          6           0       -2.084869   -0.351956    0.152297
      6          8           0       -1.802559   -1.199510    0.971448
      7          7           0       -1.306533    0.766819   -0.162420
      8          1           0       -1.794378    1.373518   -0.810360
      9          6           0        0.142780    0.987973   -0.316176
     10          1           0        0.306821    1.269062   -1.366511
     11          6           0        0.532828    2.192505    0.570966
     12          1           0        0.481534    1.914482    1.628018
     13          1           0        1.535570    2.580339    0.356767
     14          1           0       -0.171118    3.014313    0.404754
     15          6           0        1.078937   -0.228454   -0.099952
     16          8           0        0.711801   -1.381011    0.029328
     17          7           0        2.407088    0.093784   -0.268607
     18          1           0        2.688963    1.061882   -0.241234
     19          6           0        3.447155   -0.911721   -0.123855
     20          1           0        4.274979   -0.687063   -0.803560
     21          1           0        3.834322   -0.967458    0.902421
     22          1           0        3.016229   -1.879955   -0.381085
 ---------------------------------------------------------------------
 Rotational constants (GHZ):      2.3842394      0.7732590      0.6371589

 **********************************************************************

            Population analysis using the SCF density.

 **********************************************************************

 Orbital symmetries:
       Occupied  (A) (A) (A) (A) (A) (A) (A) (A) (A) (A) (A) (A)
                 (A) (A) (A) (A) (A) (A) (A) (A) (A) (A) (A) (A)
                 (A) (A) (A) (A) (A) (A) (A) (A) (A) (A) (A) (A)
                 (A) (A) (A)
       Virtual   (A) (A) (A) (A) (A) (A) (A) (A) (A) (A) (A) (A)
                 (A) (A) (A) (A) (A) (A) (A) (A) (A) (A) (A) (A)
                 (A) (A) (A) (A) (A) (A) (A) (A) (A) (A) (A) (A)
                 (A) (A) (A) (A) (A) (A) (A) (A) (A) (A) (A) (A)
                 (A) (A) (A) (A) (A) (A) (A) (A) (A) (A) (A) (A)
                 (A) (A) (A) (A) (A) (A) (A) (A) (A) (A) (A) (A)
                 (A) (A) (A) (A) (A) (A) (A) (A) (A) (A) (A) (A)
                 (A) (A) (A) (A) (A) (A) (A) (A) (A) (A) (A) (A)
                 (A) (A) (A) (A) (A) (A) (A) (A) (A) (A) (A) (A)
                 (A) (A) (A) (A) (A) (A) (A) (A) (A) (A) (A) (A)
                 (A) (A) (A) (A) (A) (A) (A) (A) (A) (A) (A) (A)
                 (A) (A) (A)
 The electronic state is 1-A.
 Alpha  occ. eigenvalues --  -19.10814 -19.09705 -14.35880 -14.35103 -10.28636
 Alpha  occ. eigenvalues --  -10.27748 -10.24884 -10.21578 -10.19693 -10.18341
 Alpha  occ. eigenvalues --   -1.03239  -1.01399  -0.91880  -0.91311  -0.78290
 Alpha  occ. eigenvalues --   -0.72229  -0.70337  -0.64961  -0.59019  -0.56788
 Alpha  occ. eigenvalues --   -0.51524  -0.49257  -0.45979  -0.45130  -0.44273
 Alpha  occ. eigenvalues --   -0.44071  -0.42830  -0.41572  -0.40392  -0.39059
 Alpha  occ. eigenvalues --   -0.38827  -0.38100  -0.37374  -0.35916  -0.33896
 Alpha  occ. eigenvalues --   -0.25902  -0.24770  -0.24425  -0.22075
 Alpha virt. eigenvalues --    0.02203   0.03360   0.06099   0.07885   0.11884
 Alpha virt. eigenvalues --    0.12738   0.13363   0.14590   0.15134   0.16108
 Alpha virt. eigenvalues --    0.16712   0.16779   0.17771   0.19201   0.19325
 Alpha virt. eigenvalues --    0.20395   0.23578   0.26377   0.27212   0.32679
 Alpha virt. eigenvalues --    0.34816   0.38305   0.41471   0.50109   0.51432
 Alpha virt. eigenvalues --    0.52003   0.52794   0.54783   0.55305   0.56209
 Alpha virt. eigenvalues --    0.57663   0.58838   0.61325   0.63228   0.65137
 Alpha virt. eigenvalues --    0.66523   0.69661   0.72672   0.72911   0.74083
 Alpha virt. eigenvalues --    0.75446   0.77896   0.79522   0.81221   0.84617
 Alpha virt. eigenvalues --    0.85080   0.85631   0.86926   0.87425   0.88242
 Alpha virt. eigenvalues --    0.89789   0.90547   0.90905   0.92722   0.93201
 Alpha virt. eigenvalues --    0.94069   0.94950   0.96716   0.97705   1.00327
 Alpha virt. eigenvalues --    1.03369   1.06544   1.07581   1.10992   1.15857
 Alpha virt. eigenvalues --    1.20916   1.24477   1.28047   1.30403   1.35327
 Alpha virt. eigenvalues --    1.38056   1.38769   1.40387   1.44726   1.48689
 Alpha virt. eigenvalues --    1.53058   1.53532   1.62786   1.66324   1.67898
 Alpha virt. eigenvalues --    1.72288   1.76725   1.77321   1.79637   1.82682
 Alpha virt. eigenvalues --    1.82884   1.85478   1.85972   1.87052   1.90350
 Alpha virt. eigenvalues --    1.92192   1.92984   1.98473   2.00186   2.02324
 Alpha virt. eigenvalues --    2.03520   2.06551   2.08635   2.09171   2.11934
 Alpha virt. eigenvalues --    2.19567   2.20225   2.21460   2.25614   2.30409
 Alpha virt. eigenvalues --    2.31906   2.34536   2.36349   2.38007   2.40599
 Alpha virt. eigenvalues --    2.44587   2.47023   2.51916   2.56232   2.58033
 Alpha virt. eigenvalues --    2.64189   2.65418   2.74315   2.75862   2.85286
 Alpha virt. eigenvalues --    2.93458   2.98790   3.01463   3.13515   3.18552
 Alpha virt. eigenvalues --    3.90376   3.98577   4.06745   4.09580   4.21509
 Alpha virt. eigenvalues --    4.23355   4.25593   4.43642   4.46961   4.62114
          Condensed to atoms (all electrons):
              1          2          3          4          5          6
     1  H    0.512001   0.355761  -0.023314  -0.020543  -0.020742   0.005704
     2  C    0.355761   5.376856   0.344604   0.351952   0.330035  -0.080376
     3  H   -0.023314   0.344604   0.572177  -0.029597  -0.024220   0.001768
     4  H   -0.020543   0.351952  -0.029597   0.546312  -0.020153   0.000542
     5  C   -0.020742   0.330035  -0.024220  -0.020153   4.321214   0.613239
     6  O    0.005704  -0.080376   0.001768   0.000542   0.613239   7.999052
     7  N    0.004882  -0.136043   0.005028   0.001575   0.234081  -0.086785
     8  H   -0.000054   0.003464   0.001408  -0.000163  -0.023199   0.003908
     9  C   -0.000124   0.006089   0.000084  -0.000304  -0.020758   0.001992
    10  H   -0.000002  -0.000179  -0.000003   0.000068   0.002024  -0.000001
    11  C    0.000004  -0.000252   0.000003   0.000003  -0.000128  -0.000329
    12  H    0.000000   0.000007  -0.000001   0.000000   0.000652   0.000049
    13  H    0.000000   0.000004   0.000000   0.000000  -0.000016   0.000000
    14  H    0.000000  -0.000016   0.000000   0.000000   0.000137   0.000005
    15  C    0.000001   0.000082  -0.000014   0.000009   0.003689   0.006187
    16  O    0.000003  -0.000264  -0.000001   0.000053   0.009049  -0.011663
    17  N    0.000000  -0.000001   0.000000   0.000000   0.000213   0.000000
    18  H    0.000000   0.000000   0.000000   0.000000   0.000001   0.000003
    19  C    0.000000   0.000000   0.000000   0.000000  -0.000002   0.000001
    20  H    0.000000   0.000000   0.000000   0.000000   0.000000   0.000000
    21  H    0.000000   0.000000   0.000000   0.000000   0.000000   0.000000
    22  H    0.000000   0.000000   0.000000   0.000000   0.000000   0.000004
              7          8          9         10         11         12
     1  H    0.004882  -0.000054  -0.000124  -0.000002   0.000004   0.000000
     2  C   -0.136043   0.003464   0.006089  -0.000179  -0.000252   0.000007
     3  H    0.005028   0.001408   0.000084  -0.000003   0.000003  -0.000001
     4  H    0.001575  -0.000163  -0.000304   0.000068   0.000003   0.000000
     5  C    0.234081  -0.023199  -0.020758   0.002024  -0.000128   0.000652
     6  O   -0.086785   0.003908   0.001992  -0.000001  -0.000329   0.000049
     7  N    7.187354   0.288132   0.238568  -0.042093  -0.067929   0.000182
     8  H    0.288132   0.445065  -0.030396  -0.007496   0.000116  -0.000188
     9  C    0.238568  -0.030396   5.103068   0.378376   0.322608  -0.030923
    10  H   -0.042093  -0.007496   0.378376   0.599072  -0.056574   0.005228
    11  C   -0.067929   0.000116   0.322608  -0.056574   5.186695   0.373802
    12  H    0.000182  -0.000188  -0.030923   0.005228   0.373802   0.526018
    13  H    0.005368  -0.000282  -0.025076  -0.000196   0.340376  -0.026757
    14  H   -0.002819   0.002525  -0.025740  -0.003529   0.365846  -0.026980
    15  C   -0.027487   0.003564   0.318880  -0.037308  -0.029890  -0.002799
    16  O    0.001303  -0.000103  -0.072008  -0.000088   0.001098   0.000333
    17  N    0.002539  -0.000095  -0.126151   0.002717   0.005484   0.000425
    18  H    0.000099  -0.000002   0.001569  -0.000073   0.002393  -0.000272
    19  C   -0.000062   0.000003   0.006148  -0.000151  -0.000185  -0.000074
    20  H    0.000000   0.000000  -0.000180   0.000007   0.000003   0.000001
    21  H    0.000003   0.000000   0.000167  -0.000004  -0.000056  -0.000001
    22  H   -0.000007   0.000000   0.000777  -0.000058  -0.000018  -0.000002
             13         14         15         16         17         18
     1  H    0.000000   0.000000   0.000001   0.000003   0.000000   0.000000
     2  C    0.000004  -0.000016   0.000082  -0.000264  -0.000001   0.000000
     3  H    0.000000   0.000000  -0.000014  -0.000001   0.000000   0.000000
     4  H    0.000000   0.000000   0.000009   0.000053   0.000000   0.000000
     5  C   -0.000016   0.000137   0.003689   0.009049   0.000213   0.000001
     6  O    0.000000   0.000005   0.006187  -0.011663   0.000000   0.000003
     7  N    0.005368  -0.002819  -0.027487   0.001303   0.002539   0.000099
     8  H   -0.000282   0.002525   0.003564  -0.000103  -0.000095  -0.000002
     9  C   -0.025076  -0.025740   0.318880  -0.072008  -0.126151   0.001569
    10  H   -0.000196  -0.003529  -0.037308  -0.000088   0.002717  -0.000073
    11  C    0.340376   0.365846  -0.029890   0.001098   0.005484   0.002393
    12  H   -0.026757  -0.026980  -0.002799   0.000333   0.000425  -0.000272
    13  H    0.603223  -0.028706  -0.005912  -0.000049  -0.001134   0.009003
    14  H   -0.028706   0.563209   0.003203  -0.000061   0.000038  -0.000142
    15  C   -0.005912   0.003203   4.365092   0.595596   0.247876  -0.021083
    16  O   -0.000049  -0.000061   0.595596   8.034817  -0.098228   0.003575
    17  N   -0.001134   0.000038   0.247876  -0.098228   7.117435   0.295012
    18  H    0.009003  -0.000142  -0.021083   0.003575   0.295012   0.417633
    19  C    0.000154   0.000005  -0.023251  -0.004349   0.272880  -0.031614
    20  H   -0.000010   0.000000   0.004082   0.000586  -0.038472  -0.001910
    21  H    0.000011  -0.000002  -0.002230   0.000636  -0.044219   0.000007
    22  H   -0.000001   0.000001  -0.001808   0.017936  -0.040334   0.004251
             19         20         21         22
     1  H    0.000000   0.000000   0.000000   0.000000
     2  C    0.000000   0.000000   0.000000   0.000000
     3  H    0.000000   0.000000   0.000000   0.000000
     4  H    0.000000   0.000000   0.000000   0.000000
     5  C   -0.000002   0.000000   0.000000   0.000000
     6  O    0.000001   0.000000   0.000000   0.000004
     7  N   -0.000062   0.000000   0.000003  -0.000007
     8  H    0.000003   0.000000   0.000000   0.000000
     9  C    0.006148  -0.000180   0.000167   0.000777
    10  H   -0.000151   0.000007  -0.000004  -0.000058
    11  C   -0.000185   0.000003  -0.000056  -0.000018
    12  H   -0.000074   0.000001  -0.000001  -0.000002
    13  H    0.000154  -0.000010   0.000011  -0.000001
    14  H    0.000005   0.000000  -0.000002   0.000001
    15  C   -0.023251   0.004082  -0.002230  -0.001808
    16  O   -0.004349   0.000586   0.000636   0.017936
    17  N    0.272880  -0.038472  -0.044219  -0.040334
    18  H   -0.031614  -0.001910   0.000007   0.004251
    19  C    4.945404   0.374485   0.386080   0.378657
    20  H    0.374485   0.572740  -0.040147  -0.021487
    21  H    0.386080  -0.040147   0.571704  -0.031352
    22  H    0.378657  -0.021487  -0.031352   0.491307
 Mulliken atomic charges:
              1
     1  H    0.186425
     2  C   -0.551723
     3  H    0.152078
     4  H    0.170246
     5  C    0.594886
     6  O   -0.453300
     7  N   -0.605891
     8  H    0.313793
     9  C   -0.046666
    10  H    0.160266
    11  C   -0.443069
    12  H    0.181300
    13  H    0.130000
    14  H    0.153028
    15  C    0.603521
    16  O   -0.478169
    17  N   -0.595985
    18  H    0.321549
    19  C   -0.304127
    20  H    0.150301
    21  H    0.159402
    22  H    0.202136
 Sum of Mulliken atomic charges =   0.00000
 Mulliken charges with hydrogens summed into heavy atoms:
              1
     2  C   -0.042973
     5  C    0.594886
     6  O   -0.453300
     7  N   -0.292098
     9  C    0.113600
    11  C    0.021259
    15  C    0.603521
    16  O   -0.478169
    17  N   -0.274436
    19  C    0.207711
 Sum of Mulliken charges with hydrogens summed into heavy atoms =   0.00000
 Electronic spatial extent (au):  <R**2>=           1854.6121
 Charge=              0.0000 electrons
 Dipole moment (field-independent basis, Debye):
    X=              1.8951    Y=              5.0041    Z=             -2.7557  Tot=              6.0188
 Quadrupole moment (field-independent basis, Debye-Ang):
   XX=            -47.6303   YY=            -61.9517   ZZ=            -60.7338
   XY=             -1.9223   XZ=              4.8049   YZ=              1.2114
 Traceless Quadrupole moment (field-independent basis, Debye-Ang):
   XX=              9.1416   YY=             -5.1798   ZZ=             -3.9619
   XY=             -1.9223   XZ=              4.8049   YZ=              1.2114
 Octapole moment (field-independent basis, Debye-Ang**2):
  XXX=             15.1150  YYY=              4.7363  ZZZ=              0.2680  XYY=              5.0079
  XXY=              2.3476  XXZ=             -8.8297  XZZ=              1.0966  YZZ=              0.8238
  YYZ=             -5.8510  XYZ=             -2.2071
 Hexadecapole moment (field-independent basis, Debye-Ang**3):
 XXXX=          -1570.6313 YYYY=           -531.2242 ZZZZ=           -154.2662 XXXY=             -4.7326
 XXXZ=             -1.5365 YYYX=             -7.2434 YYYZ=             -4.7506 ZZZX=              3.0013
 ZZZY=             -2.7239 XXYY=           -358.3208 XXZZ=           -319.1964 YYZZ=           -115.9162
 XXYZ=              0.0001 YYXZ=              5.2661 ZZXY=             -4.9447
 N-N= 5.530369091560D+02 E-N=-2.262394323807D+03  KE= 4.911950424266D+02
 1\1\GINC-NODE004\FOpt\RB3LYP\6-31G(d)\C6H12N2O2\STEBOSS\10-Feb-2017\0\
 \# b3lyp/6-31G* Opt=(ModRedundant, maxcycles=1000, calcfc) geom=nocrow
 d\\Phi Psi fixed scan\\0,1\H,0.0832508875,3.8661189092,-0.3459816088\C
 ,1.0628997855,3.6272749889,0.069736496\H,1.2904742881,2.572869173,-0.1
 297948301\H,1.0279636389,3.76302825,1.1578514337\C,2.0963945511,4.5718
 982876,-0.5473523204\O,1.7704127838,5.5452474796,-1.1918538702\N,3.407
 2230282,4.1204017104,-0.3619048058\H,3.416806485,3.2395541544,0.138012
 9206\C,4.6955575164,4.8001277899,-0.1355742158\H,5.0387910912,4.495641
 879,0.8637275287\C,5.7032165363,4.2595598609,-1.1759904957\H,5.4508397
 621,4.6311938524,-2.1737280964\H,6.7420540066,4.5286676951,-0.95197144
 88\H,5.6536003776,3.1662128034,-1.2017839853\C,4.6864221677,6.34907249
 79,-0.0762293833\O,3.6879429832,7.0431667968,-0.0421348138\N,5.9410602
 694,6.874340478,0.1388169884\H,6.7533208633,6.2993383639,-0.0255640886
 \C,6.1456349825,8.3100572897,0.2417667696\H,6.9651310294,8.5172670222,
 0.9369294318\H,6.3771171924,8.7696289505,-0.7285211762\H,5.2244857739,
 8.7541317671,0.6207435705\\Version=EM64L-G09RevA.02\State=1-A\HF=-495.
 8155045\RMSD=7.076e-09\RMSF=2.955e-03\Dipole=1.8338709,-1.266667,0.799
 8857\Quadrupole=1.1738546,1.9516318,-3.1254864,5.9910482,-2.5231596,-0
 .8536143\PG=C01 [X(C6H12N2O2)]\\@


 IF AT FIRST YOU DON'T SUCCEED, TRY, TRY AGAIN.
 THEN GIVE UP;
 THERE'S NO USE BEING A DAMN FOOL ABOUT IT.

                                 -- W. C. FIELDS
 Job cpu time:  0 days  7 hours 31 minutes 46.5 seconds.
 File lengths (MBytes):  RWF=    186 Int=      0 D2E=      0 Chk=      4 Scr=      2
 Normal termination of Gaussian 09 at Fri Feb 10 19:09:48 2017.
