 Entering Gaussian System, Link 0=g09
 Initial command:
 /home/steboss/Software/g09/l1.exe /home/steboss/projects/phi_psi_scan/alanine/0/4139/Gau-13474.inp -scrdir=/home/steboss/projects/phi_psi_scan/alanine/0/4139/
 Entering Link 1 = /home/steboss/Software/g09/l1.exe PID=     13481.
  
 Copyright (c) 1988,1990,1992,1993,1995,1998,2003,2009, Gaussian, Inc.
                  All Rights Reserved.
  
 This is part of the Gaussian(R) 09 program.  It is based on
 the Gaussian(R) 03 system (copyright 2003, Gaussian, Inc.),
 the Gaussian(R) 98 system (copyright 1998, Gaussian, Inc.),
 the Gaussian(R) 94 system (copyright 1995, Gaussian, Inc.),
 the Gaussian 92(TM) system (copyright 1992, Gaussian, Inc.),
 the Gaussian 90(TM) system (copyright 1990, Gaussian, Inc.),
 the Gaussian 88(TM) system (copyright 1988, Gaussian, Inc.),
 the Gaussian 86(TM) system (copyright 1986, Carnegie Mellon
 University), and the Gaussian 82(TM) system (copyright 1983,
 Carnegie Mellon University). Gaussian is a federally registered
 trademark of Gaussian, Inc.
  
 This software contains proprietary and confidential information,
 including trade secrets, belonging to Gaussian, Inc.
  
 This software is provided under written license and may be
 used, copied, transmitted, or stored only in accord with that
 written license.
  
 The following legend is applicable only to US Government
 contracts under FAR:
  
                    RESTRICTED RIGHTS LEGEND
  
 Use, reproduction and disclosure by the US Government is
 subject to restrictions as set forth in subparagraphs (a)
 and (c) of the Commercial Computer Software - Restricted
 Rights clause in FAR 52.227-19.
  
 Gaussian, Inc.
 340 Quinnipiac St., Bldg. 40, Wallingford CT 06492
  
  
 ---------------------------------------------------------------
 Warning -- This program may not be used in any manner that
 competes with the business of Gaussian, Inc. or will provide
 assistance to any competitor of Gaussian, Inc.  The licensee
 of this program is prohibited from giving any competitor of
 Gaussian, Inc. access to this program.  By using this program,
 the user acknowledges that Gaussian, Inc. is engaged in the
 business of creating and licensing software in the field of
 computational chemistry and represents and warrants to the
 licensee that it is not a competitor of Gaussian, Inc. and that
 it will not use this program in any manner prohibited above.
 ---------------------------------------------------------------
  

 Cite this work as:
 Gaussian 09, Revision A.02,
 M. J. Frisch, G. W. Trucks, H. B. Schlegel, G. E. Scuseria, 
 M. A. Robb, J. R. Cheeseman, G. Scalmani, V. Barone, B. Mennucci, 
 G. A. Petersson, H. Nakatsuji, M. Caricato, X. Li, H. P. Hratchian, 
 A. F. Izmaylov, J. Bloino, G. Zheng, J. L. Sonnenberg, M. Hada, 
 M. Ehara, K. Toyota, R. Fukuda, J. Hasegawa, M. Ishida, T. Nakajima, 
 Y. Honda, O. Kitao, H. Nakai, T. Vreven, J. A. Montgomery, Jr., 
 J. E. Peralta, F. Ogliaro, M. Bearpark, J. J. Heyd, E. Brothers, 
 K. N. Kudin, V. N. Staroverov, R. Kobayashi, J. Normand, 
 K. Raghavachari, A. Rendell, J. C. Burant, S. S. Iyengar, J. Tomasi, 
 M. Cossi, N. Rega, J. M. Millam, M. Klene, J. E. Knox, J. B. Cross, 
 V. Bakken, C. Adamo, J. Jaramillo, R. Gomperts, R. E. Stratmann, 
 O. Yazyev, A. J. Austin, R. Cammi, C. Pomelli, J. W. Ochterski, 
 R. L. Martin, K. Morokuma, V. G. Zakrzewski, G. A. Voth, 
 P. Salvador, J. J. Dannenberg, S. Dapprich, A. D. Daniels, 
 O. Farkas, J. B. Foresman, J. V. Ortiz, J. Cioslowski, 
 and D. J. Fox, Gaussian, Inc., Wallingford CT, 2009.
 
 ******************************************
 Gaussian 09:  EM64L-G09RevA.02 11-Jun-2009
                10-Feb-2017 
 ******************************************
 %chk=structure_255.chk
 %NProcShared=8
 Will use up to    8 processors via shared memory.
 ----------------------------------------------------------------------
 # b3lyp/6-31G* Opt=(ModRedundant, maxcycles=1000, calcfc) geom=nocrowd
 ----------------------------------------------------------------------
 1/6=1000,10=4,14=-1,18=120,19=15,26=3,38=1/1,3;
 2/9=110,12=1,17=6,18=5,40=1/2;
 3/5=1,6=6,7=1,11=2,16=1,25=1,30=1,71=2,74=-5/1,2,3;
 4//1;
 5/5=2,38=5/2;
 8/6=4,10=90,11=11/1;
 11/6=1,8=1,9=11,15=111,16=1/1,2,10;
 10/6=1,7=6,13=1/2;
 6/7=2,8=2,9=2,10=2,28=1/1;
 7/10=1,18=20,25=1/1,2,3,16;
 1/6=1000,10=4,14=-1,18=20,19=15/3(2);
 2/9=110,12=1/2;
 99//99;
 2/9=110,12=1/2;
 3/5=1,6=6,7=1,11=2,16=1,25=1,30=1,71=1,74=-5/1,2,3;
 4/5=5,16=3/1;
 5/5=2,38=5/2;
 7//1,2,3,16;
 1/6=1000,14=-1,18=20,19=15/3(-5);
 2/9=110,12=1/2;
 6/7=2,8=2,9=2,10=2,19=2,28=1/1;
 99/9=1/99;
 ------------------
 Phi Psi fixed scan
 ------------------
 Symbolic Z-matrix:
 Charge =  0 Multiplicity = 1
 H                     0.2496    4.5262    0. 
 C                     1.1178    3.8672    0. 
 H                     1.097     3.238    -0.8898 
 H                     1.097     3.238     0.8898 
 C                     2.4195    4.6711    0. 
 O                     2.3938    5.8999    0. 
 N                     3.5554    3.9697    0. 
 H                     3.5254    2.9601    0. 
 C                     4.8533    4.6139    0. 
 H                     5.4076    4.3155    0.8898 
 C                     5.6613    4.2208   -1.2322 
 H                     5.1233    4.5214   -2.1312 
 H                     6.6305    4.7189   -1.2058 
 H                     5.8085    3.1409   -1.2414 
 C                     4.7127    6.1294    0. 
 O                     4.3822    6.7252    1.0229 
 N                     4.9651    6.7532   -1.153 
 H                     5.2337    6.2197   -1.9675 
 C                     4.8663    8.193    -1.2823 
 H                     4.5691    8.6246   -0.3265 
 H                     5.8335    8.5989   -1.5786 
 H                     4.1219    8.4401   -2.0392 
 
 The following ModRedundant input section has been read:
 D    5    7    9   15 F                                                       
 D    7    9   15   17 F                                                       

 GradGradGradGradGradGradGradGradGradGradGradGradGradGradGradGradGradGrad
 Berny optimization.
 Initialization pass.
                           ----------------------------
                           !    Initial Parameters    !
                           ! (Angstroms and Degrees)  !
 --------------------------                            --------------------------
 ! Name  Definition              Value          Derivative Info.                !
 --------------------------------------------------------------------------------
 ! R1    R(1,2)                  1.09           calculate D2E/DX2 analytically  !
 ! R2    R(2,3)                  1.09           calculate D2E/DX2 analytically  !
 ! R3    R(2,4)                  1.09           calculate D2E/DX2 analytically  !
 ! R4    R(2,5)                  1.5299         calculate D2E/DX2 analytically  !
 ! R5    R(5,6)                  1.2291         calculate D2E/DX2 analytically  !
 ! R6    R(5,7)                  1.335          calculate D2E/DX2 analytically  !
 ! R7    R(7,8)                  1.01           calculate D2E/DX2 analytically  !
 ! R8    R(7,9)                  1.449          calculate D2E/DX2 analytically  !
 ! R9    R(9,10)                 1.09           calculate D2E/DX2 analytically  !
 ! R10   R(9,11)                 1.525          calculate D2E/DX2 analytically  !
 ! R11   R(9,15)                 1.522          calculate D2E/DX2 analytically  !
 ! R12   R(11,12)                1.09           calculate D2E/DX2 analytically  !
 ! R13   R(11,13)                1.09           calculate D2E/DX2 analytically  !
 ! R14   R(11,14)                1.0899         calculate D2E/DX2 analytically  !
 ! R15   R(15,16)                1.229          calculate D2E/DX2 analytically  !
 ! R16   R(15,17)                1.335          calculate D2E/DX2 analytically  !
 ! R17   R(17,18)                1.01           calculate D2E/DX2 analytically  !
 ! R18   R(17,19)                1.449          calculate D2E/DX2 analytically  !
 ! R19   R(19,20)                1.09           calculate D2E/DX2 analytically  !
 ! R20   R(19,21)                1.09           calculate D2E/DX2 analytically  !
 ! R21   R(19,22)                1.09           calculate D2E/DX2 analytically  !
 ! A1    A(1,2,3)              109.5001         calculate D2E/DX2 analytically  !
 ! A2    A(1,2,4)              109.5001         calculate D2E/DX2 analytically  !
 ! A3    A(1,2,5)              111.1015         calculate D2E/DX2 analytically  !
 ! A4    A(3,2,4)              109.4403         calculate D2E/DX2 analytically  !
 ! A5    A(3,2,5)              108.636          calculate D2E/DX2 analytically  !
 ! A6    A(4,2,5)              108.636          calculate D2E/DX2 analytically  !
 ! A7    A(2,5,6)              120.5004         calculate D2E/DX2 analytically  !
 ! A8    A(2,5,7)              116.6068         calculate D2E/DX2 analytically  !
 ! A9    A(6,5,7)              122.8928         calculate D2E/DX2 analytically  !
 ! A10   A(5,7,8)              119.9926         calculate D2E/DX2 analytically  !
 ! A11   A(5,7,9)              121.9083         calculate D2E/DX2 analytically  !
 ! A12   A(8,7,9)              118.0991         calculate D2E/DX2 analytically  !
 ! A13   A(7,9,10)             109.5            calculate D2E/DX2 analytically  !
 ! A14   A(7,9,11)             111.0992         calculate D2E/DX2 analytically  !
 ! A15   A(7,9,15)             111.0966         calculate D2E/DX2 analytically  !
 ! A16   A(10,9,11)            108.6382         calculate D2E/DX2 analytically  !
 ! A17   A(10,9,15)            108.6373         calculate D2E/DX2 analytically  !
 ! A18   A(11,9,15)            107.7947         calculate D2E/DX2 analytically  !
 ! A19   A(9,11,12)            109.5007         calculate D2E/DX2 analytically  !
 ! A20   A(9,11,13)            109.4959         calculate D2E/DX2 analytically  !
 ! A21   A(9,11,14)            109.4978         calculate D2E/DX2 analytically  !
 ! A22   A(12,11,13)           109.441          calculate D2E/DX2 analytically  !
 ! A23   A(12,11,14)           109.4482         calculate D2E/DX2 analytically  !
 ! A24   A(13,11,14)           109.4436         calculate D2E/DX2 analytically  !
 ! A25   A(9,15,16)            120.5            calculate D2E/DX2 analytically  !
 ! A26   A(9,15,17)            116.6027         calculate D2E/DX2 analytically  !
 ! A27   A(16,15,17)           122.8974         calculate D2E/DX2 analytically  !
 ! A28   A(15,17,18)           119.9957         calculate D2E/DX2 analytically  !
 ! A29   A(15,17,19)           121.9032         calculate D2E/DX2 analytically  !
 ! A30   A(18,17,19)           118.1011         calculate D2E/DX2 analytically  !
 ! A31   A(17,19,20)           109.4991         calculate D2E/DX2 analytically  !
 ! A32   A(17,19,21)           109.4992         calculate D2E/DX2 analytically  !
 ! A33   A(17,19,22)           109.4994         calculate D2E/DX2 analytically  !
 ! A34   A(20,19,21)           109.4425         calculate D2E/DX2 analytically  !
 ! A35   A(20,19,22)           109.4467         calculate D2E/DX2 analytically  !
 ! A36   A(21,19,22)           109.4404         calculate D2E/DX2 analytically  !
 ! D1    D(1,2,5,6)              0.0            calculate D2E/DX2 analytically  !
 ! D2    D(1,2,5,7)            180.0            calculate D2E/DX2 analytically  !
 ! D3    D(3,2,5,6)            120.5133         calculate D2E/DX2 analytically  !
 ! D4    D(3,2,5,7)            -59.4867         calculate D2E/DX2 analytically  !
 ! D5    D(4,2,5,6)           -120.5133         calculate D2E/DX2 analytically  !
 ! D6    D(4,2,5,7)             59.4867         calculate D2E/DX2 analytically  !
 ! D7    D(2,5,7,8)              0.0            calculate D2E/DX2 analytically  !
 ! D8    D(2,5,7,9)            180.0            calculate D2E/DX2 analytically  !
 ! D9    D(6,5,7,8)            180.0            calculate D2E/DX2 analytically  !
 ! D10   D(6,5,7,9)              0.0            calculate D2E/DX2 analytically  !
 ! D11   D(5,7,9,10)           119.9998         calculate D2E/DX2 analytically  !
 ! D12   D(5,7,9,11)          -119.9976         calculate D2E/DX2 analytically  !
 ! D13   D(5,7,9,15)             0.0            frozen, calculate D2E/DX2 analyt!
 ! D14   D(8,7,9,10)           -60.0002         calculate D2E/DX2 analytically  !
 ! D15   D(8,7,9,11)            60.0024         calculate D2E/DX2 analytically  !
 ! D16   D(8,7,9,15)           180.0            calculate D2E/DX2 analytically  !
 ! D17   D(7,9,11,12)           60.0024         calculate D2E/DX2 analytically  !
 ! D18   D(7,9,11,13)          179.9986         calculate D2E/DX2 analytically  !
 ! D19   D(7,9,11,14)          -60.0038         calculate D2E/DX2 analytically  !
 ! D20   D(10,9,11,12)        -179.4843         calculate D2E/DX2 analytically  !
 ! D21   D(10,9,11,13)         -59.4881         calculate D2E/DX2 analytically  !
 ! D22   D(10,9,11,14)          60.5095         calculate D2E/DX2 analytically  !
 ! D23   D(15,9,11,12)         -61.938          calculate D2E/DX2 analytically  !
 ! D24   D(15,9,11,13)          58.0582         calculate D2E/DX2 analytically  !
 ! D25   D(15,9,11,14)         178.0558         calculate D2E/DX2 analytically  !
 ! D26   D(7,9,15,16)           75.0019         calculate D2E/DX2 analytically  !
 ! D27   D(7,9,15,17)         -105.0            frozen, calculate D2E/DX2 analyt!
 ! D28   D(10,9,15,16)         -45.5091         calculate D2E/DX2 analytically  !
 ! D29   D(10,9,15,17)         134.4889         calculate D2E/DX2 analytically  !
 ! D30   D(11,9,15,16)        -163.056          calculate D2E/DX2 analytically  !
 ! D31   D(11,9,15,17)          16.942          calculate D2E/DX2 analytically  !
 ! D32   D(9,15,17,18)           0.0049         calculate D2E/DX2 analytically  !
 ! D33   D(9,15,17,19)         179.9992         calculate D2E/DX2 analytically  !
 ! D34   D(16,15,17,18)       -179.9971         calculate D2E/DX2 analytically  !
 ! D35   D(16,15,17,19)         -0.0028         calculate D2E/DX2 analytically  !
 ! D36   D(15,17,19,20)          0.0032         calculate D2E/DX2 analytically  !
 ! D37   D(15,17,19,21)        120.0022         calculate D2E/DX2 analytically  !
 ! D38   D(15,17,19,22)       -120.0011         calculate D2E/DX2 analytically  !
 ! D39   D(18,17,19,20)        179.9976         calculate D2E/DX2 analytically  !
 ! D40   D(18,17,19,21)        -60.0033         calculate D2E/DX2 analytically  !
 ! D41   D(18,17,19,22)         59.9933         calculate D2E/DX2 analytically  !
 --------------------------------------------------------------------------------
 Trust Radius=3.00D-01 FncErr=1.00D-07 GrdErr=1.00D-06
 Number of steps in this run= 132 maximum allowed number of steps= 132.
 GradGradGradGradGradGradGradGradGradGradGradGradGradGradGradGradGradGrad

                          Input orientation:                          
 ---------------------------------------------------------------------
 Center     Atomic      Atomic             Coordinates (Angstroms)
 Number     Number       Type             X           Y           Z
 ---------------------------------------------------------------------
      1          1           0        0.249600    4.526200    0.000000
      2          6           0        1.117800    3.867200    0.000000
      3          1           0        1.097000    3.238000   -0.889800
      4          1           0        1.097000    3.238000    0.889800
      5          6           0        2.419500    4.671100    0.000000
      6          8           0        2.393800    5.899900    0.000000
      7          7           0        3.555400    3.969700    0.000000
      8          1           0        3.525400    2.960100    0.000000
      9          6           0        4.853300    4.613900    0.000000
     10          1           0        5.407600    4.315500    0.889800
     11          6           0        5.661300    4.220800   -1.232200
     12          1           0        5.123300    4.521400   -2.131200
     13          1           0        6.630500    4.718900   -1.205800
     14          1           0        5.808500    3.140900   -1.241400
     15          6           0        4.712700    6.129400    0.000000
     16          8           0        4.382200    6.725200    1.022900
     17          7           0        4.965100    6.753200   -1.153000
     18          1           0        5.233700    6.219700   -1.967500
     19          6           0        4.866300    8.193000   -1.282300
     20          1           0        4.569100    8.624600   -0.326500
     21          1           0        5.833500    8.598900   -1.578600
     22          1           0        4.121900    8.440100   -2.039200
 ---------------------------------------------------------------------
                    Distance matrix (angstroms):
                    1          2          3          4          5
     1  H    0.000000
     2  C    1.089978   0.000000
     3  H    1.780250   1.089986   0.000000
     4  H    1.780250   1.089986   1.779600   0.000000
     5  C    2.174733   1.529927   2.143485   2.143485   0.000000
     6  O    2.546497   2.400009   3.091787   3.091787   1.229069
     7  N    3.352314   2.439754   2.714933   2.714933   1.335002
     8  H    3.630914   2.572813   2.601173   2.601173   2.037286
     9  C    4.604535   3.809399   4.098126   4.098126   2.434472
    10  H    5.238426   4.403987   4.786361   4.443228   3.137983
    11  C    5.558604   4.720884   4.681449   5.128510   3.497192
    12  H    5.319303   4.584105   4.404462   5.194675   3.446006
    13  H    6.496689   5.706944   5.736945   6.099527   4.380498
    14  H    5.861868   4.906246   4.725599   5.172009   3.920192
    15  C    4.742311   4.247453   4.714364   4.714364   2.717610
    16  O    4.791692   4.457667   5.158636   4.792788   3.019577
    17  N    5.340869   4.945718   5.233364   5.611761   3.484914
    18  H    5.619631   5.132830   5.211934   5.845253   3.766821
    19  C    6.033542   5.865841   6.238085   6.593760   4.476037
    20  H    5.963352   5.886504   6.433370   6.523061   4.511934
    21  H    7.089344   6.864313   7.186663   7.567475   5.438289
    22  H    5.871257   5.839038   6.126417   6.692601   4.611059
                    6          7          8          9         10
     6  O    0.000000
     7  N    2.252773   0.000000
     8  H    3.150070   1.010046   0.000000
     9  C    2.775416   1.448978   2.120937   0.000000
    10  H    3.519241   2.083739   2.484256   1.089970   0.000000
    11  C    3.874823   2.452791   2.769431   1.525027   2.139209
    12  H    3.727257   2.702720   3.087548   2.150225   3.041326
    13  H    4.560520   3.386959   3.766826   2.150214   2.459625
    14  H    4.562163   2.702673   2.605054   2.150165   2.466256
    15  C    2.330229   2.450234   3.384397   1.522008   2.136554
    16  O    2.383522   3.053310   3.994547   2.392874   2.622178
    17  N    2.944336   3.326340   4.217790   2.432799   3.211109
    18  H    3.469634   3.427863   4.173049   2.567947   3.438078
    19  C    3.607750   4.604239   5.552076   3.801897   4.477279
    20  H    3.501788   4.775174   5.769096   4.033991   4.555306
    21  H    4.648453   5.395481   6.294074   4.396930   4.962046
    22  H    3.687449   4.946083   5.877461   4.396941   5.219616
                   11         12         13         14         15
    11  C    0.000000
    12  H    1.089957   0.000000
    13  H    1.090023   1.779613   0.000000
    14  H    1.089925   1.779613   1.779617   0.000000
    15  C    2.461892   2.701161   2.668599   3.416575   0.000000
    16  O    3.604663   3.918458   3.747959   4.473097   1.229037
    17  N    2.627550   2.441891   2.629586   3.710505   1.335006
    18  H    2.172351   1.709739   2.187153   3.215062   2.037315
    19  C    4.051285   3.777212   3.897130   5.139370   2.434406
    20  H    4.626732   4.516672   4.503002   5.695974   2.520565
    21  H    4.395157   4.175615   3.978516   5.468463   3.137929
    22  H    4.563277   4.045674   4.564533   5.618062   3.137948
                   16         17         18         19         20
    16  O    0.000000
    17  N    2.252798   0.000000
    18  H    3.150091   1.010039   0.000000
    19  C    2.775380   1.448967   2.120942   0.000000
    20  H    2.337420   2.083760   2.986322   1.090028   0.000000
    21  H    3.519208   2.083714   2.484270   1.089965   1.779641
    22  H    3.519246   2.083739   2.484234   1.089994   1.779710
                   21         22
    21  H    0.000000
    22  H    1.779591   0.000000
 Stoichiometry    C6H12N2O2
 Framework group  C1[X(C6H12N2O2)]
 Deg. of freedom    60
 Full point group                 C1      NOp   1
 Largest Abelian subgroup         C1      NOp   1
 Largest concise Abelian subgroup C1      NOp   1
                         Standard orientation:                         
 ---------------------------------------------------------------------
 Center     Atomic      Atomic             Coordinates (Angstroms)
 Number     Number       Type             X           Y           Z
 ---------------------------------------------------------------------
      1          1           0        3.275296   -1.779710   -0.696420
      2          6           0        3.124350   -0.724548   -0.468603
      3          1           0        3.390556   -0.122973   -1.337690
      4          1           0        3.753200   -0.440943    0.375308
      5          6           0        1.664735   -0.442395   -0.107228
      6          8           0        0.836911   -1.350840   -0.100604
      7          7           0        1.356581    0.821475    0.192611
      8          1           0        2.072324    1.533888    0.173326
      9          6           0        0.009525    1.216947    0.551192
     10          1           0        0.010278    1.642886    1.554492
     11          6           0       -0.533605    2.259373   -0.420439
     12          1           0       -0.549097    1.844318   -1.428156
     13          1           0       -1.545865    2.537607   -0.127069
     14          1           0        0.105268    3.142217   -0.401371
     15          6           0       -0.935619    0.024153    0.529871
     16          8           0       -0.907115   -0.810499    1.431579
     17          7           0       -1.775642   -0.054553   -0.504734
     18          1           0       -1.761457    0.656523   -1.221914
     19          6           0       -2.724138   -1.141546   -0.640033
     20          1           0       -2.619483   -1.822964    0.204288
     21          1           0       -3.737308   -0.740103   -0.658847
     22          1           0       -2.530141   -1.680386   -1.567451
 ---------------------------------------------------------------------
 Rotational constants (GHZ):      1.9966284      1.0374731      0.8287189
 Standard basis: 6-31G(d) (6D, 7F)
 There are   174 symmetry adapted basis functions of A   symmetry.
 Integral buffers will be    131072 words long.
 Raffenetti 2 integral format.
 Two-electron integral symmetry is turned on.
   174 basis functions,   328 primitive gaussians,   174 cartesian basis functions
    39 alpha electrons       39 beta electrons
       nuclear repulsion energy       581.2166299222 Hartrees.
 NAtoms=   22 NActive=   22 NUniq=   22 SFac= 7.50D-01 NAtFMM=   80 NAOKFM=F Big=F
 One-electron integrals computed using PRISM.
 NBasis=   174 RedAO= T  NBF=   174
 NBsUse=   174 1.00D-06 NBFU=   174
 Harris functional with IExCor=  402 diagonalized for initial guess.
 ExpMin= 1.61D-01 ExpMax= 5.48D+03 ExpMxC= 8.25D+02 IAcc=1 IRadAn=         1 AccDes= 0.00D+00
 HarFok:  IExCor=  402 AccDes= 0.00D+00 IRadAn=         1 IDoV= 1
 ScaDFX=  1.000000  1.000000  1.000000  1.000000
 FoFCou: FMM=F IPFlag=           0 FMFlag=      100000 FMFlg1=           0
         NFxFlg=           0 DoJE=T BraDBF=F KetDBF=T FulRan=T
         Omega=  0.000000  0.000000  1.000000  0.000000  0.000000 ICntrl=     500 IOpCl=  0
         NMat0=    1 NMatS0=    1 NMatT0=    0 NMatD0=    1 NMtDS0=    0 NMtDT0=    0
         I1Cent=           4 NGrid=           0.
 Petite list used in FoFCou.
 Initial guess orbital symmetries:
       Occupied  (A) (A) (A) (A) (A) (A) (A) (A) (A) (A) (A) (A)
                 (A) (A) (A) (A) (A) (A) (A) (A) (A) (A) (A) (A)
                 (A) (A) (A) (A) (A) (A) (A) (A) (A) (A) (A) (A)
                 (A) (A) (A)
       Virtual   (A) (A) (A) (A) (A) (A) (A) (A) (A) (A) (A) (A)
                 (A) (A) (A) (A) (A) (A) (A) (A) (A) (A) (A) (A)
                 (A) (A) (A) (A) (A) (A) (A) (A) (A) (A) (A) (A)
                 (A) (A) (A) (A) (A) (A) (A) (A) (A) (A) (A) (A)
                 (A) (A) (A) (A) (A) (A) (A) (A) (A) (A) (A) (A)
                 (A) (A) (A) (A) (A) (A) (A) (A) (A) (A) (A) (A)
                 (A) (A) (A) (A) (A) (A) (A) (A) (A) (A) (A) (A)
                 (A) (A) (A) (A) (A) (A) (A) (A) (A) (A) (A) (A)
                 (A) (A) (A) (A) (A) (A) (A) (A) (A) (A) (A) (A)
                 (A) (A) (A) (A) (A) (A) (A) (A) (A) (A) (A) (A)
                 (A) (A) (A) (A) (A) (A) (A) (A) (A) (A) (A) (A)
                 (A) (A) (A)
 The electronic state of the initial guess is 1-A.
 Requested convergence on RMS density matrix=1.00D-08 within 128 cycles.
 Requested convergence on MAX density matrix=1.00D-06.
 Requested convergence on             energy=1.00D-06.
 No special actions if energy rises.
 Integral accuracy reduced to 1.0D-05 until final iterations.
 Initial convergence to 1.0D-05 achieved.  Increase integral accuracy.
 SCF Done:  E(RB3LYP) =  -495.806388975     A.U. after   16 cycles
             Convg  =    0.3734D-08             -V/T =  2.0084
 Range of M.O.s used for correlation:     1   174
 NBasis=   174 NAE=    39 NBE=    39 NFC=     0 NFV=     0
 NROrb=    174 NOA=    39 NOB=    39 NVA=   135 NVB=   135
 Symmetrizing basis deriv contribution to polar:
 IMax=3 JMax=2 DiffMx= 0.00D+00
 G2DrvN: will do    23 centers at a time, making    1 passes doing MaxLOS=2.
 Calling FoFCou, ICntrl=  3107 FMM=F I1Cent=   0 AccDes= 0.00D+00.
 FoFDir/FoFCou used for L=0 through L=2.
 End of G2Drv Frequency-dependent properties file   721 does not exist.
 End of G2Drv Frequency-dependent properties file   722 does not exist.
          IDoAtm=1111111111111111111111
          Differentiating once with respect to nuclear coordinates.
          There are    69 degrees of freedom in the 1st order CPHF.  IDoFFX=5.
     63 vectors produced by pass  0 Test12= 7.63D-11 1.45D-07 XBig12= 1.95D-01 8.66D-02.
 AX will form    63 AO Fock derivatives at one time.
     63 vectors produced by pass  1 Test12= 7.63D-11 1.45D-07 XBig12= 5.53D-02 6.94D-02.
     63 vectors produced by pass  2 Test12= 7.63D-11 1.45D-07 XBig12= 5.60D-05 1.25D-03.
     63 vectors produced by pass  3 Test12= 7.63D-11 1.45D-07 XBig12= 1.84D-07 5.94D-05.
     30 vectors produced by pass  4 Test12= 7.63D-11 1.45D-07 XBig12= 2.18D-10 1.27D-06.
 Inverted reduced A of dimension   282 with in-core refinement.
 End of Minotr Frequency-dependent properties file   721 does not exist.
 End of Minotr Frequency-dependent properties file   722 does not exist.

 **********************************************************************

            Population analysis using the SCF density.

 **********************************************************************

 Orbital symmetries:
       Occupied  (A) (A) (A) (A) (A) (A) (A) (A) (A) (A) (A) (A)
                 (A) (A) (A) (A) (A) (A) (A) (A) (A) (A) (A) (A)
                 (A) (A) (A) (A) (A) (A) (A) (A) (A) (A) (A) (A)
                 (A) (A) (A)
       Virtual   (A) (A) (A) (A) (A) (A) (A) (A) (A) (A) (A) (A)
                 (A) (A) (A) (A) (A) (A) (A) (A) (A) (A) (A) (A)
                 (A) (A) (A) (A) (A) (A) (A) (A) (A) (A) (A) (A)
                 (A) (A) (A) (A) (A) (A) (A) (A) (A) (A) (A) (A)
                 (A) (A) (A) (A) (A) (A) (A) (A) (A) (A) (A) (A)
                 (A) (A) (A) (A) (A) (A) (A) (A) (A) (A) (A) (A)
                 (A) (A) (A) (A) (A) (A) (A) (A) (A) (A) (A) (A)
                 (A) (A) (A) (A) (A) (A) (A) (A) (A) (A) (A) (A)
                 (A) (A) (A) (A) (A) (A) (A) (A) (A) (A) (A) (A)
                 (A) (A) (A) (A) (A) (A) (A) (A) (A) (A) (A) (A)
                 (A) (A) (A) (A) (A) (A) (A) (A) (A) (A) (A) (A)
                 (A) (A) (A)
 The electronic state is 1-A.
 Alpha  occ. eigenvalues --  -19.09122 -19.07170 -14.36388 -14.34601 -10.27633
 Alpha  occ. eigenvalues --  -10.26325 -10.23417 -10.20238 -10.19586 -10.18526
 Alpha  occ. eigenvalues --   -1.03071  -0.99757  -0.92924  -0.90751  -0.79076
 Alpha  occ. eigenvalues --   -0.72877  -0.69734  -0.65366  -0.60161  -0.57408
 Alpha  occ. eigenvalues --   -0.52421  -0.50807  -0.46625  -0.44826  -0.43898
 Alpha  occ. eigenvalues --   -0.43021  -0.42401  -0.41858  -0.40496  -0.38949
 Alpha  occ. eigenvalues --   -0.38585  -0.37377  -0.36512  -0.35207  -0.34232
 Alpha  occ. eigenvalues --   -0.25346  -0.23774  -0.21955  -0.20962
 Alpha virt. eigenvalues --    0.03634   0.04566   0.07003   0.08910   0.11772
 Alpha virt. eigenvalues --    0.13197   0.13602   0.14531   0.15725   0.16665
 Alpha virt. eigenvalues --    0.17725   0.17932   0.18171   0.18978   0.20061
 Alpha virt. eigenvalues --    0.21874   0.22354   0.26874   0.28210   0.33823
 Alpha virt. eigenvalues --    0.36723   0.41257   0.42015   0.51108   0.52111
 Alpha virt. eigenvalues --    0.52919   0.53916   0.55270   0.55472   0.56948
 Alpha virt. eigenvalues --    0.58540   0.61045   0.62205   0.62611   0.67216
 Alpha virt. eigenvalues --    0.68750   0.70819   0.72320   0.73389   0.75141
 Alpha virt. eigenvalues --    0.76388   0.78180   0.81283   0.82230   0.83929
 Alpha virt. eigenvalues --    0.85058   0.86065   0.87456   0.88402   0.89076
 Alpha virt. eigenvalues --    0.90403   0.90931   0.91747   0.93198   0.94999
 Alpha virt. eigenvalues --    0.95698   0.96060   0.97313   0.99810   1.00763
 Alpha virt. eigenvalues --    1.02155   1.08593   1.11209   1.13781   1.18807
 Alpha virt. eigenvalues --    1.23329   1.30933   1.31736   1.36718   1.39232
 Alpha virt. eigenvalues --    1.41255   1.42320   1.47109   1.48494   1.50032
 Alpha virt. eigenvalues --    1.54186   1.57179   1.59669   1.65647   1.73407
 Alpha virt. eigenvalues --    1.75340   1.78749   1.81662   1.83554   1.86011
 Alpha virt. eigenvalues --    1.87048   1.89276   1.92408   1.93162   1.94919
 Alpha virt. eigenvalues --    1.97808   1.98633   2.00632   2.03663   2.06790
 Alpha virt. eigenvalues --    2.08027   2.11912   2.12641   2.17069   2.18657
 Alpha virt. eigenvalues --    2.20805   2.24316   2.25665   2.28341   2.31559
 Alpha virt. eigenvalues --    2.34262   2.37164   2.38327   2.39966   2.44755
 Alpha virt. eigenvalues --    2.47151   2.50377   2.55970   2.56781   2.66974
 Alpha virt. eigenvalues --    2.68192   2.73173   2.74062   2.81135   2.89850
 Alpha virt. eigenvalues --    2.96240   2.99541   3.03365   3.19125   3.22832
 Alpha virt. eigenvalues --    3.95704   4.04367   4.10677   4.19734   4.24795
 Alpha virt. eigenvalues --    4.28289   4.36819   4.39545   4.47975   4.75391
          Condensed to atoms (all electrons):
              1          2          3          4          5          6
     1  H    0.497898   0.360510  -0.021690  -0.020184  -0.016694   0.005085
     2  C    0.360510   5.353016   0.348405   0.347430   0.342166  -0.074360
     3  H   -0.021690   0.348405   0.563989  -0.028013  -0.026370   0.001231
     4  H   -0.020184   0.347430  -0.028013   0.557140  -0.027288   0.001088
     5  C   -0.016694   0.342166  -0.026370  -0.027288   4.367591   0.586602
     6  O    0.005085  -0.074360   0.001231   0.001088   0.586602   8.089797
     7  N    0.004547  -0.142533   0.004997   0.006291   0.228068  -0.099414
     8  H   -0.000168   0.000336   0.000905   0.000662  -0.018075   0.003903
     9  C   -0.000125   0.005352  -0.000050  -0.000004  -0.037722  -0.014098
    10  H    0.000002  -0.000129  -0.000003   0.000007   0.003203   0.000568
    11  C    0.000003  -0.000235   0.000009   0.000001   0.001193   0.000162
    12  H    0.000001  -0.000064   0.000010   0.000000   0.001458   0.000012
    13  H    0.000000   0.000006   0.000000   0.000000   0.000034   0.000009
    14  H    0.000000  -0.000001   0.000000  -0.000001  -0.000145  -0.000004
    15  C   -0.000001   0.000376  -0.000037   0.000002   0.001321   0.042037
    16  O    0.000010  -0.000335   0.000000   0.000022   0.002632  -0.049198
    17  N    0.000001  -0.000072   0.000007   0.000000   0.003067  -0.011860
    18  H    0.000000  -0.000004   0.000000   0.000000  -0.000374   0.000218
    19  C    0.000000   0.000003   0.000000   0.000000  -0.000049   0.000937
    20  H    0.000000   0.000000   0.000000   0.000000  -0.000037   0.000051
    21  H    0.000000   0.000000   0.000000   0.000000   0.000001   0.000006
    22  H    0.000000   0.000001   0.000000   0.000000  -0.000016   0.000334
              7          8          9         10         11         12
     1  H    0.004547  -0.000168  -0.000125   0.000002   0.000003   0.000001
     2  C   -0.142533   0.000336   0.005352  -0.000129  -0.000235  -0.000064
     3  H    0.004997   0.000905  -0.000050  -0.000003   0.000009   0.000010
     4  H    0.006291   0.000662  -0.000004   0.000007   0.000001   0.000000
     5  C    0.228068  -0.018075  -0.037722   0.003203   0.001193   0.001458
     6  O   -0.099414   0.003903  -0.014098   0.000568   0.000162   0.000012
     7  N    7.167958   0.300451   0.257695  -0.044677  -0.064226  -0.000621
     8  H    0.300451   0.421022  -0.031690  -0.001719  -0.002919  -0.000037
     9  C    0.257695  -0.031690   5.097651   0.374272   0.285306  -0.023968
    10  H   -0.044677  -0.001719   0.374272   0.574536  -0.054288   0.006273
    11  C   -0.064226  -0.002919   0.285306  -0.054288   5.270106   0.353559
    12  H   -0.000621  -0.000037  -0.023968   0.006273   0.353559   0.575247
    13  H    0.005424  -0.000112  -0.031188  -0.000749   0.364460  -0.033045
    14  H   -0.002521   0.003711  -0.023550  -0.004088   0.357086  -0.026720
    15  C   -0.029116   0.003842   0.330428  -0.026503  -0.037059  -0.013040
    16  O    0.000921  -0.000250  -0.073366   0.000785   0.004579  -0.000131
    17  N   -0.001896  -0.000267  -0.118232   0.003301  -0.000555  -0.002872
    18  H    0.000528   0.000015  -0.005361   0.000114   0.005381   0.009902
    19  C   -0.000117   0.000006   0.007674  -0.000136  -0.000178   0.000263
    20  H   -0.000001   0.000001   0.001047  -0.000019  -0.000099  -0.000017
    21  H   -0.000003   0.000000  -0.000037   0.000019  -0.000105   0.000082
    22  H    0.000014   0.000000  -0.000337  -0.000004   0.000085  -0.000102
             13         14         15         16         17         18
     1  H    0.000000   0.000000  -0.000001   0.000010   0.000001   0.000000
     2  C    0.000006  -0.000001   0.000376  -0.000335  -0.000072  -0.000004
     3  H    0.000000   0.000000  -0.000037   0.000000   0.000007   0.000000
     4  H    0.000000  -0.000001   0.000002   0.000022   0.000000   0.000000
     5  C    0.000034  -0.000145   0.001321   0.002632   0.003067  -0.000374
     6  O    0.000009  -0.000004   0.042037  -0.049198  -0.011860   0.000218
     7  N    0.005424  -0.002521  -0.029116   0.000921  -0.001896   0.000528
     8  H   -0.000112   0.003711   0.003842  -0.000250  -0.000267   0.000015
     9  C   -0.031188  -0.023550   0.330428  -0.073366  -0.118232  -0.005361
    10  H   -0.000749  -0.004088  -0.026503   0.000785   0.003301   0.000114
    11  C    0.364460   0.357086  -0.037059   0.004579  -0.000555   0.005381
    12  H   -0.033045  -0.026720  -0.013040  -0.000131  -0.002872   0.009902
    13  H    0.550908  -0.023234  -0.001404  -0.000103   0.000564  -0.000235
    14  H   -0.023234   0.570982   0.003587  -0.000089   0.000785  -0.000026
    15  C   -0.001404   0.003587   4.354022   0.526128   0.257887  -0.016127
    16  O   -0.000103  -0.000089   0.526128   8.183788  -0.087791   0.004141
    17  N    0.000564   0.000785   0.257887  -0.087791   7.111071   0.289071
    18  H   -0.000235  -0.000026  -0.016127   0.004141   0.289071   0.422888
    19  C   -0.000117  -0.000007  -0.026525  -0.010491   0.271037  -0.030906
    20  H   -0.000017   0.000002  -0.000561   0.023975  -0.036460   0.003847
    21  H   -0.000020  -0.000002   0.001220   0.000587  -0.046429  -0.000550
    22  H    0.000012   0.000001   0.002670   0.000616  -0.043739  -0.000637
             19         20         21         22
     1  H    0.000000   0.000000   0.000000   0.000000
     2  C    0.000003   0.000000   0.000000   0.000001
     3  H    0.000000   0.000000   0.000000   0.000000
     4  H    0.000000   0.000000   0.000000   0.000000
     5  C   -0.000049  -0.000037   0.000001  -0.000016
     6  O    0.000937   0.000051   0.000006   0.000334
     7  N   -0.000117  -0.000001  -0.000003   0.000014
     8  H    0.000006   0.000001   0.000000   0.000000
     9  C    0.007674   0.001047  -0.000037  -0.000337
    10  H   -0.000136  -0.000019   0.000019  -0.000004
    11  C   -0.000178  -0.000099  -0.000105   0.000085
    12  H    0.000263  -0.000017   0.000082  -0.000102
    13  H   -0.000117  -0.000017  -0.000020   0.000012
    14  H   -0.000007   0.000002  -0.000002   0.000001
    15  C   -0.026525  -0.000561   0.001220   0.002670
    16  O   -0.010491   0.023975   0.000587   0.000616
    17  N    0.271037  -0.036460  -0.046429  -0.043739
    18  H   -0.030906   0.003847  -0.000550  -0.000637
    19  C    4.958452   0.373762   0.381996   0.380554
    20  H    0.373762   0.470484  -0.025473  -0.022022
    21  H    0.381996  -0.025473   0.583361  -0.040718
    22  H    0.380554  -0.022022  -0.040718   0.566104
 Mulliken atomic charges:
              1
     1  H    0.190804
     2  C   -0.539867
     3  H    0.156610
     4  H    0.162848
     5  C    0.589435
     6  O   -0.483105
     7  N   -0.591772
     8  H    0.320384
     9  C    0.000304
    10  H    0.169237
    11  C   -0.482266
    12  H    0.153808
    13  H    0.168806
    14  H    0.144231
    15  C    0.626852
    16  O   -0.526431
    17  N   -0.586618
    18  H    0.318114
    19  C   -0.306161
    20  H    0.211537
    21  H    0.146066
    22  H    0.157184
 Sum of Mulliken atomic charges =   0.00000
 Mulliken charges with hydrogens summed into heavy atoms:
              1
     2  C   -0.029605
     5  C    0.589435
     6  O   -0.483105
     7  N   -0.271388
     9  C    0.169540
    11  C   -0.015421
    15  C    0.626852
    16  O   -0.526431
    17  N   -0.268504
    19  C    0.208627
 Sum of Mulliken charges with hydrogens summed into heavy atoms =   0.00000
 APT atomic charges:
              1
     1  H    0.538086
     2  C   -1.269081
     3  H    0.404922
     4  H    0.470134
     5  C    0.283781
     6  O   -0.461459
     7  N   -0.779233
     8  H    0.720245
     9  C   -0.362244
    10  H    0.489667
    11  C   -1.203152
    12  H    0.252140
    13  H    0.446538
    14  H    0.507422
    15  C   -0.127286
    16  O   -0.165950
    17  N   -0.415940
    18  H    0.513846
    19  C   -1.269890
    20  H    0.403377
    21  H    0.602928
    22  H    0.421149
 Sum of APT charges=   0.00000
 APT Atomic charges with hydrogens summed into heavy atoms:
              1
     1  H    0.000000
     2  C    0.144061
     3  H    0.000000
     4  H    0.000000
     5  C    0.283781
     6  O   -0.461459
     7  N   -0.058988
     8  H    0.000000
     9  C    0.127423
    10  H    0.000000
    11  C    0.002948
    12  H    0.000000
    13  H    0.000000
    14  H    0.000000
    15  C   -0.127286
    16  O   -0.165950
    17  N    0.097906
    18  H    0.000000
    19  C    0.157565
    20  H    0.000000
    21  H    0.000000
    22  H    0.000000
 Sum of APT charges=   0.00000
 Electronic spatial extent (au):  <R**2>=           1546.0297
 Charge=              0.0000 electrons
 Dipole moment (field-independent basis, Debye):
    X=              1.0480    Y=              4.7359    Z=             -2.8322  Tot=              5.6168
 Quadrupole moment (field-independent basis, Debye-Ang):
   XX=            -48.9924   YY=            -59.3173   ZZ=            -62.2290
   XY=              2.1375   XZ=              4.0464   YZ=              3.1023
 Traceless Quadrupole moment (field-independent basis, Debye-Ang):
   XX=              7.8539   YY=             -2.4710   ZZ=             -5.3828
   XY=              2.1375   XZ=              4.0464   YZ=              3.1023
 Octapole moment (field-independent basis, Debye-Ang**2):
  XXX=              6.0645  YYY=              3.0616  ZZZ=             -6.0396  XYY=              1.1599
  XXY=             -1.8933  XXZ=             -5.3323  XZZ=              1.3425  YZZ=              3.2602
  YYZ=              1.1259  XYZ=             -1.0308
 Hexadecapole moment (field-independent basis, Debye-Ang**3):
 XXXX=          -1153.4040 YYYY=           -567.1083 ZZZZ=           -229.1996 XXXY=             13.3801
 XXXZ=             10.9944 YYYX=             17.3083 YYYZ=              5.9741 ZZZX=              8.7816
 ZZZY=              5.3180 XXYY=           -273.2019 XXZZ=           -236.8925 YYZZ=           -133.7432
 XXYZ=              2.9204 YYXZ=              1.2572 ZZXY=             -3.8015
 N-N= 5.812166299222D+02 E-N=-2.319434621281D+03  KE= 4.916857572879D+02
  Exact polarizability:   0.000   0.000   0.000   0.000   0.000   0.000
 Approx polarizability: 112.818   9.378 122.732   7.592  -4.847 105.659
 Calling FoFJK, ICntrl=    100147 FMM=F ISym2X=0 I1Cent= 0 IOpClX= 0 NMat=1 NMatS=1 NMatT=0.
 ***** Axes restored to original set *****
 -------------------------------------------------------------------
 Center     Atomic                   Forces (Hartrees/Bohr)
 Number     Number              X              Y              Z
 -------------------------------------------------------------------
      1        1           0.003136839    0.002508956    0.000067607
      2        6           0.010819329   -0.001978126    0.001820182
      3        1          -0.003367675   -0.005373598   -0.002034186
      4        1          -0.003841793   -0.005588439    0.001950527
      5        6          -0.044789916    0.030693940    0.001439446
      6        8          -0.021625300   -0.016603526   -0.015145429
      7        7           0.019140878   -0.013026844   -0.000377639
      8        1           0.000369267   -0.000689462    0.000996286
      9        6           0.011015510   -0.002531130   -0.018078012
     10        1           0.000623077    0.003424274    0.005479142
     11        6           0.002066257   -0.015434072    0.005074855
     12        1          -0.000163603   -0.008292726   -0.004577088
     13        1           0.004167502   -0.002310555   -0.001543459
     14        1           0.003044345   -0.003894844   -0.005040113
     15        6          -0.015022263    0.013693018    0.046753437
     16        8           0.028478061    0.001520221    0.005566065
     17        7           0.007929007    0.012990627   -0.019676883
     18        1          -0.002146789    0.008156282    0.002772709
     19        6          -0.000061987   -0.001820453   -0.002087293
     20        1          -0.000311798   -0.003559199    0.000648665
     21        1           0.003053204    0.004478412   -0.001687851
     22        1          -0.002512153    0.003637245   -0.002320969
 -------------------------------------------------------------------
 Cartesian Forces:  Max     0.046753437 RMS     0.012212775

 GradGradGradGradGradGradGradGradGradGradGradGradGradGradGradGradGradGrad
 Berny optimization.
 Internal  Forces:  Max     0.094991251 RMS     0.018954377
 Search for a local minimum.
 Step number   1 out of a maximum of  132
 All quantities printed in internal units (Hartrees-Bohrs-Radians)
 Mixed Optimization -- RFO/linear search
 Second derivative matrix not updated -- analytic derivatives used.
     Eigenvalues ---   -0.00612  -0.00088  -0.00055   0.00126   0.00743
     Eigenvalues ---    0.01151   0.01585   0.02568   0.04014   0.04409
     Eigenvalues ---    0.04806   0.05121   0.05832   0.05971   0.05981
     Eigenvalues ---    0.06135   0.06382   0.06586   0.11790   0.11917
     Eigenvalues ---    0.12428   0.13045   0.13245   0.13334   0.13563
     Eigenvalues ---    0.14251   0.15098   0.17627   0.18050   0.18476
     Eigenvalues ---    0.19114   0.21098   0.22101   0.23403   0.23581
     Eigenvalues ---    0.26030   0.29424   0.31090   0.33897   0.34516
     Eigenvalues ---    0.34757   0.34834   0.35028   0.35032   0.35376
     Eigenvalues ---    0.35577   0.35867   0.35902   0.36881   0.39344
     Eigenvalues ---    0.45729   0.46663   0.50535   0.52845   0.70673
     Eigenvalues ---    0.80070   0.81961   1.411381000.000001000.00000
     Eigenvalues --- 1000.000001000.000001000.000001000.000001000.00000
     Eigenvalues --- 1000.000001000.000001000.000001000.000001000.00000
     Eigenvalues --- 1000.000001000.000001000.000001000.000001000.00000
     Eigenvalues --- 1000.000001000.000001000.000001000.000001000.00000
     Eigenvalues --- 1000.000001000.000001000.000001000.000001000.00000
     Eigenvalues --- 1000.000001000.000001000.000001000.000001000.00000
     Eigenvalues --- 1000.000001000.000001000.000001000.000001000.00000
     Eigenvalues --- 1000.000001000.000001000.00000
 RFO step:  Lambda=-3.56230007D-02 EMin=-6.12027508D-03
 Linear search not attempted -- first point.
 Maximum step size (   0.300) exceeded in Quadratic search.
    -- Step size scaled by   0.307
 Iteration  1 RMS(Cart)=  0.06384193 RMS(Int)=  0.00203934
 Iteration  2 RMS(Cart)=  0.00337021 RMS(Int)=  0.00017376
 Iteration  3 RMS(Cart)=  0.00000487 RMS(Int)=  0.00017373
 Iteration  4 RMS(Cart)=  0.00000000 RMS(Int)=  0.00017373
 Iteration  1 RMS(Cart)=  0.00002809 RMS(Int)=  0.00001063
 Iteration  2 RMS(Cart)=  0.00001860 RMS(Int)=  0.00001175
 Iteration  3 RMS(Cart)=  0.00001241 RMS(Int)=  0.00001348
 Iteration  4 RMS(Cart)=  0.00000833 RMS(Int)=  0.00001492
 Iteration  5 RMS(Cart)=  0.00000561 RMS(Int)=  0.00001596
 Iteration  6 RMS(Cart)=  0.00000379 RMS(Int)=  0.00001670
 Iteration  7 RMS(Cart)=  0.00000256 RMS(Int)=  0.00001720
 Iteration  8 RMS(Cart)=  0.00000173 RMS(Int)=  0.00001755
 Iteration  9 RMS(Cart)=  0.00000117 RMS(Int)=  0.00001778
 Iteration 10 RMS(Cart)=  0.00000079 RMS(Int)=  0.00001794
 Variable       Old X    -DE/DX   Delta X   Delta X   Delta X     New X
                                 (Linear)    (Quad)   (Total)
    R1        2.05976  -0.00099   0.00000  -0.00001  -0.00001   2.05975
    R2        2.05977   0.00483   0.00000   0.00370   0.00370   2.06348
    R3        2.05977   0.00490   0.00000   0.00299   0.00299   2.06276
    R4        2.89114  -0.00026   0.00000  -0.00588  -0.00588   2.88526
    R5        2.32260  -0.01615   0.00000  -0.00127  -0.00127   2.32133
    R6        2.52279   0.05267   0.00000   0.01744   0.01744   2.54023
    R7        1.90871   0.00068   0.00000   0.00052   0.00052   1.90923
    R8        2.73817   0.04044   0.00000   0.00778   0.00778   2.74595
    R9        2.05975   0.00385   0.00000   0.00300   0.00300   2.06275
   R10        2.88188   0.01748   0.00000   0.00761   0.00761   2.88949
   R11        2.87618   0.03715   0.00000   0.01198   0.01198   2.88816
   R12        2.05972   0.00158   0.00000   0.00337   0.00337   2.06308
   R13        2.05984   0.00261   0.00000   0.00292   0.00292   2.06276
   R14        2.05966   0.00431   0.00000   0.00317   0.00317   2.06283
   R15        2.32254  -0.00229   0.00000  -0.00126  -0.00126   2.32129
   R16        2.52280   0.03157   0.00000   0.01148   0.01148   2.53428
   R17        1.90870  -0.00712   0.00000  -0.00158  -0.00158   1.90711
   R18        2.73815   0.00320   0.00000   0.00028   0.00028   2.73842
   R19        2.05985  -0.00075   0.00000   0.00015   0.00015   2.06000
   R20        2.05974   0.00483   0.00000   0.00306   0.00306   2.06280
   R21        2.05979   0.00415   0.00000   0.00386   0.00386   2.06365
    A1        1.91114  -0.00002   0.00000  -0.00292  -0.00291   1.90823
    A2        1.91114  -0.00032   0.00000   0.00089   0.00092   1.91206
    A3        1.93909  -0.00819   0.00000  -0.01151  -0.01149   1.92760
    A4        1.91009  -0.00529   0.00000  -0.00675  -0.00682   1.90328
    A5        1.89606   0.00648   0.00000   0.00718   0.00716   1.90321
    A6        1.89606   0.00739   0.00000   0.01322   0.01320   1.90926
    A7        2.10313  -0.01040   0.00000   0.01238   0.01223   2.11535
    A8        2.03517  -0.03022   0.00000  -0.00405  -0.00420   2.03098
    A9        2.14488   0.04062   0.00000  -0.00833  -0.00847   2.13642
   A10        2.09427  -0.04712   0.00000   0.00080   0.00000   2.09426
   A11        2.12770   0.09499   0.00000   0.01253   0.01174   2.13945
   A12        2.06122  -0.04787   0.00000  -0.01334  -0.01411   2.04711
   A13        1.91114   0.00384   0.00000   0.00018   0.00009   1.91122
   A14        1.93905  -0.04223   0.00000  -0.00769  -0.00768   1.93137
   A15        1.93900   0.03703   0.00000  -0.00427  -0.00430   1.93471
   A16        1.89609   0.00381   0.00000   0.00196   0.00203   1.89812
   A17        1.89608  -0.03080   0.00000  -0.01655  -0.01658   1.87950
   A18        1.88137   0.02798   0.00000   0.02650   0.02647   1.90784
   A19        1.91115   0.00654   0.00000   0.00687   0.00685   1.91800
   A20        1.91106   0.00347   0.00000   0.00607   0.00605   1.91711
   A21        1.91110   0.00491   0.00000   0.00698   0.00696   1.91806
   A22        1.91011  -0.00178   0.00000  -0.00357  -0.00361   1.90650
   A23        1.91023  -0.00796   0.00000  -0.01025  -0.01026   1.89997
   A24        1.91015  -0.00518   0.00000  -0.00612  -0.00614   1.90401
   A25        2.10312  -0.01159   0.00000  -0.01137  -0.01138   2.09175
   A26        2.03510   0.02328   0.00000   0.00211   0.00210   2.03720
   A27        2.14496  -0.01170   0.00000   0.00926   0.00925   2.15421
   A28        2.09432   0.00644   0.00000  -0.00351  -0.00396   2.09036
   A29        2.12761  -0.00281   0.00000   0.00017  -0.00029   2.12732
   A30        2.06125  -0.00363   0.00000   0.00334   0.00287   2.06413
   A31        1.91112  -0.00701   0.00000  -0.01038  -0.01037   1.90075
   A32        1.91112   0.00494   0.00000   0.00495   0.00493   1.91605
   A33        1.91113   0.00433   0.00000   0.00909   0.00908   1.92021
   A34        1.91013   0.00048   0.00000   0.00228   0.00229   1.91242
   A35        1.91020   0.00003   0.00000  -0.00459  -0.00457   1.90563
   A36        1.91010  -0.00277   0.00000  -0.00135  -0.00140   1.90870
    D1        0.00000  -0.00252   0.00000  -0.04005  -0.04014  -0.04014
    D2        3.14159   0.00262   0.00000  -0.00916  -0.00909   3.13250
    D3        2.10335  -0.00342   0.00000  -0.04614  -0.04625   2.05710
    D4       -1.03824   0.00172   0.00000  -0.01525  -0.01520  -1.05344
    D5       -2.10335  -0.00183   0.00000  -0.04258  -0.04262  -2.14597
    D6        1.03824   0.00330   0.00000  -0.01169  -0.01157   1.02667
    D7        0.00000   0.00791   0.00000   0.03587   0.03580   0.03580
    D8        3.14159   0.00351   0.00000   0.11139   0.11170  -3.02989
    D9        3.14159   0.01318   0.00000   0.06757   0.06726  -3.07433
   D10        0.00000   0.00878   0.00000   0.14309   0.14316   0.14316
   D11        2.09439   0.01436   0.00000  -0.02318  -0.02315   2.07124
   D12       -2.09435  -0.00507   0.00000  -0.02548  -0.02540  -2.11976
   D13        0.00000   0.02679   0.00000   0.00000   0.00000   0.00000
   D14       -1.04720   0.01005   0.00000   0.05097   0.05082  -0.99638
   D15        1.04724  -0.00938   0.00000   0.04867   0.04856   1.09580
   D16        3.14159   0.02248   0.00000   0.07415   0.07397  -3.06762
   D17        1.04724   0.01579   0.00000  -0.00385  -0.00385   1.04339
   D18        3.14157   0.01975   0.00000  -0.00030  -0.00029   3.14128
   D19       -1.04726   0.01853   0.00000   0.00021   0.00022  -1.04704
   D20       -3.13259  -0.00312   0.00000  -0.00713  -0.00718  -3.13977
   D21       -1.03826   0.00083   0.00000  -0.00357  -0.00361  -1.04188
   D22        1.05609  -0.00038   0.00000  -0.00306  -0.00311   1.05298
   D23       -1.08102  -0.02223   0.00000  -0.01116  -0.01113  -1.09215
   D24        1.01331  -0.01827   0.00000  -0.00761  -0.00756   1.00575
   D25        3.10766  -0.01949   0.00000  -0.00710  -0.00705   3.10061
   D26        1.30903   0.02120   0.00000   0.00757   0.00756   1.31659
   D27       -1.83260   0.00964   0.00000   0.00000   0.00000  -1.83259
   D28       -0.79428   0.01345   0.00000   0.02069   0.02055  -0.77373
   D29        2.34727   0.00189   0.00000   0.01312   0.01299   2.36026
   D30       -2.84586   0.01017   0.00000   0.01276   0.01281  -2.83306
   D31        0.29569  -0.00139   0.00000   0.00519   0.00525   0.30094
   D32        0.00009   0.00589   0.00000   0.04222   0.04219   0.04228
   D33        3.14158   0.00503   0.00000  -0.01532  -0.01520   3.12637
   D34       -3.14154  -0.00597   0.00000   0.03445   0.03433  -3.10721
   D35       -0.00005  -0.00684   0.00000  -0.02309  -0.02306  -0.02311
   D36        0.00006   0.00017   0.00000   0.08434   0.08437   0.08443
   D37        2.09443  -0.00052   0.00000   0.08380   0.08382   2.17825
   D38       -2.09441   0.00178   0.00000   0.09075   0.09082  -2.00360
   D39        3.14155  -0.00068   0.00000   0.02785   0.02780  -3.11383
   D40       -1.04726  -0.00137   0.00000   0.02731   0.02725  -1.02001
   D41        1.04708   0.00092   0.00000   0.03426   0.03425   1.08133
         Item               Value     Threshold  Converged?
 Maximum Force            0.094991     0.000450     NO 
 RMS     Force            0.018498     0.000300     NO 
 Maximum Displacement     0.388145     0.001800     NO 
 RMS     Displacement     0.063926     0.001200     NO 
 Predicted change in Energy=-1.038615D-02
 GradGradGradGradGradGradGradGradGradGradGradGradGradGradGradGradGradGrad

                          Input orientation:                          
 ---------------------------------------------------------------------
 Center     Atomic      Atomic             Coordinates (Angstroms)
 Number     Number       Type             X           Y           Z
 ---------------------------------------------------------------------
      1          1           0        0.239806    4.520281    0.025565
      2          6           0        1.107256    3.860430    0.038361
      3          1           0        1.047193    3.167995   -0.803820
      4          1           0        1.118415    3.289684    0.968761
      5          6           0        2.395937    4.671453   -0.074356
      6          8           0        2.369927    5.892563   -0.205397
      7          7           0        3.544248    3.972803   -0.059289
      8          1           0        3.521051    2.964058   -0.007910
      9          6           0        4.848648    4.612020   -0.021594
     10          1           0        5.373371    4.316083    0.888674
     11          6           0        5.688156    4.196498   -1.230136
     12          1           0        5.180443    4.485855   -2.152303
     13          1           0        6.663944    4.683978   -1.188690
     14          1           0        5.829483    3.114084   -1.229827
     15          6           0        4.708360    6.133798   -0.002801
     16          8           0        4.362980    6.703215    1.029368
     17          7           0        4.986928    6.779237   -1.144863
     18          1           0        5.237089    6.253639   -1.969272
     19          6           0        4.872939    8.219454   -1.257592
     20          1           0        4.626326    8.631903   -0.279123
     21          1           0        5.819511    8.639024   -1.603306
     22          1           0        4.082486    8.477644   -1.965449
 ---------------------------------------------------------------------
                    Distance matrix (angstroms):
                    1          2          3          4          5
     1  H    0.000000
     2  C    1.089971   0.000000
     3  H    1.780009   1.091944   0.000000
     4  H    1.782117   1.091567   1.778180   0.000000
     5  C    2.163732   1.526814   2.147466   2.151613   0.000000
     6  O    2.544389   2.404854   3.087233   3.117677   1.228397
     7  N    3.350562   2.441534   2.727145   2.721802   1.344231
     8  H    3.631738   2.575273   2.606729   2.613921   2.045848
     9  C    4.609996   3.816608   4.141032   4.079708   2.453999
    10  H    5.209620   4.373829   4.785233   4.377735   3.149417
    11  C    5.600548   4.765152   4.772641   5.151699   3.521380
    12  H    5.399462   4.667013   4.543007   5.260412   3.479337
    13  H    6.539936   5.749840   5.830456   6.111591   4.411098
    14  H    5.898974   4.946187   4.801530   5.201807   3.943318
    15  C    4.751023   4.258855   4.779305   4.681947   2.736946
    16  O    4.772147   4.434328   5.181969   4.709891   3.035708
    17  N    5.385903   4.997130   5.355268   5.622258   3.507417
    18  H    5.653029   5.178181   5.332420   5.863492   3.763797
    19  C    6.065995   5.904316   6.352911   6.584507   4.485967
    20  H    6.019952   5.937306   6.552846   6.511679   4.549916
    21  H    7.123930   6.909080   7.303859   7.571742   5.458954
    22  H    5.864389   5.846872   6.225332   6.656594   4.572502
                    6          7          8          9         10
     6  O    0.000000
     7  N    2.255184   0.000000
     8  H    3.152814   1.010319   0.000000
     9  C    2.796003   1.453093   2.116242   0.000000
    10  H    3.564121   2.088580   2.462300   1.091558   0.000000
    11  C    3.864890   2.453012   2.776525   1.529054   2.145401
    12  H    3.697062   2.705746   3.109319   2.160075   3.051816
    13  H    4.567945   3.393203   3.772286   2.159303   2.473129
    14  H    4.553892   2.707371   2.616189   2.160018   2.478081
    15  C    2.359557   2.455249   3.384816   1.528346   2.130975
    16  O    2.480738   3.051336   3.970654   2.390292   2.595975
    17  N    2.918472   3.337045   4.242293   2.444930   3.217412
    18  H    3.385594   3.422858   4.196793   2.576674   3.455510
    19  C    3.575836   4.608188   5.568527   3.813379   4.482543
    20  H    3.549754   4.788156   5.780974   4.034254   4.533004
    21  H    4.625671   5.416127   6.327199   4.434090   5.009673
    22  H    3.565569   4.921051   5.877653   4.394159   5.208742
                   11         12         13         14         15
    11  C    0.000000
    12  H    1.091737   0.000000
    13  H    1.091566   1.780049   0.000000
    14  H    1.091602   1.775942   1.778366   0.000000
    15  C    2.493889   2.749352   2.707881   3.446909   0.000000
    16  O    3.625615   3.963327   3.780415   4.487367   1.228371
    17  N    2.677599   2.512367   2.684104   3.761711   1.341081
    18  H    2.231952   1.778136   2.260322   3.279408   2.039835
    19  C    4.104815   3.851601   3.963841   5.194281   2.439580
    20  H    4.658833   4.583182   4.534899   5.726932   2.514679
    21  H    4.460106   4.237761   4.065386   5.537559   3.173710
    22  H    4.631099   4.144250   4.653942   5.688666   3.120469
                   16         17         18         19         20
    16  O    0.000000
    17  N    2.263265   0.000000
    18  H    3.155635   1.009201   0.000000
    19  C    2.790918   1.449112   2.122151   0.000000
    20  H    2.345492   2.076514   2.980902   1.090107   0.000000
    21  H    3.577682   2.088582   2.482582   1.091585   1.782471
    22  H    3.492306   2.091881   2.505858   1.092034   1.778554
                   21         22
    21  H    0.000000
    22  H    1.781698   0.000000
 Stoichiometry    C6H12N2O2
 Framework group  C1[X(C6H12N2O2)]
 Deg. of freedom    60
 Full point group                 C1      NOp   1
 Largest Abelian subgroup         C1      NOp   1
 Largest concise Abelian subgroup C1      NOp   1
                         Standard orientation:                         
 ---------------------------------------------------------------------
 Center     Atomic      Atomic             Coordinates (Angstroms)
 Number     Number       Type             X           Y           Z
 ---------------------------------------------------------------------
      1          1           0        3.294902   -1.808288   -0.585379
      2          6           0        3.147992   -0.750473   -0.367475
      3          1           0        3.503736   -0.154874   -1.210713
      4          1           0        3.715142   -0.479089    0.524832
      5          6           0        1.668060   -0.453945   -0.137185
      6          8           0        0.818086   -1.333929   -0.247325
      7          7           0        1.352572    0.820159    0.152783
      8          1           0        2.074805    1.526214    0.177500
      9          6           0        0.009509    1.227452    0.529313
     10          1           0        0.025098    1.648056    1.536463
     11          6           0       -0.524244    2.285398   -0.437053
     12          1           0       -0.549466    1.882883   -1.451566
     13          1           0       -1.532791    2.581233   -0.142385
     14          1           0        0.124191    3.163404   -0.421798
     15          6           0       -0.939105    0.029189    0.541155
     16          8           0       -0.890342   -0.780072    1.463985
     17          7           0       -1.800968   -0.067794   -0.481725
     18          1           0       -1.773149    0.612543   -1.226610
     19          6           0       -2.737235   -1.168315   -0.592097
     20          1           0       -2.659464   -1.789084    0.300613
     21          1           0       -3.753916   -0.780934   -0.680718
     22          1           0       -2.502135   -1.772458   -1.470890
 ---------------------------------------------------------------------
 Rotational constants (GHZ):      1.9800631      1.0301725      0.8204831
 Standard basis: 6-31G(d) (6D, 7F)
 There are   174 symmetry adapted basis functions of A   symmetry.
 Integral buffers will be    131072 words long.
 Raffenetti 2 integral format.
 Two-electron integral symmetry is turned on.
   174 basis functions,   328 primitive gaussians,   174 cartesian basis functions
    39 alpha electrons       39 beta electrons
       nuclear repulsion energy       578.9026206981 Hartrees.
 NAtoms=   22 NActive=   22 NUniq=   22 SFac= 7.50D-01 NAtFMM=   80 NAOKFM=F Big=F
 One-electron integrals computed using PRISM.
 NBasis=   174 RedAO= T  NBF=   174
 NBsUse=   174 1.00D-06 NBFU=   174
 Initial guess read from the read-write file.
 B after Tr=     0.000000    0.000000    0.000000
         Rot=    1.000000    0.000000    0.000000    0.000000 Ang=   0.00 deg.
 Initial guess orbital symmetries:
       Occupied  (A) (A) (A) (A) (A) (A) (A) (A) (A) (A) (A) (A)
                 (A) (A) (A) (A) (A) (A) (A) (A) (A) (A) (A) (A)
                 (A) (A) (A) (A) (A) (A) (A) (A) (A) (A) (A) (A)
                 (A) (A) (A)
       Virtual   (A) (A) (A) (A) (A) (A) (A) (A) (A) (A) (A) (A)
                 (A) (A) (A) (A) (A) (A) (A) (A) (A) (A) (A) (A)
                 (A) (A) (A) (A) (A) (A) (A) (A) (A) (A) (A) (A)
                 (A) (A) (A) (A) (A) (A) (A) (A) (A) (A) (A) (A)
                 (A) (A) (A) (A) (A) (A) (A) (A) (A) (A) (A) (A)
                 (A) (A) (A) (A) (A) (A) (A) (A) (A) (A) (A) (A)
                 (A) (A) (A) (A) (A) (A) (A) (A) (A) (A) (A) (A)
                 (A) (A) (A) (A) (A) (A) (A) (A) (A) (A) (A) (A)
                 (A) (A) (A) (A) (A) (A) (A) (A) (A) (A) (A) (A)
                 (A) (A) (A) (A) (A) (A) (A) (A) (A) (A) (A) (A)
                 (A) (A) (A) (A) (A) (A) (A) (A) (A) (A) (A) (A)
                 (A) (A) (A)
 Harris functional with IExCor=  402 diagonalized for initial guess.
 ExpMin= 1.61D-01 ExpMax= 5.48D+03 ExpMxC= 8.25D+02 IAcc=1 IRadAn=         1 AccDes= 0.00D+00
 HarFok:  IExCor=  402 AccDes= 0.00D+00 IRadAn=         1 IDoV= 1
 ScaDFX=  1.000000  1.000000  1.000000  1.000000
 FoFCou: FMM=F IPFlag=           0 FMFlag=      100000 FMFlg1=           0
         NFxFlg=           0 DoJE=T BraDBF=F KetDBF=T FulRan=T
         Omega=  0.000000  0.000000  1.000000  0.000000  0.000000 ICntrl=     500 IOpCl=  0
         NMat0=    1 NMatS0=    1 NMatT0=    0 NMatD0=    1 NMtDS0=    0 NMtDT0=    0
         I1Cent=           4 NGrid=           0.
 Petite list used in FoFCou.
 Requested convergence on RMS density matrix=1.00D-08 within 128 cycles.
 Requested convergence on MAX density matrix=1.00D-06.
 Requested convergence on             energy=1.00D-06.
 No special actions if energy rises.
 Integral accuracy reduced to 1.0D-05 until final iterations.
 Initial convergence to 1.0D-05 achieved.  Increase integral accuracy.
 SCF Done:  E(RB3LYP) =  -495.816649964     A.U. after   13 cycles
             Convg  =    0.4730D-08             -V/T =  2.0087
 Calling FoFJK, ICntrl=      2127 FMM=F ISym2X=0 I1Cent= 0 IOpClX= 0 NMat=1 NMatS=1 NMatT=0.
 ***** Axes restored to original set *****
 -------------------------------------------------------------------
 Center     Atomic                   Forces (Hartrees/Bohr)
 Number     Number              X              Y              Z
 -------------------------------------------------------------------
      1        1           0.002254077    0.001860985   -0.000236403
      2        6           0.008308640   -0.001500786    0.001298452
      3        1          -0.002634741   -0.004061863   -0.001010989
      4        1          -0.002819843   -0.003905474    0.001733633
      5        6          -0.031921670    0.023697218   -0.005420007
      6        8          -0.016094096   -0.013176411   -0.008470282
      7        7           0.014647200   -0.009846654    0.002919868
      8        1          -0.000616626   -0.000398173    0.002707901
      9        6           0.009312409   -0.001374841   -0.019370626
     10        1          -0.000273706    0.002559200    0.004348462
     11        6           0.001697019   -0.010811859    0.004594480
     12        1          -0.000102414   -0.006311002   -0.003255878
     13        1           0.003127667   -0.001882252   -0.001072292
     14        1           0.002330218   -0.002840586   -0.003651638
     15        6          -0.014990055    0.009137422    0.035932348
     16        8           0.020966084    0.001156181    0.003923633
     17        7           0.009178501    0.010024551   -0.012804715
     18        1          -0.001809243    0.005717816    0.002000382
     19        6          -0.000462909   -0.001495331   -0.001967018
     20        1          -0.000130597   -0.002556489    0.000472988
     21        1           0.002058714    0.003313756   -0.001280207
     22        1          -0.002024628    0.002694594   -0.001392091
 -------------------------------------------------------------------
 Cartesian Forces:  Max     0.035932348 RMS     0.009361432

 GradGradGradGradGradGradGradGradGradGradGradGradGradGradGradGradGradGrad
 Berny optimization.
 Using GEDIIS/GDIIS optimizer.
 Internal  Forces:  Max     0.068957926 RMS     0.013782710
 Search for a local minimum.
 Step number   2 out of a maximum of  132
 All quantities printed in internal units (Hartrees-Bohrs-Radians)
 Mixed Optimization -- RFO/linear search
 Update second derivatives using D2CorX and points    1    2
 DE= -1.03D-02 DEPred=-1.04D-02 R= 9.88D-01
 SS=  1.41D+00  RLast= 3.00D-01 DXNew= 5.0454D-01 8.9996D-01
 Trust test= 9.88D-01 RLast= 3.00D-01 DXMaxT set to 5.05D-01
 Use linear search instead of GDIIS.
 Linear search step of   0.594 exceeds DXMaxT=   0.505 but not scaled.
 Quartic linear search produced a step of  2.00000.
 Iteration  1 RMS(Cart)=  0.11509880 RMS(Int)=  0.01021326
 Iteration  2 RMS(Cart)=  0.02123637 RMS(Int)=  0.00105470
 Iteration  3 RMS(Cart)=  0.00036383 RMS(Int)=  0.00102979
 Iteration  4 RMS(Cart)=  0.00000018 RMS(Int)=  0.00102979
 Iteration  1 RMS(Cart)=  0.00018724 RMS(Int)=  0.00006911
 Iteration  2 RMS(Cart)=  0.00012341 RMS(Int)=  0.00007644
 Iteration  3 RMS(Cart)=  0.00008208 RMS(Int)=  0.00008768
 Iteration  4 RMS(Cart)=  0.00005493 RMS(Int)=  0.00009695
 Iteration  5 RMS(Cart)=  0.00003691 RMS(Int)=  0.00010370
 Iteration  6 RMS(Cart)=  0.00002487 RMS(Int)=  0.00010842
 Iteration  7 RMS(Cart)=  0.00001679 RMS(Int)=  0.00011167
 Iteration  8 RMS(Cart)=  0.00001135 RMS(Int)=  0.00011389
 Iteration  9 RMS(Cart)=  0.00000768 RMS(Int)=  0.00011540
 Iteration 10 RMS(Cart)=  0.00000520 RMS(Int)=  0.00011642
 Iteration 11 RMS(Cart)=  0.00000352 RMS(Int)=  0.00011711
 Iteration 12 RMS(Cart)=  0.00000238 RMS(Int)=  0.00011758
 Iteration 13 RMS(Cart)=  0.00000161 RMS(Int)=  0.00011790
 Iteration 14 RMS(Cart)=  0.00000109 RMS(Int)=  0.00011812
 Iteration 15 RMS(Cart)=  0.00000074 RMS(Int)=  0.00011826
 Variable       Old X    -DE/DX   Delta X   Delta X   Delta X     New X
                                 (Linear)    (Quad)   (Total)
    R1        2.05975  -0.00067  -0.00003   0.00000  -0.00003   2.05972
    R2        2.06348   0.00350   0.00740   0.00000   0.00740   2.07088
    R3        2.06276   0.00349   0.00598   0.00000   0.00598   2.06874
    R4        2.88526  -0.00014  -0.01177   0.00000  -0.01177   2.87349
    R5        2.32133  -0.01186  -0.00254   0.00000  -0.00254   2.31880
    R6        2.54023   0.03828   0.03488   0.00000   0.03488   2.57511
    R7        1.90923   0.00055   0.00103   0.00000   0.00103   1.91026
    R8        2.74595   0.02931   0.01555   0.00000   0.01555   2.76150
    R9        2.06275   0.00280   0.00600   0.00000   0.00600   2.06875
   R10        2.88949   0.01250   0.01522   0.00000   0.01522   2.90471
   R11        2.88816   0.02702   0.02395   0.00000   0.02395   2.91211
   R12        2.06308   0.00113   0.00673   0.00000   0.00673   2.06981
   R13        2.06276   0.00192   0.00583   0.00000   0.00583   2.06859
   R14        2.06283   0.00311   0.00634   0.00000   0.00634   2.06917
   R15        2.32129  -0.00206  -0.00252   0.00000  -0.00252   2.31877
   R16        2.53428   0.02265   0.02296   0.00000   0.02296   2.55723
   R17        1.90711  -0.00507  -0.00317   0.00000  -0.00317   1.90394
   R18        2.73842   0.00232   0.00055   0.00000   0.00055   2.73898
   R19        2.06000  -0.00050   0.00030   0.00000   0.00030   2.06031
   R20        2.06280   0.00346   0.00612   0.00000   0.00612   2.06892
   R21        2.06365   0.00300   0.00771   0.00000   0.00771   2.07136
    A1        1.90823  -0.00007  -0.00582   0.00000  -0.00576   1.90246
    A2        1.91206  -0.00022   0.00185   0.00000   0.00205   1.91410
    A3        1.92760  -0.00602  -0.02297   0.00000  -0.02283   1.90477
    A4        1.90328  -0.00399  -0.01364   0.00000  -0.01401   1.88927
    A5        1.90321   0.00491   0.01432   0.00000   0.01415   1.91737
    A6        1.90926   0.00542   0.02641   0.00000   0.02632   1.93558
    A7        2.11535  -0.00747   0.02445   0.00000   0.02349   2.13885
    A8        2.03098  -0.02205  -0.00839   0.00000  -0.00926   2.02171
    A9        2.13642   0.02942  -0.01693   0.00000  -0.01773   2.11869
   A10        2.09426  -0.03416   0.00000   0.00000  -0.00500   2.08927
   A11        2.13945   0.06896   0.02349   0.00000   0.01888   2.15832
   A12        2.04711  -0.03449  -0.02822   0.00000  -0.03263   2.01448
   A13        1.91122   0.00206   0.00017   0.00000  -0.00038   1.91084
   A14        1.93137  -0.02994  -0.01536   0.00000  -0.01529   1.91608
   A15        1.93471   0.02641  -0.00859   0.00000  -0.00873   1.92598
   A16        1.89812   0.00287   0.00405   0.00000   0.00445   1.90258
   A17        1.87950  -0.02296  -0.03317   0.00000  -0.03330   1.84620
   A18        1.90784   0.02145   0.05293   0.00000   0.05266   1.96050
   A19        1.91800   0.00477   0.01369   0.00000   0.01356   1.93155
   A20        1.91711   0.00267   0.01209   0.00000   0.01192   1.92903
   A21        1.91806   0.00355   0.01392   0.00000   0.01381   1.93186
   A22        1.90650  -0.00132  -0.00721   0.00000  -0.00740   1.89909
   A23        1.89997  -0.00592  -0.02053   0.00000  -0.02060   1.87937
   A24        1.90401  -0.00391  -0.01228   0.00000  -0.01241   1.89160
   A25        2.09175  -0.00794  -0.02275   0.00000  -0.02280   2.06895
   A26        2.03720   0.01672   0.00420   0.00000   0.00414   2.04134
   A27        2.15421  -0.00884   0.01850   0.00000   0.01844   2.17265
   A28        2.09036   0.00456  -0.00792   0.00000  -0.01062   2.07974
   A29        2.12732  -0.00210  -0.00059   0.00000  -0.00333   2.12399
   A30        2.06413  -0.00252   0.00575   0.00000   0.00291   2.06704
   A31        1.90075  -0.00510  -0.02073   0.00000  -0.02064   1.88011
   A32        1.91605   0.00364   0.00986   0.00000   0.00974   1.92579
   A33        1.92021   0.00318   0.01816   0.00000   0.01807   1.93828
   A34        1.91242   0.00030   0.00458   0.00000   0.00464   1.91706
   A35        1.90563  -0.00003  -0.00915   0.00000  -0.00904   1.89659
   A36        1.90870  -0.00202  -0.00279   0.00000  -0.00305   1.90565
    D1       -0.04014  -0.00154  -0.08028   0.00000  -0.08080  -0.12094
    D2        3.13250   0.00166  -0.01818   0.00000  -0.01777   3.11473
    D3        2.05710  -0.00224  -0.09251   0.00000  -0.09314   1.96396
    D4       -1.05344   0.00096  -0.03040   0.00000  -0.03011  -1.08355
    D5       -2.14597  -0.00095  -0.08524   0.00000  -0.08547  -2.23144
    D6        1.02667   0.00225  -0.02313   0.00000  -0.02244   1.00423
    D7        0.03580   0.00571   0.07159   0.00000   0.07136   0.10716
    D8       -3.02989   0.00239   0.22340   0.00000   0.22511  -2.80479
    D9       -3.07433   0.00968   0.13452   0.00000   0.13281  -2.94153
   D10        0.14316   0.00635   0.28632   0.00000   0.28655   0.42971
   D11        2.07124   0.01015  -0.04630   0.00000  -0.04610   2.02514
   D12       -2.11976  -0.00369  -0.05081   0.00000  -0.05030  -2.17006
   D13        0.00000   0.02100   0.00000   0.00000   0.00000   0.00000
   D14       -0.99638   0.00705   0.10163   0.00000   0.10063  -0.89575
   D15        1.09580  -0.00679   0.09713   0.00000   0.09643   1.19223
   D16       -3.06762   0.01790   0.14794   0.00000   0.14673  -2.92089
   D17        1.04339   0.01152  -0.00770   0.00000  -0.00769   1.03570
   D18        3.14128   0.01457  -0.00057   0.00000  -0.00051   3.14077
   D19       -1.04704   0.01364   0.00044   0.00000   0.00051  -1.04653
   D20       -3.13977  -0.00249  -0.01436   0.00000  -0.01469   3.12872
   D21       -1.04188   0.00055  -0.00723   0.00000  -0.00751  -1.04939
   D22        1.05298  -0.00038  -0.00621   0.00000  -0.00650   1.04649
   D23       -1.09215  -0.01633  -0.02225   0.00000  -0.02203  -1.11418
   D24        1.00575  -0.01328  -0.01512   0.00000  -0.01486   0.99089
   D25        3.10061  -0.01422  -0.01410   0.00000  -0.01384   3.08677
   D26        1.31659   0.01387   0.01513   0.00000   0.01510   1.33169
   D27       -1.83259   0.00466   0.00000   0.00000   0.00000  -1.83259
   D28       -0.77373   0.01016   0.04111   0.00000   0.04026  -0.73347
   D29        2.36026   0.00096   0.02598   0.00000   0.02516   2.38543
   D30       -2.83306   0.00800   0.02562   0.00000   0.02588  -2.80718
   D31        0.30094  -0.00120   0.01049   0.00000   0.01078   0.31172
   D32        0.04228   0.00498   0.08439   0.00000   0.08421   0.12649
   D33        3.12637   0.00381  -0.03041   0.00000  -0.02966   3.09672
   D34       -3.10721  -0.00458   0.06867   0.00000   0.06792  -3.03929
   D35       -0.02311  -0.00574  -0.04613   0.00000  -0.04595  -0.06906
   D36        0.08443   0.00034   0.16874   0.00000   0.16890   0.25333
   D37        2.17825  -0.00023   0.16764   0.00000   0.16769   2.34594
   D38       -2.00360   0.00159   0.18164   0.00000   0.18197  -1.82163
   D39       -3.11383  -0.00059   0.05561   0.00000   0.05541  -3.05842
   D40       -1.02001  -0.00115   0.05450   0.00000   0.05419  -0.96581
   D41        1.08133   0.00067   0.06850   0.00000   0.06847   1.14980
         Item               Value     Threshold  Converged?
 Maximum Force            0.068739     0.000450     NO 
 RMS     Force            0.013432     0.000300     NO 
 Maximum Displacement     0.776540     0.001800     NO 
 RMS     Displacement     0.128171     0.001200     NO 
 Predicted change in Energy=-1.134650D-02
 GradGradGradGradGradGradGradGradGradGradGradGradGradGradGradGradGradGrad

                          Input orientation:                          
 ---------------------------------------------------------------------
 Center     Atomic      Atomic             Coordinates (Angstroms)
 Number     Number       Type             X           Y           Z
 ---------------------------------------------------------------------
      1          1           0        0.239513    4.537399    0.066088
      2          6           0        1.103373    3.874201    0.109931
      3          1           0        0.968556    3.064170   -0.615732
      4          1           0        1.177555    3.431217    1.108278
      5          6           0        2.357170    4.665914   -0.226768
      6          8           0        2.318824    5.828857   -0.616325
      7          7           0        3.528577    3.971266   -0.179986
      8          1           0        3.512886    2.972621   -0.024064
      9          6           0        4.841170    4.603400   -0.066082
     10          1           0        5.305173    4.313150    0.882021
     11          6           0        5.741371    4.145669   -1.224883
     12          1           0        5.295282    4.411489   -2.189260
     13          1           0        6.728501    4.613104   -1.151787
     14          1           0        5.871913    3.058667   -1.207203
     15          6           0        4.694577    6.136368   -0.008903
     16          8           0        4.316552    6.650491    1.039144
     17          7           0        5.022707    6.826154   -1.125934
     18          1           0        5.237938    6.319927   -1.970040
     19          6           0        4.871783    8.265565   -1.203961
     20          1           0        4.728441    8.639687   -0.189975
     21          1           0        5.765936    8.718638   -1.644249
     22          1           0        3.996704    8.537746   -1.805309
 ---------------------------------------------------------------------
                    Distance matrix (angstroms):
                    1          2          3          4          5
     1  H    0.000000
     2  C    1.089957   0.000000
     3  H    1.779546   1.095862   0.000000
     4  H    1.785979   1.094730   1.774997   0.000000
     5  C    2.141671   1.520586   2.155256   2.167560   0.000000
     6  O    2.541080   2.413597   3.076803   3.166295   1.227054
     7  N    3.346491   2.444400   2.750711   2.734700   1.362688
     8  H    3.629273   2.576151   2.613822   2.635580   2.060099
     9  C    4.604028   3.812328   4.203390   4.021842   2.489976
    10  H    5.135850   4.294640   4.754942   4.226847   3.169318
    11  C    5.664848   4.833886   4.931579   5.175181   3.566470
    12  H    5.537440   4.811139   4.797064   5.365666   3.542401
    13  H    6.602720   5.812055   5.988616   6.108826   4.468443
    14  H    5.960860   5.013872   4.938905   5.247594   3.987219
    15  C    4.733912   4.245972   4.867225   4.575520   2.770050
    16  O    4.694065   4.346923   5.177779   4.496866   3.062720
    17  N    5.434911   5.059898   5.554185   5.594863   3.546861
    18  H    5.683966   5.234738   5.537303   5.857252   3.751477
    19  C    6.080310   5.933911   6.529602   6.508816   4.498408
    20  H    6.086445   5.995074   6.738278   6.436024   4.627651
    21  H    7.137882   6.948756   7.486369   7.522397   5.482108
[...]
    13  H    6.585025   5.846070   5.893029   6.338353   4.549417
    14  H    5.807406   4.994036   4.743432   5.554227   4.031418
    15  C    4.964350   4.356717   4.909043   4.632747   2.887699
    16  O    5.225879   4.605259   5.290362   4.601621   3.307386
    17  N    5.617692   5.198939   5.748587   5.648868   3.677585
    18  H    5.481507   5.133422   5.568455   5.759994   3.649267
    19  C    6.283108   6.032282   6.747294   6.396599   4.571912
    20  H    6.848273   6.510111   7.259322   6.711854   5.078545
    21  H    7.080778   6.887767   7.546580   7.345697   5.420470
    22  H    5.733123   5.643928   6.467578   5.995973   4.299392
                    6          7          8          9         10
     6  O    0.000000
     7  N    2.287145   0.000000
     8  H    3.146491   1.012322   0.000000
     9  C    2.944162   1.473265   2.094546   0.000000
    10  H    3.686175   2.080970   2.313668   1.096226   0.000000
    11  C    4.033821   2.464530   2.845707   1.534711   2.153234
    12  H    3.901112   2.733635   3.248822   2.189034   3.077053
    13  H    4.789077   3.420278   3.817481   2.180678   2.512987
    14  H    4.680404   2.714875   2.696781   2.172092   2.474600
    15  C    2.641094   2.513528   3.375130   1.551235   2.084460
    16  O    2.997617   3.169894   3.915960   2.400894   2.456161
    17  N    3.140782   3.414536   4.346115   2.488720   3.229862
    18  H    3.189334   3.343056   4.258475   2.615615   3.557849
    19  C    3.714815   4.631499   5.604232   3.837599   4.466561
    20  H    4.286343   5.080592   5.995785   4.147735   4.530713
    21  H    4.563928   5.415972   6.383653   4.576299   5.263492
    22  H    3.245311   4.684568   5.686302   4.212089   4.901153
                   11         12         13         14         15
    11  C    0.000000
    12  H    1.095782   0.000000
    13  H    1.094548   1.781959   0.000000
    14  H    1.096306   1.762064   1.773727   0.000000
    15  C    2.607602   2.958852   2.823541   3.538727   0.000000
    16  O    3.670294   4.151514   3.795237   4.490966   1.222020
    17  N    2.874544   2.823904   2.879618   3.958179   1.368065
    18  H    2.589053   2.173040   2.747102   3.644374   2.030358
    19  C    4.327290   4.205806   4.228848   5.413931   2.431445
    20  H    4.778696   4.878467   4.539956   5.837083   2.642905
    21  H    4.750196   4.473002   4.525777   5.843267   3.324820
    22  H    4.894343   4.682213   5.001593   5.943072   2.822364
                   16         17         18         19         20
    16  O    0.000000
    17  N    2.277804   0.000000
    18  H    3.131261   1.011285   0.000000
    19  C    2.765734   1.457301   2.106111   0.000000
    20  H    2.546019   2.081760   2.960156   1.091044   0.000000
    21  H    3.799701   2.088380   2.378323   1.093289   1.782951
    22  H    3.009526   2.122513   2.596828   1.097349   1.773756
                   21         22
    21  H    0.000000
    22  H    1.791190   0.000000
 Stoichiometry    C6H12N2O2
 Framework group  C1[X(C6H12N2O2)]
 Deg. of freedom    60
 Full point group                 C1      NOp   1
 Largest Abelian subgroup         C1      NOp   1
 Largest concise Abelian subgroup C1      NOp   1
                         Standard orientation:                         
 ---------------------------------------------------------------------
 Center     Atomic      Atomic             Coordinates (Angstroms)
 Number     Number       Type             X           Y           Z
 ---------------------------------------------------------------------
      1          1           0        3.498702   -1.561071   -0.788124
      2          6           0        3.226703   -0.763035   -0.094794
      3          1           0        3.829070    0.126361   -0.308906
      4          1           0        3.462666   -1.101616    0.921200
      5          6           0        1.728740   -0.511372   -0.201561
      6          8           0        0.941572   -1.394153   -0.511129
      7          7           0        1.346000    0.788121    0.041276
      8          1           0        2.080585    1.405273    0.364240
      9          6           0       -0.006009    1.232420    0.422302
     10          1           0        0.049403    1.592797    1.456116
     11          6           0       -0.451935    2.391197   -0.479765
     12          1           0       -0.461932    2.098568   -1.535704
     13          1           0       -1.449831    2.743452   -0.200204
     14          1           0        0.244898    3.232446   -0.386974
     15          6           0       -1.007041    0.052389    0.530890
     16          8           0       -1.064982   -0.593207    1.566835
     17          7           0       -1.912950   -0.084366   -0.485097
     18          1           0       -1.631795    0.273248   -1.388292
     19          6           0       -2.770894   -1.262191   -0.504786
     20          1           0       -3.228886   -1.377865    0.478698
     21          1           0       -3.552982   -1.122430   -1.255842
     22          1           0       -2.201359   -2.173020   -0.728832
 ---------------------------------------------------------------------
 Rotational constants (GHZ):      1.8753733      0.9670253      0.7730783

 **********************************************************************

            Population analysis using the SCF density.

 **********************************************************************

 Orbital symmetries:
       Occupied  (A) (A) (A) (A) (A) (A) (A) (A) (A) (A) (A) (A)
                 (A) (A) (A) (A) (A) (A) (A) (A) (A) (A) (A) (A)
                 (A) (A) (A) (A) (A) (A) (A) (A) (A) (A) (A) (A)
                 (A) (A) (A)
       Virtual   (A) (A) (A) (A) (A) (A) (A) (A) (A) (A) (A) (A)
                 (A) (A) (A) (A) (A) (A) (A) (A) (A) (A) (A) (A)
                 (A) (A) (A) (A) (A) (A) (A) (A) (A) (A) (A) (A)
                 (A) (A) (A) (A) (A) (A) (A) (A) (A) (A) (A) (A)
                 (A) (A) (A) (A) (A) (A) (A) (A) (A) (A) (A) (A)
                 (A) (A) (A) (A) (A) (A) (A) (A) (A) (A) (A) (A)
                 (A) (A) (A) (A) (A) (A) (A) (A) (A) (A) (A) (A)
                 (A) (A) (A) (A) (A) (A) (A) (A) (A) (A) (A) (A)
                 (A) (A) (A) (A) (A) (A) (A) (A) (A) (A) (A) (A)
                 (A) (A) (A) (A) (A) (A) (A) (A) (A) (A) (A) (A)
                 (A) (A) (A) (A) (A) (A) (A) (A) (A) (A) (A) (A)
                 (A) (A) (A)
 The electronic state is 1-A.
 Alpha  occ. eigenvalues --  -19.11078 -19.09950 -14.36356 -14.34968 -10.28915
 Alpha  occ. eigenvalues --  -10.27747 -10.23911 -10.20514 -10.19318 -10.19306
 Alpha  occ. eigenvalues --   -1.03335  -1.01778  -0.92379  -0.90820  -0.78198
 Alpha  occ. eigenvalues --   -0.73002  -0.69506  -0.64748  -0.59230  -0.56497
 Alpha  occ. eigenvalues --   -0.51990  -0.49683  -0.46939  -0.45219  -0.43835
 Alpha  occ. eigenvalues --   -0.43538  -0.42240  -0.41399  -0.40121  -0.39763
 Alpha  occ. eigenvalues --   -0.38715  -0.37645  -0.37219  -0.36072  -0.34395
 Alpha  occ. eigenvalues --   -0.25864  -0.24841  -0.24719  -0.23320
 Alpha virt. eigenvalues --    0.02089   0.03168   0.06613   0.08775   0.11584
 Alpha virt. eigenvalues --    0.13323   0.13792   0.15108   0.15312   0.16075
 Alpha virt. eigenvalues --    0.16717   0.17560   0.18403   0.19124   0.20015
 Alpha virt. eigenvalues --    0.20895   0.22365   0.25110   0.27799   0.33115
 Alpha virt. eigenvalues --    0.34176   0.39824   0.41304   0.50614   0.51793
 Alpha virt. eigenvalues --    0.53082   0.53805   0.55133   0.56207   0.57267
 Alpha virt. eigenvalues --    0.58623   0.59246   0.60283   0.63291   0.65111
 Alpha virt. eigenvalues --    0.66538   0.69188   0.72009   0.72535   0.74745
 Alpha virt. eigenvalues --    0.77124   0.77689   0.77740   0.81928   0.84372
 Alpha virt. eigenvalues --    0.85779   0.85935   0.87410   0.87856   0.88346
 Alpha virt. eigenvalues --    0.89749   0.90739   0.91586   0.92505   0.93677
 Alpha virt. eigenvalues --    0.94324   0.95119   0.96771   0.97727   0.99100
 Alpha virt. eigenvalues --    1.02423   1.05748   1.08301   1.11142   1.14543
 Alpha virt. eigenvalues --    1.21933   1.26181   1.27966   1.30374   1.33492
 Alpha virt. eigenvalues --    1.36018   1.40647   1.44132   1.45633   1.46996
 Alpha virt. eigenvalues --    1.51657   1.58977   1.60327   1.62200   1.70443
 Alpha virt. eigenvalues --    1.72369   1.74000   1.78680   1.80761   1.81451
 Alpha virt. eigenvalues --    1.83940   1.87213   1.88793   1.91901   1.92395
 Alpha virt. eigenvalues --    1.94303   1.95562   1.97881   2.02436   2.04003
 Alpha virt. eigenvalues --    2.06541   2.07671   2.10298   2.12611   2.17274
 Alpha virt. eigenvalues --    2.20067   2.22102   2.23020   2.25947   2.30138
 Alpha virt. eigenvalues --    2.30528   2.35153   2.38668   2.40122   2.41117
 Alpha virt. eigenvalues --    2.45300   2.47813   2.52807   2.55069   2.61227
 Alpha virt. eigenvalues --    2.65928   2.70494   2.72775   2.74846   2.86200
 Alpha virt. eigenvalues --    2.93241   2.98378   3.01096   3.12301   3.15402
 Alpha virt. eigenvalues --    3.92724   3.97259   4.06310   4.14986   4.21327
 Alpha virt. eigenvalues --    4.25796   4.31815   4.36747   4.49677   4.68335
          Condensed to atoms (all electrons):
              1          2          3          4          5          6
     1  H    0.512855   0.357194  -0.024908  -0.021228  -0.019210   0.003707
     2  C    0.357194   5.342246   0.341949   0.360771   0.338925  -0.079050
     3  H   -0.024908   0.341949   0.575109  -0.026773  -0.024691   0.002579
     4  H   -0.021228   0.360771  -0.026773   0.520640  -0.020271  -0.000194
     5  C   -0.019210   0.338925  -0.024691  -0.020271   4.306015   0.585198
     6  O    0.003707  -0.079050   0.002579  -0.000194   0.585198   8.061068
     7  N    0.004025  -0.125314   0.006146   0.000176   0.269591  -0.087737
     8  H   -0.000032   0.002744   0.001138  -0.000038  -0.019343   0.003808
     9  C   -0.000116   0.005893   0.000136  -0.000207  -0.030845  -0.006052
    10  H   -0.000004  -0.000198  -0.000007   0.000051   0.002939   0.000372
    11  C    0.000007  -0.000240  -0.000008  -0.000002   0.000796  -0.000115
    12  H   -0.000001  -0.000012   0.000001   0.000001   0.000751  -0.000010
    13  H    0.000000   0.000004   0.000000   0.000000   0.000025   0.000005
    14  H    0.000000  -0.000002   0.000000   0.000000  -0.000050  -0.000003
    15  C    0.000004   0.000204  -0.000016  -0.000009   0.006047   0.022974
    16  O    0.000001  -0.000108   0.000000   0.000022   0.002901  -0.005752
    17  N    0.000001  -0.000039   0.000001   0.000000  -0.000002  -0.005448
    18  H    0.000000   0.000010  -0.000001   0.000000   0.000016   0.001407
    19  C    0.000000  -0.000001   0.000000   0.000000  -0.000056  -0.000870
    20  H    0.000000   0.000000   0.000000   0.000000  -0.000003   0.000013
    21  H    0.000000   0.000000   0.000000   0.000000  -0.000001  -0.000005
    22  H    0.000000   0.000005   0.000000   0.000000   0.000008   0.002410
              7          8          9         10         11         12
     1  H    0.004025  -0.000032  -0.000116  -0.000004   0.000007  -0.000001
     2  C   -0.125314   0.002744   0.005893  -0.000198  -0.000240  -0.000012
     3  H    0.006146   0.001138   0.000136  -0.000007  -0.000008   0.000001
     4  H    0.000176  -0.000038  -0.000207   0.000051  -0.000002   0.000001
     5  C    0.269591  -0.019343  -0.030845   0.002939   0.000796   0.000751
     6  O   -0.087737   0.003808  -0.006052   0.000372  -0.000115  -0.000010
     7  N    7.135101   0.292310   0.238310  -0.042252  -0.062546   0.000220
     8  H    0.292310   0.428803  -0.028970  -0.005638  -0.000320  -0.000160
     9  C    0.238310  -0.028970   5.074382   0.370414   0.310514  -0.026299
    10  H   -0.042252  -0.005638   0.370414   0.580244  -0.051870   0.005265
    11  C   -0.062546  -0.000320   0.310514  -0.051870   5.193186   0.360791
    12  H    0.000220  -0.000160  -0.026299   0.005265   0.360791   0.567719
    13  H    0.004572  -0.000206  -0.027907   0.000270   0.361756  -0.026607
    14  H   -0.002083   0.002514  -0.022656  -0.005449   0.361386  -0.030247
    15  C   -0.031284   0.003787   0.352181  -0.033595  -0.032049  -0.006442
    16  O    0.000090  -0.000257  -0.072059   0.004700   0.003235  -0.000042
    17  N    0.000651  -0.000193  -0.113045   0.004473   0.006919  -0.000292
    18  H   -0.000098   0.000010  -0.000203   0.000164  -0.000228   0.006263
    19  C   -0.000077   0.000006   0.006926  -0.000191  -0.000116  -0.000047
    20  H   -0.000005   0.000000   0.000396   0.000015  -0.000064   0.000002
    21  H    0.000000   0.000000  -0.000083   0.000005  -0.000036   0.000016
    22  H    0.000002   0.000000  -0.000266  -0.000013   0.000037  -0.000009
             13         14         15         16         17         18
     1  H    0.000000   0.000000   0.000004   0.000001   0.000001   0.000000
     2  C    0.000004  -0.000002   0.000204  -0.000108  -0.000039   0.000010
     3  H    0.000000   0.000000  -0.000016   0.000000   0.000001  -0.000001
     4  H    0.000000   0.000000  -0.000009   0.000022   0.000000   0.000000
     5  C    0.000025  -0.000050   0.006047   0.002901  -0.000002   0.000016
     6  O    0.000005  -0.000003   0.022974  -0.005752  -0.005448   0.001407
     7  N    0.004572  -0.002083  -0.031284   0.000090   0.000651  -0.000098
     8  H   -0.000206   0.002514   0.003787  -0.000257  -0.000193   0.000010
     9  C   -0.027907  -0.022656   0.352181  -0.072059  -0.113045  -0.000203
    10  H    0.000270  -0.005449  -0.033595   0.004700   0.004473   0.000164
    11  C    0.361756   0.361386  -0.032049   0.003235   0.006919  -0.000228
    12  H   -0.026607  -0.030247  -0.006442  -0.000042  -0.000292   0.006263
    13  H    0.549108  -0.026868  -0.001956  -0.000044   0.002374  -0.000647
    14  H   -0.026868   0.575124   0.003135  -0.000079   0.000255  -0.000141
    15  C   -0.001956   0.003135   4.316084   0.555517   0.272552  -0.017372
    16  O   -0.000044  -0.000079   0.555517   8.103508  -0.094888   0.003543
    17  N    0.002374   0.000255   0.272552  -0.094888   7.057389   0.292314
    18  H   -0.000647  -0.000141  -0.017372   0.003543   0.292314   0.421773
    19  C   -0.000070   0.000002  -0.026982   0.004321   0.277259  -0.033823
    20  H   -0.000012   0.000000  -0.004139   0.010373  -0.038157   0.004631
    21  H   -0.000005   0.000000   0.005003   0.000625  -0.035743  -0.002357
    22  H    0.000006   0.000001  -0.001261   0.001343  -0.045371  -0.000619
             19         20         21         22
     1  H    0.000000   0.000000   0.000000   0.000000
     2  C   -0.000001   0.000000   0.000000   0.000005
     3  H    0.000000   0.000000   0.000000   0.000000
     4  H    0.000000   0.000000   0.000000   0.000000
     5  C   -0.000056  -0.000003  -0.000001   0.000008
     6  O   -0.000870   0.000013  -0.000005   0.002410
     7  N   -0.000077  -0.000005   0.000000   0.000002
     8  H    0.000006   0.000000   0.000000   0.000000
     9  C    0.006926   0.000396  -0.000083  -0.000266
    10  H   -0.000191   0.000015   0.000005  -0.000013
    11  C   -0.000116  -0.000064  -0.000036   0.000037
    12  H   -0.000047   0.000002   0.000016  -0.000009
    13  H   -0.000070  -0.000012  -0.000005   0.000006
    14  H    0.000002   0.000000   0.000000   0.000001
    15  C   -0.026982  -0.004139   0.005003  -0.001261
    16  O    0.004321   0.010373   0.000625   0.001343
    17  N    0.277259  -0.038157  -0.035743  -0.045371
    18  H   -0.033823   0.004631  -0.002357  -0.000619
    19  C    4.942939   0.382229   0.370121   0.383707
    20  H    0.382229   0.515468  -0.025263  -0.033040
    21  H    0.370121  -0.025263   0.579624  -0.035641
    22  H    0.383707  -0.033040  -0.035641   0.551393
 Mulliken atomic charges:
              1
     1  H    0.187706
     2  C   -0.544981
     3  H    0.149346
     4  H    0.187062
     5  C    0.601260
     6  O   -0.498306
     7  N   -0.599797
     8  H    0.320037
     9  C   -0.030443
    10  H    0.170305
    11  C   -0.451036
    12  H    0.149139
    13  H    0.166201
    14  H    0.145161
    15  C    0.617618
    16  O   -0.516950
    17  N   -0.581009
    18  H    0.325358
    19  C   -0.305277
    20  H    0.187556
    21  H    0.143740
    22  H    0.177308
 Sum of Mulliken atomic charges =   0.00000
 Mulliken charges with hydrogens summed into heavy atoms:
              1
     2  C   -0.020866
     5  C    0.601260
     6  O   -0.498306
     7  N   -0.279760
     9  C    0.139862
    11  C    0.009466
    15  C    0.617618
    16  O   -0.516950
    17  N   -0.255651
    19  C    0.203326
 Sum of Mulliken charges with hydrogens summed into heavy atoms =   0.00000
 Electronic spatial extent (au):  <R**2>=           1640.8663
 Charge=              0.0000 electrons
 Dipole moment (field-independent basis, Debye):
    X=              1.6174    Y=              3.5549    Z=             -1.8812  Tot=              4.3350
 Quadrupole moment (field-independent basis, Debye-Ang):
   XX=            -49.5849   YY=            -59.7054   ZZ=            -62.5131
   XY=              2.7949   XZ=              6.1961   YZ=              2.1908
 Traceless Quadrupole moment (field-independent basis, Debye-Ang):
   XX=              7.6829   YY=             -2.4376   ZZ=             -5.2453
   XY=              2.7949   XZ=              6.1961   YZ=              2.1908
 Octapole moment (field-independent basis, Debye-Ang**2):
  XXX=             13.4329  YYY=              3.5884  ZZZ=             -8.7195  XYY=              0.2004
  XXY=             -7.5697  XXZ=             -2.6844  XZZ=              1.1179  YZZ=              2.5297
  YYZ=              3.8773  XYZ=             -1.9844
 Hexadecapole moment (field-independent basis, Debye-Ang**3):
 XXXX=          -1214.8406 YYYY=           -610.4380 ZZZZ=           -232.7814 XXXY=             19.1520
 XXXZ=              8.6403 YYYX=             14.6984 YYYZ=              5.2566 ZZZX=             13.5165
 ZZZY=              5.4698 XXYY=           -296.3843 XXZZ=           -245.7856 YYZZ=           -141.6031
 XXYZ=              7.1180 YYXZ=              3.4901 ZZXY=             -5.4424
 N-N= 5.659262689381D+02 E-N=-2.288204093292D+03  KE= 4.912308858413D+02
 1\1\GINC-NODE006\FOpt\RB3LYP\6-31G(d)\C6H12N2O2\STEBOSS\10-Feb-2017\0\
 \# b3lyp/6-31G* Opt=(ModRedundant, maxcycles=1000, calcfc) geom=nocrow
 d\\Phi Psi fixed scan\\0,1\H,0.2200473998,4.194509358,-0.5024764667\C,
 1.0846090238,3.8114273407,0.0428057913\H,1.2249629,2.7515765875,-0.195
 3806724\H,0.8742577217,3.8977491151,1.1155871759\C,2.2969530379,4.6672
 600526,-0.2983685799\O,2.1952865958,5.8474559042,-0.6009754688\N,3.498
 6225288,3.9968157339,-0.2731327124\H,3.4589033021,3.0446586884,0.06835
 80851\C,4.8289897124,4.6153506246,-0.1387929273\H,5.2262417108,4.32289
 11351,0.8401709176\C,5.7681551932,4.0837467888,-1.2299871277\H,5.38085
 44319,4.2957667179,-2.2328751201\H,6.7663531711,4.5227285468,-1.135487
 1486\H,5.8654519324,2.994875324,-1.147649405\C,4.7532636426,6.16039415
 27,-0.0228750197\O,4.5453664318,6.6718345388,1.0673265993\N,5.11386103
 06,6.8809945028,-1.12845495\H,4.991911799,6.4232854557,-2.0219473399\C
 ,4.914663842,8.3245886151,-1.1192940938\H,5.3415585335,8.7308215282,-0
 .2010822854\H,5.4250046762,8.7614988549,-1.9818149552\H,3.8491813825,8
 .5854704344,-1.1486542964\\Version=EM64L-G09RevA.02\State=1-A\HF=-495.
 8357068\RMSD=2.311e-09\RMSF=1.593e-03\Dipole=0.3663635,-1.4535001,-0.8
 136198\Quadrupole=-0.91195,3.8272287,-2.9152787,2.9500223,-2.7663802,-
 5.0405497\PG=C01 [X(C6H12N2O2)]\\@


 YOU CAN LEAD A BOY TO COLLEGE....
 BUT YOU CANNOT MAKE HIM THINK....
           ELBERT HUBBARD
 Job cpu time:  0 days  1 hours 34 minutes 53.8 seconds.
 File lengths (MBytes):  RWF=    186 Int=      0 D2E=      0 Chk=      4 Scr=      2
 Normal termination of Gaussian 09 at Fri Feb 10 18:13:34 2017.
