 Entering Gaussian System, Link 0=g09
 Initial command:
 /home/steboss/Software/g09/l1.exe /home/steboss/projects/phi_psi_scan/alanine/MP2/30/5533/Gau-28408.inp -scrdir=/home/steboss/projects/phi_psi_scan/alanine/MP2/30/5533/
 Entering Link 1 = /home/steboss/Software/g09/l1.exe PID=     28411.
  
 Copyright (c) 1988,1990,1992,1993,1995,1998,2003,2009, Gaussian, Inc.
                  All Rights Reserved.
  
 This is part of the Gaussian(R) 09 program.  It is based on
 the Gaussian(R) 03 system (copyright 2003, Gaussian, Inc.),
 the Gaussian(R) 98 system (copyright 1998, Gaussian, Inc.),
 the Gaussian(R) 94 system (copyright 1995, Gaussian, Inc.),
 the Gaussian 92(TM) system (copyright 1992, Gaussian, Inc.),
 the Gaussian 90(TM) system (copyright 1990, Gaussian, Inc.),
 the Gaussian 88(TM) system (copyright 1988, Gaussian, Inc.),
 the Gaussian 86(TM) system (copyright 1986, Carnegie Mellon
 University), and the Gaussian 82(TM) system (copyright 1983,
 Carnegie Mellon University). Gaussian is a federally registered
 trademark of Gaussian, Inc.
  
 This software contains proprietary and confidential information,
 including trade secrets, belonging to Gaussian, Inc.
  
 This software is provided under written license and may be
 used, copied, transmitted, or stored only in accord with that
 written license.
  
 The following legend is applicable only to US Government
 contracts under FAR:
  
                    RESTRICTED RIGHTS LEGEND
  
 Use, reproduction and disclosure by the US Government is
 subject to restrictions as set forth in subparagraphs (a)
 and (c) of the Commercial Computer Software - Restricted
 Rights clause in FAR 52.227-19.
  
 Gaussian, Inc.
 340 Quinnipiac St., Bldg. 40, Wallingford CT 06492
  
  
 ---------------------------------------------------------------
 Warning -- This program may not be used in any manner that
 competes with the business of Gaussian, Inc. or will provide
 assistance to any competitor of Gaussian, Inc.  The licensee
 of this program is prohibited from giving any competitor of
 Gaussian, Inc. access to this program.  By using this program,
 the user acknowledges that Gaussian, Inc. is engaged in the
 business of creating and licensing software in the field of
 computational chemistry and represents and warrants to the
 licensee that it is not a competitor of Gaussian, Inc. and that
 it will not use this program in any manner prohibited above.
 ---------------------------------------------------------------
  

 Cite this work as:
 Gaussian 09, Revision A.02,
 M. J. Frisch, G. W. Trucks, H. B. Schlegel, G. E. Scuseria, 
 M. A. Robb, J. R. Cheeseman, G. Scalmani, V. Barone, B. Mennucci, 
 G. A. Petersson, H. Nakatsuji, M. Caricato, X. Li, H. P. Hratchian, 
 A. F. Izmaylov, J. Bloino, G. Zheng, J. L. Sonnenberg, M. Hada, 
 M. Ehara, K. Toyota, R. Fukuda, J. Hasegawa, M. Ishida, T. Nakajima, 
 Y. Honda, O. Kitao, H. Nakai, T. Vreven, J. A. Montgomery, Jr., 
 J. E. Peralta, F. Ogliaro, M. Bearpark, J. J. Heyd, E. Brothers, 
 K. N. Kudin, V. N. Staroverov, R. Kobayashi, J. Normand, 
 K. Raghavachari, A. Rendell, J. C. Burant, S. S. Iyengar, J. Tomasi, 
 M. Cossi, N. Rega, J. M. Millam, M. Klene, J. E. Knox, J. B. Cross, 
 V. Bakken, C. Adamo, J. Jaramillo, R. Gomperts, R. E. Stratmann, 
 O. Yazyev, A. J. Austin, R. Cammi, C. Pomelli, J. W. Ochterski, 
 R. L. Martin, K. Morokuma, V. G. Zakrzewski, G. A. Voth, 
 P. Salvador, J. J. Dannenberg, S. Dapprich, A. D. Daniels, 
 O. Farkas, J. B. Foresman, J. V. Ortiz, J. Cioslowski, 
 and D. J. Fox, Gaussian, Inc., Wallingford CT, 2009.
 
 ******************************************
 Gaussian 09:  EM64L-G09RevA.02 11-Jun-2009
                13-Feb-2017 
 ******************************************
 %chk=structure_330.chk
 %NProcShared=8
 Will use up to    8 processors via shared memory.
 -------------------
 #SP MP2/aug-cc-pVDZ
 -------------------
 1/38=1/1;
 2/12=2,17=6,18=5,40=1/2;
 3/5=16,7=10,11=9,16=1,25=1,30=1/1,2,3;
 4//1;
 5/5=2,38=5/2;
 8/10=1/1;
 9/16=-3/6;
 6/7=2,8=2,9=2,10=2/1;
 99/5=1,9=1/99;
 -------------------------------
 Single Point calculation at MP2
 -------------------------------
 Symbolic Z-matrix:
 Charge =  0 Multiplicity = 1
 H                    -3.461    -1.3684   -1.0706 
 C                    -3.3414   -0.5254   -0.3827 
 H                    -3.9285   -0.7502    0.5123 
 H                    -3.7425    0.3761   -0.8557 
 C                    -1.8736   -0.4302    0.0141 
 O                    -1.3518   -1.3601    0.6339 
 N                    -1.259     0.7289   -0.3438 
 H                    -1.8526    1.3694   -0.8524 
 C                     0.1373    1.228    -0.2582 
 H                     0.2649    1.8485   -1.1485 
 C                     0.2919    2.1253    0.987 
 H                     0.1632    1.5349    1.9002 
 H                     1.288     2.5758    0.9927 
 H                    -0.4582    2.9238    0.9843 
 C                     1.3708    0.2888   -0.3226 
 O                     2.4112    0.8003   -0.7375 
 N                     1.2913   -0.9746    0.1292 
 H                     0.3901   -1.3198    0.4657 
 C                     2.4681   -1.8264    0.1309 
 H                     2.9421   -1.8304   -0.8557 
 H                     3.2132   -1.4795    0.8569 
 H                     2.1625   -2.8425    0.3906 
 
                          Input orientation:                          
 ---------------------------------------------------------------------
 Center     Atomic      Atomic             Coordinates (Angstroms)
 Number     Number       Type             X           Y           Z
 ---------------------------------------------------------------------
      1          1           0       -3.461000   -1.368400   -1.070600
      2          6           0       -3.341400   -0.525400   -0.382700
      3          1           0       -3.928500   -0.750200    0.512300
      4          1           0       -3.742500    0.376100   -0.855700
      5          6           0       -1.873600   -0.430200    0.014100
      6          8           0       -1.351800   -1.360100    0.633900
      7          7           0       -1.259000    0.728900   -0.343800
      8          1           0       -1.852600    1.369400   -0.852400
      9          6           0        0.137300    1.228000   -0.258200
     10          1           0        0.264900    1.848500   -1.148500
     11          6           0        0.291900    2.125300    0.987000
     12          1           0        0.163200    1.534900    1.900200
     13          1           0        1.288000    2.575800    0.992700
     14          1           0       -0.458200    2.923800    0.984300
     15          6           0        1.370800    0.288800   -0.322600
     16          8           0        2.411200    0.800300   -0.737500
     17          7           0        1.291300   -0.974600    0.129200
     18          1           0        0.390100   -1.319800    0.465700
     19          6           0        2.468100   -1.826400    0.130900
     20          1           0        2.942100   -1.830400   -0.855700
     21          1           0        3.213200   -1.479500    0.856900
     22          1           0        2.162500   -2.842500    0.390600
 ---------------------------------------------------------------------
                    Distance matrix (angstroms):
                    1          2          3          4          5
     1  H    0.000000
     2  C    1.094605   0.000000
     3  H    1.762470   1.093731   0.000000
     4  H    1.780086   1.094218   1.781733   0.000000
     5  C    2.139306   1.523466   2.138508   2.213472   0.000000
     6  O    2.711847   2.385101   2.650688   3.308889   1.233346
     7  N    3.126613   2.431290   3.169680   2.560133   1.359904
     8  H    3.182783   2.455079   3.265650   2.135036   1.997454
     9  C    4.510992   3.897597   4.586685   4.016913   2.620590
    10  H    4.923093   4.384889   5.205392   4.279363   3.334261
    11  C    5.524845   4.701400   5.128900   4.767770   3.488052
    12  H    5.512679   4.662477   4.887735   4.918566   3.401109
    13  H    6.508988   5.739382   6.205234   5.793202   4.470952
    14  H    5.626935   4.698778   5.075829   4.545657   3.767487
    15  C    5.162568   4.782401   5.464354   5.141756   3.340129
    16  O    6.268728   5.914032   6.645137   6.169436   4.520901
    17  N    4.917210   4.682492   5.238648   5.304108   3.213442
    18  H    4.146511   3.908318   4.356251   4.658386   2.473796
    19  C    6.066926   5.975506   6.497705   6.663028   4.562168
    20  H    6.423341   6.434992   7.088258   7.039355   5.089998
    21  H    6.947845   6.738672   7.187107   7.399866   5.261832
    22  H    5.994316   6.021616   6.441491   6.839713   4.717102
                    6          7          8          9         10
     6  O    0.000000
     7  N    2.308339   0.000000
     8  H    3.148025   1.010582   0.000000
     9  C    3.116332   1.485288   2.081531   0.000000
    10  H    4.010708   2.055071   2.191123   1.092674   0.000000
    11  C    3.869682   2.475127   2.924664   1.542586   2.153534
    12  H    3.504250   2.776297   3.415794   2.180264   3.066473
    13  H    4.752746   3.418257   3.837077   2.169199   2.482023
    14  H    4.390114   2.687511   2.781003   2.184986   2.495592
    15  C    3.323600   2.666456   3.440740   1.551698   2.082736
    16  O    4.550630   3.691946   4.303146   2.362896   2.423685
    17  N    2.718329   3.103171   4.042522   2.516593   3.264339
    18  H    1.750466   2.751725   3.741509   2.660681   3.558011
    19  C    3.880990   4.543806   5.463375   3.861785   4.471671
    20  H    4.569209   4.945837   5.764363   4.192579   4.559324
    21  H    4.572003   5.130232   6.058075   4.246783   4.877467
    22  H    3.821912   5.000090   5.950309   4.592532   5.289158
                   11         12         13         14         15
    11  C    0.000000
    12  H    1.095021   0.000000
    13  H    1.093251   1.781068   0.000000
    14  H    1.095564   1.775966   1.780559   0.000000
    15  C    2.500362   2.819912   2.639553   3.463590   0.000000
    16  O    3.036603   3.542683   2.721685   3.963244   1.231343
    17  N    3.368086   3.272100   3.653900   4.357691   1.344107
    18  H    3.485701   3.202903   4.032326   4.358520   2.042250
    19  C    4.591806   4.443121   4.638394   5.644105   2.425655
    20  H    5.105552   5.161639   5.056405   6.127810   2.691503
    21  H    4.641713   4.413341   4.491135   5.734497   2.812924
    22  H    5.341711   5.043582   5.521345   6.361664   3.307640
                   16         17         18         19         20
    16  O    0.000000
    17  N    2.270598   0.000000
    18  H    3.166601   1.022036   0.000000
    19  C    2.767112   1.452730   2.164906   0.000000
    20  H    2.686337   2.104177   2.918821   1.094565   0.000000
    21  H    2.895307   2.116169   2.854546   1.096626   1.769075
    22  H    3.821577   2.077587   2.337874   1.092380   1.784765
                   21         22
    21  H    0.000000
    22  H    1.783024   0.000000
 Stoichiometry    C6H12N2O2
 Framework group  C1[X(C6H12N2O2)]
 Deg. of freedom    60
 Full point group                 C1      NOp   1
 Largest Abelian subgroup         C1      NOp   1
 Largest concise Abelian subgroup C1      NOp   1
                         Standard orientation:                         
 ---------------------------------------------------------------------
 Center     Atomic      Atomic             Coordinates (Angstroms)
 Number     Number       Type             X           Y           Z
 ---------------------------------------------------------------------
      1          1           0       -3.461023   -1.368377   -1.070597
      2          6           0       -3.341418   -0.525378   -0.382697
      3          1           0       -3.928519   -0.750174    0.512303
      4          1           0       -3.742512    0.376125   -0.855697
      5          6           0       -1.873617   -0.430188    0.014103
      6          8           0       -1.351823   -1.360091    0.633903
      7          7           0       -1.259009    0.728908   -0.343797
      8          1           0       -1.852605    1.369412   -0.852397
      9          6           0        0.137294    1.227999   -0.258197
     10          1           0        0.264898    1.848498   -1.148497
     11          6           0        0.291900    2.125298    0.987003
     12          1           0        0.163196    1.534899    1.900203
     13          1           0        1.288003    2.575792    0.992703
     14          1           0       -0.458195    2.923803    0.984303
     15          6           0        1.370788    0.288791   -0.322597
     16          8           0        2.411191    0.800284   -0.737497
     17          7           0        1.291279   -0.974608    0.129203
     18          1           0        0.390077   -1.319803    0.465703
     19          6           0        2.468074   -1.826416    0.130903
     20          1           0        2.942074   -1.830419   -0.855697
     21          1           0        3.213176   -1.479521    0.856903
     22          1           0        2.162467   -2.842514    0.390603
 ---------------------------------------------------------------------
 Rotational constants (GHZ):      1.9115378      0.9080801      0.6897957
 Standard basis: Aug-CC-pVDZ (5D, 7F)
 There are   338 symmetry adapted basis functions of A   symmetry.
 Integral buffers will be    131072 words long.
 Raffenetti 1 integral format.
 Two-electron integral symmetry is turned on.
   338 basis functions,   562 primitive gaussians,   358 cartesian basis functions
    39 alpha electrons       39 beta electrons
       nuclear repulsion energy       558.4094088266 Hartrees.
 NAtoms=   22 NActive=   22 NUniq=   22 SFac= 7.50D-01 NAtFMM=   80 NAOKFM=F Big=F
 One-electron integrals computed using PRISM.
 NBasis=   338 RedAO= T  NBF=   338
 NBsUse=   338 1.00D-06 NBFU=   338
 Harris functional with IExCor=  205 diagonalized for initial guess.
 ExpMin= 2.97D-02 ExpMax= 1.17D+04 ExpMxC= 4.01D+02 IAcc=3 IRadAn=         0 AccDes= 0.00D+00
 HarFok:  IExCor=  205 AccDes= 0.00D+00 IRadAn=         0 IDoV= 1
 ScaDFX=  1.000000  1.000000  1.000000  1.000000
 FoFCou: FMM=F IPFlag=           0 FMFlag=      100000 FMFlg1=           0
         NFxFlg=           0 DoJE=T BraDBF=F KetDBF=T FulRan=T
         Omega=  0.000000  0.000000  1.000000  0.000000  0.000000 ICntrl=     500 IOpCl=  0
         NMat0=    1 NMatS0=    1 NMatT0=    0 NMatD0=    1 NMtDS0=    0 NMtDT0=    0
         I1Cent=           4 NGrid=           0.
 Petite list used in FoFCou.
 Initial guess orbital symmetries:
       Occupied  (A) (A) (A) (A) (A) (A) (A) (A) (A) (A) (A) (A)
                 (A) (A) (A) (A) (A) (A) (A) (A) (A) (A) (A) (A)
                 (A) (A) (A) (A) (A) (A) (A) (A) (A) (A) (A) (A)
                 (A) (A) (A)
       Virtual   (A) (A) (A) (A) (A) (A) (A) (A) (A) (A) (A) (A)
                 (A) (A) (A) (A) (A) (A) (A) (A) (A) (A) (A) (A)
                 (A) (A) (A) (A) (A) (A) (A) (A) (A) (A) (A) (A)
                 (A) (A) (A) (A) (A) (A) (A) (A) (A) (A) (A) (A)
                 (A) (A) (A) (A) (A) (A) (A) (A) (A) (A) (A) (A)
                 (A) (A) (A) (A) (A) (A) (A) (A) (A) (A) (A) (A)
                 (A) (A) (A) (A) (A) (A) (A) (A) (A) (A) (A) (A)
                 (A) (A) (A) (A) (A) (A) (A) (A) (A) (A) (A) (A)
                 (A) (A) (A) (A) (A) (A) (A) (A) (A) (A) (A) (A)
                 (A) (A) (A) (A) (A) (A) (A) (A) (A) (A) (A) (A)
                 (A) (A) (A) (A) (A) (A) (A) (A) (A) (A) (A) (A)
                 (A) (A) (A) (A) (A) (A) (A) (A) (A) (A) (A) (A)
                 (A) (A) (A) (A) (A) (A) (A) (A) (A) (A) (A) (A)
                 (A) (A) (A) (A) (A) (A) (A) (A) (A) (A) (A) (A)
                 (A) (A) (A) (A) (A) (A) (A) (A) (A) (A) (A) (A)
                 (A) (A) (A) (A) (A) (A) (A) (A) (A) (A) (A) (A)
                 (A) (A) (A) (A) (A) (A) (A) (A) (A) (A) (A) (A)
                 (A) (A) (A) (A) (A) (A) (A) (A) (A) (A) (A) (A)
                 (A) (A) (A) (A) (A) (A) (A) (A) (A) (A) (A) (A)
                 (A) (A) (A) (A) (A) (A) (A) (A) (A) (A) (A) (A)
                 (A) (A) (A) (A) (A) (A) (A) (A) (A) (A) (A) (A)
                 (A) (A) (A) (A) (A) (A) (A) (A) (A) (A) (A) (A)
                 (A) (A) (A) (A) (A) (A) (A) (A) (A) (A) (A) (A)
                 (A) (A) (A) (A) (A) (A) (A) (A) (A) (A) (A) (A)
                 (A) (A) (A) (A) (A) (A) (A) (A) (A) (A) (A)
 The electronic state of the initial guess is 1-A.
 Requested convergence on RMS density matrix=1.00D-08 within 128 cycles.
 Requested convergence on MAX density matrix=1.00D-06.
 Requested convergence on             energy=1.00D-06.
 No special actions if energy rises.
 Initial convergence to 1.0D-05 achieved.  Increase integral accuracy.
 SCF Done:  E(RHF) =  -492.915412835     A.U. after   14 cycles
             Convg  =    0.6159D-08             -V/T =  2.0017
 ExpMin= 2.97D-02 ExpMax= 1.17D+04 ExpMxC= 4.01D+02 IAcc=3 IRadAn=         5 AccDes= 0.00D+00
 HarFok:  IExCor=  205 AccDes= 0.00D+00 IRadAn=         5 IDoV=-2
 ScaDFX=  1.000000  1.000000  1.000000  1.000000
 Range of M.O.s used for correlation:    11   338
 NBasis=   338 NAE=    39 NBE=    39 NFC=    10 NFV=     0
 NROrb=    328 NOA=    29 NOB=    29 NVA=   299 NVB=   299

 **** Warning!!: The largest alpha MO coefficient is  0.79818972D+02

 Disk-based method using OVN memory for 29 occupieds at a time.
 Estimated scratch disk usage=  1385491873 words.
 Actual    scratch disk usage=  1372783775 words.
 JobTyp=1 Pass  1:  I=   1 to  29 NPSUse=  8 ParTrn=T ParDer=T DoDerP=F.
 Spin components of T(2) and E(2):
     alpha-alpha T2 =       0.6821357841D-01 E2=     -0.2064250923D+00
     alpha-beta  T2 =       0.3773425858D+00 E2=     -0.1191655086D+01
     beta-beta   T2 =       0.6821357841D-01 E2=     -0.2064250923D+00
 ANorm=    0.1230353503D+01
 E2 =    -0.1604505271D+01 EUMP2 =    -0.49451991810621D+03

 **********************************************************************

            Population analysis using the SCF density.

 **********************************************************************

 Orbital symmetries:
       Occupied  (A) (A) (A) (A) (A) (A) (A) (A) (A) (A) (A) (A)
                 (A) (A) (A) (A) (A) (A) (A) (A) (A) (A) (A) (A)
                 (A) (A) (A) (A) (A) (A) (A) (A) (A) (A) (A) (A)
                 (A) (A) (A)
       Virtual   (A) (A) (A) (A) (A) (A) (A) (A) (A) (A) (A) (A)
                 (A) (A) (A) (A) (A) (A) (A) (A) (A) (A) (A) (A)
                 (A) (A) (A) (A) (A) (A) (A) (A) (A) (A) (A) (A)
                 (A) (A) (A) (A) (A) (A) (A) (A) (A) (A) (A) (A)
                 (A) (A) (A) (A) (A) (A) (A) (A) (A) (A) (A) (A)
                 (A) (A) (A) (A) (A) (A) (A) (A) (A) (A) (A) (A)
                 (A) (A) (A) (A) (A) (A) (A) (A) (A) (A) (A) (A)
                 (A) (A) (A) (A) (A) (A) (A) (A) (A) (A) (A) (A)
                 (A) (A) (A) (A) (A) (A) (A) (A) (A) (A) (A) (A)
                 (A) (A) (A) (A) (A) (A) (A) (A) (A) (A) (A) (A)
                 (A) (A) (A) (A) (A) (A) (A) (A) (A) (A) (A) (A)
                 (A) (A) (A) (A) (A) (A) (A) (A) (A) (A) (A) (A)
                 (A) (A) (A) (A) (A) (A) (A) (A) (A) (A) (A) (A)
                 (A) (A) (A) (A) (A) (A) (A) (A) (A) (A) (A) (A)
                 (A) (A) (A) (A) (A) (A) (A) (A) (A) (A) (A) (A)
                 (A) (A) (A) (A) (A) (A) (A) (A) (A) (A) (A) (A)
                 (A) (A) (A) (A) (A) (A) (A) (A) (A) (A) (A) (A)
                 (A) (A) (A) (A) (A) (A) (A) (A) (A) (A) (A) (A)
                 (A) (A) (A) (A) (A) (A) (A) (A) (A) (A) (A) (A)
                 (A) (A) (A) (A) (A) (A) (A) (A) (A) (A) (A) (A)
                 (A) (A) (A) (A) (A) (A) (A) (A) (A) (A) (A) (A)
                 (A) (A) (A) (A) (A) (A) (A) (A) (A) (A) (A) (A)
                 (A) (A) (A) (A) (A) (A) (A) (A) (A) (A) (A) (A)
                 (A) (A) (A) (A) (A) (A) (A) (A) (A) (A) (A) (A)
                 (A) (A) (A) (A) (A) (A) (A) (A) (A) (A) (A)
 The electronic state is 1-A.
 Alpha  occ. eigenvalues --  -20.54806 -20.51712 -15.61914 -15.57257 -11.38585
 Alpha  occ. eigenvalues --  -11.35169 -11.30391 -11.26089 -11.25553 -11.23823
 Alpha  occ. eigenvalues --   -1.40202  -1.37183  -1.25545  -1.21665  -1.06309
 Alpha  occ. eigenvalues --   -1.00224  -0.94735  -0.88473  -0.81948  -0.76896
 Alpha  occ. eigenvalues --   -0.71917  -0.70917  -0.64490  -0.63962  -0.62099
 Alpha  occ. eigenvalues --   -0.61497  -0.60560  -0.58695  -0.58342  -0.56752
 Alpha  occ. eigenvalues --   -0.54448  -0.54030  -0.52387  -0.52035  -0.49642
 Alpha  occ. eigenvalues --   -0.44185  -0.42782  -0.39992  -0.37597
 Alpha virt. eigenvalues --    0.02353   0.04007   0.04333   0.04471   0.05737
 Alpha virt. eigenvalues --    0.06307   0.06400   0.06744   0.07345   0.07938
 Alpha virt. eigenvalues --    0.09014   0.09714   0.10912   0.11909   0.12595
 Alpha virt. eigenvalues --    0.13354   0.13480   0.14293   0.14943   0.15295
 Alpha virt. eigenvalues --    0.15749   0.16170   0.16608   0.16787   0.17177
 Alpha virt. eigenvalues --    0.17603   0.18178   0.18625   0.19271   0.19496
 Alpha virt. eigenvalues --    0.19826   0.20480   0.20628   0.21440   0.21551
 Alpha virt. eigenvalues --    0.23411   0.24532   0.25256   0.25915   0.26893
 Alpha virt. eigenvalues --    0.27389   0.28513   0.29229   0.30309   0.30605
 Alpha virt. eigenvalues --    0.31049   0.31334   0.32611   0.33408   0.33694
 Alpha virt. eigenvalues --    0.34286   0.35002   0.35254   0.36494   0.37119
 Alpha virt. eigenvalues --    0.37301   0.38096   0.38867   0.39019   0.40480
 Alpha virt. eigenvalues --    0.40677   0.41789   0.42277   0.42456   0.42614
 Alpha virt. eigenvalues --    0.43373   0.43878   0.44563   0.45225   0.46000
 Alpha virt. eigenvalues --    0.46282   0.46444   0.47041   0.48215   0.48765
 Alpha virt. eigenvalues --    0.49685   0.50081   0.50765   0.51057   0.52185
 Alpha virt. eigenvalues --    0.53077   0.54281   0.54691   0.56132   0.56429
 Alpha virt. eigenvalues --    0.56747   0.57363   0.57664   0.58270   0.58643
 Alpha virt. eigenvalues --    0.59365   0.60191   0.60805   0.61623   0.62318
 Alpha virt. eigenvalues --    0.63113   0.63376   0.63670   0.64078   0.65093
 Alpha virt. eigenvalues --    0.65901   0.66635   0.67413   0.68021   0.68763
 Alpha virt. eigenvalues --    0.69293   0.70123   0.70663   0.71015   0.71500
 Alpha virt. eigenvalues --    0.72612   0.73778   0.74659   0.75211   0.75769
 Alpha virt. eigenvalues --    0.76851   0.77283   0.78798   0.78903   0.79585
 Alpha virt. eigenvalues --    0.79903   0.80878   0.81495   0.81930   0.83294
 Alpha virt. eigenvalues --    0.83738   0.84961   0.85756   0.86852   0.88137
 Alpha virt. eigenvalues --    0.88903   0.91302   0.92324   0.93704   0.93915
 Alpha virt. eigenvalues --    0.95900   0.96836   0.97768   0.97883   0.99240
 Alpha virt. eigenvalues --    1.00343   1.02729   1.03618   1.04596   1.05474
 Alpha virt. eigenvalues --    1.06444   1.08064   1.09176   1.10217   1.10946
 Alpha virt. eigenvalues --    1.12040   1.12488   1.13344   1.14128   1.16216
 Alpha virt. eigenvalues --    1.16991   1.18825   1.19702   1.20070   1.21801
 Alpha virt. eigenvalues --    1.22305   1.23550   1.24539   1.26295   1.30294
 Alpha virt. eigenvalues --    1.31415   1.34180   1.36188   1.37456   1.38886
 Alpha virt. eigenvalues --    1.39785   1.41145   1.42789   1.44766   1.45402
 Alpha virt. eigenvalues --    1.48358   1.49977   1.50573   1.51675   1.53869
 Alpha virt. eigenvalues --    1.54539   1.55719   1.57863   1.60571   1.63898
 Alpha virt. eigenvalues --    1.66163   1.68599   1.71187   1.72849   1.73205
 Alpha virt. eigenvalues --    1.74068   1.76906   1.78882   1.80982   1.83120
 Alpha virt. eigenvalues --    1.83803   1.85080   1.86027   1.87172   1.87731
 Alpha virt. eigenvalues --    1.89635   1.90210   1.91415   1.92531   1.93989
 Alpha virt. eigenvalues --    1.94503   1.97614   1.98076   2.00742   2.00982
 Alpha virt. eigenvalues --    2.02297   2.03714   2.06759   2.07597   2.09716
 Alpha virt. eigenvalues --    2.10806   2.13210   2.15259   2.16169   2.16552
 Alpha virt. eigenvalues --    2.17116   2.19055   2.19477   2.20979   2.21286
 Alpha virt. eigenvalues --    2.24616   2.25979   2.27017   2.27597   2.29873
 Alpha virt. eigenvalues --    2.31827   2.32140   2.33776   2.35629   2.35823
 Alpha virt. eigenvalues --    2.37018   2.38970   2.40531   2.41187   2.45234
 Alpha virt. eigenvalues --    2.47313   2.47490   2.49825   2.51860   2.52418
 Alpha virt. eigenvalues --    2.54876   2.56741   2.56996   2.57858   2.61737
 Alpha virt. eigenvalues --    2.62643   2.65676   2.66120   2.66811   2.68530
 Alpha virt. eigenvalues --    2.69264   2.73658   2.74566   2.76418   2.80760
 Alpha virt. eigenvalues --    2.83440   2.84105   2.87415   2.88463   2.90976
 Alpha virt. eigenvalues --    2.91895   2.92626   2.96321   2.97640   2.98382
 Alpha virt. eigenvalues --    3.01853   3.02398   3.04675   3.06621   3.11684
 Alpha virt. eigenvalues --    3.15295   3.16281   3.18367   3.21359   3.23549
 Alpha virt. eigenvalues --    3.35886   3.36878   3.44372   3.46402   3.48644
 Alpha virt. eigenvalues --    3.62806   3.69716   3.71291   3.82882   3.84068
 Alpha virt. eigenvalues --    3.85887   3.90093   3.92717   3.96674   4.00826
 Alpha virt. eigenvalues --    4.06153   4.15007   4.23932   4.30739
          Condensed to atoms (all electrons):
              1          2          3          4          5          6
     1  H    0.727739   0.333146  -0.047246  -0.068137  -0.062544   0.015394
     2  C    0.333146   4.491766   0.405547   0.243700   0.144417  -0.045651
     3  H   -0.047246   0.405547   0.753300  -0.090555  -0.135668   0.012926
     4  H   -0.068137   0.243700  -0.090555   1.112470   0.211578  -0.000843
     5  C   -0.062544   0.144417  -0.135668   0.211578   5.600602   0.145937
     6  O    0.015394  -0.045651   0.012926  -0.000843   0.145937   8.867850
     7  N    0.054125   0.048915   0.067269  -0.217110  -0.018856  -0.084906
     8  H   -0.000985  -0.055367  -0.002698   0.004803  -0.099887  -0.012383
     9  C   -0.002250  -0.091616   0.001357  -0.035467  -0.300944   0.099092
    10  H   -0.001295   0.009641  -0.000217   0.002606  -0.010875   0.005056
    11  C    0.000152   0.030072   0.004306  -0.006716  -0.058214  -0.000765
    12  H   -0.000437   0.000964  -0.000331   0.000585  -0.030257   0.003406
    13  H   -0.000079   0.002713   0.000658  -0.000689  -0.014983   0.002086
    14  H    0.000265   0.004133   0.000384  -0.001189   0.015610  -0.004314
    15  C    0.005362   0.001467  -0.001507  -0.006201  -0.055281   0.018298
    16  O   -0.000013   0.000011   0.000108   0.000359   0.015691  -0.005244
    17  N    0.001136   0.007927  -0.000232   0.003755   0.065192  -0.120223
    18  H   -0.001636  -0.024038  -0.004342   0.004654  -0.018991   0.028254
    19  C   -0.000233   0.006202   0.000157   0.000139   0.018931   0.010430
    20  H    0.000258   0.001372   0.000038  -0.000041   0.000669   0.000237
    21  H   -0.000024  -0.000787  -0.000081  -0.000053  -0.007530  -0.001507
    22  H   -0.000128   0.001010   0.000156  -0.000119   0.011956   0.004792
              7          8          9         10         11         12
     1  H    0.054125  -0.000985  -0.002250  -0.001295   0.000152  -0.000437
     2  C    0.048915  -0.055367  -0.091616   0.009641   0.030072   0.000964
     3  H    0.067269  -0.002698   0.001357  -0.000217   0.004306  -0.000331
     4  H   -0.217110   0.004803  -0.035467   0.002606  -0.006716   0.000585
     5  C   -0.018856  -0.099887  -0.300944  -0.010875  -0.058214  -0.030257
     6  O   -0.084906  -0.012383   0.099092   0.005056  -0.000765   0.003406
     7  N    7.838274   0.345673  -0.504599  -0.165863   0.131435  -0.074032
     8  H    0.345673   0.936323   0.031071  -0.036216  -0.037140  -0.004415
     9  C   -0.504599   0.031071   7.482917  -0.161637  -0.126649  -0.098299
    10  H   -0.165863  -0.036216  -0.161637   1.365467   0.056425   0.080851
    11  C    0.131435  -0.037140  -0.126649   0.056425   4.389340   0.381334
    12  H   -0.074032  -0.004415  -0.098299   0.080851   0.381334   1.081654
    13  H    0.087541  -0.002473  -0.038400  -0.063239   0.380729  -0.131268
    14  H   -0.075508   0.007528   0.072956  -0.024115   0.225993  -0.189258
    15  C   -0.108632   0.022469   0.107054  -0.102253  -0.132535  -0.022753
    16  O    0.008906  -0.004996  -0.136595   0.061956   0.052144   0.002291
    17  N    0.004972  -0.009587  -0.281942   0.077053   0.095835   0.030351
    18  H    0.010259  -0.001021   0.096830  -0.006292  -0.023961  -0.001072
    19  C   -0.005666  -0.000122  -0.093703   0.010805   0.017950   0.007199
    20  H    0.002303   0.000166  -0.032259  -0.001839  -0.000014   0.000683
    21  H   -0.005650  -0.000178   0.073301   0.004007  -0.016199  -0.000611
    22  H    0.000120   0.000457  -0.032307  -0.001624   0.006715  -0.000592
             13         14         15         16         17         18
     1  H   -0.000079   0.000265   0.005362  -0.000013   0.001136  -0.001636
     2  C    0.002713   0.004133   0.001467   0.000011   0.007927  -0.024038
     3  H    0.000658   0.000384  -0.001507   0.000108  -0.000232  -0.004342
     4  H   -0.000689  -0.001189  -0.006201   0.000359   0.003755   0.004654
     5  C   -0.014983   0.015610  -0.055281   0.015691   0.065192  -0.018991
     6  O    0.002086  -0.004314   0.018298  -0.005244  -0.120223   0.028254
     7  N    0.087541  -0.075508  -0.108632   0.008906   0.004972   0.010259
     8  H   -0.002473   0.007528   0.022469  -0.004996  -0.009587  -0.001021
     9  C   -0.038400   0.072956   0.107054  -0.136595  -0.281942   0.096830
    10  H   -0.063239  -0.024115  -0.102253   0.061956   0.077053  -0.006292
    11  C    0.380729   0.225993  -0.132535   0.052144   0.095835  -0.023961
    12  H   -0.131268  -0.189258  -0.022753   0.002291   0.030351  -0.001072
    13  H    1.004601  -0.152547  -0.054842   0.030399  -0.020858   0.004664
    14  H   -0.152547   1.135795   0.072136  -0.004038   0.000115  -0.005896
    15  C   -0.054842   0.072136   5.127773   0.213990   0.227787  -0.101941
    16  O    0.030399  -0.004038   0.213990   8.799116  -0.136055  -0.000017
    17  N   -0.020858   0.000115   0.227787  -0.136055   7.093076   0.193073
    18  H    0.004664  -0.005896  -0.101941  -0.000017   0.193073   1.044258
    19  C   -0.010491   0.005086  -0.116208   0.005075   0.237927  -0.189590
    20  H   -0.000309   0.000029   0.057939  -0.008837  -0.000728  -0.009855
    21  H   -0.003491   0.000215  -0.017477   0.007945   0.044339  -0.004306
    22  H    0.000871   0.000598  -0.030182   0.004112  -0.129737   0.019609
             19         20         21         22
     1  H   -0.000233   0.000258  -0.000024  -0.000128
     2  C    0.006202   0.001372  -0.000787   0.001010
     3  H    0.000157   0.000038  -0.000081   0.000156
     4  H    0.000139  -0.000041  -0.000053  -0.000119
     5  C    0.018931   0.000669  -0.007530   0.011956
     6  O    0.010430   0.000237  -0.001507   0.004792
     7  N   -0.005666   0.002303  -0.005650   0.000120
     8  H   -0.000122   0.000166  -0.000178   0.000457
     9  C   -0.093703  -0.032259   0.073301  -0.032307
    10  H    0.010805  -0.001839   0.004007  -0.001624
    11  C    0.017950  -0.000014  -0.016199   0.006715
    12  H    0.007199   0.000683  -0.000611  -0.000592
    13  H   -0.010491  -0.000309  -0.003491   0.000871
    14  H    0.005086   0.000029   0.000215   0.000598
    15  C   -0.116208   0.057939  -0.017477  -0.030182
    16  O    0.005075  -0.008837   0.007945   0.004112
    17  N    0.237927  -0.000728   0.044339  -0.129737
    18  H   -0.189590  -0.009855  -0.004306   0.019609
    19  C    4.216871   0.379668   0.283906   0.480361
    20  H    0.379668   0.944442  -0.075949  -0.186372
    21  H    0.283906  -0.075949   0.948042  -0.180152
    22  H    0.480361  -0.186372  -0.180152   1.243265
 Mulliken atomic charges:
              1
     1  H    0.047431
     2  C    0.484457
     3  H    0.036672
     4  H   -0.157530
     5  C    0.583449
     6  O   -0.937923
     7  N   -0.338972
     8  H   -0.081021
     9  C   -0.027909
    10  H   -0.098403
    11  C    0.629764
    12  H   -0.035995
    13  H   -0.020592
    14  H   -0.083977
    15  C    0.895538
    16  O   -0.906306
    17  N   -0.383174
    18  H   -0.008643
    19  C    0.735304
    20  H   -0.071599
    21  H   -0.047760
    22  H   -0.212810
 Sum of Mulliken atomic charges =   0.00000
 Mulliken charges with hydrogens summed into heavy atoms:
              1
     2  C    0.411029
     5  C    0.583449
     6  O   -0.937923
     7  N   -0.419993
     9  C   -0.126312
    11  C    0.489200
    15  C    0.895538
    16  O   -0.906306
    17  N   -0.391817
    19  C    0.403135
 Sum of Mulliken charges with hydrogens summed into heavy atoms =   0.00000
 Electronic spatial extent (au):  <R**2>=           1741.6187
 Charge=              0.0000 electrons
 Dipole moment (field-independent basis, Debye):
    X=             -4.7222    Y=              1.0592    Z=             -0.4569  Tot=              4.8611
 Quadrupole moment (field-independent basis, Debye-Ang):
   XX=            -61.6019   YY=            -59.7887   ZZ=            -62.2816
   XY=             -9.5885   XZ=              8.0572   YZ=              1.8277
 Traceless Quadrupole moment (field-independent basis, Debye-Ang):
   XX=             -0.3779   YY=              1.4354   ZZ=             -1.0575
   XY=             -9.5885   XZ=              8.0572   YZ=              1.8277
 Octapole moment (field-independent basis, Debye-Ang**2):
  XXX=            -54.6745  YYY=              3.0861  ZZZ=             -1.4436  XYY=              3.1110
  XXY=            -16.4761  XXZ=              4.5669  XZZ=             -3.7462  YZZ=              0.7935
  YYZ=             -4.2056  XYZ=              3.0654
 Hexadecapole moment (field-independent basis, Debye-Ang**3):
 XXXX=          -1400.8050 YYYY=           -659.9491 ZZZZ=           -190.4023 XXXY=            -34.2373
 XXXZ=             36.7003 YYYX=            -22.3273 YYYZ=             -7.6259 ZZZX=             -0.6616
 ZZZY=             -4.9604 XXYY=           -344.8797 XXZZ=           -271.2910 YYZZ=           -143.9862
 XXYZ=             10.0448 YYXZ=             17.1525 ZZXY=             -4.2336
 N-N= 5.584094088266D+02 E-N=-2.272013491913D+03  KE= 4.920599934502D+02
 1\1\GINC-NODE005\SP\RMP2-FC\Aug-CC-pVDZ\C6H12N2O2\MANAGER\13-Feb-2017\
 0\\#SP MP2/aug-cc-pVDZ\\Single Point calculation at MP2\\0,1\H,0,-3.46
 1,-1.3684,-1.0706\C,0,-3.3414,-0.5254,-0.3827\H,0,-3.9285,-0.7502,0.51
 23\H,0,-3.7425,0.3761,-0.8557\C,0,-1.8736,-0.4302,0.0141\O,0,-1.3518,-
 1.3601,0.6339\N,0,-1.259,0.7289,-0.3438\H,0,-1.8526,1.3694,-0.8524\C,0
 ,0.1373,1.228,-0.2582\H,0,0.2649,1.8485,-1.1485\C,0,0.2919,2.1253,0.98
 7\H,0,0.1632,1.5349,1.9002\H,0,1.288,2.5758,0.9927\H,0,-0.4582,2.9238,
 0.9843\C,0,1.3708,0.2888,-0.3226\O,0,2.4112,0.8003,-0.7375\N,0,1.2913,
 -0.9746,0.1292\H,0,0.3901,-1.3198,0.4657\C,0,2.4681,-1.8264,0.1309\H,0
 ,2.9421,-1.8304,-0.8557\H,0,3.2132,-1.4795,0.8569\H,0,2.1625,-2.8425,0
 .3906\\Version=EM64L-G09RevA.02\State=1-A\HF=-492.9154128\MP2=-494.519
 9181\RMSD=6.159e-09\PG=C01 [X(C6H12N2O2)]\\@


 WE LEARN WISDOM FROM FAILURE MUCH MORE THAN FROM SUCCESS.
 WE DISCOVER WHAT WILL DO BY FINDING OUT WHAT WILL NOT DO...
 AND HE WHO NEVER MADE A MISTAKE NEVER MADE A DISCOVERY
 Job cpu time:  0 days 16 hours 41 minutes 29.3 seconds.
 File lengths (MBytes):  RWF=  10590 Int=      0 D2E=      0 Chk=      7 Scr=      2
 Normal termination of Gaussian 09 at Mon Feb 13 16:26:48 2017.
