 Entering Gaussian System, Link 0=g09
 Initial command:
 /home/steboss/Software/g09/l1.exe /home/steboss/projects/phi_psi_scan/alanine/MP2/30/5515/Gau-21006.inp -scrdir=/home/steboss/projects/phi_psi_scan/alanine/MP2/30/5515/
 Entering Link 1 = /home/steboss/Software/g09/l1.exe PID=     21008.
  
 Copyright (c) 1988,1990,1992,1993,1995,1998,2003,2009, Gaussian, Inc.
                  All Rights Reserved.
  
 This is part of the Gaussian(R) 09 program.  It is based on
 the Gaussian(R) 03 system (copyright 2003, Gaussian, Inc.),
 the Gaussian(R) 98 system (copyright 1998, Gaussian, Inc.),
 the Gaussian(R) 94 system (copyright 1995, Gaussian, Inc.),
 the Gaussian 92(TM) system (copyright 1992, Gaussian, Inc.),
 the Gaussian 90(TM) system (copyright 1990, Gaussian, Inc.),
 the Gaussian 88(TM) system (copyright 1988, Gaussian, Inc.),
 the Gaussian 86(TM) system (copyright 1986, Carnegie Mellon
 University), and the Gaussian 82(TM) system (copyright 1983,
 Carnegie Mellon University). Gaussian is a federally registered
 trademark of Gaussian, Inc.
  
 This software contains proprietary and confidential information,
 including trade secrets, belonging to Gaussian, Inc.
  
 This software is provided under written license and may be
 used, copied, transmitted, or stored only in accord with that
 written license.
  
 The following legend is applicable only to US Government
 contracts under FAR:
  
                    RESTRICTED RIGHTS LEGEND
  
 Use, reproduction and disclosure by the US Government is
 subject to restrictions as set forth in subparagraphs (a)
 and (c) of the Commercial Computer Software - Restricted
 Rights clause in FAR 52.227-19.
  
 Gaussian, Inc.
 340 Quinnipiac St., Bldg. 40, Wallingford CT 06492
  
  
 ---------------------------------------------------------------
 Warning -- This program may not be used in any manner that
 competes with the business of Gaussian, Inc. or will provide
 assistance to any competitor of Gaussian, Inc.  The licensee
 of this program is prohibited from giving any competitor of
 Gaussian, Inc. access to this program.  By using this program,
 the user acknowledges that Gaussian, Inc. is engaged in the
 business of creating and licensing software in the field of
 computational chemistry and represents and warrants to the
 licensee that it is not a competitor of Gaussian, Inc. and that
 it will not use this program in any manner prohibited above.
 ---------------------------------------------------------------
  

 Cite this work as:
 Gaussian 09, Revision A.02,
 M. J. Frisch, G. W. Trucks, H. B. Schlegel, G. E. Scuseria, 
 M. A. Robb, J. R. Cheeseman, G. Scalmani, V. Barone, B. Mennucci, 
 G. A. Petersson, H. Nakatsuji, M. Caricato, X. Li, H. P. Hratchian, 
 A. F. Izmaylov, J. Bloino, G. Zheng, J. L. Sonnenberg, M. Hada, 
 M. Ehara, K. Toyota, R. Fukuda, J. Hasegawa, M. Ishida, T. Nakajima, 
 Y. Honda, O. Kitao, H. Nakai, T. Vreven, J. A. Montgomery, Jr., 
 J. E. Peralta, F. Ogliaro, M. Bearpark, J. J. Heyd, E. Brothers, 
 K. N. Kudin, V. N. Staroverov, R. Kobayashi, J. Normand, 
 K. Raghavachari, A. Rendell, J. C. Burant, S. S. Iyengar, J. Tomasi, 
 M. Cossi, N. Rega, J. M. Millam, M. Klene, J. E. Knox, J. B. Cross, 
 V. Bakken, C. Adamo, J. Jaramillo, R. Gomperts, R. E. Stratmann, 
 O. Yazyev, A. J. Austin, R. Cammi, C. Pomelli, J. W. Ochterski, 
 R. L. Martin, K. Morokuma, V. G. Zakrzewski, G. A. Voth, 
 P. Salvador, J. J. Dannenberg, S. Dapprich, A. D. Daniels, 
 O. Farkas, J. B. Foresman, J. V. Ortiz, J. Cioslowski, 
 and D. J. Fox, Gaussian, Inc., Wallingford CT, 2009.
 
 ******************************************
 Gaussian 09:  EM64L-G09RevA.02 11-Jun-2009
                13-Feb-2017 
 ******************************************
 %chk=structure_0.chk
 %NProcShared=8
 Will use up to    8 processors via shared memory.
 -------------------
 #SP MP2/aug-cc-pVDZ
 -------------------
 1/38=1/1;
 2/12=2,17=6,18=5,40=1/2;
 3/5=16,7=10,11=9,16=1,25=1,30=1/1,2,3;
 4//1;
 5/5=2,38=5/2;
 8/10=1/1;
 9/16=-3/6;
 6/7=2,8=2,9=2,10=2/1;
 99/5=1,9=1/99;
 -------------------------------
 Single Point calculation at MP2
 -------------------------------
 Symbolic Z-matrix:
 Charge =  0 Multiplicity = 1
 H                    -3.8891   -0.6066    0.6924 
 C                    -3.3415   -0.5549   -0.2535 
 H                    -3.7382    0.2732   -0.8487 
 H                    -3.5227   -1.4939   -0.7853 
 C                    -1.8533   -0.4543    0.057 
 O                    -1.3091   -1.3339    0.7282 
 N                    -1.2377    0.648    -0.4476 
 H                    -1.8471    1.26     -0.9728 
 C                     0.1392    1.1925   -0.3613 
 H                     0.3119    1.6619   -1.3363 
 C                     0.182     2.2932    0.7161 
 H                    -0.0168    1.8644    1.7042 
 H                     1.1701    2.7572    0.7225 
 H                    -0.5747    3.0604    0.5165 
 C                     1.3937    0.2917   -0.1973 
 O                     2.4757    0.8757   -0.2297 
 N                     1.27     -1.0495   -0.126 
 H                     0.3667   -1.4176    0.1786 
 C                     2.4596   -1.872     0.0321 
 H                     3.2142   -1.5687   -0.6972 
 H                     2.9003   -1.7743    1.0329 
 H                     2.1879   -2.9169   -0.1376 
 
                          Input orientation:                          
 ---------------------------------------------------------------------
 Center     Atomic      Atomic             Coordinates (Angstroms)
 Number     Number       Type             X           Y           Z
 ---------------------------------------------------------------------
      1          1           0       -3.889100   -0.606600    0.692400
      2          6           0       -3.341500   -0.554900   -0.253500
      3          1           0       -3.738200    0.273200   -0.848700
      4          1           0       -3.522700   -1.493900   -0.785300
      5          6           0       -1.853300   -0.454300    0.057000
      6          8           0       -1.309100   -1.333900    0.728200
      7          7           0       -1.237700    0.648000   -0.447600
      8          1           0       -1.847100    1.260000   -0.972800
      9          6           0        0.139200    1.192500   -0.361300
     10          1           0        0.311900    1.661900   -1.336300
     11          6           0        0.182000    2.293200    0.716100
     12          1           0       -0.016800    1.864400    1.704200
     13          1           0        1.170100    2.757200    0.722500
     14          1           0       -0.574700    3.060400    0.516500
     15          6           0        1.393700    0.291700   -0.197300
     16          8           0        2.475700    0.875700   -0.229700
     17          7           0        1.270000   -1.049500   -0.126000
     18          1           0        0.366700   -1.417600    0.178600
     19          6           0        2.459600   -1.872000    0.032100
     20          1           0        3.214200   -1.568700   -0.697200
     21          1           0        2.900300   -1.774300    1.032900
     22          1           0        2.187900   -2.916900   -0.137600
 ---------------------------------------------------------------------
                    Distance matrix (angstroms):
                    1          2          3          4          5
     1  H    0.000000
     2  C    1.094196   0.000000
     3  H    1.780957   1.094250   0.000000
     4  H    1.762143   1.094242   1.781320   0.000000
     5  C    2.138086   1.523571   2.214136   2.139424   0.000000
     6  O    2.680792   2.387724   3.312086   2.686319   1.233028
     7  N    3.146990   2.431176   2.560050   3.150080   1.359651
     8  H    3.229063   2.458554   2.136688   3.229049   1.999838
     9  C    4.535884   3.896190   4.014586   4.561363   2.618584
    10  H    5.187496   4.408400   4.309240   4.996682   3.332818
    11  C    4.998325   4.633233   4.679420   5.506463   3.482185
    12  H    4.703646   4.554035   4.785189   5.455926   3.385612
    13  H    6.075489   5.681295   5.721043   6.509046   4.460669
    14  H    4.946016   4.617194   4.431703   5.579161   3.768166
    15  C    5.431987   4.810614   5.173109   5.263563   3.341286
    16  O    6.599861   5.990576   6.273653   6.473368   4.537768
    17  N    5.242352   4.639700   5.230095   4.858203   3.184769
    18  H    4.362745   3.831672   4.556792   4.007787   2.423042
    19  C    6.507167   5.955592   6.617433   6.049712   4.540000
    20  H    7.301609   6.648448   7.193846   6.737891   5.243116
    21  H    6.897493   6.488592   7.197385   6.681273   5.029065
    22  H    6.554107   6.013879   6.767648   5.920760   4.736408
                    6          7          8          9         10
     6  O    0.000000
     7  N    2.305544   0.000000
     8  H    3.148200   1.010815   0.000000
     9  C    3.109225   1.483166   2.079393   0.000000
    10  H    3.983041   2.054030   2.225969   1.095804   0.000000
    11  C    3.921655   2.465041   2.834984   1.540832   2.151223
    12  H    3.584932   2.756895   3.298731   2.177631   3.064913
    13  H    4.783677   3.408131   3.770828   2.164639   2.484924
    14  H    4.460273   2.681181   2.660537   2.183858   2.484900
    15  C    3.286982   2.667183   3.470128   1.553096   2.084481
    16  O    4.486047   3.726750   4.403009   2.361549   2.554350
    17  N    2.731721   3.045241   3.970790   2.522031   3.120011
    18  H    1.765608   2.689411   3.660078   2.675046   3.432382
    19  C    3.870040   4.500060   5.419125   3.863959   4.355868
    20  H    4.748383   4.979505   5.804675   4.146406   4.389598
    21  H    4.243329   5.018213   5.980603   4.285950   4.911252
    22  H    3.935036   4.953721   5.867306   4.597215   5.091333
                   11         12         13         14         15
    11  C    0.000000
    12  H    1.095323   0.000000
    13  H    1.091640   1.780325   0.000000
    14  H    1.095916   1.775472   1.782889   0.000000
    15  C    2.511676   2.842287   2.640969   3.471283   0.000000
    16  O    2.857430   3.306063   2.480185   3.825529   1.229971
    17  N    3.614764   3.673731   3.901397   4.550495   1.348778
    18  H    3.754072   3.639513   4.286051   4.588343   2.029221
    19  C    4.796270   4.784262   4.854787   5.811212   2.422884
    20  H    5.109396   5.290771   4.990722   6.103884   2.650511
    21  H    4.902456   4.711715   4.860497   5.976338   2.837533
    22  H    5.647794   5.577971   5.828473   6.617244   3.305969
                   16         17         18         19         20
    16  O    0.000000
    17  N    2.273953   0.000000
    18  H    3.142263   1.021876   0.000000
    19  C    2.760191   1.454871   2.146665   0.000000
    20  H    2.595964   2.091830   2.982971   1.092378   0.000000
    21  H    2.965964   2.127501   2.697442   1.097890   1.770325
    22  H    3.804619   2.080831   2.380053   1.092902   1.784401
                   21         22
    21  H    0.000000
    22  H    1.784130   0.000000
 Stoichiometry    C6H12N2O2
 Framework group  C1[X(C6H12N2O2)]
 Deg. of freedom    60
 Full point group                 C1      NOp   1
 Largest Abelian subgroup         C1      NOp   1
 Largest concise Abelian subgroup C1      NOp   1
                         Standard orientation:                         
 ---------------------------------------------------------------------
 Center     Atomic      Atomic             Coordinates (Angstroms)
 Number     Number       Type             X           Y           Z
 ---------------------------------------------------------------------
      1          1           0       -3.889082   -0.606682    0.692392
      2          6           0       -3.341484   -0.554971   -0.253508
      3          1           0       -3.738200    0.273121   -0.848708
      4          1           0       -3.522664   -1.493974   -0.785308
      5          6           0       -1.853286   -0.454340    0.056992
      6          8           0       -1.309068   -1.333929    0.728192
      7          7           0       -1.237708    0.647972   -0.447608
      8          1           0       -1.847121    1.259960   -0.972808
      9          6           0        0.139181    1.192500   -0.361308
     10          1           0        0.311871    1.661904   -1.336308
     11          6           0        0.181958    2.293201    0.716092
     12          1           0       -0.016833    1.864397    1.704192
     13          1           0        1.170049    2.757221    0.722492
     14          1           0       -0.574757    3.060386    0.516492
     15          6           0        1.393699    0.291726   -0.197308
     16          8           0        2.475687    0.875748   -0.229708
     17          7           0        1.270027   -1.049477   -0.126008
     18          1           0        0.366734   -1.417595    0.178592
     19          6           0        2.459643   -1.871952    0.032092
     20          1           0        3.214237   -1.568637   -0.697208
     21          1           0        2.900341   -1.774243    1.032892
     22          1           0        2.187965   -2.916858   -0.137608
 ---------------------------------------------------------------------
 Rotational constants (GHZ):      1.8987043      0.9294615      0.6760412
 Standard basis: Aug-CC-pVDZ (5D, 7F)
 There are   338 symmetry adapted basis functions of A   symmetry.
 Integral buffers will be    131072 words long.
 Raffenetti 1 integral format.
 Two-electron integral symmetry is turned on.
   338 basis functions,   562 primitive gaussians,   358 cartesian basis functions
    39 alpha electrons       39 beta electrons
       nuclear repulsion energy       558.5797836096 Hartrees.
 NAtoms=   22 NActive=   22 NUniq=   22 SFac= 7.50D-01 NAtFMM=   80 NAOKFM=F Big=F
 One-electron integrals computed using PRISM.
 NBasis=   338 RedAO= T  NBF=   338
 NBsUse=   338 1.00D-06 NBFU=   338
 Harris functional with IExCor=  205 diagonalized for initial guess.
 ExpMin= 2.97D-02 ExpMax= 1.17D+04 ExpMxC= 4.01D+02 IAcc=3 IRadAn=         0 AccDes= 0.00D+00
 HarFok:  IExCor=  205 AccDes= 0.00D+00 IRadAn=         0 IDoV= 1
 ScaDFX=  1.000000  1.000000  1.000000  1.000000
 FoFCou: FMM=F IPFlag=           0 FMFlag=      100000 FMFlg1=           0
         NFxFlg=           0 DoJE=T BraDBF=F KetDBF=T FulRan=T
         Omega=  0.000000  0.000000  1.000000  0.000000  0.000000 ICntrl=     500 IOpCl=  0
         NMat0=    1 NMatS0=    1 NMatT0=    0 NMatD0=    1 NMtDS0=    0 NMtDT0=    0
         I1Cent=           4 NGrid=           0.
 Petite list used in FoFCou.
 Initial guess orbital symmetries:
       Occupied  (A) (A) (A) (A) (A) (A) (A) (A) (A) (A) (A) (A)
                 (A) (A) (A) (A) (A) (A) (A) (A) (A) (A) (A) (A)
                 (A) (A) (A) (A) (A) (A) (A) (A) (A) (A) (A) (A)
                 (A) (A) (A)
       Virtual   (A) (A) (A) (A) (A) (A) (A) (A) (A) (A) (A) (A)
                 (A) (A) (A) (A) (A) (A) (A) (A) (A) (A) (A) (A)
                 (A) (A) (A) (A) (A) (A) (A) (A) (A) (A) (A) (A)
                 (A) (A) (A) (A) (A) (A) (A) (A) (A) (A) (A) (A)
                 (A) (A) (A) (A) (A) (A) (A) (A) (A) (A) (A) (A)
                 (A) (A) (A) (A) (A) (A) (A) (A) (A) (A) (A) (A)
                 (A) (A) (A) (A) (A) (A) (A) (A) (A) (A) (A) (A)
                 (A) (A) (A) (A) (A) (A) (A) (A) (A) (A) (A) (A)
                 (A) (A) (A) (A) (A) (A) (A) (A) (A) (A) (A) (A)
                 (A) (A) (A) (A) (A) (A) (A) (A) (A) (A) (A) (A)
                 (A) (A) (A) (A) (A) (A) (A) (A) (A) (A) (A) (A)
                 (A) (A) (A) (A) (A) (A) (A) (A) (A) (A) (A) (A)
                 (A) (A) (A) (A) (A) (A) (A) (A) (A) (A) (A) (A)
                 (A) (A) (A) (A) (A) (A) (A) (A) (A) (A) (A) (A)
                 (A) (A) (A) (A) (A) (A) (A) (A) (A) (A) (A) (A)
                 (A) (A) (A) (A) (A) (A) (A) (A) (A) (A) (A) (A)
                 (A) (A) (A) (A) (A) (A) (A) (A) (A) (A) (A) (A)
                 (A) (A) (A) (A) (A) (A) (A) (A) (A) (A) (A) (A)
                 (A) (A) (A) (A) (A) (A) (A) (A) (A) (A) (A) (A)
                 (A) (A) (A) (A) (A) (A) (A) (A) (A) (A) (A) (A)
                 (A) (A) (A) (A) (A) (A) (A) (A) (A) (A) (A) (A)
                 (A) (A) (A) (A) (A) (A) (A) (A) (A) (A) (A) (A)
                 (A) (A) (A) (A) (A) (A) (A) (A) (A) (A) (A) (A)
                 (A) (A) (A) (A) (A) (A) (A) (A) (A) (A) (A) (A)
                 (A) (A) (A) (A) (A) (A) (A) (A) (A) (A) (A)
 The electronic state of the initial guess is 1-A.
 Requested convergence on RMS density matrix=1.00D-08 within 128 cycles.
 Requested convergence on MAX density matrix=1.00D-06.
 Requested convergence on             energy=1.00D-06.
 No special actions if energy rises.
 Initial convergence to 1.0D-05 achieved.  Increase integral accuracy.
 SCF Done:  E(RHF) =  -492.914497102     A.U. after   14 cycles
             Convg  =    0.6317D-08             -V/T =  2.0017
 ExpMin= 2.97D-02 ExpMax= 1.17D+04 ExpMxC= 4.01D+02 IAcc=3 IRadAn=         5 AccDes= 0.00D+00
 HarFok:  IExCor=  205 AccDes= 0.00D+00 IRadAn=         5 IDoV=-2
 ScaDFX=  1.000000  1.000000  1.000000  1.000000
 Range of M.O.s used for correlation:    11   338
 NBasis=   338 NAE=    39 NBE=    39 NFC=    10 NFV=     0
 NROrb=    328 NOA=    29 NOB=    29 NVA=   299 NVB=   299

 **** Warning!!: The largest alpha MO coefficient is  0.59717557D+02

 Disk-based method using OVN memory for 29 occupieds at a time.
 Estimated scratch disk usage=  1385477097 words.
 Actual    scratch disk usage=  1372093731 words.
 JobTyp=1 Pass  1:  I=   1 to  29 NPSUse=  8 ParTrn=T ParDer=T DoDerP=F.
 Spin components of T(2) and E(2):
     alpha-alpha T2 =       0.6822516783D-01 E2=     -0.2064453129D+00
     alpha-beta  T2 =       0.3772627352D+00 E2=     -0.1191493658D+01
     beta-beta   T2 =       0.6822516783D-01 E2=     -0.2064453129D+00
 ANorm=    0.1230330472D+01
 E2 =    -0.1604384284D+01 EUMP2 =    -0.49451888138614D+03

 **********************************************************************

            Population analysis using the SCF density.

 **********************************************************************

 Orbital symmetries:
       Occupied  (A) (A) (A) (A) (A) (A) (A) (A) (A) (A) (A) (A)
                 (A) (A) (A) (A) (A) (A) (A) (A) (A) (A) (A) (A)
                 (A) (A) (A) (A) (A) (A) (A) (A) (A) (A) (A) (A)
                 (A) (A) (A)
       Virtual   (A) (A) (A) (A) (A) (A) (A) (A) (A) (A) (A) (A)
                 (A) (A) (A) (A) (A) (A) (A) (A) (A) (A) (A) (A)
                 (A) (A) (A) (A) (A) (A) (A) (A) (A) (A) (A) (A)
                 (A) (A) (A) (A) (A) (A) (A) (A) (A) (A) (A) (A)
                 (A) (A) (A) (A) (A) (A) (A) (A) (A) (A) (A) (A)
                 (A) (A) (A) (A) (A) (A) (A) (A) (A) (A) (A) (A)
                 (A) (A) (A) (A) (A) (A) (A) (A) (A) (A) (A) (A)
                 (A) (A) (A) (A) (A) (A) (A) (A) (A) (A) (A) (A)
                 (A) (A) (A) (A) (A) (A) (A) (A) (A) (A) (A) (A)
                 (A) (A) (A) (A) (A) (A) (A) (A) (A) (A) (A) (A)
                 (A) (A) (A) (A) (A) (A) (A) (A) (A) (A) (A) (A)
                 (A) (A) (A) (A) (A) (A) (A) (A) (A) (A) (A) (A)
                 (A) (A) (A) (A) (A) (A) (A) (A) (A) (A) (A) (A)
                 (A) (A) (A) (A) (A) (A) (A) (A) (A) (A) (A) (A)
                 (A) (A) (A) (A) (A) (A) (A) (A) (A) (A) (A) (A)
                 (A) (A) (A) (A) (A) (A) (A) (A) (A) (A) (A) (A)
                 (A) (A) (A) (A) (A) (A) (A) (A) (A) (A) (A) (A)
                 (A) (A) (A) (A) (A) (A) (A) (A) (A) (A) (A) (A)
                 (A) (A) (A) (A) (A) (A) (A) (A) (A) (A) (A) (A)
                 (A) (A) (A) (A) (A) (A) (A) (A) (A) (A) (A) (A)
                 (A) (A) (A) (A) (A) (A) (A) (A) (A) (A) (A) (A)
                 (A) (A) (A) (A) (A) (A) (A) (A) (A) (A) (A) (A)
                 (A) (A) (A) (A) (A) (A) (A) (A) (A) (A) (A) (A)
                 (A) (A) (A) (A) (A) (A) (A) (A) (A) (A) (A) (A)
                 (A) (A) (A) (A) (A) (A) (A) (A) (A) (A) (A)
 The electronic state is 1-A.
 Alpha  occ. eigenvalues --  -20.54696 -20.51970 -15.61895 -15.57304 -11.38537
 Alpha  occ. eigenvalues --  -11.35449 -11.30527 -11.26090 -11.25449 -11.23469
 Alpha  occ. eigenvalues --   -1.40174  -1.37475  -1.25579  -1.21682  -1.06219
 Alpha  occ. eigenvalues --   -1.00114  -0.94777  -0.88212  -0.81981  -0.76714
 Alpha  occ. eigenvalues --   -0.71742  -0.70884  -0.64894  -0.64027  -0.62376
 Alpha  occ. eigenvalues --   -0.61035  -0.60455  -0.59185  -0.58295  -0.56306
 Alpha  occ. eigenvalues --   -0.54153  -0.54071  -0.52309  -0.51832  -0.49748
 Alpha  occ. eigenvalues --   -0.44063  -0.42318  -0.40563  -0.37896
 Alpha virt. eigenvalues --    0.02311   0.03975   0.04293   0.04538   0.05738
 Alpha virt. eigenvalues --    0.06171   0.06459   0.06605   0.07598   0.07992
 Alpha virt. eigenvalues --    0.09021   0.09658   0.11151   0.11898   0.12622
 Alpha virt. eigenvalues --    0.13243   0.13691   0.14254   0.15268   0.15570
 Alpha virt. eigenvalues --    0.15801   0.15842   0.16399   0.16740   0.17264
 Alpha virt. eigenvalues --    0.17596   0.17918   0.19089   0.19341   0.19580
 Alpha virt. eigenvalues --    0.19942   0.20438   0.20614   0.21316   0.21333
 Alpha virt. eigenvalues --    0.24141   0.24796   0.25394   0.26317   0.26333
 Alpha virt. eigenvalues --    0.27394   0.28617   0.29212   0.30023   0.30613
 Alpha virt. eigenvalues --    0.30764   0.31554   0.32252   0.33463   0.33730
 Alpha virt. eigenvalues --    0.34608   0.34766   0.35048   0.36022   0.36383
 Alpha virt. eigenvalues --    0.37482   0.37849   0.39232   0.39728   0.40230
 Alpha virt. eigenvalues --    0.41122   0.41331   0.42403   0.42595   0.42826
 Alpha virt. eigenvalues --    0.43531   0.43761   0.44267   0.45600   0.46053
 Alpha virt. eigenvalues --    0.46547   0.46988   0.47649   0.48370   0.48633
 Alpha virt. eigenvalues --    0.49567   0.50224   0.50853   0.51167   0.52010
 Alpha virt. eigenvalues --    0.53455   0.54440   0.55021   0.55578   0.56237
 Alpha virt. eigenvalues --    0.57033   0.57204   0.58256   0.58470   0.58981
 Alpha virt. eigenvalues --    0.59950   0.60415   0.61479   0.61687   0.61747
 Alpha virt. eigenvalues --    0.62647   0.63669   0.63793   0.64121   0.64431
 Alpha virt. eigenvalues --    0.65375   0.66224   0.66516   0.67555   0.68064
 Alpha virt. eigenvalues --    0.69039   0.69641   0.70649   0.71273   0.71996
 Alpha virt. eigenvalues --    0.73167   0.73798   0.74260   0.75081   0.75448
 Alpha virt. eigenvalues --    0.76106   0.77543   0.78463   0.79139   0.80076
 Alpha virt. eigenvalues --    0.80175   0.81577   0.81752   0.82001   0.84221
 Alpha virt. eigenvalues --    0.85073   0.85910   0.86461   0.87022   0.87666
 Alpha virt. eigenvalues --    0.89874   0.91163   0.91412   0.92623   0.94134
 Alpha virt. eigenvalues --    0.95000   0.95555   0.97254   0.97968   0.99232
 Alpha virt. eigenvalues --    1.01152   1.02390   1.04226   1.05359   1.05738
 Alpha virt. eigenvalues --    1.05903   1.07875   1.08793   1.09444   1.10432
 Alpha virt. eigenvalues --    1.11224   1.12616   1.13209   1.15520   1.17522
 Alpha virt. eigenvalues --    1.18270   1.18397   1.20075   1.21872   1.23088
 Alpha virt. eigenvalues --    1.23827   1.25748   1.26436   1.28530   1.30233
 Alpha virt. eigenvalues --    1.31182   1.33609   1.36378   1.37265   1.39485
 Alpha virt. eigenvalues --    1.39863   1.40936   1.42841   1.44537   1.46257
 Alpha virt. eigenvalues --    1.48283   1.49530   1.51124   1.52095   1.52492
 Alpha virt. eigenvalues --    1.54837   1.56912   1.57338   1.61729   1.63293
 Alpha virt. eigenvalues --    1.66196   1.67272   1.70046   1.71827   1.73949
 Alpha virt. eigenvalues --    1.74456   1.75065   1.76346   1.80723   1.81328
 Alpha virt. eigenvalues --    1.83664   1.84671   1.86225   1.87635   1.88065
 Alpha virt. eigenvalues --    1.89184   1.90390   1.92069   1.92847   1.94055
 Alpha virt. eigenvalues --    1.95136   1.95505   1.97209   1.98807   2.00646
 Alpha virt. eigenvalues --    2.01407   2.05325   2.05877   2.08618   2.10375
 Alpha virt. eigenvalues --    2.12791   2.13392   2.14357   2.15314   2.17084
 Alpha virt. eigenvalues --    2.17421   2.18862   2.20276   2.21118   2.24921
 Alpha virt. eigenvalues --    2.25136   2.25608   2.27008   2.28707   2.30029
 Alpha virt. eigenvalues --    2.30232   2.31821   2.33265   2.34097   2.35898
 Alpha virt. eigenvalues --    2.36990   2.38814   2.41222   2.42478   2.46546
 Alpha virt. eigenvalues --    2.47442   2.49490   2.49560   2.50892   2.53636
 Alpha virt. eigenvalues --    2.53782   2.55852   2.56637   2.58729   2.60540
 Alpha virt. eigenvalues --    2.63719   2.64473   2.66507   2.67460   2.68386
 Alpha virt. eigenvalues --    2.70427   2.71502   2.74475   2.77007   2.81632
 Alpha virt. eigenvalues --    2.82558   2.84138   2.85384   2.88069   2.88981
 Alpha virt. eigenvalues --    2.92141   2.92745   2.94190   2.95384   2.97822
 Alpha virt. eigenvalues --    3.00480   3.01646   3.05536   3.07879   3.09970
 Alpha virt. eigenvalues --    3.13555   3.15553   3.18627   3.19417   3.24386
 Alpha virt. eigenvalues --    3.34229   3.36388   3.40624   3.46606   3.51639
 Alpha virt. eigenvalues --    3.63800   3.67337   3.70265   3.83507   3.85043
 Alpha virt. eigenvalues --    3.86120   3.89345   3.94941   3.97383   3.99488
 Alpha virt. eigenvalues --    4.07193   4.14606   4.24414   4.26616
          Condensed to atoms (all electrons):
              1          2          3          4          5          6
     1  H    0.747899   0.384367  -0.083929  -0.045702  -0.125741   0.014037
     2  C    0.384367   4.457526   0.299476   0.342237   0.225607  -0.049350
     3  H   -0.083929   0.299476   1.105997  -0.074088   0.154064  -0.005129
     4  H   -0.045702   0.342237  -0.074088   0.725704  -0.055747   0.016656
     5  C   -0.125741   0.225607   0.154064  -0.055747   5.494777   0.161655
     6  O    0.014037  -0.049350  -0.005129   0.016656   0.161655   8.849344
     7  N    0.062374  -0.010117  -0.189658   0.047191   0.076612  -0.099318
     8  H   -0.002100  -0.053750   0.003301  -0.000440  -0.093604  -0.011237
     9  C    0.006032  -0.048391  -0.048736  -0.003815  -0.399069   0.114403
    10  H   -0.000540  -0.002178   0.000031  -0.001326  -0.042863   0.007500
    11  C    0.004572   0.019064  -0.005071   0.001235  -0.011071  -0.015317
    12  H   -0.000590   0.003956   0.001130  -0.000382  -0.033290   0.003794
    13  H    0.000765   0.002072  -0.000441  -0.000158  -0.012528   0.001100
    14  H    0.000415   0.001488  -0.001182   0.000589   0.031359  -0.004127
    15  C   -0.004260   0.004089   0.003963   0.001564  -0.043743   0.011266
    16  O    0.000078   0.001257   0.000093   0.000085   0.006270  -0.003151
    17  N    0.000408  -0.006059  -0.001175   0.002940   0.043940  -0.092386
    18  H   -0.004343  -0.018585   0.001527  -0.000430  -0.004498   0.017577
    19  C    0.000339   0.004308  -0.000041  -0.000113   0.023101   0.003885
    20  H    0.000062   0.000656  -0.000050   0.000139  -0.001083  -0.001185
    21  H   -0.000092  -0.000678  -0.000004  -0.000052  -0.004188   0.000036
    22  H    0.000101   0.001161  -0.000082  -0.000036   0.013718   0.000712
              7          8          9         10         11         12
     1  H    0.062374  -0.002100   0.006032  -0.000540   0.004572  -0.000590
     2  C   -0.010117  -0.053750  -0.048391  -0.002178   0.019064   0.003956
     3  H   -0.189658   0.003301  -0.048736   0.000031  -0.005071   0.001130
     4  H    0.047191  -0.000440  -0.003815  -0.001326   0.001235  -0.000382
     5  C    0.076612  -0.093604  -0.399069  -0.042863  -0.011071  -0.033290
     6  O   -0.099318  -0.011237   0.114403   0.007500  -0.015317   0.003794
     7  N    7.613848   0.389963  -0.189754  -0.263083   0.020183  -0.085991
     8  H    0.389963   0.924098  -0.094306  -0.012415   0.003868  -0.005480
     9  C   -0.189754  -0.094306   6.715073   0.262704   0.135924  -0.071588
    10  H   -0.263083  -0.012415   0.262704   1.205526  -0.018564   0.081987
    11  C    0.020183   0.003868   0.135924  -0.018564   4.247232   0.370595
    12  H   -0.085991  -0.005480  -0.071588   0.081987   0.370595   1.094070
    13  H    0.064294   0.000361   0.019520  -0.070581   0.332488  -0.140790
    14  H   -0.049944   0.012700   0.016648  -0.037005   0.293090  -0.180754
    15  C   -0.007238   0.002786  -0.126336  -0.175893  -0.087805  -0.014862
    16  O    0.011624  -0.003604  -0.092534   0.036228   0.004480   0.009410
    17  N   -0.057331   0.010152  -0.017695   0.055252   0.017607   0.019760
    18  H    0.028885  -0.000558   0.040792  -0.003713  -0.012324  -0.003343
    19  C   -0.017018   0.001886  -0.054824   0.003133   0.013342   0.006718
    20  H   -0.000165   0.000206  -0.020340  -0.001253  -0.001502   0.000785
    21  H   -0.004628  -0.000020   0.053790   0.003024  -0.009744   0.000176
    22  H    0.000056   0.000406  -0.024384  -0.002689   0.005060  -0.000460
             13         14         15         16         17         18
     1  H    0.000765   0.000415  -0.004260   0.000078   0.000408  -0.004343
     2  C    0.002072   0.001488   0.004089   0.001257  -0.006059  -0.018585
     3  H   -0.000441  -0.001182   0.003963   0.000093  -0.001175   0.001527
     4  H   -0.000158   0.000589   0.001564   0.000085   0.002940  -0.000430
     5  C   -0.012528   0.031359  -0.043743   0.006270   0.043940  -0.004498
     6  O    0.001100  -0.004127   0.011266  -0.003151  -0.092386   0.017577
     7  N    0.064294  -0.049944  -0.007238   0.011624  -0.057331   0.028885
     8  H    0.000361   0.012700   0.002786  -0.003604   0.010152  -0.000558
     9  C    0.019520   0.016648  -0.126336  -0.092534  -0.017695   0.040792
    10  H   -0.070581  -0.037005  -0.175893   0.036228   0.055252  -0.003713
    11  C    0.332488   0.293090  -0.087805   0.004480   0.017607  -0.012324
    12  H   -0.140790  -0.180754  -0.014862   0.009410   0.019760  -0.003343
    13  H    1.009841  -0.149693  -0.005263  -0.006086  -0.028374   0.001043
    14  H   -0.149693   1.123295   0.012449   0.000643   0.005519  -0.002359
    15  C   -0.005263   0.012449   5.366387   0.245995   0.126686  -0.059330
    16  O   -0.006086   0.000643   0.245995   8.791513  -0.161356   0.005196
    17  N   -0.028374   0.005519   0.126686  -0.161356   7.126649   0.199475
    18  H    0.001043  -0.002359  -0.059330   0.005196   0.199475   1.018755
    19  C   -0.006592   0.002267  -0.121816   0.023187   0.191880  -0.182388
    20  H   -0.000110  -0.000556   0.068064  -0.007949  -0.080793   0.008308
    21  H   -0.002024   0.000265  -0.042365   0.002199   0.125674  -0.025997
    22  H    0.000821   0.000432  -0.024908   0.010247  -0.123961   0.004408
             19         20         21         22
     1  H    0.000339   0.000062  -0.000092   0.000101
     2  C    0.004308   0.000656  -0.000678   0.001161
     3  H   -0.000041  -0.000050  -0.000004  -0.000082
     4  H   -0.000113   0.000139  -0.000052  -0.000036
     5  C    0.023101  -0.001083  -0.004188   0.013718
     6  O    0.003885  -0.001185   0.000036   0.000712
     7  N   -0.017018  -0.000165  -0.004628   0.000056
     8  H    0.001886   0.000206  -0.000020   0.000406
     9  C   -0.054824  -0.020340   0.053790  -0.024384
    10  H    0.003133  -0.001253   0.003024  -0.002689
    11  C    0.013342  -0.001502  -0.009744   0.005060
    12  H    0.006718   0.000785   0.000176  -0.000460
    13  H   -0.006592  -0.000110  -0.002024   0.000821
    14  H    0.002267  -0.000556   0.000265   0.000432
    15  C   -0.121816   0.068064  -0.042365  -0.024908
    16  O    0.023187  -0.007949   0.002199   0.010247
    17  N    0.191880  -0.080793   0.125674  -0.123961
    18  H   -0.182388   0.008308  -0.025997   0.004408
    19  C    4.222653   0.446221   0.255476   0.447252
    20  H    0.446221   1.014877  -0.093381  -0.215966
    21  H    0.255476  -0.093381   0.950084  -0.156762
    22  H    0.447252  -0.215966  -0.156762   1.258486
 Mulliken atomic charges:
              1
     1  H    0.045847
     2  C    0.441843
     3  H   -0.159996
     4  H    0.043948
     5  C    0.596321
     6  O   -0.920763
     7  N   -0.340787
     8  H   -0.072214
     9  C   -0.173114
    10  H   -0.023281
    11  C    0.692656
    12  H   -0.054854
    13  H   -0.009662
    14  H   -0.075537
    15  C    0.870570
    16  O   -0.873826
    17  N   -0.356810
    18  H   -0.008097
    19  C    0.737143
    20  H   -0.114985
    21  H   -0.050789
    22  H   -0.193613
 Sum of Mulliken atomic charges =   0.00000
 Mulliken charges with hydrogens summed into heavy atoms:
              1
     2  C    0.371643
     5  C    0.596321
     6  O   -0.920763
     7  N   -0.413001
     9  C   -0.196395
    11  C    0.552604
    15  C    0.870570
    16  O   -0.873826
    17  N   -0.364908
    19  C    0.377755
 Sum of Mulliken charges with hydrogens summed into heavy atoms =   0.00000
 Electronic spatial extent (au):  <R**2>=           1746.3883
 Charge=              0.0000 electrons
 Dipole moment (field-independent basis, Debye):
    X=             -4.7925    Y=              0.8817    Z=             -1.5690  Tot=              5.1193
 Quadrupole moment (field-independent basis, Debye-Ang):
   XX=            -61.7260   YY=            -60.1563   ZZ=            -61.5151
   XY=             -9.5526   XZ=              4.9096   YZ=              0.7608
 Traceless Quadrupole moment (field-independent basis, Debye-Ang):
   XX=             -0.5935   YY=              0.9762   ZZ=             -0.3827
   XY=             -9.5526   XZ=              4.9096   YZ=              0.7608
 Octapole moment (field-independent basis, Debye-Ang**2):
  XXX=            -56.4178  YYY=             -0.0139  ZZZ=             -0.8925  XYY=              2.2643
  XXY=            -18.9149  XXZ=             -2.7159  XZZ=             -0.0950  YZZ=              4.3742
  YYZ=             -6.4048  XYZ=             -0.1927
 Hexadecapole moment (field-independent basis, Debye-Ang**3):
 XXXX=          -1407.5721 YYYY=           -704.1024 ZZZZ=           -152.4097 XXXY=            -38.2397
 XXXZ=             11.4666 YYYX=            -17.1963 YYYZ=             -2.4088 ZZZX=              0.0135
 ZZZY=             -7.8940 XXYY=           -354.1105 XXZZ=           -256.4775 YYZZ=           -147.1795
 XXYZ=              2.3322 YYXZ=             15.6969 ZZXY=             -2.8298
 N-N= 5.585797836096D+02 E-N=-2.272355294681D+03  KE= 4.920560399392D+02
 1\1\GINC-NODE002\SP\RMP2-FC\Aug-CC-pVDZ\C6H12N2O2\STEBOSS\13-Feb-2017\
 0\\#SP MP2/aug-cc-pVDZ\\Single Point calculation at MP2\\0,1\H,0,-3.88
 91,-0.6066,0.6924\C,0,-3.3415,-0.5549,-0.2535\H,0,-3.7382,0.2732,-0.84
 87\H,0,-3.5227,-1.4939,-0.7853\C,0,-1.8533,-0.4543,0.057\O,0,-1.3091,-
 1.3339,0.7282\N,0,-1.2377,0.648,-0.4476\H,0,-1.8471,1.26,-0.9728\C,0,0
 .1392,1.1925,-0.3613\H,0,0.3119,1.6619,-1.3363\C,0,0.182,2.2932,0.7161
 \H,0,-0.0168,1.8644,1.7042\H,0,1.1701,2.7572,0.7225\H,0,-0.5747,3.0604
 ,0.5165\C,0,1.3937,0.2917,-0.1973\O,0,2.4757,0.8757,-0.2297\N,0,1.27,-
 1.0495,-0.126\H,0,0.3667,-1.4176,0.1786\C,0,2.4596,-1.872,0.0321\H,0,3
 .2142,-1.5687,-0.6972\H,0,2.9003,-1.7743,1.0329\H,0,2.1879,-2.9169,-0.
 1376\\Version=EM64L-G09RevA.02\State=1-A\HF=-492.9144971\MP2=-494.5188
 814\RMSD=6.317e-09\PG=C01 [X(C6H12N2O2)]\\@


 THE DIFFERENCE BETWEEN A NOOSE AND A HALO IS ONLY 12 INCHES.
 Job cpu time:  0 days 14 hours 20 minutes  6.5 seconds.
 File lengths (MBytes):  RWF=  10585 Int=      0 D2E=      0 Chk=      7 Scr=      2
 Normal termination of Gaussian 09 at Mon Feb 13 14:55:32 2017.
