 Entering Gaussian System, Link 0=g09
 Initial command:
 /home/steboss/Software/g09/l1.exe /home/steboss/projects/phi_psi_scan/alanine/MP2/0/5179/Gau-19135.inp -scrdir=/home/steboss/projects/phi_psi_scan/alanine/MP2/0/5179/
 Entering Link 1 = /home/steboss/Software/g09/l1.exe PID=     19138.
  
 Copyright (c) 1988,1990,1992,1993,1995,1998,2003,2009, Gaussian, Inc.
                  All Rights Reserved.
  
 This is part of the Gaussian(R) 09 program.  It is based on
 the Gaussian(R) 03 system (copyright 2003, Gaussian, Inc.),
 the Gaussian(R) 98 system (copyright 1998, Gaussian, Inc.),
 the Gaussian(R) 94 system (copyright 1995, Gaussian, Inc.),
 the Gaussian 92(TM) system (copyright 1992, Gaussian, Inc.),
 the Gaussian 90(TM) system (copyright 1990, Gaussian, Inc.),
 the Gaussian 88(TM) system (copyright 1988, Gaussian, Inc.),
 the Gaussian 86(TM) system (copyright 1986, Carnegie Mellon
 University), and the Gaussian 82(TM) system (copyright 1983,
 Carnegie Mellon University). Gaussian is a federally registered
 trademark of Gaussian, Inc.
  
 This software contains proprietary and confidential information,
 including trade secrets, belonging to Gaussian, Inc.
  
 This software is provided under written license and may be
 used, copied, transmitted, or stored only in accord with that
 written license.
  
 The following legend is applicable only to US Government
 contracts under FAR:
  
                    RESTRICTED RIGHTS LEGEND
  
 Use, reproduction and disclosure by the US Government is
 subject to restrictions as set forth in subparagraphs (a)
 and (c) of the Commercial Computer Software - Restricted
 Rights clause in FAR 52.227-19.
  
 Gaussian, Inc.
 340 Quinnipiac St., Bldg. 40, Wallingford CT 06492
  
  
 ---------------------------------------------------------------
 Warning -- This program may not be used in any manner that
 competes with the business of Gaussian, Inc. or will provide
 assistance to any competitor of Gaussian, Inc.  The licensee
 of this program is prohibited from giving any competitor of
 Gaussian, Inc. access to this program.  By using this program,
 the user acknowledges that Gaussian, Inc. is engaged in the
 business of creating and licensing software in the field of
 computational chemistry and represents and warrants to the
 licensee that it is not a competitor of Gaussian, Inc. and that
 it will not use this program in any manner prohibited above.
 ---------------------------------------------------------------
  

 Cite this work as:
 Gaussian 09, Revision A.02,
 M. J. Frisch, G. W. Trucks, H. B. Schlegel, G. E. Scuseria, 
 M. A. Robb, J. R. Cheeseman, G. Scalmani, V. Barone, B. Mennucci, 
 G. A. Petersson, H. Nakatsuji, M. Caricato, X. Li, H. P. Hratchian, 
 A. F. Izmaylov, J. Bloino, G. Zheng, J. L. Sonnenberg, M. Hada, 
 M. Ehara, K. Toyota, R. Fukuda, J. Hasegawa, M. Ishida, T. Nakajima, 
 Y. Honda, O. Kitao, H. Nakai, T. Vreven, J. A. Montgomery, Jr., 
 J. E. Peralta, F. Ogliaro, M. Bearpark, J. J. Heyd, E. Brothers, 
 K. N. Kudin, V. N. Staroverov, R. Kobayashi, J. Normand, 
 K. Raghavachari, A. Rendell, J. C. Burant, S. S. Iyengar, J. Tomasi, 
 M. Cossi, N. Rega, J. M. Millam, M. Klene, J. E. Knox, J. B. Cross, 
 V. Bakken, C. Adamo, J. Jaramillo, R. Gomperts, R. E. Stratmann, 
 O. Yazyev, A. J. Austin, R. Cammi, C. Pomelli, J. W. Ochterski, 
 R. L. Martin, K. Morokuma, V. G. Zakrzewski, G. A. Voth, 
 P. Salvador, J. J. Dannenberg, S. Dapprich, A. D. Daniels, 
 O. Farkas, J. B. Foresman, J. V. Ortiz, J. Cioslowski, 
 and D. J. Fox, Gaussian, Inc., Wallingford CT, 2009.
 
 ******************************************
 Gaussian 09:  EM64L-G09RevA.02 11-Jun-2009
                12-Feb-2017 
 ******************************************
 %chk=structure_165.chk
 %NProcShared=8
 Will use up to    8 processors via shared memory.
 -------------------
 #SP MP2/aug-cc-pVDZ
 -------------------
 1/38=1/1;
 2/12=2,17=6,18=5,40=1/2;
 3/5=16,7=10,11=9,16=1,25=1,30=1/1,2,3;
 4//1;
 5/5=2,38=5/2;
 8/10=1/1;
 9/16=-3/6;
 6/7=2,8=2,9=2,10=2/1;
 99/5=1,9=1/99;
 -------------------------------
 Single Point calculation at MP2
 -------------------------------
 Symbolic Z-matrix:
 Charge =  0 Multiplicity = 1
 H                    -3.9379   -1.1409    0.3951 
 C                    -3.3316   -0.2379    0.4769 
 H                    -3.1694   -0.0178    1.5393 
 H                    -3.8781    0.6055    0.0378 
 C                    -1.9916   -0.4847   -0.211 
 O                    -1.6119   -1.5976   -0.5126 
 N                    -1.3136    0.6929   -0.5402 
 H                    -1.8357    1.5099   -0.2456 
 C                     0.1252    0.9868   -0.4918 
 H                     0.454     1.2726   -1.5035 
 C                     0.3509    2.1935    0.4413 
 H                     0.0929    1.9233    1.4707 
 H                     1.3949    2.5165    0.4191 
 H                    -0.2733    3.0408    0.1311 
 C                     1.043    -0.1592   -0.0092 
 O                     0.6983   -1.0227    0.7779 
 N                     2.3692    0.0752   -0.3025 
 H                     2.5771    0.6445   -1.1127 
 C                     3.393    -0.8709    0.1164 
 H                     3.1277   -1.2419    1.1073 
 H                     3.4735   -1.7314   -0.5609 
 H                     4.3593   -0.3607    0.1635 
 
                          Input orientation:                          
 ---------------------------------------------------------------------
 Center     Atomic      Atomic             Coordinates (Angstroms)
 Number     Number       Type             X           Y           Z
 ---------------------------------------------------------------------
      1          1           0       -3.937900   -1.140900    0.395100
      2          6           0       -3.331600   -0.237900    0.476900
      3          1           0       -3.169400   -0.017800    1.539300
      4          1           0       -3.878100    0.605500    0.037800
      5          6           0       -1.991600   -0.484700   -0.211000
      6          8           0       -1.611900   -1.597600   -0.512600
      7          7           0       -1.313600    0.692900   -0.540200
      8          1           0       -1.835700    1.509900   -0.245600
      9          6           0        0.125200    0.986800   -0.491800
     10          1           0        0.454000    1.272600   -1.503500
     11          6           0        0.350900    2.193500    0.441300
     12          1           0        0.092900    1.923300    1.470700
     13          1           0        1.394900    2.516500    0.419100
     14          1           0       -0.273300    3.040800    0.131100
     15          6           0        1.043000   -0.159200   -0.009200
     16          8           0        0.698300   -1.022700    0.777900
     17          7           0        2.369200    0.075200   -0.302500
     18          1           0        2.577100    0.644500   -1.112700
     19          6           0        3.393000   -0.870900    0.116400
     20          1           0        3.127700   -1.241900    1.107300
     21          1           0        3.473500   -1.731400   -0.560900
     22          1           0        4.359300   -0.360700    0.163500
 ---------------------------------------------------------------------
                    Distance matrix (angstroms):
                    1          2          3          4          5
     1  H    0.000000
     2  C    1.090734   0.000000
     3  H    1.777959   1.097017   0.000000
     4  H    1.783579   1.096720   1.773488   0.000000
     5  C    2.141504   1.526341   2.160731   2.193016   0.000000
     6  O    2.538261   2.405257   3.021898   3.208154   1.213953
     7  N    3.335350   2.444014   2.876353   2.630282   1.398141
     8  H    3.443324   2.411333   2.701572   2.251589   2.000983
     9  C    4.671454   3.793117   3.998622   4.056141   2.593261
    10  H    5.358960   4.531486   4.904365   4.646259   3.277136
    11  C    5.432694   4.412911   4.299763   4.535306   3.617396
    12  H    5.176252   4.169607   3.796732   4.422515   3.601627
    13  H    6.466522   5.470819   5.339509   5.621551   4.568655
    14  H    5.566471   4.496960   4.441335   4.351319   3.936844
    15  C    5.092795   4.402228   4.490229   4.980382   3.058671
    16  O    4.653478   4.116626   4.068004   4.913473   2.915978
    17  N    6.461041   5.762345   5.837548   6.278995   4.397549
    18  H    6.921441   6.182087   6.363490   6.557040   4.791782
    19  C    7.341163   6.763941   6.768864   7.419894   5.408351
    20  H    7.102122   6.567189   6.429503   7.323793   5.340271
    21  H    7.496097   7.043931   7.174635   7.737284   5.616405
    22  H    8.337019   7.698262   7.661053   8.294824   6.363141
                    6          7          8          9         10
     6  O    0.000000
     7  N    2.310008   0.000000
     8  H    3.126968   1.013344   0.000000
     9  C    3.114012   1.469308   2.044352   0.000000
    10  H    3.672584   2.094853   2.623233   1.101512   0.000000
    11  C    4.374351   2.446570   2.391727   1.541993   2.154283
    12  H    4.385950   2.745149   2.614590   2.174737   3.065888
    13  H    5.180225   3.403196   3.448456   2.186746   2.475676
    14  H    4.870416   2.654336   2.219606   2.183054   2.515435
    15  C    3.061193   2.561562   3.335970   1.545502   2.151721
    16  O    2.707937   2.954389   3.725959   2.445132   3.245438
    17  N    4.323374   3.741800   4.443285   2.429482   2.558155
    18  H    4.789035   3.932893   4.579693   2.552352   2.248286
    19  C    5.096348   5.002867   5.756610   3.807817   3.982008
    20  H    5.021395   5.116918   5.834216   4.066845   4.504182
    21  H    5.087389   5.366003   6.228406   4.313293   4.362326
    22  H    6.135329   5.812664   6.484176   4.491411   4.549497
                   11         12         13         14         15
    11  C    0.000000
    12  H    1.095097   0.000000
    13  H    1.093050   1.775656   0.000000
    14  H    1.097163   1.782537   1.772209   0.000000
    15  C    2.493421   2.725729   2.732516   3.462994   0.000000
    16  O    3.252373   3.086324   3.624904   4.227811   1.218186
    17  N    3.018935   3.426551   2.725787   3.995698   1.378323
    18  H    3.125745   3.805330   2.692284   3.926076   2.053560
    19  C    4.330182   4.531263   3.944428   5.361284   2.458616
    20  H    4.467230   4.400064   4.195448   5.555294   2.600920
    21  H    5.114673   5.377052   4.829662   6.106658   2.946781
    22  H    4.761132   5.012743   4.138995   5.747368   3.326901
                   16         17         18         19         20
    16  O    0.000000
    17  N    2.272566   0.000000
    18  H    3.143853   1.011805   0.000000
    19  C    2.778855   1.455592   2.114903   0.000000
    20  H    2.461410   2.073068   2.964804   1.090829   0.000000
    21  H    3.161705   2.133085   2.598638   1.098033   1.772591
    22  H    3.770763   2.089895   2.411504   1.093736   1.784408
                   21         22
    21  H    0.000000
    22  H    1.785557   0.000000
 Stoichiometry    C6H12N2O2
 Framework group  C1[X(C6H12N2O2)]
 Deg. of freedom    60
 Full point group                 C1      NOp   1
 Largest Abelian subgroup         C1      NOp   1
 Largest concise Abelian subgroup C1      NOp   1
                         Standard orientation:                         
 ---------------------------------------------------------------------
 Center     Atomic      Atomic             Coordinates (Angstroms)
 Number     Number       Type             X           Y           Z
 ---------------------------------------------------------------------
      1          1           0       -3.937885   -1.140904    0.395096
      2          6           0       -3.331585   -0.237904    0.476896
      3          1           0       -3.169385   -0.017804    1.539296
      4          1           0       -3.878085    0.605496    0.037796
      5          6           0       -1.991585   -0.484704   -0.211004
      6          8           0       -1.611885   -1.597604   -0.512604
      7          7           0       -1.313585    0.692896   -0.540204
      8          1           0       -1.835685    1.509896   -0.245604
      9          6           0        0.125215    0.986796   -0.491804
     10          1           0        0.454015    1.272596   -1.503504
     11          6           0        0.350915    2.193496    0.441296
     12          1           0        0.092915    1.923296    1.470696
     13          1           0        1.394915    2.516496    0.419096
     14          1           0       -0.273285    3.040796    0.131096
     15          6           0        1.043015   -0.159204   -0.009204
     16          8           0        0.698315   -1.022704    0.777896
     17          7           0        2.369215    0.075196   -0.302504
     18          1           0        2.577115    0.644496   -1.112704
     19          6           0        3.393015   -0.870904    0.116396
     20          1           0        3.127715   -1.241904    1.107296
     21          1           0        3.473515   -1.731404   -0.560904
     22          1           0        4.359315   -0.360704    0.163496
 ---------------------------------------------------------------------
 Rotational constants (GHZ):      2.3582986      0.8174239      0.6678154
 Standard basis: Aug-CC-pVDZ (5D, 7F)
 There are   338 symmetry adapted basis functions of A   symmetry.
 Integral buffers will be    131072 words long.
 Raffenetti 1 integral format.
 Two-electron integral symmetry is turned on.
   338 basis functions,   562 primitive gaussians,   358 cartesian basis functions
    39 alpha electrons       39 beta electrons
       nuclear repulsion energy       558.0945194160 Hartrees.
 NAtoms=   22 NActive=   22 NUniq=   22 SFac= 7.50D-01 NAtFMM=   80 NAOKFM=F Big=F
 One-electron integrals computed using PRISM.
 NBasis=   338 RedAO= T  NBF=   338
 NBsUse=   338 1.00D-06 NBFU=   338
 Harris functional with IExCor=  205 diagonalized for initial guess.
 ExpMin= 2.97D-02 ExpMax= 1.17D+04 ExpMxC= 4.01D+02 IAcc=3 IRadAn=         0 AccDes= 0.00D+00
 HarFok:  IExCor=  205 AccDes= 0.00D+00 IRadAn=         0 IDoV= 1
 ScaDFX=  1.000000  1.000000  1.000000  1.000000
 FoFCou: FMM=F IPFlag=           0 FMFlag=      100000 FMFlg1=           0
         NFxFlg=           0 DoJE=T BraDBF=F KetDBF=T FulRan=T
         Omega=  0.000000  0.000000  1.000000  0.000000  0.000000 ICntrl=     500 IOpCl=  0
         NMat0=    1 NMatS0=    1 NMatT0=    0 NMatD0=    1 NMtDS0=    0 NMtDT0=    0
         I1Cent=           4 NGrid=           0.
 Petite list used in FoFCou.
 Initial guess orbital symmetries:
       Occupied  (A) (A) (A) (A) (A) (A) (A) (A) (A) (A) (A) (A)
                 (A) (A) (A) (A) (A) (A) (A) (A) (A) (A) (A) (A)
                 (A) (A) (A) (A) (A) (A) (A) (A) (A) (A) (A) (A)
                 (A) (A) (A)
       Virtual   (A) (A) (A) (A) (A) (A) (A) (A) (A) (A) (A) (A)
                 (A) (A) (A) (A) (A) (A) (A) (A) (A) (A) (A) (A)
                 (A) (A) (A) (A) (A) (A) (A) (A) (A) (A) (A) (A)
                 (A) (A) (A) (A) (A) (A) (A) (A) (A) (A) (A) (A)
                 (A) (A) (A) (A) (A) (A) (A) (A) (A) (A) (A) (A)
                 (A) (A) (A) (A) (A) (A) (A) (A) (A) (A) (A) (A)
                 (A) (A) (A) (A) (A) (A) (A) (A) (A) (A) (A) (A)
                 (A) (A) (A) (A) (A) (A) (A) (A) (A) (A) (A) (A)
                 (A) (A) (A) (A) (A) (A) (A) (A) (A) (A) (A) (A)
                 (A) (A) (A) (A) (A) (A) (A) (A) (A) (A) (A) (A)
                 (A) (A) (A) (A) (A) (A) (A) (A) (A) (A) (A) (A)
                 (A) (A) (A) (A) (A) (A) (A) (A) (A) (A) (A) (A)
                 (A) (A) (A) (A) (A) (A) (A) (A) (A) (A) (A) (A)
                 (A) (A) (A) (A) (A) (A) (A) (A) (A) (A) (A) (A)
                 (A) (A) (A) (A) (A) (A) (A) (A) (A) (A) (A) (A)
                 (A) (A) (A) (A) (A) (A) (A) (A) (A) (A) (A) (A)
                 (A) (A) (A) (A) (A) (A) (A) (A) (A) (A) (A) (A)
                 (A) (A) (A) (A) (A) (A) (A) (A) (A) (A) (A) (A)
                 (A) (A) (A) (A) (A) (A) (A) (A) (A) (A) (A) (A)
                 (A) (A) (A) (A) (A) (A) (A) (A) (A) (A) (A) (A)
                 (A) (A) (A) (A) (A) (A) (A) (A) (A) (A) (A) (A)
                 (A) (A) (A) (A) (A) (A) (A) (A) (A) (A) (A) (A)
                 (A) (A) (A) (A) (A) (A) (A) (A) (A) (A) (A) (A)
                 (A) (A) (A) (A) (A) (A) (A) (A) (A) (A) (A) (A)
                 (A) (A) (A) (A) (A) (A) (A) (A) (A) (A) (A)
 The electronic state of the initial guess is 1-A.
 Requested convergence on RMS density matrix=1.00D-08 within 128 cycles.
 Requested convergence on MAX density matrix=1.00D-06.
 Requested convergence on             energy=1.00D-06.
 No special actions if energy rises.
 Initial convergence to 1.0D-05 achieved.  Increase integral accuracy.
 SCF Done:  E(RHF) =  -492.895635548     A.U. after   15 cycles
             Convg  =    0.5207D-08             -V/T =  2.0018
 ExpMin= 2.97D-02 ExpMax= 1.17D+04 ExpMxC= 4.01D+02 IAcc=3 IRadAn=         5 AccDes= 0.00D+00
 HarFok:  IExCor=  205 AccDes= 0.00D+00 IRadAn=         5 IDoV=-2
 ScaDFX=  1.000000  1.000000  1.000000  1.000000
 Range of M.O.s used for correlation:    11   338
 NBasis=   338 NAE=    39 NBE=    39 NFC=    10 NFV=     0
 NROrb=    328 NOA=    29 NOB=    29 NVA=   299 NVB=   299

 **** Warning!!: The largest alpha MO coefficient is  0.78217024D+02

 Disk-based method using OVN memory for 29 occupieds at a time.
 Estimated scratch disk usage=  1383106541 words.
 Actual    scratch disk usage=  1369863885 words.
 JobTyp=1 Pass  1:  I=   1 to  29 NPSUse=  8 ParTrn=T ParDer=T DoDerP=F.
 Spin components of T(2) and E(2):
     alpha-alpha T2 =       0.6823394093D-01 E2=     -0.2059890401D+00
     alpha-beta  T2 =       0.3792335276D+00 E2=     -0.1193211349D+01
     beta-beta   T2 =       0.6823394093D-01 E2=     -0.2059890401D+00
 ANorm=    0.1231138258D+01
 E2 =    -0.1605189429D+01 EUMP2 =    -0.49450082497735D+03

 **********************************************************************

            Population analysis using the SCF density.

 **********************************************************************

 Orbital symmetries:
       Occupied  (A) (A) (A) (A) (A) (A) (A) (A) (A) (A) (A) (A)
                 (A) (A) (A) (A) (A) (A) (A) (A) (A) (A) (A) (A)
                 (A) (A) (A) (A) (A) (A) (A) (A) (A) (A) (A) (A)
                 (A) (A) (A)
       Virtual   (A) (A) (A) (A) (A) (A) (A) (A) (A) (A) (A) (A)
                 (A) (A) (A) (A) (A) (A) (A) (A) (A) (A) (A) (A)
                 (A) (A) (A) (A) (A) (A) (A) (A) (A) (A) (A) (A)
                 (A) (A) (A) (A) (A) (A) (A) (A) (A) (A) (A) (A)
                 (A) (A) (A) (A) (A) (A) (A) (A) (A) (A) (A) (A)
                 (A) (A) (A) (A) (A) (A) (A) (A) (A) (A) (A) (A)
                 (A) (A) (A) (A) (A) (A) (A) (A) (A) (A) (A) (A)
                 (A) (A) (A) (A) (A) (A) (A) (A) (A) (A) (A) (A)
                 (A) (A) (A) (A) (A) (A) (A) (A) (A) (A) (A) (A)
                 (A) (A) (A) (A) (A) (A) (A) (A) (A) (A) (A) (A)
                 (A) (A) (A) (A) (A) (A) (A) (A) (A) (A) (A) (A)
                 (A) (A) (A) (A) (A) (A) (A) (A) (A) (A) (A) (A)
                 (A) (A) (A) (A) (A) (A) (A) (A) (A) (A) (A) (A)
                 (A) (A) (A) (A) (A) (A) (A) (A) (A) (A) (A) (A)
                 (A) (A) (A) (A) (A) (A) (A) (A) (A) (A) (A) (A)
                 (A) (A) (A) (A) (A) (A) (A) (A) (A) (A) (A) (A)
                 (A) (A) (A) (A) (A) (A) (A) (A) (A) (A) (A) (A)
                 (A) (A) (A) (A) (A) (A) (A) (A) (A) (A) (A) (A)
                 (A) (A) (A) (A) (A) (A) (A) (A) (A) (A) (A) (A)
                 (A) (A) (A) (A) (A) (A) (A) (A) (A) (A) (A) (A)
                 (A) (A) (A) (A) (A) (A) (A) (A) (A) (A) (A) (A)
                 (A) (A) (A) (A) (A) (A) (A) (A) (A) (A) (A) (A)
                 (A) (A) (A) (A) (A) (A) (A) (A) (A) (A) (A) (A)
                 (A) (A) (A) (A) (A) (A) (A) (A) (A) (A) (A) (A)
                 (A) (A) (A) (A) (A) (A) (A) (A) (A) (A) (A)
 The electronic state is 1-A.
 Alpha  occ. eigenvalues --  -20.53002 -20.52165 -15.59341 -15.58880 -11.36015
 Alpha  occ. eigenvalues --  -11.35371 -11.30425 -11.26588 -11.25180 -11.24004
 Alpha  occ. eigenvalues --   -1.38857  -1.37112  -1.23454  -1.22606  -1.05731
 Alpha  occ. eigenvalues --   -0.98665  -0.95447  -0.88061  -0.80199  -0.77096
 Alpha  occ. eigenvalues --   -0.69366  -0.68041  -0.66483  -0.63666  -0.62615
 Alpha  occ. eigenvalues --   -0.60934  -0.59242  -0.57840  -0.57297  -0.55632
 Alpha  occ. eigenvalues --   -0.54978  -0.54611  -0.53645  -0.51799  -0.48779
 Alpha  occ. eigenvalues --   -0.43104  -0.41051  -0.39418  -0.38260
 Alpha virt. eigenvalues --    0.02530   0.03438   0.04252   0.04596   0.05648
 Alpha virt. eigenvalues --    0.05821   0.06545   0.06646   0.07342   0.08298
 Alpha virt. eigenvalues --    0.08686   0.09575   0.11136   0.11774   0.12111
 Alpha virt. eigenvalues --    0.13183   0.14015   0.14696   0.14813   0.15282
 Alpha virt. eigenvalues --    0.15619   0.15969   0.16582   0.17028   0.17338
 Alpha virt. eigenvalues --    0.17758   0.17996   0.18255   0.18917   0.19155
 Alpha virt. eigenvalues --    0.19829   0.20221   0.20668   0.21451   0.22213
 Alpha virt. eigenvalues --    0.23731   0.24237   0.24963   0.25887   0.26670
 Alpha virt. eigenvalues --    0.27523   0.27870   0.28707   0.29266   0.30636
 Alpha virt. eigenvalues --    0.31042   0.31938   0.32869   0.33496   0.34164
 Alpha virt. eigenvalues --    0.34717   0.35104   0.35704   0.36780   0.37455
 Alpha virt. eigenvalues --    0.37700   0.38205   0.38559   0.39403   0.40265
 Alpha virt. eigenvalues --    0.40868   0.41602   0.41822   0.42429   0.42847
 Alpha virt. eigenvalues --    0.43837   0.44524   0.45095   0.45767   0.46015
 Alpha virt. eigenvalues --    0.46546   0.47167   0.47645   0.48515   0.48919
 Alpha virt. eigenvalues --    0.49586   0.50133   0.50941   0.52529   0.52733
 Alpha virt. eigenvalues --    0.52876   0.53986   0.54388   0.55830   0.56204
 Alpha virt. eigenvalues --    0.56508   0.57346   0.57996   0.58296   0.58703
 Alpha virt. eigenvalues --    0.59425   0.59784   0.60668   0.61263   0.61787
 Alpha virt. eigenvalues --    0.62126   0.63254   0.64248   0.64434   0.64932
 Alpha virt. eigenvalues --    0.65757   0.66382   0.67036   0.67965   0.68608
 Alpha virt. eigenvalues --    0.69023   0.69567   0.70183   0.70401   0.71591
 Alpha virt. eigenvalues --    0.72776   0.73340   0.73679   0.74552   0.74790
 Alpha virt. eigenvalues --    0.76243   0.76719   0.77100   0.77918   0.79025
 Alpha virt. eigenvalues --    0.79122   0.80892   0.81147   0.81457   0.83330
 Alpha virt. eigenvalues --    0.85231   0.86071   0.86653   0.86757   0.88667
 Alpha virt. eigenvalues --    0.89260   0.90326   0.92047   0.93484   0.94002
 Alpha virt. eigenvalues --    0.94715   0.95499   0.96431   0.97644   0.99570
 Alpha virt. eigenvalues --    0.99723   1.00592   1.02509   1.03887   1.04783
 Alpha virt. eigenvalues --    1.05248   1.07507   1.07831   1.10297   1.11824
 Alpha virt. eigenvalues --    1.12541   1.14050   1.14218   1.15472   1.15932
 Alpha virt. eigenvalues --    1.16415   1.17931   1.20668   1.22303   1.23658
 Alpha virt. eigenvalues --    1.25348   1.25557   1.26612   1.28917   1.29014
 Alpha virt. eigenvalues --    1.32195   1.33803   1.35509   1.37152   1.37817
 Alpha virt. eigenvalues --    1.38655   1.41393   1.44173   1.47054   1.47480
 Alpha virt. eigenvalues --    1.49074   1.50692   1.52274   1.54013   1.56618
 Alpha virt. eigenvalues --    1.57130   1.58775   1.61874   1.63342   1.64508
 Alpha virt. eigenvalues --    1.65687   1.66637   1.69032   1.69679   1.70649
 Alpha virt. eigenvalues --    1.73118   1.75294   1.76984   1.77689   1.80130
 Alpha virt. eigenvalues --    1.80693   1.83013   1.83534   1.87002   1.88817
 Alpha virt. eigenvalues --    1.89643   1.90070   1.90763   1.92265   1.92497
 Alpha virt. eigenvalues --    1.94946   1.95586   1.97878   2.00198   2.01370
 Alpha virt. eigenvalues --    2.02700   2.03079   2.04666   2.07644   2.10571
 Alpha virt. eigenvalues --    2.11441   2.13188   2.13865   2.14709   2.16668
 Alpha virt. eigenvalues --    2.17321   2.20061   2.20847   2.22548   2.23738
 Alpha virt. eigenvalues --    2.24578   2.26135   2.27444   2.27789   2.29744
 Alpha virt. eigenvalues --    2.30572   2.33567   2.35353   2.36650   2.37779
 Alpha virt. eigenvalues --    2.38889   2.40288   2.41492   2.42836   2.45404
 Alpha virt. eigenvalues --    2.47570   2.47728   2.49287   2.51245   2.54087
 Alpha virt. eigenvalues --    2.54127   2.55356   2.56271   2.59173   2.61159
 Alpha virt. eigenvalues --    2.62346   2.65367   2.66990   2.68346   2.69926
 Alpha virt. eigenvalues --    2.70264   2.71018   2.73673   2.76452   2.77483
 Alpha virt. eigenvalues --    2.78669   2.82311   2.84315   2.86735   2.88517
 Alpha virt. eigenvalues --    2.90189   2.92183   2.92651   2.95433   2.96195
 Alpha virt. eigenvalues --    3.00186   3.04259   3.06077   3.08079   3.08565
 Alpha virt. eigenvalues --    3.12586   3.15880   3.18459   3.20490   3.23219
 Alpha virt. eigenvalues --    3.27422   3.32408   3.36630   3.46083   3.50837
 Alpha virt. eigenvalues --    3.60628   3.69378   3.71706   3.79553   3.81738
 Alpha virt. eigenvalues --    3.85816   3.87531   3.93073   3.99785   4.00364
 Alpha virt. eigenvalues --    4.03840   4.12363   4.22463   4.23324
          Condensed to atoms (all electrons):
              1          2          3          4          5          6
     1  H    0.863530   0.386011  -0.078134  -0.104636  -0.048804   0.027870
     2  C    0.386011   4.629381   0.343617   0.355941   0.132075  -0.044415
     3  H   -0.078134   0.343617   0.775725  -0.072356  -0.055009   0.013439
     4  H   -0.104636   0.355941  -0.072356   0.888693   0.034221  -0.005614
     5  C   -0.048804   0.132075  -0.055009   0.034221   5.163332   0.227575
     6  O    0.027870  -0.044415   0.013439  -0.005614   0.227575   8.661411
     7  N    0.027674   0.008085   0.013093  -0.077653   0.152473  -0.157315
     8  H   -0.005670  -0.062733  -0.008527   0.020232  -0.113488   0.003482
     9  C   -0.002405   0.013867   0.016649  -0.023894  -0.241071   0.072203
    10  H   -0.002267   0.002237  -0.000949   0.003198  -0.043171   0.016570
    11  C    0.001205  -0.033460   0.000361  -0.007087   0.071646  -0.015250
    12  H   -0.000615  -0.014751  -0.002250  -0.000841   0.002324   0.000402
    13  H   -0.000135   0.002413   0.000746   0.000656   0.003456  -0.000653
    14  H    0.001081   0.001945  -0.000291  -0.001625   0.005376  -0.001564
    15  C   -0.004694   0.030629   0.005795  -0.001643  -0.048176   0.011623
    16  O    0.001128  -0.005520  -0.000049  -0.000479   0.032928  -0.039493
    17  N   -0.000396  -0.009098  -0.000788  -0.000190  -0.001473  -0.003678
    18  H    0.000115   0.000281   0.000136  -0.000135   0.006199  -0.000526
    19  C    0.000052   0.001550  -0.000187   0.000047  -0.003256   0.007036
    20  H   -0.000029  -0.000153  -0.000115   0.000014  -0.002767   0.000786
    21  H   -0.000025  -0.000187  -0.000042  -0.000013  -0.004664   0.000184
    22  H    0.000013   0.000147   0.000043   0.000003   0.003301   0.000407
              7          8          9         10         11         12
     1  H    0.027674  -0.005670  -0.002405  -0.002267   0.001205  -0.000615
     2  C    0.008085  -0.062733   0.013867   0.002237  -0.033460  -0.014751
     3  H    0.013093  -0.008527   0.016649  -0.000949   0.000361  -0.002250
     4  H   -0.077653   0.020232  -0.023894   0.003198  -0.007087  -0.000841
     5  C    0.152473  -0.113488  -0.241071  -0.043171   0.071646   0.002324
     6  O   -0.157315   0.003482   0.072203   0.016570  -0.015250   0.000402
     7  N    7.639011   0.401371  -0.561902  -0.175699   0.080071  -0.074257
     8  H    0.401371   0.917556  -0.169144   0.005334  -0.007004   0.006740
     9  C   -0.561902  -0.169144   8.468772   0.012422  -0.284596   0.102612
    10  H   -0.175699   0.005334   0.012422   1.427283   0.024824   0.086110
    11  C    0.080071  -0.007004  -0.284596   0.024824   4.466189   0.324949
    12  H   -0.074257   0.006740   0.102612   0.086110   0.324949   1.054714
    13  H   -0.010412   0.003547   0.110379  -0.080976   0.218298  -0.145224
    14  H    0.073629  -0.003792  -0.223357  -0.033512   0.385327  -0.229155
    15  C    0.335880  -0.017328  -1.275002  -0.077012   0.133106  -0.130314
    16  O   -0.050837   0.000278   0.132030  -0.004224  -0.016522   0.025216
    17  N    0.003099   0.001791  -0.037036   0.025157   0.053903   0.004138
    18  H    0.009885  -0.001205  -0.108455   0.015625   0.000808  -0.000161
    19  C    0.012895  -0.001136  -0.115474   0.010159   0.013513  -0.009630
    20  H    0.000089  -0.000070   0.016873   0.002853  -0.006317  -0.002022
    21  H   -0.000067   0.000086   0.017724  -0.001288  -0.000580   0.000180
    22  H    0.001411  -0.000050  -0.031828   0.000388   0.002282  -0.000508
             13         14         15         16         17         18
     1  H   -0.000135   0.001081  -0.004694   0.001128  -0.000396   0.000115
     2  C    0.002413   0.001945   0.030629  -0.005520  -0.009098   0.000281
     3  H    0.000746  -0.000291   0.005795  -0.000049  -0.000788   0.000136
     4  H    0.000656  -0.001625  -0.001643  -0.000479  -0.000190  -0.000135
     5  C    0.003456   0.005376  -0.048176   0.032928  -0.001473   0.006199
     6  O   -0.000653  -0.001564   0.011623  -0.039493  -0.003678  -0.000526
     7  N   -0.010412   0.073629   0.335880  -0.050837   0.003099   0.009885
     8  H    0.003547  -0.003792  -0.017328   0.000278   0.001791  -0.001205
     9  C    0.110379  -0.223357  -1.275002   0.132030  -0.037036  -0.108455
    10  H   -0.080976  -0.033512  -0.077012  -0.004224   0.025157   0.015625
    11  C    0.218298   0.385327   0.133106  -0.016522   0.053903   0.000808
    12  H   -0.145224  -0.229155  -0.130314   0.025216   0.004138  -0.000161
    13  H    1.265047  -0.216775   0.072623  -0.012996  -0.105532   0.000060
    14  H   -0.216775   1.181330   0.083079  -0.001103   0.041290  -0.000924
    15  C    0.072623   0.083079   5.609251   0.177849   0.050736   0.032712
    16  O   -0.012996  -0.001103   0.177849   8.737559  -0.180561   0.007294
    17  N   -0.105532   0.041290   0.050736  -0.180561   7.329786   0.258254
    18  H    0.000060  -0.000924   0.032712   0.007294   0.258254   0.973272
    19  C   -0.013227   0.010144  -0.079993   0.018754   0.200846  -0.105793
    20  H    0.000188   0.001118   0.005892  -0.014911  -0.009584   0.001321
    21  H   -0.000906  -0.000061  -0.066093  -0.005237   0.095563  -0.015503
    22  H   -0.001178   0.000328   0.035994   0.018804  -0.205696   0.022567
             19         20         21         22
     1  H    0.000052  -0.000029  -0.000025   0.000013
     2  C    0.001550  -0.000153  -0.000187   0.000147
     3  H   -0.000187  -0.000115  -0.000042   0.000043
     4  H    0.000047   0.000014  -0.000013   0.000003
     5  C   -0.003256  -0.002767  -0.004664   0.003301
     6  O    0.007036   0.000786   0.000184   0.000407
     7  N    0.012895   0.000089  -0.000067   0.001411
     8  H   -0.001136  -0.000070   0.000086  -0.000050
     9  C   -0.115474   0.016873   0.017724  -0.031828
    10  H    0.010159   0.002853  -0.001288   0.000388
    11  C    0.013513  -0.006317  -0.000580   0.002282
    12  H   -0.009630  -0.002022   0.000180  -0.000508
    13  H   -0.013227   0.000188  -0.000906  -0.001178
    14  H    0.010144   0.001118  -0.000061   0.000328
    15  C   -0.079993   0.005892  -0.066093   0.035994
    16  O    0.018754  -0.014911  -0.005237   0.018804
    17  N    0.200846  -0.009584   0.095563  -0.205696
    18  H   -0.105793   0.001321  -0.015503   0.022567
    19  C    4.129896   0.428167   0.321600   0.418211
    20  H    0.428167   0.927814  -0.074595  -0.170474
    21  H    0.321600  -0.074595   0.969403  -0.177562
    22  H    0.418211  -0.170474  -0.177562   1.273651
 Mulliken atomic charges:
              1
     1  H   -0.060868
     2  C    0.262139
     3  H    0.049093
     4  H   -0.006837
     5  C    0.726974
     6  O   -0.774480
     7  N   -0.650523
     8  H    0.029731
     9  C    0.110635
    10  H   -0.213059
    11  C    0.594334
    12  H    0.002345
    13  H   -0.089399
    14  H   -0.072487
    15  C    1.115086
    16  O   -0.819907
    17  N   -0.510529
    18  H   -0.095827
    19  C    0.755826
    20  H   -0.104078
    21  H   -0.057913
    22  H   -0.190255
 Sum of Mulliken atomic charges =   0.00000
 Mulliken charges with hydrogens summed into heavy atoms:
              1
     2  C    0.243527
     5  C    0.726974
     6  O   -0.774480
     7  N   -0.620792
     9  C   -0.102424
    11  C    0.434793
    15  C    1.115086
    16  O   -0.819907
    17  N   -0.606357
    19  C    0.403580
 Sum of Mulliken charges with hydrogens summed into heavy atoms =   0.00000
 Electronic spatial extent (au):  <R**2>=           1786.1467
 Charge=              0.0000 electrons
 Dipole moment (field-independent basis, Debye):
    X=              1.3892    Y=              5.7407    Z=             -0.6986  Tot=              5.9476
 Quadrupole moment (field-independent basis, Debye-Ang):
   XX=            -47.2369   YY=            -65.3000   ZZ=            -62.0321
   XY=             -4.6907   XZ=             -6.2022   YZ=             -0.9377
 Traceless Quadrupole moment (field-independent basis, Debye-Ang):
   XX=             10.9528   YY=             -7.1103   ZZ=             -3.8424
   XY=             -4.6907   XZ=             -6.2022   YZ=             -0.9377
 Octapole moment (field-independent basis, Debye-Ang**2):
  XXX=              5.7544  YYY=             12.7044  ZZZ=              0.0944  XYY=              6.7134
  XXY=              1.6884  XXZ=             -0.1267  XZZ=              4.7795  YZZ=              1.1516
  YYZ=             -0.1368  XYZ=              1.2135
 Hexadecapole moment (field-independent basis, Debye-Ang**3):
 XXXX=          -1487.6227 YYYY=           -553.0645 ZZZZ=           -164.3028 XXXY=             -9.1031
 XXXZ=            -17.7721 YYYX=            -22.2549 YYYZ=             -7.0846 ZZZX=             -9.6487
 ZZZY=             -2.1570 XXYY=           -360.7568 XXZZ=           -300.3276 YYZZ=           -121.9062
 XXYZ=            -15.2246 YYXZ=             -7.8095 ZZXY=              3.8164
 N-N= 5.580945194160D+02 E-N=-2.271708919539D+03  KE= 4.920277855812D+02
 1\1\GINC-NODE003\SP\RMP2-FC\Aug-CC-pVDZ\C6H12N2O2\STEBOSS\12-Feb-2017\
 0\\#SP MP2/aug-cc-pVDZ\\Single Point calculation at MP2\\0,1\H,0,-3.93
 79,-1.1409,0.3951\C,0,-3.3316,-0.2379,0.4769\H,0,-3.1694,-0.0178,1.539
 3\H,0,-3.8781,0.6055,0.0378\C,0,-1.9916,-0.4847,-0.211\O,0,-1.6119,-1.
 5976,-0.5126\N,0,-1.3136,0.6929,-0.5402\H,0,-1.8357,1.5099,-0.2456\C,0
 ,0.1252,0.9868,-0.4918\H,0,0.454,1.2726,-1.5035\C,0,0.3509,2.1935,0.44
 13\H,0,0.0929,1.9233,1.4707\H,0,1.3949,2.5165,0.4191\H,0,-0.2733,3.040
 8,0.1311\C,0,1.043,-0.1592,-0.0092\O,0,0.6983,-1.0227,0.7779\N,0,2.369
 2,0.0752,-0.3025\H,0,2.5771,0.6445,-1.1127\C,0,3.393,-0.8709,0.1164\H,
 0,3.1277,-1.2419,1.1073\H,0,3.4735,-1.7314,-0.5609\H,0,4.3593,-0.3607,
 0.1635\\Version=EM64L-G09RevA.02\State=1-A\HF=-492.8956355\MP2=-494.50
 0825\RMSD=5.207e-09\PG=C01 [X(C6H12N2O2)]\\@


 NOTHING RESEMBLES A NEW PHENOMENON AS MUCH AS A MISTAKE.

                               -- ENRICO FERMI (?)
 Job cpu time:  0 days  7 hours 42 minutes 15.6 seconds.
 File lengths (MBytes):  RWF=  10568 Int=      0 D2E=      0 Chk=      7 Scr=      2
 Normal termination of Gaussian 09 at Sun Feb 12 13:59:29 2017.
