 Entering Gaussian System, Link 0=g09
 Initial command:
 /home/steboss/Software/g09/l1.exe /home/steboss/projects/phi_psi_scan/alanine/MP2/0/5180/Gau-6376.inp -scrdir=/home/steboss/projects/phi_psi_scan/alanine/MP2/0/5180/
 Entering Link 1 = /home/steboss/Software/g09/l1.exe PID=      6381.
  
 Copyright (c) 1988,1990,1992,1993,1995,1998,2003,2009, Gaussian, Inc.
                  All Rights Reserved.
  
 This is part of the Gaussian(R) 09 program.  It is based on
 the Gaussian(R) 03 system (copyright 2003, Gaussian, Inc.),
 the Gaussian(R) 98 system (copyright 1998, Gaussian, Inc.),
 the Gaussian(R) 94 system (copyright 1995, Gaussian, Inc.),
 the Gaussian 92(TM) system (copyright 1992, Gaussian, Inc.),
 the Gaussian 90(TM) system (copyright 1990, Gaussian, Inc.),
 the Gaussian 88(TM) system (copyright 1988, Gaussian, Inc.),
 the Gaussian 86(TM) system (copyright 1986, Carnegie Mellon
 University), and the Gaussian 82(TM) system (copyright 1983,
 Carnegie Mellon University). Gaussian is a federally registered
 trademark of Gaussian, Inc.
  
 This software contains proprietary and confidential information,
 including trade secrets, belonging to Gaussian, Inc.
  
 This software is provided under written license and may be
 used, copied, transmitted, or stored only in accord with that
 written license.
  
 The following legend is applicable only to US Government
 contracts under FAR:
  
                    RESTRICTED RIGHTS LEGEND
  
 Use, reproduction and disclosure by the US Government is
 subject to restrictions as set forth in subparagraphs (a)
 and (c) of the Commercial Computer Software - Restricted
 Rights clause in FAR 52.227-19.
  
 Gaussian, Inc.
 340 Quinnipiac St., Bldg. 40, Wallingford CT 06492
  
  
 ---------------------------------------------------------------
 Warning -- This program may not be used in any manner that
 competes with the business of Gaussian, Inc. or will provide
 assistance to any competitor of Gaussian, Inc.  The licensee
 of this program is prohibited from giving any competitor of
 Gaussian, Inc. access to this program.  By using this program,
 the user acknowledges that Gaussian, Inc. is engaged in the
 business of creating and licensing software in the field of
 computational chemistry and represents and warrants to the
 licensee that it is not a competitor of Gaussian, Inc. and that
 it will not use this program in any manner prohibited above.
 ---------------------------------------------------------------
  

 Cite this work as:
 Gaussian 09, Revision A.02,
 M. J. Frisch, G. W. Trucks, H. B. Schlegel, G. E. Scuseria, 
 M. A. Robb, J. R. Cheeseman, G. Scalmani, V. Barone, B. Mennucci, 
 G. A. Petersson, H. Nakatsuji, M. Caricato, X. Li, H. P. Hratchian, 
 A. F. Izmaylov, J. Bloino, G. Zheng, J. L. Sonnenberg, M. Hada, 
 M. Ehara, K. Toyota, R. Fukuda, J. Hasegawa, M. Ishida, T. Nakajima, 
 Y. Honda, O. Kitao, H. Nakai, T. Vreven, J. A. Montgomery, Jr., 
 J. E. Peralta, F. Ogliaro, M. Bearpark, J. J. Heyd, E. Brothers, 
 K. N. Kudin, V. N. Staroverov, R. Kobayashi, J. Normand, 
 K. Raghavachari, A. Rendell, J. C. Burant, S. S. Iyengar, J. Tomasi, 
 M. Cossi, N. Rega, J. M. Millam, M. Klene, J. E. Knox, J. B. Cross, 
 V. Bakken, C. Adamo, J. Jaramillo, R. Gomperts, R. E. Stratmann, 
 O. Yazyev, A. J. Austin, R. Cammi, C. Pomelli, J. W. Ochterski, 
 R. L. Martin, K. Morokuma, V. G. Zakrzewski, G. A. Voth, 
 P. Salvador, J. J. Dannenberg, S. Dapprich, A. D. Daniels, 
 O. Farkas, J. B. Foresman, J. V. Ortiz, J. Cioslowski, 
 and D. J. Fox, Gaussian, Inc., Wallingford CT, 2009.
 
 ******************************************
 Gaussian 09:  EM64L-G09RevA.02 11-Jun-2009
                12-Feb-2017 
 ******************************************
 %chk=structure_180.chk
 %NProcShared=8
 Will use up to    8 processors via shared memory.
 -------------------
 #SP MP2/aug-cc-pVDZ
 -------------------
 1/38=1/1;
 2/12=2,17=6,18=5,40=1/2;
 3/5=16,7=10,11=9,16=1,25=1,30=1/1,2,3;
 4//1;
 5/5=2,38=5/2;
 8/10=1/1;
 9/16=-3/6;
 6/7=2,8=2,9=2,10=2/1;
 99/5=1,9=1/99;
 -------------------------------
 Single Point calculation at MP2
 -------------------------------
 Symbolic Z-matrix:
 Charge =  0 Multiplicity = 1
 H                    -4.0909   -1.0651   -0.0902 
 C                    -3.4281   -0.351    -0.5804 
 H                    -3.9024    0.6382   -0.58 
 H                    -3.2898   -0.6564   -1.6251 
 C                    -2.0849   -0.352     0.1523 
 O                    -1.8026   -1.1995    0.9714 
 N                    -1.3065    0.7668   -0.1624 
 H                    -1.7944    1.3735   -0.8104 
 C                     0.1428    0.988    -0.3162 
 H                     0.3068    1.2691   -1.3665 
 C                     0.5328    2.1925    0.571 
 H                     0.4815    1.9145    1.628 
 H                     1.5356    2.5803    0.3568 
 H                    -0.1711    3.0143    0.4048 
 C                     1.0789   -0.2285   -0.1 
 O                     0.7118   -1.381     0.0293 
 N                     2.4071    0.0938   -0.2686 
 H                     2.689     1.0619   -0.2412 
 C                     3.4472   -0.9117   -0.1239 
 H                     4.275    -0.6871   -0.8036 
 H                     3.8343   -0.9675    0.9024 
 H                     3.0162   -1.88     -0.3811 
 
                          Input orientation:                          
 ---------------------------------------------------------------------
 Center     Atomic      Atomic             Coordinates (Angstroms)
 Number     Number       Type             X           Y           Z
 ---------------------------------------------------------------------
      1          1           0       -4.090900   -1.065100   -0.090200
      2          6           0       -3.428100   -0.351000   -0.580400
      3          1           0       -3.902400    0.638200   -0.580000
      4          1           0       -3.289800   -0.656400   -1.625100
      5          6           0       -2.084900   -0.352000    0.152300
      6          8           0       -1.802600   -1.199500    0.971400
      7          7           0       -1.306500    0.766800   -0.162400
      8          1           0       -1.794400    1.373500   -0.810400
      9          6           0        0.142800    0.988000   -0.316200
     10          1           0        0.306800    1.269100   -1.366500
     11          6           0        0.532800    2.192500    0.571000
     12          1           0        0.481500    1.914500    1.628000
     13          1           0        1.535600    2.580300    0.356800
     14          1           0       -0.171100    3.014300    0.404800
     15          6           0        1.078900   -0.228500   -0.100000
     16          8           0        0.711800   -1.381000    0.029300
     17          7           0        2.407100    0.093800   -0.268600
     18          1           0        2.689000    1.061900   -0.241200
     19          6           0        3.447200   -0.911700   -0.123900
     20          1           0        4.275000   -0.687100   -0.803600
     21          1           0        3.834300   -0.967500    0.902400
     22          1           0        3.016200   -1.880000   -0.381100
 ---------------------------------------------------------------------
                    Distance matrix (angstroms):
                    1          2          3          4          5
     1  H    0.000000
     2  C    1.090660   0.000000
     3  H    1.782321   1.097031   0.000000
     4  H    1.778965   1.097176   1.772992   0.000000
     5  C    2.142744   1.530045   2.195465   2.168777   0.000000
     6  O    2.526138   2.402142   3.192670   3.041140   1.211971
     7  N    3.333760   2.434212   2.632418   2.845781   1.398805
     8  H    3.426276   2.386582   2.244418   2.649613   1.997131
     9  C    4.710681   3.822833   4.068857   4.024924   2.641541
    10  H    5.139766   4.146342   4.328277   4.087781   3.264192
    11  C    5.694536   4.846013   4.838559   5.248939   3.674526
    12  H    5.721632   5.029363   5.071763   5.604899   3.728421
    13  H    6.719096   5.840307   5.849888   6.139107   4.663499
    14  H    5.679028   4.785803   4.531918   5.226932   3.880511
    15  C    5.237063   4.534186   5.078870   4.646996   3.176246
    16  O    4.814561   4.309455   5.073387   4.390317   2.982533
    17  N    6.602945   5.860429   6.340594   5.904029   4.533647
    18  H    7.107318   6.287309   6.613687   6.372894   4.994405
    19  C    7.539736   6.913214   7.525081   6.906949   5.567197
    20  H    8.404767   7.713659   8.287116   7.609337   6.440059
    21  H    7.987714   7.437824   8.039422   7.565569   5.998201
    22  H    7.159578   6.626203   7.365319   6.542963   5.351684
                    6          7          8          9         10
     6  O    0.000000
     7  N    2.323350   0.000000
     8  H    3.129730   1.012934   0.000000
     9  C    3.198070   1.474128   2.036072   0.000000
    10  H    4.001166   2.074825   2.176049   1.099565   0.000000
    11  C    4.137642   2.439984   2.827523   1.545977   2.158159
    12  H    3.917299   2.778433   3.379082   2.180145   3.068239
    13  H    5.080177   3.411141   3.729292   2.219964   2.489771
    14  H    4.554002   2.581105   2.608455   2.173538   2.532117
    15  C    3.223939   2.585469   3.365550   1.550128   2.107835
    16  O    2.691227   2.953528   3.817513   2.460750   3.022468
    17  N    4.575128   3.775584   4.425357   2.434936   2.645369
    18  H    5.172891   4.007158   4.530117   2.548376   2.642746
    19  C    5.370560   5.041479   5.759149   3.816399   4.020206
    20  H    6.352197   5.803284   6.409660   4.485376   4.459841
    21  H    5.642094   5.528962   6.332158   4.351567   4.753267
    22  H    5.051056   5.073373   5.823352   4.060303   4.269507
                   11         12         13         14         15
    11  C    0.000000
    12  H    1.094150   0.000000
    13  H    1.096302   1.780552   0.000000
    14  H    1.094739   1.769651   1.761671   0.000000
    15  C    2.570935   2.816970   2.882117   3.511848   0.000000
    16  O    3.618754   3.670041   4.059286   4.498797   1.216444
    17  N    2.936404   3.258830   2.708010   3.953467   1.377105
    18  H    2.566539   3.015608   1.998368   3.522691   2.068210
    19  C    4.314240   4.455551   4.009907   5.365174   2.464991
    20  H    4.917894   5.203042   4.418907   5.910025   3.304606
    21  H    4.582066   4.480367   4.262462   5.669706   3.023765
    22  H    4.864055   4.985922   4.757200   5.893275   2.561172
                   16         17         18         19         20
    16  O    0.000000
    17  N    2.266676   0.000000
    18  H    3.154402   1.008680   0.000000
    19  C    2.779591   1.453883   2.117480   0.000000
    20  H    3.724462   2.094058   2.427075   1.094390   0.000000
    21  H    3.268531   2.129436   2.595765   1.098295   1.784174
    22  H    2.393259   2.068706   2.963344   1.090650   1.784963
                   21         22
    21  H    0.000000
    22  H    1.774631   0.000000
 Stoichiometry    C6H12N2O2
 Framework group  C1[X(C6H12N2O2)]
 Deg. of freedom    60
 Full point group                 C1      NOp   1
 Largest Abelian subgroup         C1      NOp   1
 Largest concise Abelian subgroup C1      NOp   1
                         Standard orientation:                         
 ---------------------------------------------------------------------
 Center     Atomic      Atomic             Coordinates (Angstroms)
 Number     Number       Type             X           Y           Z
 ---------------------------------------------------------------------
      1          1           0       -4.090902   -1.065079   -0.090191
      2          6           0       -3.428099   -0.350981   -0.580391
      3          1           0       -3.902395    0.638221   -0.579991
      4          1           0       -3.289800   -0.656382   -1.625091
      5          6           0       -2.084899   -0.351987    0.152309
      6          8           0       -1.802603   -1.199488    0.971409
      7          7           0       -1.306494    0.766809   -0.162391
      8          1           0       -1.794392    1.373512   -0.810391
      9          6           0        0.142807    0.988003   -0.316191
     10          1           0        0.306808    1.269103   -1.366491
     11          6           0        0.532812    2.192502    0.571009
     12          1           0        0.481511    1.914502    1.628009
     13          1           0        1.535614    2.580297    0.356809
     14          1           0       -0.171084    3.014305    0.404809
     15          6           0        1.078902   -0.228501   -0.099991
     16          8           0        0.711797   -1.380999    0.029309
     17          7           0        2.407103    0.093794   -0.268591
     18          1           0        2.689007    1.061892   -0.241191
     19          6           0        3.447199   -0.911711   -0.123891
     20          1           0        4.275000   -0.687115   -0.803591
     21          1           0        3.834298   -0.967513    0.902409
     22          1           0        3.016194   -1.880009   -0.381091
 ---------------------------------------------------------------------
 Rotational constants (GHZ):      2.3842592      0.7732539      0.6371551
 Standard basis: Aug-CC-pVDZ (5D, 7F)
 There are   338 symmetry adapted basis functions of A   symmetry.
 Integral buffers will be    131072 words long.
 Raffenetti 1 integral format.
 Two-electron integral symmetry is turned on.
   338 basis functions,   562 primitive gaussians,   358 cartesian basis functions
    39 alpha electrons       39 beta electrons
       nuclear repulsion energy       553.0373220194 Hartrees.
 NAtoms=   22 NActive=   22 NUniq=   22 SFac= 7.50D-01 NAtFMM=   80 NAOKFM=F Big=F
 One-electron integrals computed using PRISM.
 NBasis=   338 RedAO= T  NBF=   338
 NBsUse=   338 1.00D-06 NBFU=   338
 Harris functional with IExCor=  205 diagonalized for initial guess.
 ExpMin= 2.97D-02 ExpMax= 1.17D+04 ExpMxC= 4.01D+02 IAcc=3 IRadAn=         0 AccDes= 0.00D+00
 HarFok:  IExCor=  205 AccDes= 0.00D+00 IRadAn=         0 IDoV= 1
 ScaDFX=  1.000000  1.000000  1.000000  1.000000
 FoFCou: FMM=F IPFlag=           0 FMFlag=      100000 FMFlg1=           0
         NFxFlg=           0 DoJE=T BraDBF=F KetDBF=T FulRan=T
         Omega=  0.000000  0.000000  1.000000  0.000000  0.000000 ICntrl=     500 IOpCl=  0
         NMat0=    1 NMatS0=    1 NMatT0=    0 NMatD0=    1 NMtDS0=    0 NMtDT0=    0
         I1Cent=           4 NGrid=           0.
 Petite list used in FoFCou.
 Initial guess orbital symmetries:
       Occupied  (A) (A) (A) (A) (A) (A) (A) (A) (A) (A) (A) (A)
                 (A) (A) (A) (A) (A) (A) (A) (A) (A) (A) (A) (A)
                 (A) (A) (A) (A) (A) (A) (A) (A) (A) (A) (A) (A)
                 (A) (A) (A)
       Virtual   (A) (A) (A) (A) (A) (A) (A) (A) (A) (A) (A) (A)
                 (A) (A) (A) (A) (A) (A) (A) (A) (A) (A) (A) (A)
                 (A) (A) (A) (A) (A) (A) (A) (A) (A) (A) (A) (A)
                 (A) (A) (A) (A) (A) (A) (A) (A) (A) (A) (A) (A)
                 (A) (A) (A) (A) (A) (A) (A) (A) (A) (A) (A) (A)
                 (A) (A) (A) (A) (A) (A) (A) (A) (A) (A) (A) (A)
                 (A) (A) (A) (A) (A) (A) (A) (A) (A) (A) (A) (A)
                 (A) (A) (A) (A) (A) (A) (A) (A) (A) (A) (A) (A)
                 (A) (A) (A) (A) (A) (A) (A) (A) (A) (A) (A) (A)
                 (A) (A) (A) (A) (A) (A) (A) (A) (A) (A) (A) (A)
                 (A) (A) (A) (A) (A) (A) (A) (A) (A) (A) (A) (A)
                 (A) (A) (A) (A) (A) (A) (A) (A) (A) (A) (A) (A)
                 (A) (A) (A) (A) (A) (A) (A) (A) (A) (A) (A) (A)
                 (A) (A) (A) (A) (A) (A) (A) (A) (A) (A) (A) (A)
                 (A) (A) (A) (A) (A) (A) (A) (A) (A) (A) (A) (A)
                 (A) (A) (A) (A) (A) (A) (A) (A) (A) (A) (A) (A)
                 (A) (A) (A) (A) (A) (A) (A) (A) (A) (A) (A) (A)
                 (A) (A) (A) (A) (A) (A) (A) (A) (A) (A) (A) (A)
                 (A) (A) (A) (A) (A) (A) (A) (A) (A) (A) (A) (A)
                 (A) (A) (A) (A) (A) (A) (A) (A) (A) (A) (A) (A)
                 (A) (A) (A) (A) (A) (A) (A) (A) (A) (A) (A) (A)
                 (A) (A) (A) (A) (A) (A) (A) (A) (A) (A) (A) (A)
                 (A) (A) (A) (A) (A) (A) (A) (A) (A) (A) (A) (A)
                 (A) (A) (A) (A) (A) (A) (A) (A) (A) (A) (A) (A)
                 (A) (A) (A) (A) (A) (A) (A) (A) (A) (A) (A)
 The electronic state of the initial guess is 1-A.
 Requested convergence on RMS density matrix=1.00D-08 within 128 cycles.
 Requested convergence on MAX density matrix=1.00D-06.
 Requested convergence on             energy=1.00D-06.
 No special actions if energy rises.
 Initial convergence to 1.0D-05 achieved.  Increase integral accuracy.
 SCF Done:  E(RHF) =  -492.887966317     A.U. after   14 cycles
             Convg  =    0.8484D-08             -V/T =  2.0018
 ExpMin= 2.97D-02 ExpMax= 1.17D+04 ExpMxC= 4.01D+02 IAcc=3 IRadAn=         5 AccDes= 0.00D+00
 HarFok:  IExCor=  205 AccDes= 0.00D+00 IRadAn=         5 IDoV=-2
 ScaDFX=  1.000000  1.000000  1.000000  1.000000
 Range of M.O.s used for correlation:    11   338
 NBasis=   338 NAE=    39 NBE=    39 NFC=    10 NFV=     0
 NROrb=    328 NOA=    29 NOB=    29 NVA=   299 NVB=   299

 **** Warning!!: The largest alpha MO coefficient is  0.86144105D+02

 Disk-based method using OVN memory for 29 occupieds at a time.
 Estimated scratch disk usage=  1379177516 words.
 Actual    scratch disk usage=  1366311012 words.
 JobTyp=1 Pass  1:  I=   1 to  29 NPSUse=  8 ParTrn=T ParDer=T DoDerP=F.
 Spin components of T(2) and E(2):
     alpha-alpha T2 =       0.6813803792D-01 E2=     -0.2056939831D+00
     alpha-beta  T2 =       0.3792045682D+00 E2=     -0.1192557254D+01
     beta-beta   T2 =       0.6813803792D-01 E2=     -0.2056939831D+00
 ANorm=    0.1231048595D+01
 E2 =    -0.1603945220D+01 EUMP2 =    -0.49449191153647D+03

 **********************************************************************

            Population analysis using the SCF density.

 **********************************************************************

 Orbital symmetries:
       Occupied  (A) (A) (A) (A) (A) (A) (A) (A) (A) (A) (A) (A)
                 (A) (A) (A) (A) (A) (A) (A) (A) (A) (A) (A) (A)
                 (A) (A) (A) (A) (A) (A) (A) (A) (A) (A) (A) (A)
                 (A) (A) (A)
       Virtual   (A) (A) (A) (A) (A) (A) (A) (A) (A) (A) (A) (A)
                 (A) (A) (A) (A) (A) (A) (A) (A) (A) (A) (A) (A)
                 (A) (A) (A) (A) (A) (A) (A) (A) (A) (A) (A) (A)
                 (A) (A) (A) (A) (A) (A) (A) (A) (A) (A) (A) (A)
                 (A) (A) (A) (A) (A) (A) (A) (A) (A) (A) (A) (A)
                 (A) (A) (A) (A) (A) (A) (A) (A) (A) (A) (A) (A)
                 (A) (A) (A) (A) (A) (A) (A) (A) (A) (A) (A) (A)
                 (A) (A) (A) (A) (A) (A) (A) (A) (A) (A) (A) (A)
                 (A) (A) (A) (A) (A) (A) (A) (A) (A) (A) (A) (A)
                 (A) (A) (A) (A) (A) (A) (A) (A) (A) (A) (A) (A)
                 (A) (A) (A) (A) (A) (A) (A) (A) (A) (A) (A) (A)
                 (A) (A) (A) (A) (A) (A) (A) (A) (A) (A) (A) (A)
                 (A) (A) (A) (A) (A) (A) (A) (A) (A) (A) (A) (A)
                 (A) (A) (A) (A) (A) (A) (A) (A) (A) (A) (A) (A)
                 (A) (A) (A) (A) (A) (A) (A) (A) (A) (A) (A) (A)
                 (A) (A) (A) (A) (A) (A) (A) (A) (A) (A) (A) (A)
                 (A) (A) (A) (A) (A) (A) (A) (A) (A) (A) (A) (A)
                 (A) (A) (A) (A) (A) (A) (A) (A) (A) (A) (A) (A)
                 (A) (A) (A) (A) (A) (A) (A) (A) (A) (A) (A) (A)
                 (A) (A) (A) (A) (A) (A) (A) (A) (A) (A) (A) (A)
                 (A) (A) (A) (A) (A) (A) (A) (A) (A) (A) (A) (A)
                 (A) (A) (A) (A) (A) (A) (A) (A) (A) (A) (A) (A)
                 (A) (A) (A) (A) (A) (A) (A) (A) (A) (A) (A) (A)
                 (A) (A) (A) (A) (A) (A) (A) (A) (A) (A) (A) (A)
                 (A) (A) (A) (A) (A) (A) (A) (A) (A) (A) (A)
 The electronic state is 1-A.
 Alpha  occ. eigenvalues --  -20.52736 -20.51998 -15.59132 -15.58943 -11.36124
 Alpha  occ. eigenvalues --  -11.35366 -11.30807 -11.26516 -11.24975 -11.23978
 Alpha  occ. eigenvalues --   -1.38708  -1.37032  -1.23376  -1.22488  -1.05782
 Alpha  occ. eigenvalues --   -0.98523  -0.95179  -0.88551  -0.80235  -0.77000
 Alpha  occ. eigenvalues --   -0.69905  -0.68491  -0.65105  -0.63924  -0.61253
 Alpha  occ. eigenvalues --   -0.61019  -0.60522  -0.57717  -0.57068  -0.56522
 Alpha  occ. eigenvalues --   -0.54823  -0.54116  -0.53478  -0.51506  -0.49190
 Alpha  occ. eigenvalues --   -0.42922  -0.40502  -0.39129  -0.38107
 Alpha virt. eigenvalues --    0.02322   0.03435   0.04139   0.04589   0.05564
 Alpha virt. eigenvalues --    0.05683   0.06432   0.06850   0.07208   0.07995
 Alpha virt. eigenvalues --    0.09052   0.09157   0.11139   0.11700   0.12552
 Alpha virt. eigenvalues --    0.13267   0.14115   0.14620   0.14948   0.15122
 Alpha virt. eigenvalues --    0.15406   0.15891   0.16089   0.17297   0.17577
 Alpha virt. eigenvalues --    0.17771   0.17923   0.18725   0.18899   0.19317
 Alpha virt. eigenvalues --    0.19739   0.20460   0.20772   0.21206   0.22254
 Alpha virt. eigenvalues --    0.23703   0.24117   0.24901   0.25111   0.26518
 Alpha virt. eigenvalues --    0.27201   0.27964   0.29221   0.29758   0.30888
 Alpha virt. eigenvalues --    0.31310   0.31546   0.32391   0.32967   0.34089
 Alpha virt. eigenvalues --    0.34296   0.34629   0.35610   0.36288   0.37023
 Alpha virt. eigenvalues --    0.37518   0.38325   0.38766   0.39604   0.39744
 Alpha virt. eigenvalues --    0.40908   0.42024   0.42454   0.43137   0.43422
 Alpha virt. eigenvalues --    0.43806   0.44716   0.45323   0.45588   0.45961
 Alpha virt. eigenvalues --    0.46371   0.47348   0.47746   0.48489   0.48966
 Alpha virt. eigenvalues --    0.49691   0.49735   0.50829   0.51069   0.52215
 Alpha virt. eigenvalues --    0.52788   0.54020   0.55200   0.55664   0.55952
 Alpha virt. eigenvalues --    0.57293   0.57533   0.57815   0.58477   0.58874
 Alpha virt. eigenvalues --    0.58942   0.59689   0.60200   0.61462   0.62098
 Alpha virt. eigenvalues --    0.62819   0.63367   0.63783   0.64712   0.65181
 Alpha virt. eigenvalues --    0.65681   0.66297   0.66856   0.67147   0.68974
 Alpha virt. eigenvalues --    0.69238   0.69794   0.69911   0.70645   0.70927
 Alpha virt. eigenvalues --    0.72372   0.72872   0.73304   0.73918   0.74823
 Alpha virt. eigenvalues --    0.75827   0.76319   0.77413   0.77889   0.79315
 Alpha virt. eigenvalues --    0.80263   0.80617   0.81295   0.83224   0.83652
 Alpha virt. eigenvalues --    0.84440   0.84992   0.86627   0.87119   0.87607
 Alpha virt. eigenvalues --    0.88768   0.90314   0.90614   0.92463   0.94044
 Alpha virt. eigenvalues --    0.95393   0.95735   0.97264   0.97914   0.99409
 Alpha virt. eigenvalues --    1.01358   1.02446   1.03664   1.04391   1.04676
 Alpha virt. eigenvalues --    1.06723   1.07430   1.08581   1.10095   1.10645
 Alpha virt. eigenvalues --    1.11566   1.12722   1.14902   1.15511   1.16126
 Alpha virt. eigenvalues --    1.17691   1.18070   1.19217   1.20268   1.21691
 Alpha virt. eigenvalues --    1.22858   1.24076   1.25879   1.26736   1.29488
 Alpha virt. eigenvalues --    1.31154   1.33142   1.33433   1.36175   1.36882
 Alpha virt. eigenvalues --    1.38823   1.41147   1.42940   1.44485   1.46003
 Alpha virt. eigenvalues --    1.47624   1.49906   1.52116   1.54232   1.56084
 Alpha virt. eigenvalues --    1.57898   1.58912   1.59523   1.61931   1.65275
 Alpha virt. eigenvalues --    1.66027   1.66962   1.67434   1.69025   1.71228
 Alpha virt. eigenvalues --    1.74095   1.75235   1.77066   1.78299   1.80163
 Alpha virt. eigenvalues --    1.82273   1.83499   1.83758   1.86698   1.87690
 Alpha virt. eigenvalues --    1.88051   1.89951   1.90619   1.91655   1.93109
 Alpha virt. eigenvalues --    1.94172   1.95836   1.96827   1.99815   2.01455
 Alpha virt. eigenvalues --    2.02337   2.02398   2.04567   2.06849   2.07472
 Alpha virt. eigenvalues --    2.08901   2.10074   2.11949   2.14933   2.15548
 Alpha virt. eigenvalues --    2.16244   2.19142   2.20950   2.21525   2.23279
 Alpha virt. eigenvalues --    2.24874   2.26459   2.27965   2.28363   2.30073
 Alpha virt. eigenvalues --    2.31404   2.32670   2.35865   2.36408   2.38313
 Alpha virt. eigenvalues --    2.38442   2.39328   2.40491   2.43497   2.44278
 Alpha virt. eigenvalues --    2.44618   2.45498   2.48664   2.51003   2.51916
 Alpha virt. eigenvalues --    2.52490   2.53999   2.56262   2.58280   2.60523
 Alpha virt. eigenvalues --    2.61802   2.63415   2.63932   2.64931   2.66552
 Alpha virt. eigenvalues --    2.67700   2.70703   2.73164   2.76181   2.78919
 Alpha virt. eigenvalues --    2.81792   2.83022   2.85990   2.86935   2.87454
 Alpha virt. eigenvalues --    2.89714   2.92891   2.95858   2.97070   2.97305
 Alpha virt. eigenvalues --    2.98739   3.02735   3.04142   3.04568   3.09110
 Alpha virt. eigenvalues --    3.09617   3.13522   3.15240   3.18049   3.21143
 Alpha virt. eigenvalues --    3.28229   3.31220   3.42543   3.46344   3.51193
 Alpha virt. eigenvalues --    3.60053   3.65471   3.73229   3.80824   3.85323
 Alpha virt. eigenvalues --    3.86300   3.87350   3.91053   3.99552   4.02397
 Alpha virt. eigenvalues --    4.07015   4.17116   4.22294   4.23712
          Condensed to atoms (all electrons):
              1          2          3          4          5          6
     1  H    0.851936   0.396728  -0.103542  -0.081401  -0.061027   0.028840
     2  C    0.396728   4.605840   0.356088   0.349298   0.141046  -0.054747
     3  H   -0.103542   0.356088   0.932504  -0.078052   0.055629  -0.005396
     4  H   -0.081401   0.349298  -0.078052   0.801089  -0.101093   0.011026
     5  C   -0.061027   0.141046   0.055629  -0.101093   5.191580   0.280265
     6  O    0.028840  -0.054747  -0.005396   0.011026   0.280265   8.600690
     7  N    0.046967   0.043092  -0.123620   0.037728   0.097263  -0.154888
     8  H   -0.008939  -0.060469   0.023387  -0.000674  -0.120093   0.005981
     9  C   -0.013761  -0.091260  -0.021759   0.012706  -0.146708   0.096645
    10  H    0.000535   0.004235  -0.001569  -0.002002  -0.012345   0.001176
    11  C    0.001541   0.000303  -0.003808   0.001275  -0.009679  -0.011577
    12  H   -0.000249  -0.002435  -0.000628  -0.000383  -0.022039   0.001692
    13  H    0.000139   0.000197  -0.000345  -0.000187   0.003950  -0.000372
    14  H    0.000109   0.002049  -0.000328   0.000918  -0.006800  -0.000918
    15  C    0.003024   0.048891  -0.008581   0.012365  -0.090417  -0.027092
    16  O    0.000696  -0.001374   0.000105  -0.000913   0.027417  -0.038626
    17  N   -0.000035  -0.003943  -0.000122  -0.000506   0.005574  -0.003824
    18  H    0.000010   0.000955  -0.000041   0.000216   0.003670   0.000385
    19  C    0.000147   0.001631  -0.000075  -0.000076  -0.003477   0.000431
    20  H   -0.000003   0.000122  -0.000007   0.000060   0.001297   0.000254
    21  H    0.000002  -0.000130  -0.000022  -0.000020  -0.001970  -0.000144
    22  H    0.000052  -0.000050  -0.000007  -0.000104  -0.001100  -0.000550
              7          8          9         10         11         12
     1  H    0.046967  -0.008939  -0.013761   0.000535   0.001541  -0.000249
     2  C    0.043092  -0.060469  -0.091260   0.004235   0.000303  -0.002435
     3  H   -0.123620   0.023387  -0.021759  -0.001569  -0.003808  -0.000628
     4  H    0.037728  -0.000674   0.012706  -0.002002   0.001275  -0.000383
     5  C    0.097263  -0.120093  -0.146708  -0.012345  -0.009679  -0.022039
     6  O   -0.154888   0.005981   0.096645   0.001176  -0.011577   0.001692
     7  N    7.832139   0.336814  -0.538411  -0.183781  -0.014782  -0.081974
     8  H    0.336814   0.901924   0.055995  -0.051494  -0.009700  -0.000917
     9  C   -0.538411   0.055995   7.169296   0.274310   0.191763   0.100388
    10  H   -0.183781  -0.051494   0.274310   1.251599  -0.080518   0.077870
    11  C   -0.014782  -0.009700   0.191763  -0.080518   4.202841   0.318059
    12  H   -0.081974  -0.000917   0.100388   0.077870   0.318059   1.021732
    13  H    0.151443   0.000873  -0.239744  -0.102943   0.377688  -0.133941
    14  H   -0.091925   0.008679   0.017767  -0.018989   0.340077  -0.167417
    15  C    0.234771  -0.025176  -0.886624  -0.097703   0.043072  -0.096866
    16  O   -0.009592  -0.001103  -0.051665   0.001171   0.009099   0.001862
    17  N    0.005585  -0.000032  -0.020493  -0.007414  -0.022563   0.007763
    18  H    0.002726  -0.002522  -0.052911   0.018211  -0.014339   0.002112
    19  C   -0.002516  -0.000488  -0.053259   0.003942   0.007756  -0.005494
    20  H   -0.000262   0.000042  -0.007049  -0.002326  -0.000101  -0.000610
    21  H   -0.000023   0.000100   0.013195   0.000695   0.009016   0.000683
    22  H    0.001526   0.000188   0.001293  -0.000555  -0.004509  -0.000760
             13         14         15         16         17         18
     1  H    0.000139   0.000109   0.003024   0.000696  -0.000035   0.000010
     2  C    0.000197   0.002049   0.048891  -0.001374  -0.003943   0.000955
     3  H   -0.000345  -0.000328  -0.008581   0.000105  -0.000122  -0.000041
     4  H   -0.000187   0.000918   0.012365  -0.000913  -0.000506   0.000216
     5  C    0.003950  -0.006800  -0.090417   0.027417   0.005574   0.003670
     6  O   -0.000372  -0.000918  -0.027092  -0.038626  -0.003824   0.000385
     7  N    0.151443  -0.091925   0.234771  -0.009592   0.005585   0.002726
     8  H    0.000873   0.008679  -0.025176  -0.001103  -0.000032  -0.002522
     9  C   -0.239744   0.017767  -0.886624  -0.051665  -0.020493  -0.052911
    10  H   -0.102943  -0.018989  -0.097703   0.001171  -0.007414   0.018211
    11  C    0.377688   0.340077   0.043072   0.009099  -0.022563  -0.014339
    12  H   -0.133941  -0.167417  -0.096866   0.001862   0.007763   0.002112
    13  H    1.199683  -0.167086   0.092519  -0.006454  -0.027700  -0.003389
    14  H   -0.167086   1.103050   0.045056   0.001696   0.021501  -0.001731
    15  C    0.092519   0.045056   5.409787   0.382398   0.174253   0.007178
    16  O   -0.006454   0.001696   0.382398   8.640329  -0.210791   0.003670
    17  N   -0.027700   0.021501   0.174253  -0.210791   7.197223   0.240013
    18  H   -0.003389  -0.001731   0.007178   0.003670   0.240013   1.051168
    19  C   -0.003595   0.008152  -0.075753   0.005092   0.270720  -0.147531
    20  H   -0.001116   0.000562   0.027701   0.020428  -0.160427   0.017702
    21  H   -0.003216   0.001093  -0.052881   0.002287   0.094574  -0.014463
    22  H    0.004297  -0.000389  -0.001890  -0.024648  -0.018999  -0.000756
             19         20         21         22
     1  H    0.000147  -0.000003   0.000002   0.000052
     2  C    0.001631   0.000122  -0.000130  -0.000050
     3  H   -0.000075  -0.000007  -0.000022  -0.000007
     4  H   -0.000076   0.000060  -0.000020  -0.000104
     5  C   -0.003477   0.001297  -0.001970  -0.001100
     6  O    0.000431   0.000254  -0.000144  -0.000550
     7  N   -0.002516  -0.000262  -0.000023   0.001526
     8  H   -0.000488   0.000042   0.000100   0.000188
     9  C   -0.053259  -0.007049   0.013195   0.001293
    10  H    0.003942  -0.002326   0.000695  -0.000555
    11  C    0.007756  -0.000101   0.009016  -0.004509
    12  H   -0.005494  -0.000610   0.000683  -0.000760
    13  H   -0.003595  -0.001116  -0.003216   0.004297
    14  H    0.008152   0.000562   0.001093  -0.000389
    15  C   -0.075753   0.027701  -0.052881  -0.001890
    16  O    0.005092   0.020428   0.002287  -0.024648
    17  N    0.270720  -0.160427   0.094574  -0.018999
    18  H   -0.147531   0.017702  -0.014463  -0.000756
    19  C    4.131860   0.376907   0.285884   0.474676
    20  H    0.376907   1.220540  -0.161118  -0.167666
    21  H    0.285884  -0.161118   0.984220  -0.086465
    22  H    0.474676  -0.167666  -0.086465   0.948677
 Mulliken atomic charges:
              1
     1  H   -0.061770
     2  C    0.263933
     3  H   -0.019808
     4  H    0.038731
     5  C    0.769054
     6  O   -0.729248
     7  N   -0.588279
     8  H   -0.052376
     9  C    0.190288
    10  H   -0.072105
    11  C    0.669087
    12  H   -0.018450
    13  H   -0.140699
    14  H   -0.095125
    15  C    0.881967
    16  O   -0.751085
    17  N   -0.540358
    18  H   -0.110333
    19  C    0.725067
    20  H   -0.164930
    21  H   -0.071298
    22  H   -0.122263
 Sum of Mulliken atomic charges =   0.00000
 Mulliken charges with hydrogens summed into heavy atoms:
              1
     2  C    0.221086
     5  C    0.769054
     6  O   -0.729248
     7  N   -0.640655
     9  C    0.118182
    11  C    0.414813
    15  C    0.881967
    16  O   -0.751085
    17  N   -0.650691
    19  C    0.366575
 Sum of Mulliken charges with hydrogens summed into heavy atoms =   0.00000
 Electronic spatial extent (au):  <R**2>=           1857.7923
 Charge=              0.0000 electrons
 Dipole moment (field-independent basis, Debye):
    X=              1.6099    Y=              5.7154    Z=             -3.0701  Tot=              6.6846
 Quadrupole moment (field-independent basis, Debye-Ang):
   XX=            -47.9210   YY=            -64.1461   ZZ=            -62.5151
   XY=             -1.9240   XZ=              5.7668   YZ=              1.7399
 Traceless Quadrupole moment (field-independent basis, Debye-Ang):
   XX=             10.2731   YY=             -5.9520   ZZ=             -4.3210
   XY=             -1.9240   XZ=              5.7668   YZ=              1.7399
 Octapole moment (field-independent basis, Debye-Ang**2):
  XXX=              8.1929  YYY=              9.3078  ZZZ=             -1.2549  XYY=              5.8077
  XXY=              3.6080  XXZ=            -11.1378  XZZ=              1.8312  YZZ=              2.0695
  YYZ=             -6.7588  XYZ=             -3.2741
 Hexadecapole moment (field-independent basis, Debye-Ang**3):
 XXXX=          -1583.5889 YYYY=           -547.7088 ZZZZ=           -162.9817 XXXY=             -3.4395
 XXXZ=              5.4815 YYYX=             -7.5084 YYYZ=             -3.4813 ZZZX=              7.2192
 ZZZY=             -1.1625 XXYY=           -367.3888 XXZZ=           -328.0880 YYZZ=           -120.6908
 XXYZ=              2.5414 YYXZ=              7.7706 ZZXY=             -5.9081
 N-N= 5.530373220194D+02 E-N=-2.261613462525D+03  KE= 4.920178326516D+02
 1\1\GINC-NODE004\SP\RMP2-FC\Aug-CC-pVDZ\C6H12N2O2\STEBOSS\12-Feb-2017\
 0\\#SP MP2/aug-cc-pVDZ\\Single Point calculation at MP2\\0,1\H,0,-4.09
 09,-1.0651,-0.0902\C,0,-3.4281,-0.351,-0.5804\H,0,-3.9024,0.6382,-0.58
 \H,0,-3.2898,-0.6564,-1.6251\C,0,-2.0849,-0.352,0.1523\O,0,-1.8026,-1.
 1995,0.9714\N,0,-1.3065,0.7668,-0.1624\H,0,-1.7944,1.3735,-0.8104\C,0,
 0.1428,0.988,-0.3162\H,0,0.3068,1.2691,-1.3665\C,0,0.5328,2.1925,0.571
 \H,0,0.4815,1.9145,1.628\H,0,1.5356,2.5803,0.3568\H,0,-0.1711,3.0143,0
 .4048\C,0,1.0789,-0.2285,-0.1\O,0,0.7118,-1.381,0.0293\N,0,2.4071,0.09
 38,-0.2686\H,0,2.689,1.0619,-0.2412\C,0,3.4472,-0.9117,-0.1239\H,0,4.2
 75,-0.6871,-0.8036\H,0,3.8343,-0.9675,0.9024\H,0,3.0162,-1.88,-0.3811\
 \Version=EM64L-G09RevA.02\State=1-A\HF=-492.8879663\MP2=-494.4919115\R
 MSD=8.484e-09\PG=C01 [X(C6H12N2O2)]\\@


 WE TEND TO MEET ANY NEW SITUATION BY REORGANIZING. IT CAN BE A
 WONDERFUL METHOD FOR CREATING THE ILLUSION OF PROGRESS WHILE PRODUCING
 CONFUSION, INEFFICIENCY, AND DEMORALIZATION.
     -- PETRONIUS ARBITER, 210 B.C.
 Job cpu time:  0 days  6 hours 25 minutes 45.5 seconds.
 File lengths (MBytes):  RWF=  10541 Int=      0 D2E=      0 Chk=      7 Scr=      2
 Normal termination of Gaussian 09 at Sun Feb 12 13:49:27 2017.
