 Entering Gaussian System, Link 0=g09
 Initial command:
 /home/steboss/Software/g09/l1.exe /tmp/Gau-7227.inp -scrdir=/tmp/
 Entering Link 1 = /home/steboss/Software/g09/l1.exe PID=      7229.
  
 Copyright (c) 1988,1990,1992,1993,1995,1998,2003,2009, Gaussian, Inc.
                  All Rights Reserved.
  
 This is part of the Gaussian(R) 09 program.  It is based on
 the Gaussian(R) 03 system (copyright 2003, Gaussian, Inc.),
 the Gaussian(R) 98 system (copyright 1998, Gaussian, Inc.),
 the Gaussian(R) 94 system (copyright 1995, Gaussian, Inc.),
 the Gaussian 92(TM) system (copyright 1992, Gaussian, Inc.),
 the Gaussian 90(TM) system (copyright 1990, Gaussian, Inc.),
 the Gaussian 88(TM) system (copyright 1988, Gaussian, Inc.),
 the Gaussian 86(TM) system (copyright 1986, Carnegie Mellon
 University), and the Gaussian 82(TM) system (copyright 1983,
 Carnegie Mellon University). Gaussian is a federally registered
 trademark of Gaussian, Inc.
  
 This software contains proprietary and confidential information,
 including trade secrets, belonging to Gaussian, Inc.
  
 This software is provided under written license and may be
 used, copied, transmitted, or stored only in accord with that
 written license.
  
 The following legend is applicable only to US Government
 contracts under FAR:
  
                    RESTRICTED RIGHTS LEGEND
  
 Use, reproduction and disclosure by the US Government is
 subject to restrictions as set forth in subparagraphs (a)
 and (c) of the Commercial Computer Software - Restricted
 Rights clause in FAR 52.227-19.
  
 Gaussian, Inc.
 340 Quinnipiac St., Bldg. 40, Wallingford CT 06492
  
  
 ---------------------------------------------------------------
 Warning -- This program may not be used in any manner that
 competes with the business of Gaussian, Inc. or will provide
 assistance to any competitor of Gaussian, Inc.  The licensee
 of this program is prohibited from giving any competitor of
 Gaussian, Inc. access to this program.  By using this program,
 the user acknowledges that Gaussian, Inc. is engaged in the
 business of creating and licensing software in the field of
 computational chemistry and represents and warrants to the
 licensee that it is not a competitor of Gaussian, Inc. and that
 it will not use this program in any manner prohibited above.
 ---------------------------------------------------------------
  

 Cite this work as:
 Gaussian 09, Revision A.02,
 M. J. Frisch, G. W. Trucks, H. B. Schlegel, G. E. Scuseria, 
 M. A. Robb, J. R. Cheeseman, G. Scalmani, V. Barone, B. Mennucci, 
 G. A. Petersson, H. Nakatsuji, M. Caricato, X. Li, H. P. Hratchian, 
 A. F. Izmaylov, J. Bloino, G. Zheng, J. L. Sonnenberg, M. Hada, 
 M. Ehara, K. Toyota, R. Fukuda, J. Hasegawa, M. Ishida, T. Nakajima, 
 Y. Honda, O. Kitao, H. Nakai, T. Vreven, J. A. Montgomery, Jr., 
 J. E. Peralta, F. Ogliaro, M. Bearpark, J. J. Heyd, E. Brothers, 
 K. N. Kudin, V. N. Staroverov, R. Kobayashi, J. Normand, 
 K. Raghavachari, A. Rendell, J. C. Burant, S. S. Iyengar, J. Tomasi, 
 M. Cossi, N. Rega, J. M. Millam, M. Klene, J. E. Knox, J. B. Cross, 
 V. Bakken, C. Adamo, J. Jaramillo, R. Gomperts, R. E. Stratmann, 
 O. Yazyev, A. J. Austin, R. Cammi, C. Pomelli, J. W. Ochterski, 
 R. L. Martin, K. Morokuma, V. G. Zakrzewski, G. A. Voth, 
 P. Salvador, J. J. Dannenberg, S. Dapprich, A. D. Daniels, 
 O. Farkas, J. B. Foresman, J. V. Ortiz, J. Cioslowski, 
 and D. J. Fox, Gaussian, Inc., Wallingford CT, 2009.
 
 ******************************************
 Gaussian 09:  EM64L-G09RevA.02 11-Jun-2009
                10-Feb-2017 
 ******************************************
 %chk=structure_255.chk
 %NProcShared=8
 Will use up to    8 processors via shared memory.
 -------------------------------------------
 # HF/6-31G* Opt=(ModRedundant) geom=nocrowd
 -------------------------------------------
 1/18=120,19=15,38=1/1,3;
 2/9=110,12=1,17=6,18=5,40=1/2;
 3/5=1,6=6,7=1,11=9,16=1,25=1,30=1,71=1/1,2,3;
 4//1;
 5/5=2,38=5/2;
 6/7=2,8=2,9=2,10=2,28=1/1;
 7//1,2,3,16;
 1/18=20,19=15/3(2);
 2/9=110,12=1/2;
 99//99;
 2/9=110,12=1/2;
 3/5=1,6=6,7=1,11=9,16=1,25=1,30=1,71=1/1,2,3;
 4/5=5,16=3/1;
 5/5=2,38=5/2;
 7//1,2,3,16;
 1/18=20,19=15/3(-5);
 2/9=110,12=1/2;
 6/7=2,8=2,9=2,10=2,19=2,28=1/1;
 99/9=1/99;
 ------------------
 Phi Psi fixed scan
 ------------------
 Symbolic Z-matrix:
 Charge =  0 Multiplicity = 1
 H                     1.5624    1.8816   -1.7047 
 C                     1.7794    2.5343   -0.8591 
 H                     1.7316    1.9596    0.0658 
 H                     1.0463    3.3401   -0.824 
 C                     3.1755    3.1484   -0.9815 
 O                     3.8914    2.883    -1.9446 
 N                     3.5554    3.9697    0. 
 H                     2.9312    4.1571    0.7716 
 C                     4.8533    4.6139    0. 
 H                     5.4076    4.3155    0.8898 
 C                     5.6613    4.2208   -1.2322 
 H                     5.1233    4.5214   -2.1312 
 H                     6.6305    4.7189   -1.2058 
 H                     5.8085    3.1409   -1.2414 
 C                     4.7127    6.1294    0. 
 O                     4.3822    6.7252    1.0229 
 N                     4.9651    6.7532   -1.153 
 H                     5.2337    6.2197   -1.9675 
 C                     4.8663    8.193    -1.2823 
 H                     4.5691    8.6246   -0.3265 
 H                     5.8335    8.5989   -1.5786 
 H                     4.1219    8.4401   -2.0392 
 
 The following ModRedundant input section has been read:
 D    5    7    9   15 F                                                       
 D    7    9   15   17 F                                                       

 GradGradGradGradGradGradGradGradGradGradGradGradGradGradGradGradGradGrad
 Berny optimization.
 Initialization pass.
                           ----------------------------
                           !    Initial Parameters    !
                           ! (Angstroms and Degrees)  !
 --------------------------                            --------------------------
 ! Name  Definition              Value          Derivative Info.                !
 --------------------------------------------------------------------------------
 ! R1    R(1,2)                  1.09           estimate D2E/DX2                !
 ! R2    R(2,3)                  1.09           estimate D2E/DX2                !
 ! R3    R(2,4)                  1.0899         estimate D2E/DX2                !
 ! R4    R(2,5)                  1.5301         estimate D2E/DX2                !
 ! R5    R(5,6)                  1.229          estimate D2E/DX2                !
 ! R6    R(5,7)                  1.335          estimate D2E/DX2                !
 ! R7    R(7,8)                  1.01           estimate D2E/DX2                !
 ! R8    R(7,9)                  1.449          estimate D2E/DX2                !
 ! R9    R(9,10)                 1.09           estimate D2E/DX2                !
 ! R10   R(9,11)                 1.525          estimate D2E/DX2                !
 ! R11   R(9,15)                 1.522          estimate D2E/DX2                !
 ! R12   R(11,12)                1.09           estimate D2E/DX2                !
 ! R13   R(11,13)                1.09           estimate D2E/DX2                !
 ! R14   R(11,14)                1.0899         estimate D2E/DX2                !
 ! R15   R(15,16)                1.229          estimate D2E/DX2                !
 ! R16   R(15,17)                1.335          estimate D2E/DX2                !
 ! R17   R(17,18)                1.01           estimate D2E/DX2                !
 ! R18   R(17,19)                1.449          estimate D2E/DX2                !
 ! R19   R(19,20)                1.09           estimate D2E/DX2                !
 ! R20   R(19,21)                1.09           estimate D2E/DX2                !
 ! R21   R(19,22)                1.09           estimate D2E/DX2                !
 ! A1    A(1,2,3)              109.5015         estimate D2E/DX2                !
 ! A2    A(1,2,4)              109.4979         estimate D2E/DX2                !
 ! A3    A(1,2,5)              111.0948         estimate D2E/DX2                !
 ! A4    A(3,2,4)              109.4502         estimate D2E/DX2                !
 ! A5    A(3,2,5)              108.6335         estimate D2E/DX2                !
 ! A6    A(4,2,5)              108.6362         estimate D2E/DX2                !
 ! A7    A(2,5,6)              120.4974         estimate D2E/DX2                !
 ! A8    A(2,5,7)              116.5994         estimate D2E/DX2                !
 ! A9    A(6,5,7)              122.9032         estimate D2E/DX2                !
 ! A10   A(5,7,8)              119.9965         estimate D2E/DX2                !
 ! A11   A(5,7,9)              121.8985         estimate D2E/DX2                !
 ! A12   A(8,7,9)              118.105          estimate D2E/DX2                !
 ! A13   A(7,9,10)             109.5            estimate D2E/DX2                !
 ! A14   A(7,9,11)             111.0992         estimate D2E/DX2                !
 ! A15   A(7,9,15)             111.0966         estimate D2E/DX2                !
 ! A16   A(10,9,11)            108.6382         estimate D2E/DX2                !
 ! A17   A(10,9,15)            108.6373         estimate D2E/DX2                !
 ! A18   A(11,9,15)            107.7947         estimate D2E/DX2                !
 ! A19   A(9,11,12)            109.5007         estimate D2E/DX2                !
 ! A20   A(9,11,13)            109.4959         estimate D2E/DX2                !
 ! A21   A(9,11,14)            109.4978         estimate D2E/DX2                !
 ! A22   A(12,11,13)           109.441          estimate D2E/DX2                !
 ! A23   A(12,11,14)           109.4482         estimate D2E/DX2                !
 ! A24   A(13,11,14)           109.4436         estimate D2E/DX2                !
 ! A25   A(9,15,16)            120.5            estimate D2E/DX2                !
 ! A26   A(9,15,17)            116.6027         estimate D2E/DX2                !
 ! A27   A(16,15,17)           122.8974         estimate D2E/DX2                !
 ! A28   A(15,17,18)           119.9957         estimate D2E/DX2                !
 ! A29   A(15,17,19)           121.9032         estimate D2E/DX2                !
 ! A30   A(18,17,19)           118.1011         estimate D2E/DX2                !
 ! A31   A(17,19,20)           109.4991         estimate D2E/DX2                !
 ! A32   A(17,19,21)           109.4992         estimate D2E/DX2                !
 ! A33   A(17,19,22)           109.4994         estimate D2E/DX2                !
 ! A34   A(20,19,21)           109.4425         estimate D2E/DX2                !
 ! A35   A(20,19,22)           109.4467         estimate D2E/DX2                !
 ! A36   A(21,19,22)           109.4404         estimate D2E/DX2                !
 ! D1    D(1,2,5,6)             -0.0016         estimate D2E/DX2                !
 ! D2    D(1,2,5,7)            179.9943         estimate D2E/DX2                !
 ! D3    D(3,2,5,6)            120.5076         estimate D2E/DX2                !
 ! D4    D(3,2,5,7)            -59.4965         estimate D2E/DX2                !
 ! D5    D(4,2,5,6)           -120.5083         estimate D2E/DX2                !
 ! D6    D(4,2,5,7)             59.4876         estimate D2E/DX2                !
 ! D7    D(2,5,7,8)              0.0085         estimate D2E/DX2                !
 ! D8    D(2,5,7,9)            179.9978         estimate D2E/DX2                !
 ! D9    D(6,5,7,8)           -179.9958         estimate D2E/DX2                !
 ! D10   D(6,5,7,9)             -0.0064         estimate D2E/DX2                !
 ! D11   D(5,7,9,10)          -119.9959         estimate D2E/DX2                !
 ! D12   D(5,7,9,11)             0.0067         estimate D2E/DX2                !
 ! D13   D(5,7,9,15)           120.0043         Frozen                          !
 ! D14   D(8,7,9,10)            59.9937         estimate D2E/DX2                !
 ! D15   D(8,7,9,11)           179.9963         estimate D2E/DX2                !
 ! D16   D(8,7,9,15)           -60.0061         estimate D2E/DX2                !
 ! D17   D(7,9,11,12)           60.0024         estimate D2E/DX2                !
 ! D18   D(7,9,11,13)          179.9986         estimate D2E/DX2                !
 ! D19   D(7,9,11,14)          -60.0038         estimate D2E/DX2                !
 ! D20   D(10,9,11,12)        -179.4843         estimate D2E/DX2                !
 ! D21   D(10,9,11,13)         -59.4881         estimate D2E/DX2                !
 ! D22   D(10,9,11,14)          60.5095         estimate D2E/DX2                !
 ! D23   D(15,9,11,12)         -61.938          estimate D2E/DX2                !
 ! D24   D(15,9,11,13)          58.0582         estimate D2E/DX2                !
 ! D25   D(15,9,11,14)         178.0558         estimate D2E/DX2                !
 ! D26   D(7,9,15,16)           75.0019         estimate D2E/DX2                !
 ! D27   D(7,9,15,17)         -105.0            Frozen                          !
 ! D28   D(10,9,15,16)         -45.5091         estimate D2E/DX2                !
 ! D29   D(10,9,15,17)         134.4889         estimate D2E/DX2                !
 ! D30   D(11,9,15,16)        -163.056          estimate D2E/DX2                !
 ! D31   D(11,9,15,17)          16.942          estimate D2E/DX2                !
 ! D32   D(9,15,17,18)           0.0049         estimate D2E/DX2                !
 ! D33   D(9,15,17,19)         179.9992         estimate D2E/DX2                !
 ! D34   D(16,15,17,18)       -179.9971         estimate D2E/DX2                !
 ! D35   D(16,15,17,19)         -0.0028         estimate D2E/DX2                !
 ! D36   D(15,17,19,20)          0.0032         estimate D2E/DX2                !
 ! D37   D(15,17,19,21)        120.0022         estimate D2E/DX2                !
 ! D38   D(15,17,19,22)       -120.0011         estimate D2E/DX2                !
 ! D39   D(18,17,19,20)        179.9976         estimate D2E/DX2                !
 ! D40   D(18,17,19,21)        -60.0033         estimate D2E/DX2                !
 ! D41   D(18,17,19,22)         59.9933         estimate D2E/DX2                !
 --------------------------------------------------------------------------------
 Trust Radius=3.00D-01 FncErr=1.00D-07 GrdErr=1.00D-07
 Number of steps in this run= 108 maximum allowed number of steps= 132.
 GradGradGradGradGradGradGradGradGradGradGradGradGradGradGradGradGradGrad

                          Input orientation:                          
 ---------------------------------------------------------------------
 Center     Atomic      Atomic             Coordinates (Angstroms)
 Number     Number       Type             X           Y           Z
 ---------------------------------------------------------------------
      1          1           0        1.562400    1.881600   -1.704700
      2          6           0        1.779400    2.534300   -0.859100
      3          1           0        1.731600    1.959600    0.065800
      4          1           0        1.046300    3.340100   -0.824000
      5          6           0        3.175500    3.148400   -0.981500
      6          8           0        3.891400    2.883000   -1.944600
      7          7           0        3.555400    3.969700    0.000000
      8          1           0        2.931200    4.157100    0.771600
      9          6           0        4.853300    4.613900    0.000000
     10          1           0        5.407600    4.315500    0.889800
     11          6           0        5.661300    4.220800   -1.232200
     12          1           0        5.123300    4.521400   -2.131200
     13          1           0        6.630500    4.718900   -1.205800
     14          1           0        5.808500    3.140900   -1.241400
     15          6           0        4.712700    6.129400    0.000000
     16          8           0        4.382200    6.725200    1.022900
     17          7           0        4.965100    6.753200   -1.153000
     18          1           0        5.233700    6.219700   -1.967500
     19          6           0        4.866300    8.193000   -1.282300
     20          1           0        4.569100    8.624600   -0.326500
     21          1           0        5.833500    8.598900   -1.578600
     22          1           0        4.121900    8.440100   -2.039200
 ---------------------------------------------------------------------
                    Distance matrix (angstroms):
                    1          2          3          4          5
     1  H    0.000000
     2  C    1.090021   0.000000
     3  H    1.780276   1.089956   0.000000
     4  H    1.780229   1.089946   1.779652   0.000000
     5  C    2.174832   1.530097   2.143579   2.143606   0.000000
     6  O    2.546487   2.400093   3.091781   3.091808   1.229029
     7  N    3.352344   2.439795   2.714973   2.714950   1.334991
     8  H    3.630919   2.572801   2.601192   2.601207   2.037282
     9  C    4.604507   3.809416   4.098128   4.098145   2.434347
    10  H    5.238403   4.403994   4.443221   4.786382   3.137859
    11  C    4.743005   4.248839   4.715970   4.715982   2.718841
    12  H    4.453140   4.092490   4.784690   4.441415   2.645915
    13  H    5.829649   5.331590   5.764540   5.764560   3.801816
    14  H    4.453072   4.092403   4.441324   4.784606   2.645807
    15  C    5.556455   4.718797   5.126258   4.679921   3.494666
    16  O    6.233100   5.280164   5.536485   5.098840   4.274019
    17  N    5.967849   5.294731   5.909281   5.207157   4.028233
    18  H    5.689167   5.171355   5.877709   5.209031   3.826391
    19  C    7.136382   6.459794   7.106264   6.192986   5.328909
    20  H    7.510508   6.719959   7.254483   6.370523   5.688577
    21  H    7.961176   7.330265   7.975584   7.151341   6.093393
    22  H    7.048181   6.462075   7.220903   6.078324   5.478731
                    6          7          8          9         10
     6  O    0.000000
     7  N    2.252839   0.000000
     8  H    3.150088   1.010005   0.000000
     9  C    2.775380   1.448978   2.120967   0.000000
    10  H    3.519196   2.083739   2.484274   1.089970   0.000000
    11  C    2.330186   2.452791   3.387140   1.525027   2.139209
    12  H    2.058337   2.702720   3.655717   2.150225   3.041326
    13  H    3.379205   3.386959   4.232086   2.150214   2.459625
    14  H    2.058221   2.702673   3.655638   2.150165   2.466256
    15  C    3.872353   2.450234   2.767504   1.522008   2.136554
    16  O    4.879492   3.053310   2.960353   2.392874   2.622178
    17  N    4.093643   3.326340   3.818451   2.432799   3.211109
    18  H    3.596646   3.427863   4.130193   2.567947   3.438078
    19  C    5.439225   4.604239   4.924592   3.801897   4.477279
    20  H    6.003624   4.775174   4.883349   4.033991   4.555306
    21  H    6.047910   5.395481   5.803135   4.396930   4.962046
    22  H    5.562683   4.946083   5.259511   4.396941   5.219616
                   11         12         13         14         15
    11  C    0.000000
    12  H    1.089957   0.000000
    13  H    1.090023   1.779613   0.000000
    14  H    1.089925   1.779613   1.779617   0.000000
    15  C    2.461892   2.701161   2.668599   3.416575   0.000000
    16  O    3.604663   3.918458   3.747959   4.473097   1.229037
    17  N    2.627550   2.441891   2.629586   3.710505   1.335006
    18  H    2.172351   1.709739   2.187153   3.215062   2.037315
    19  C    4.051285   3.777212   3.897130   5.139370   2.434406
    20  H    4.626732   4.516672   4.503002   5.695974   2.520565
    21  H    4.395157   4.175615   3.978516   5.468463   3.137929
    22  H    4.563277   4.045674   4.564533   5.618062   3.137948
                   16         17         18         19         20
    16  O    0.000000
    17  N    2.252798   0.000000
    18  H    3.150091   1.010039   0.000000
    19  C    2.775380   1.448967   2.120942   0.000000
    20  H    2.337420   2.083760   2.986322   1.090028   0.000000
    21  H    3.519208   2.083714   2.484270   1.089965   1.779641
    22  H    3.519246   2.083739   2.484234   1.089994   1.779710
                   21         22
    21  H    0.000000
    22  H    1.779591   0.000000
 Stoichiometry    C6H12N2O2
 Framework group  C1[X(C6H12N2O2)]
 Deg. of freedom    60
 Full point group                 C1      NOp   1
 Largest Abelian subgroup         C1      NOp   1
 Largest concise Abelian subgroup C1      NOp   1
                         Standard orientation:                         
 ---------------------------------------------------------------------
 Center     Atomic      Atomic             Coordinates (Angstroms)
 Number     Number       Type             X           Y           Z
 ---------------------------------------------------------------------
      1          1           0       -3.934927   -0.292925    1.289219
      2          6           0       -3.180291   -0.903856    0.793807
      3          1           0       -3.641677   -1.462870   -0.020215
      4          1           0       -2.746752   -1.599771    1.511950
      5          6           0       -2.060286   -0.035363    0.217176
      6          8           0       -2.090526    1.186729    0.344019
      7          7           0       -1.073986   -0.674556   -0.415947
      8          1           0       -1.093453   -1.681306   -0.494597
      9          6           0        0.043604    0.034690   -1.005437
     10          1           0        0.077173   -0.165038   -2.076426
     11          6           0       -0.087998    1.539262   -0.794125
     12          1           0       -0.113672    1.755825    0.273792
     13          1           0        0.764313    2.046105   -1.246702
     14          1           0       -1.008638    1.892660   -1.258310
     15          6           0        1.361574   -0.408423   -0.386473
     16          8           0        1.855116   -1.494737   -0.681209
     17          7           0        1.931814    0.437333    0.474784
     18          1           0        1.487420    1.319572    0.685370
     19          6           0        3.187054    0.131641    1.130855
     20          1           0        3.539418   -0.846823    0.804345
     21          1           0        3.926966    0.888808    0.871524
     22          1           0        3.040361    0.122675    2.210895
 ---------------------------------------------------------------------
 Rotational constants (GHZ):      2.4345670      0.7570514      0.7027093
 Standard basis: 6-31G(d) (6D, 7F)
 There are   174 symmetry adapted basis functions of A   symmetry.
 Integral buffers will be    131072 words long.
 Raffenetti 1 integral format.
 Two-electron integral symmetry is turned on.
   174 basis functions,   328 primitive gaussians,   174 cartesian basis functions
    39 alpha electrons       39 beta electrons
       nuclear repulsion energy       565.0081063303 Hartrees.
 NAtoms=   22 NActive=   22 NUniq=   22 SFac= 7.50D-01 NAtFMM=   80 NAOKFM=F Big=F
 One-electron integrals computed using PRISM.
 NBasis=   174 RedAO= T  NBF=   174
 NBsUse=   174 1.00D-06 NBFU=   174
 Harris functional with IExCor=  205 diagonalized for initial guess.
 ExpMin= 1.61D-01 ExpMax= 5.48D+03 ExpMxC= 8.25D+02 IAcc=1 IRadAn=         1 AccDes= 0.00D+00
 HarFok:  IExCor=  205 AccDes= 0.00D+00 IRadAn=         1 IDoV= 1
 ScaDFX=  1.000000  1.000000  1.000000  1.000000
 FoFCou: FMM=F IPFlag=           0 FMFlag=      100000 FMFlg1=           0
         NFxFlg=           0 DoJE=T BraDBF=F KetDBF=T FulRan=T
         Omega=  0.000000  0.000000  1.000000  0.000000  0.000000 ICntrl=     500 IOpCl=  0
         NMat0=    1 NMatS0=    1 NMatT0=    0 NMatD0=    1 NMtDS0=    0 NMtDT0=    0
         I1Cent=           4 NGrid=           0.
 Petite list used in FoFCou.
 Initial guess orbital symmetries:
       Occupied  (A) (A) (A) (A) (A) (A) (A) (A) (A) (A) (A) (A)
                 (A) (A) (A) (A) (A) (A) (A) (A) (A) (A) (A) (A)
                 (A) (A) (A) (A) (A) (A) (A) (A) (A) (A) (A) (A)
                 (A) (A) (A)
       Virtual   (A) (A) (A) (A) (A) (A) (A) (A) (A) (A) (A) (A)
                 (A) (A) (A) (A) (A) (A) (A) (A) (A) (A) (A) (A)
                 (A) (A) (A) (A) (A) (A) (A) (A) (A) (A) (A) (A)
                 (A) (A) (A) (A) (A) (A) (A) (A) (A) (A) (A) (A)
                 (A) (A) (A) (A) (A) (A) (A) (A) (A) (A) (A) (A)
                 (A) (A) (A) (A) (A) (A) (A) (A) (A) (A) (A) (A)
                 (A) (A) (A) (A) (A) (A) (A) (A) (A) (A) (A) (A)
                 (A) (A) (A) (A) (A) (A) (A) (A) (A) (A) (A) (A)
                 (A) (A) (A) (A) (A) (A) (A) (A) (A) (A) (A) (A)
                 (A) (A) (A) (A) (A) (A) (A) (A) (A) (A) (A) (A)
                 (A) (A) (A) (A) (A) (A) (A) (A) (A) (A) (A) (A)
                 (A) (A) (A)
 The electronic state of the initial guess is 1-A.
 Requested convergence on RMS density matrix=1.00D-08 within 128 cycles.
 Requested convergence on MAX density matrix=1.00D-06.
 Requested convergence on             energy=1.00D-06.
 No special actions if energy rises.
 Integral accuracy reduced to 1.0D-05 until final iterations.
 Initial convergence to 1.0D-05 achieved.  Increase integral accuracy.
 SCF Done:  E(RHF) =  -492.812922409     A.U. after   15 cycles
             Convg  =    0.4071D-08             -V/T =  2.0016

 **********************************************************************

            Population analysis using the SCF density.

 **********************************************************************

 Orbital symmetries:
       Occupied  (A) (A) (A) (A) (A) (A) (A) (A) (A) (A) (A) (A)
                 (A) (A) (A) (A) (A) (A) (A) (A) (A) (A) (A) (A)
                 (A) (A) (A) (A) (A) (A) (A) (A) (A) (A) (A) (A)
                 (A) (A) (A)
       Virtual   (A) (A) (A) (A) (A) (A) (A) (A) (A) (A) (A) (A)
                 (A) (A) (A) (A) (A) (A) (A) (A) (A) (A) (A) (A)
                 (A) (A) (A) (A) (A) (A) (A) (A) (A) (A) (A) (A)
                 (A) (A) (A) (A) (A) (A) (A) (A) (A) (A) (A) (A)
                 (A) (A) (A) (A) (A) (A) (A) (A) (A) (A) (A) (A)
                 (A) (A) (A) (A) (A) (A) (A) (A) (A) (A) (A) (A)
                 (A) (A) (A) (A) (A) (A) (A) (A) (A) (A) (A) (A)
                 (A) (A) (A) (A) (A) (A) (A) (A) (A) (A) (A) (A)
                 (A) (A) (A) (A) (A) (A) (A) (A) (A) (A) (A) (A)
                 (A) (A) (A) (A) (A) (A) (A) (A) (A) (A) (A) (A)
                 (A) (A) (A) (A) (A) (A) (A) (A) (A) (A) (A) (A)
                 (A) (A) (A)
 The electronic state is 1-A.
 Alpha  occ. eigenvalues --  -20.51553 -20.51498 -15.60217 -15.58991 -11.35778
 Alpha  occ. eigenvalues --  -11.34401 -11.28339 -11.25863 -11.24051 -11.21361
 Alpha  occ. eigenvalues --   -1.38553  -1.37212  -1.24831  -1.23344  -1.06438
 Alpha  occ. eigenvalues --   -0.99301  -0.94843  -0.89301  -0.80377  -0.77706
 Alpha  occ. eigenvalues --   -0.73627  -0.70444  -0.65739  -0.63764  -0.62198
 Alpha  occ. eigenvalues --   -0.61929  -0.58829  -0.57915  -0.56611  -0.55848
 Alpha  occ. eigenvalues --   -0.54564  -0.54052  -0.52195  -0.51664  -0.51117
 Alpha  occ. eigenvalues --   -0.42883  -0.39992  -0.38341  -0.38160
 Alpha virt. eigenvalues --    0.18433   0.20538   0.22117   0.23396   0.26262
 Alpha virt. eigenvalues --    0.26971   0.28426   0.30389   0.31550   0.31878
 Alpha virt. eigenvalues --    0.32375   0.32835   0.35091   0.35992   0.36635
 Alpha virt. eigenvalues --    0.38741   0.40461   0.44836   0.45996   0.51139
 Alpha virt. eigenvalues --    0.53152   0.58521   0.61496   0.71249   0.72558
 Alpha virt. eigenvalues --    0.74248   0.74632   0.75591   0.78486   0.79862
 Alpha virt. eigenvalues --    0.81306   0.82657   0.86262   0.88595   0.91689
 Alpha virt. eigenvalues --    0.92433   0.93276   0.94918   0.96193   0.97512
 Alpha virt. eigenvalues --    1.00409   1.01333   1.05762   1.07311   1.08554
 Alpha virt. eigenvalues --    1.11987   1.13404   1.14379   1.14822   1.15645
 Alpha virt. eigenvalues --    1.16114   1.18384   1.18602   1.19823   1.20349
 Alpha virt. eigenvalues --    1.22123   1.22754   1.23817   1.24107   1.29530
 Alpha virt. eigenvalues --    1.30082   1.36295   1.38184   1.40687   1.41913
 Alpha virt. eigenvalues --    1.47625   1.54821   1.57860   1.60984   1.64897
 Alpha virt. eigenvalues --    1.66313   1.66730   1.70525   1.73147   1.75565
 Alpha virt. eigenvalues --    1.79121   1.81930   1.86148   1.86434   1.98486
 Alpha virt. eigenvalues --    2.02030   2.08364   2.10816   2.12419   2.13203
 Alpha virt. eigenvalues --    2.14963   2.16199   2.19061   2.20912   2.24057
 Alpha virt. eigenvalues --    2.24639   2.29241   2.31273   2.32876   2.33864
 Alpha virt. eigenvalues --    2.37858   2.41232   2.45207   2.48961   2.51602
 Alpha virt. eigenvalues --    2.53211   2.58571   2.59875   2.62988   2.65243
 Alpha virt. eigenvalues --    2.65880   2.70729   2.71211   2.74831   2.75833
 Alpha virt. eigenvalues --    2.78072   2.81275   2.84234   2.93734   2.98987
 Alpha virt. eigenvalues --    3.00838   3.03519   3.06804   3.11937   3.24904
 Alpha virt. eigenvalues --    3.30134   3.36374   3.38503   3.54264   3.58476
 Alpha virt. eigenvalues --    4.39737   4.41759   4.50990   4.58968   4.62370
 Alpha virt. eigenvalues --    4.67152   4.72834   4.80388   4.90856   5.16468
          Condensed to atoms (all electrons):
              1          2          3          4          5          6
     1  H    0.454409   0.385167  -0.018345  -0.018342  -0.030109   0.003607
     2  C    0.385167   5.249295   0.374646   0.374573   0.372808  -0.064277
     3  H   -0.018345   0.374646   0.511555  -0.023461  -0.035774   0.001143
     4  H   -0.018342   0.374573  -0.023461   0.509959  -0.035510   0.001149
     5  C   -0.030109   0.372808  -0.035774  -0.035510   4.206666   0.577189
     6  O    0.003607  -0.064277   0.001143   0.001149   0.577189   8.308021
     7  N    0.003802  -0.120214   0.003958   0.003970   0.252154  -0.100199
     8  H   -0.000015   0.000053   0.000377   0.000405  -0.017512   0.002165
     9  C   -0.000053   0.002391  -0.000040  -0.000094  -0.027019  -0.001678
    10  H    0.000001  -0.000094   0.000011   0.000001   0.001013  -0.000030
    11  C   -0.000001  -0.000032   0.000005   0.000013  -0.004074  -0.064925
    12  H    0.000011  -0.000226   0.000006  -0.000004  -0.000847  -0.014311
    13  H    0.000000   0.000025  -0.000001  -0.000001   0.000208   0.004419
    14  H    0.000010  -0.000194  -0.000002   0.000005  -0.000521  -0.014282
    15  C    0.000001  -0.000147  -0.000001   0.000024   0.000245  -0.000226
    16  O    0.000000  -0.000002   0.000000   0.000000   0.000111  -0.000001
    17  N    0.000000   0.000003   0.000000   0.000001   0.000501  -0.000010
    18  H    0.000000  -0.000006   0.000000   0.000001  -0.000033  -0.000540
    19  C    0.000000   0.000000   0.000000   0.000000  -0.000011   0.000000
    20  H    0.000000   0.000000   0.000000   0.000000   0.000000   0.000000
    21  H    0.000000   0.000000   0.000000   0.000000   0.000000   0.000000
    22  H    0.000000   0.000000   0.000000   0.000000  -0.000001   0.000000
              7          8          9         10         11         12
     1  H    0.003802  -0.000015  -0.000053   0.000001  -0.000001   0.000011
     2  C   -0.120214   0.000053   0.002391  -0.000094  -0.000032  -0.000226
     3  H    0.003958   0.000377  -0.000040   0.000011   0.000005   0.000006
     4  H    0.003970   0.000405  -0.000094   0.000001   0.000013  -0.000004
     5  C    0.252154  -0.017512  -0.027019   0.001013  -0.004074  -0.000847
     6  O   -0.100199   0.002165  -0.001678  -0.000030  -0.064925  -0.014311
     7  N    7.382492   0.320617   0.189334  -0.044570  -0.045569  -0.002081
     8  H    0.320617   0.306009  -0.023286  -0.000581   0.003487  -0.000199
     9  C    0.189334  -0.023286   5.029927   0.414889   0.328405  -0.031395
    10  H   -0.044570  -0.000581   0.414889   0.495880  -0.036348   0.004128
    11  C   -0.045569   0.003487   0.328405  -0.036348   5.245047   0.396297
    12  H   -0.002081  -0.000199  -0.031395   0.004128   0.396297   0.515277
    13  H    0.004206  -0.000047  -0.039849  -0.003282   0.373531  -0.035682
    14  H   -0.001020  -0.000194  -0.027131  -0.002589   0.401433  -0.015794
    15  C   -0.054428  -0.001089   0.372412  -0.044641  -0.067063  -0.008145
    16  O    0.000737   0.004054  -0.074362   0.001744   0.002959  -0.000109
    17  N    0.002055   0.000164  -0.098314   0.002894  -0.016888  -0.005629
    18  H    0.000367  -0.000028  -0.004091   0.000196   0.003013   0.008561
    19  C   -0.000189  -0.000001   0.004179  -0.000091   0.000161   0.000281
    20  H   -0.000018  -0.000003   0.000528  -0.000015  -0.000073  -0.000016
    21  H   -0.000002   0.000000  -0.000012   0.000010  -0.000054   0.000037
    22  H    0.000022   0.000000  -0.000190  -0.000001   0.000038  -0.000039
             13         14         15         16         17         18
     1  H    0.000000   0.000010   0.000001   0.000000   0.000000   0.000000
     2  C    0.000025  -0.000194  -0.000147  -0.000002   0.000003  -0.000006
     3  H   -0.000001  -0.000002  -0.000001   0.000000   0.000000   0.000000
     4  H   -0.000001   0.000005   0.000024   0.000000   0.000001   0.000001
     5  C    0.000208  -0.000521   0.000245   0.000111   0.000501  -0.000033
     6  O    0.004419  -0.014282  -0.000226  -0.000001  -0.000010  -0.000540
     7  N    0.004206  -0.001020  -0.054428   0.000737   0.002055   0.000367
     8  H   -0.000047  -0.000194  -0.001089   0.004054   0.000164  -0.000028
     9  C   -0.039849  -0.027131   0.372412  -0.074362  -0.098314  -0.004091
    10  H   -0.003282  -0.002589  -0.044641   0.001744   0.002894   0.000196
    11  C    0.373531   0.401433  -0.067063   0.002959  -0.016888   0.003013
    12  H   -0.035682  -0.015794  -0.008145  -0.000109  -0.005629   0.008561
    13  H    0.563093  -0.023713  -0.000580   0.000036  -0.001822  -0.003055
    14  H   -0.023713   0.459086   0.003802  -0.000058   0.000539   0.000350
    15  C   -0.000580   0.003802   4.175991   0.582267   0.302583  -0.014693
    16  O    0.000036  -0.000058   0.582267   8.229902  -0.099176   0.002402
    17  N   -0.001822   0.000539   0.302583  -0.099176   7.338726   0.313352
    18  H   -0.003055   0.000350  -0.014693   0.002402   0.313352   0.305439
    19  C   -0.000229   0.000003  -0.027300  -0.004824   0.189366  -0.021248
    20  H   -0.000009   0.000001  -0.002001   0.010964  -0.032494   0.002209
    21  H    0.000027  -0.000001   0.000965   0.000401  -0.048204  -0.000960
    22  H    0.000004   0.000000   0.001064   0.000388  -0.047415  -0.000963
             19         20         21         22
     1  H    0.000000   0.000000   0.000000   0.000000
     2  C    0.000000   0.000000   0.000000   0.000000
     3  H    0.000000   0.000000   0.000000   0.000000
     4  H    0.000000   0.000000   0.000000   0.000000
     5  C   -0.000011   0.000000   0.000000  -0.000001
     6  O    0.000000   0.000000   0.000000   0.000000
     7  N   -0.000189  -0.000018  -0.000002   0.000022
     8  H   -0.000001  -0.000003   0.000000   0.000000
     9  C    0.004179   0.000528  -0.000012  -0.000190
    10  H   -0.000091  -0.000015   0.000010  -0.000001
    11  C    0.000161  -0.000073  -0.000054   0.000038
    12  H    0.000281  -0.000016   0.000037  -0.000039
    13  H   -0.000229  -0.000009   0.000027   0.000004
    14  H    0.000003   0.000001  -0.000001   0.000000
    15  C   -0.027300  -0.002001   0.000965   0.001064
    16  O   -0.004824   0.010964   0.000401   0.000388
    17  N    0.189366  -0.032494  -0.048204  -0.047415
    18  H   -0.021248   0.002209  -0.000960  -0.000963
    19  C    4.948385   0.396733   0.403320   0.401846
    20  H    0.396733   0.435367  -0.022766  -0.022590
    21  H    0.403320  -0.022766   0.533484  -0.036525
    22  H    0.401846  -0.022590  -0.036525   0.534722
 Mulliken atomic charges:
              1
     1  H    0.219856
     2  C   -0.573770
     3  H    0.185923
     4  H    0.187311
     5  C    0.740516
     6  O   -0.637214
     7  N   -0.795425
     8  H    0.405623
     9  C   -0.014549
    10  H    0.211475
    11  C   -0.519362
    12  H    0.189877
    13  H    0.162722
    14  H    0.220272
    15  C    0.780961
    16  O   -0.657434
    17  N   -0.800232
    18  H    0.409729
    19  C   -0.290381
    20  H    0.234182
    21  H    0.170280
    22  H    0.169641
 Sum of Mulliken atomic charges =   0.00000
 Mulliken charges with hydrogens summed into heavy atoms:
              1
     2  C    0.019321
     5  C    0.740516
     6  O   -0.637214
     7  N   -0.389802
     9  C    0.196926
    11  C    0.053509
    15  C    0.780961
    16  O   -0.657434
    17  N   -0.390504
    19  C    0.283722
 Sum of Mulliken charges with hydrogens summed into heavy atoms =   0.00000
 Electronic spatial extent (au):  <R**2>=           1770.1914
 Charge=              0.0000 electrons
 Dipole moment (field-independent basis, Debye):
    X=             -0.5405    Y=             -0.1003    Z=              0.9280  Tot=              1.0786
 Quadrupole moment (field-independent basis, Debye-Ang):
   XX=            -59.5627   YY=            -64.9757   ZZ=            -58.7263
   XY=             14.9207   XZ=              5.2657   YZ=             -2.4785
 Traceless Quadrupole moment (field-independent basis, Debye-Ang):
   XX=              1.5256   YY=             -3.8875   ZZ=              2.3619
   XY=             14.9207   XZ=              5.2657   YZ=             -2.4785
 Octapole moment (field-independent basis, Debye-Ang**2):
  XXX=              1.7560  YYY=             -1.0309  ZZZ=             -0.0267  XYY=             -4.0646
  XXY=             -5.8143  XXZ=             13.6018  XZZ=             -0.6275  YZZ=              1.1651
  YYZ=              3.3024  XYZ=             -1.0523
 Hexadecapole moment (field-independent basis, Debye-Ang**3):
 XXXX=          -1522.7526 YYYY=           -402.8093 ZZZZ=           -273.0283 XXXY=             44.2089
 XXXZ=             22.1587 YYYX=             25.9090 YYYZ=              3.4665 ZZZX=              0.4823
 ZZZY=              4.2998 XXYY=           -360.9811 XXZZ=           -306.9498 YYZZ=           -114.6141
 XXYZ=            -12.0434 YYXZ=             16.6865 ZZXY=              2.3030
 N-N= 5.650081063303D+02 E-N=-2.285413919204D+03  KE= 4.920484560270D+02
 Calling FoFJK, ICntrl=      2127 FMM=F ISym2X=0 I1Cent= 0 IOpClX= 0 NMat=1 NMatS=1 NMatT=0.
 ***** Axes restored to original set *****
 -------------------------------------------------------------------
 Center     Atomic                   Forces (Hartrees/Bohr)
 Number     Number              X              Y              Z
 -------------------------------------------------------------------
      1        1           0.005617961    0.005988534    0.005092992
      2        6           0.006404872    0.005835025    0.004400660
      3        1          -0.004073998    0.001970296   -0.002579276
      4        1          -0.000604645   -0.004772009    0.001854768
      5        6           0.003122298   -0.029849818   -0.049495430
      6        8          -0.058927449   -0.011720194    0.026050293
      7        7          -0.004422951    0.009806507    0.015400829
      8        1           0.009179063   -0.001484175   -0.010646962
      9        6           0.016259230    0.002232673   -0.011481991
     10        1          -0.005205904    0.006275734   -0.001020772
     11        6           0.023402392   -0.009677008    0.000470701
     12        1           0.015525159   -0.011221810    0.006653482
     13        1          -0.001415785   -0.000288136    0.004802795
     14        1           0.007221499    0.015652253   -0.004732643
     15        6          -0.015733351    0.020477370    0.044797858
     16        8           0.007574683   -0.020536129   -0.028940474
     17        7           0.000912191    0.005223713   -0.012737180
     18        1          -0.005759427    0.015758125    0.017321024
     19        6          -0.000602584    0.002743987   -0.000581117
     20        1           0.002741518   -0.005263011   -0.008236359
     21        1          -0.004728693    0.000976740    0.000680557
     22        1           0.003513921    0.001871331    0.002926247
 -------------------------------------------------------------------
 Cartesian Forces:  Max     0.058927449 RMS     0.015186268

 GradGradGradGradGradGradGradGradGradGradGradGradGradGradGradGradGradGrad
 Berny optimization.
 Internal  Forces:  Max     0.140912565 RMS     0.025720284
 Search for a local minimum.
 Step number   1 out of a maximum of  108
 All quantities printed in internal units (Hartrees-Bohrs-Radians)
 Mixed Optimization -- RFO/linear search
 Second derivative matrix not updated -- first step.
     Eigenvalues ---    0.00368   0.00435   0.00999   0.01044   0.01269
     Eigenvalues ---    0.01422   0.01660   0.02552   0.02552   0.03503
     Eigenvalues ---    0.05232   0.05841   0.05844   0.05844   0.07165
     Eigenvalues ---    0.07463   0.07686   0.07686   0.15421   0.16000
     Eigenvalues ---    0.16000   0.16000   0.16000   0.16000   0.16000
     Eigenvalues ---    0.16000   0.16000   0.16000   0.16000   0.16000
     Eigenvalues ---    0.16180   0.22000   0.22000   0.25000   0.25000
     Eigenvalues ---    0.25000   0.25000   0.29414   0.29887   0.30174
     Eigenvalues ---    0.34809   0.34810   0.34810   0.34813   0.34816
     Eigenvalues ---    0.34817   0.34818   0.34818   0.34819   0.34821
     Eigenvalues ---    0.38379   0.38381   0.45966   0.45972   0.58339
     Eigenvalues ---    0.58342   0.91489   0.914921000.000001000.00000
     Eigenvalues --- 1000.000001000.000001000.000001000.000001000.00000
     Eigenvalues --- 1000.000001000.000001000.000001000.000001000.00000
     Eigenvalues --- 1000.000001000.000001000.000001000.000001000.00000
     Eigenvalues --- 1000.000001000.000001000.000001000.000001000.00000
     Eigenvalues --- 1000.000001000.000001000.000001000.000001000.00000
     Eigenvalues --- 1000.000001000.000001000.000001000.000001000.00000
     Eigenvalues --- 1000.000001000.000001000.000001000.000001000.00000
     Eigenvalues --- 1000.000001000.000001000.00000
 RFO step:  Lambda=-1.58362295D-01 EMin= 3.67826363D-03
 Linear search not attempted -- first point.
 Maximum step size (   0.300) exceeded in Quadratic search.
    -- Step size scaled by   0.449
 Iteration  1 RMS(Cart)=  0.18825189 RMS(Int)=  0.00882350
 Iteration  2 RMS(Cart)=  0.02062107 RMS(Int)=  0.00034158
 Iteration  3 RMS(Cart)=  0.00020496 RMS(Int)=  0.00033276
 Iteration  4 RMS(Cart)=  0.00000010 RMS(Int)=  0.00033276
 Iteration  1 RMS(Cart)=  0.00021299 RMS(Int)=  0.00007399
 Iteration  2 RMS(Cart)=  0.00011411 RMS(Int)=  0.00008261
 Iteration  3 RMS(Cart)=  0.00006146 RMS(Int)=  0.00009321
 Iteration  4 RMS(Cart)=  0.00003338 RMS(Int)=  0.00010021
 Iteration  5 RMS(Cart)=  0.00001836 RMS(Int)=  0.00010436
 Iteration  6 RMS(Cart)=  0.00001028 RMS(Int)=  0.00010675
 Iteration  7 RMS(Cart)=  0.00000589 RMS(Int)=  0.00010811
 Iteration  8 RMS(Cart)=  0.00000347 RMS(Int)=  0.00010890
 Iteration  9 RMS(Cart)=  0.00000210 RMS(Int)=  0.00010935
 Iteration 10 RMS(Cart)=  0.00000131 RMS(Int)=  0.00010962
 Iteration 11 RMS(Cart)=  0.00000084 RMS(Int)=  0.00010977
 Variable       Old X    -DE/DX   Delta X   Delta X   Delta X     New X
                                 (Linear)    (Quad)   (Total)
    R1        2.05984  -0.00866   0.00000  -0.00767  -0.00767   2.05217
    R2        2.05972  -0.00305   0.00000  -0.00270  -0.00270   2.05702
    R3        2.05970  -0.00306   0.00000  -0.00271  -0.00271   2.05699
    R4        2.89146  -0.00962   0.00000  -0.00954  -0.00954   2.88192
    R5        2.32253  -0.05221   0.00000  -0.02184  -0.02184   2.30069
    R6        2.52277   0.04460   0.00000   0.02699   0.02699   2.54976
    R7        1.90863  -0.01408   0.00000  -0.01023  -0.01023   1.89841
    R8        2.73817   0.04992   0.00000   0.04133   0.04133   2.77950
    R9        2.05975  -0.00520   0.00000  -0.00461  -0.00461   2.05514
   R10        2.88188   0.01931   0.00000   0.01896   0.01896   2.90085
   R11        2.87618   0.02228   0.00000   0.02174   0.02174   2.89791
   R12        2.05972  -0.01625   0.00000  -0.01440  -0.01440   2.04532
   R13        2.05984  -0.00127   0.00000  -0.00113  -0.00113   2.05871
   R14        2.05966  -0.01449   0.00000  -0.01284  -0.01284   2.04682
   R15        2.32254  -0.03608   0.00000  -0.01509  -0.01509   2.30745
   R16        2.52280   0.00976   0.00000   0.00591   0.00591   2.52870
   R17        1.90870  -0.02382   0.00000  -0.01730  -0.01730   1.89139
   R18        2.73815   0.00073   0.00000   0.00060   0.00060   2.73875
   R19        2.05985  -0.01005   0.00000  -0.00891  -0.00891   2.05094
   R20        2.05974  -0.00402   0.00000  -0.00356  -0.00356   2.05618
   R21        2.05979  -0.00401   0.00000  -0.00355  -0.00355   2.05624
    A1        1.91116   0.00050   0.00000   0.00051   0.00053   1.91169
    A2        1.91110   0.00062   0.00000   0.00068   0.00070   1.91180
    A3        1.93897  -0.00829   0.00000  -0.01188  -0.01186   1.92711
    A4        1.91027  -0.00472   0.00000  -0.00625  -0.00629   1.90398
    A5        1.89601   0.00604   0.00000   0.00861   0.00860   1.90461
    A6        1.89606   0.00588   0.00000   0.00839   0.00838   1.90444
    A7        2.10308  -0.02506   0.00000  -0.02755  -0.02755   2.07552
    A8        2.03504  -0.04168   0.00000  -0.04581  -0.04581   1.98923
    A9        2.14506   0.06674   0.00000   0.07337   0.07337   2.21843
   A10        2.09433  -0.06945   0.00000  -0.08217  -0.08221   2.01212
   A11        2.12753   0.14091   0.00000   0.16718   0.16714   2.29467
   A12        2.06132  -0.07146   0.00000  -0.08501  -0.08506   1.97626
   A13        1.91114  -0.01046   0.00000  -0.00572  -0.00602   1.90512
   A14        1.93905   0.06780   0.00000   0.08385   0.08461   2.02366
   A15        1.93900  -0.04949   0.00000  -0.05754  -0.05907   1.87993
   A16        1.89609  -0.02764   0.00000  -0.03991  -0.03986   1.85623
   A17        1.89608   0.00272   0.00000   0.00086   0.00005   1.89613
   A18        1.88137   0.01646   0.00000   0.01726   0.01843   1.89980
   A19        1.91115   0.01807   0.00000   0.02676   0.02664   1.93779
   A20        1.91106  -0.01240   0.00000  -0.01866  -0.01856   1.89250
   A21        1.91110   0.01123   0.00000   0.01574   0.01558   1.92668
   A22        1.91011  -0.00246   0.00000  -0.00327  -0.00313   1.90697
   A23        1.91023  -0.01019   0.00000  -0.01200  -0.01235   1.89789
   A24        1.91015  -0.00427   0.00000  -0.00859  -0.00852   1.90163
   A25        2.10312  -0.02160   0.00000  -0.02374  -0.02389   2.07923
   A26        2.03510   0.03554   0.00000   0.03907   0.03892   2.07402
   A27        2.14496  -0.01395   0.00000  -0.01533  -0.01548   2.12948
   A28        2.09432   0.00268   0.00000   0.00397   0.00397   2.09829
   A29        2.12761   0.00175   0.00000   0.00208   0.00208   2.12969
   A30        2.06125  -0.00443   0.00000  -0.00605  -0.00605   2.05520
   A31        1.91112  -0.00354   0.00000  -0.00518  -0.00517   1.90595
   A32        1.91112   0.00380   0.00000   0.00544   0.00543   1.91655
   A33        1.91113   0.00405   0.00000   0.00581   0.00580   1.91693
   A34        1.91013  -0.00062   0.00000  -0.00108  -0.00107   1.90906
   A35        1.91020  -0.00067   0.00000  -0.00111  -0.00110   1.90911
   A36        1.91010  -0.00302   0.00000  -0.00389  -0.00391   1.90618
    D1       -0.00003   0.00008   0.00000   0.00021   0.00020   0.00017
    D2        3.14149  -0.00005   0.00000  -0.00014  -0.00014   3.14135
    D3        2.10326  -0.00052   0.00000  -0.00095  -0.00098   2.10228
    D4       -1.03841  -0.00065   0.00000  -0.00130  -0.00132  -1.03973
    D5       -2.10327   0.00064   0.00000   0.00129   0.00131  -2.10196
    D6        1.03825   0.00051   0.00000   0.00094   0.00097   1.03922
    D7        0.00015  -0.00056   0.00000  -0.01053  -0.01031  -0.01016
    D8        3.14155  -0.00009   0.00000   0.00899   0.00878  -3.13285
    D9       -3.14152  -0.00070   0.00000  -0.01089  -0.01069   3.13098
   D10       -0.00011  -0.00023   0.00000   0.00862   0.00840   0.00829
   D11       -2.09432  -0.01263   0.00000  -0.03898  -0.03868  -2.13300
   D12        0.00012  -0.01098   0.00000  -0.03939  -0.03812  -0.03801
   D13        2.09447   0.02204   0.00000   0.00000   0.00000   2.09447
   D14        1.04709  -0.01217   0.00000  -0.01982  -0.01990   1.02719
   D15        3.14153  -0.01052   0.00000  -0.02023  -0.01934   3.12219
   D16       -1.04730   0.02250   0.00000   0.01916   0.01878  -1.02853
   D17        1.04724  -0.00617   0.00000  -0.00909  -0.00804   1.03920
   D18        3.14157  -0.00570   0.00000  -0.00813  -0.00722   3.13434
   D19       -1.04726  -0.01166   0.00000  -0.02045  -0.01964  -1.06690
   D20       -3.13259   0.00498   0.00000   0.00992   0.00988  -3.12271
   D21       -1.03826   0.00544   0.00000   0.01088   0.01069  -1.02757
   D22        1.05609  -0.00051   0.00000  -0.00144  -0.00172   1.05437
   D23       -1.08102   0.00236   0.00000  -0.00107  -0.00169  -1.08271
   D24        1.01331   0.00282   0.00000  -0.00011  -0.00088   1.01243
   D25        3.10766  -0.00313   0.00000  -0.01243  -0.01330   3.09436
   D26        1.30903  -0.03621   0.00000  -0.03216  -0.03193   1.27710
   D27       -1.83260  -0.03432   0.00000   0.00000   0.00000  -1.83260
   D28       -0.79428   0.00560   0.00000   0.00996   0.00987  -0.78442
   D29        2.34727   0.00749   0.00000   0.04212   0.04180   2.38907
   D30       -2.84586   0.02786   0.00000   0.04732   0.04707  -2.79879
   D31        0.29569   0.02974   0.00000   0.07948   0.07900   0.37470
   D32        0.00009  -0.00127   0.00000  -0.01723  -0.01717  -0.01709
   D33        3.14158  -0.00132   0.00000  -0.01737  -0.01731   3.12427
   D34       -3.14154   0.00067   0.00000   0.01577   0.01572  -3.12582
   D35       -0.00005   0.00062   0.00000   0.01564   0.01558   0.01553
   D36        0.00006   0.00008   0.00000   0.00018   0.00018   0.00024
   D37        2.09443  -0.00053   0.00000  -0.00098  -0.00099   2.09344
   D38       -2.09441   0.00059   0.00000   0.00115   0.00116  -2.09325
   D39        3.14155   0.00003   0.00000   0.00005   0.00005  -3.14159
   D40       -1.04726  -0.00058   0.00000  -0.00112  -0.00113  -1.04838
   D41        1.04708   0.00053   0.00000   0.00101   0.00103   1.04811
         Item               Value     Threshold  Converged?
 Maximum Force            0.140913     0.000450     NO 
 RMS     Force            0.025266     0.000300     NO 
 Maximum Displacement     0.753854     0.001800     NO 
 RMS     Displacement     0.198707     0.001200     NO 
 Predicted change in Energy=-6.227243D-02
 GradGradGradGradGradGradGradGradGradGradGradGradGradGradGradGradGradGrad

                          Input orientation:                          
 ---------------------------------------------------------------------
 Center     Atomic      Atomic             Coordinates (Angstroms)
 Number     Number       Type             X           Y           Z
 ---------------------------------------------------------------------
      1          1           0        1.291709    1.964803   -1.540578
      2          6           0        1.659189    2.633665   -0.767989
      3          1           0        1.641215    2.123755    0.193551
      4          1           0        1.021878    3.514552   -0.715778
      5          6           0        3.088026    3.068531   -1.076343
      6          8           0        3.626394    2.649306   -2.084635
      7          7           0        3.616812    3.904483   -0.158676
      8          1           0        3.008706    4.144365    0.604129
      9          6           0        4.933113    4.555854   -0.078237
     10          1           0        5.415813    4.271113    0.853777
     11          6           0        5.922561    4.211561   -1.200231
     12          1           0        5.522222    4.483984   -2.168203
     13          1           0        6.846442    4.761838   -1.025627
     14          1           0        6.139595    3.150400   -1.199531
     15          6           0        4.703526    6.072046   -0.068059
     16          8           0        4.254891    6.598563    0.938158
     17          7           0        4.967231    6.772112   -1.177546
     18          1           0        5.321991    6.310874   -1.991899
     19          6           0        4.755424    8.203939   -1.251283
     20          1           0        4.371569    8.557488   -0.299674
     21          1           0        5.696165    8.705105   -1.469821
     22          1           0        4.037725    8.430962   -2.037007
 ---------------------------------------------------------------------
                    Distance matrix (angstroms):
                    1          2          3          4          5
     1  H    0.000000
     2  C    1.085961   0.000000
     3  H    1.776126   1.088527   0.000000
     4  H    1.776183   1.088510   1.773351   0.000000
     5  C    2.158816   1.525046   2.144410   2.144274   0.000000
     6  O    2.493049   2.367213   3.067127   3.066908   1.217474
     7  N    3.328380   2.412163   2.682916   2.682553   1.349275
     8  H    3.506898   2.446654   2.474160   2.467044   1.996921
     9  C    4.702319   3.858645   4.101898   4.097380   2.571515
    10  H    5.297191   4.407219   4.392566   4.726791   3.254252
    11  C    5.158347   4.566501   4.963012   4.973652   3.058832
    12  H    4.963610   4.506363   5.119647   4.827260   3.020095
    13  H    6.240483   5.612761   5.961566   5.964669   4.122566
    14  H    5.002395   4.530705   4.819762   5.153412   3.055152
    15  C    5.538794   4.645465   5.003517   4.529331   3.556343
    16  O    6.032935   5.036767   5.235423   4.764347   4.228583
    17  N    6.062299   5.313908   5.877883   5.137191   4.154294
    18  H    5.944342   5.332536   5.988011   5.285724   4.042479
    19  C    7.141976   6.391259   6.982441   6.018013   5.402151
    20  H    7.381658   6.532075   7.006499   6.068342   5.690285
    21  H    8.052075   7.324761   7.907186   7.025623   6.223197
    22  H    7.042603   6.393473   7.106301   5.917100   5.529961
                    6          7          8          9         10
     6  O    0.000000
     7  N    2.298886   0.000000
     8  H    3.137864   1.004593   0.000000
     9  C    3.060730   1.470850   2.082856   0.000000
    10  H    3.803491   2.096636   2.423335   1.087532   0.000000
    11  C    2.914652   2.548649   3.427941   1.535062   2.116432
    12  H    2.639544   2.829242   3.757516   2.172596   3.031336
    13  H    3.994121   3.452125   4.214925   2.144949   2.412398
    14  H    2.711215   2.831335   3.747482   2.165225   2.448659
    15  C    4.116058   2.426414   2.653338   1.533510   2.144876
    16  O    5.012875   2.977962   2.772660   2.380274   2.602285
    17  N    4.429241   3.329418   3.730314   2.474155   3.253074
    18  H    4.036178   3.472616   4.096879   2.625534   3.502471
    19  C    5.729147   4.579907   4.793091   3.836162   4.509381
    20  H    6.216750   4.715930   4.706369   4.046906   4.560034
    21  H    6.429203   5.393402   5.685425   4.442414   5.013780
    22  H    5.796465   4.918771   5.139008   4.433393   5.249772
                   11         12         13         14         15
    11  C    0.000000
    12  H    1.082338   0.000000
    13  H    1.089425   1.770943   0.000000
    14  H    1.083129   1.760091   1.768221   0.000000
    15  C    2.495849   2.757319   2.688061   3.446526   0.000000
    16  O    3.612701   3.965734   3.734454   4.473439   1.221052
    17  N    2.733055   2.554397   2.756032   3.806799   1.338131
    18  H    2.322615   1.846267   2.378476   3.359304   2.034871
    19  C    4.159795   3.907273   4.033775   5.239930   2.438787
    20  H    4.701453   4.626968   4.589005   5.759537   2.518187
    21  H    4.507313   4.282039   4.131562   5.578928   3.143767
    22  H    4.696398   4.218955   4.730144   5.744873   3.143968
                   16         17         18         19         20
    16  O    0.000000
    17  N    2.239141   0.000000
    18  H    3.131566   1.000882   0.000000
    19  C    2.760692   1.449286   2.110262   0.000000
    20  H    2.320178   2.076787   2.968872   1.085312   0.000000
    21  H    3.509010   2.086440   2.478894   1.088081   1.773581
    22  H    3.500922   2.086730   2.479143   1.088115   1.773637
                   21         22
    21  H    0.000000
    22  H    1.774058   0.000000
 Stoichiometry    C6H12N2O2
 Framework group  C1[X(C6H12N2O2)]
 Deg. of freedom    60
 Full point group                 C1      NOp   1
 Largest Abelian subgroup         C1      NOp   1
 Largest concise Abelian subgroup C1      NOp   1
                         Standard orientation:                         
 ---------------------------------------------------------------------
 Center     Atomic      Atomic             Coordinates (Angstroms)
 Number     Number       Type             X           Y           Z
 ---------------------------------------------------------------------
      1          1           0       -3.923311   -0.924082    1.086782
      2          6           0       -3.096464   -1.233740    0.454526
      3          1           0       -3.478949   -1.560087   -0.510924
      4          1           0       -2.567549   -2.060215    0.925737
      5          6           0       -2.126509   -0.076183    0.242356
      6          8           0       -2.365471    0.995931    0.767438
      7          7           0       -1.067900   -0.383537   -0.535734
      8          1           0       -1.041831   -1.330411   -0.870335
      9          6           0        0.083908    0.418895   -0.974872
     10          1           0        0.113858    0.435143   -2.061870
     11          6           0        0.093497    1.885059   -0.520243
     12          1           0        0.084147    1.956866    0.559670
     13          1           0        0.996284    2.358835   -0.904115
     14          1           0       -0.771265    2.407068   -0.911217
     15          6           0        1.354566   -0.267917   -0.459733
     16          8           0        1.728080   -1.302197   -0.990505
     17          7           0        1.999501    0.266958    0.583608
     18          1           0        1.662022    1.108861    1.006777
     19          6           0        3.194221   -0.336081    1.139863
     20          1           0        3.434402   -1.234405    0.580194
     21          1           0        4.025175    0.363285    1.074118
     22          1           0        3.025624   -0.594875    2.183220
 ---------------------------------------------------------------------
 Rotational constants (GHZ):      2.2424347      0.7357910      0.6823398
 Standard basis: 6-31G(d) (6D, 7F)
 There are   174 symmetry adapted basis functions of A   symmetry.
 Integral buffers will be    131072 words long.
 Raffenetti 1 integral format.
 Two-electron integral symmetry is turned on.
   174 basis functions,   328 primitive gaussians,   174 cartesian basis functions
    39 alpha electrons       39 beta electrons
       nuclear repulsion energy       556.0766439841 Hartrees.
 NAtoms=   22 NActive=   22 NUniq=   22 SFac= 7.50D-01 NAtFMM=   80 NAOKFM=F Big=F
 One-electron integrals computed using PRISM.
 NBasis=   174 RedAO= T  NBF=   174
 NBsUse=   174 1.00D-06 NBFU=   174
 Initial guess read from the read-write file.
 B after Tr=     0.000000    0.000000    0.000000
         Rot=    1.000000    0.000000    0.000000    0.000000 Ang=   0.00 deg.
 Initial guess orbital symmetries:
       Occupied  (A) (A) (A) (A) (A) (A) (A) (A) (A) (A) (A) (A)
                 (A) (A) (A) (A) (A) (A) (A) (A) (A) (A) (A) (A)
                 (A) (A) (A) (A) (A) (A) (A) (A) (A) (A) (A) (A)
                 (A) (A) (A)
       Virtual   (A) (A) (A) (A) (A) (A) (A) (A) (A) (A) (A) (A)
                 (A) (A) (A) (A) (A) (A) (A) (A) (A) (A) (A) (A)
                 (A) (A) (A) (A) (A) (A) (A) (A) (A) (A) (A) (A)
                 (A) (A) (A) (A) (A) (A) (A) (A) (A) (A) (A) (A)
                 (A) (A) (A) (A) (A) (A) (A) (A) (A) (A) (A) (A)
                 (A) (A) (A) (A) (A) (A) (A) (A) (A) (A) (A) (A)
                 (A) (A) (A) (A) (A) (A) (A) (A) (A) (A) (A) (A)
                 (A) (A) (A) (A) (A) (A) (A) (A) (A) (A) (A) (A)
                 (A) (A) (A) (A) (A) (A) (A) (A) (A) (A) (A) (A)
                 (A) (A) (A) (A) (A) (A) (A) (A) (A) (A) (A) (A)
                 (A) (A) (A) (A) (A) (A) (A) (A) (A) (A) (A) (A)
                 (A) (A) (A)
 Harris functional with IExCor=  205 diagonalized for initial guess.
 ExpMin= 1.61D-01 ExpMax= 5.48D+03 ExpMxC= 8.25D+02 IAcc=1 IRadAn=         1 AccDes= 0.00D+00
 HarFok:  IExCor=  205 AccDes= 0.00D+00 IRadAn=         1 IDoV= 1
 ScaDFX=  1.000000  1.000000  1.000000  1.000000
 FoFCou: FMM=F IPFlag=           0 FMFlag=      100000 FMFlg1=           0
         NFxFlg=           0 DoJE=T BraDBF=F KetDBF=T FulRan=T
         Omega=  0.000000  0.000000  1.000000  0.000000  0.000000 ICntrl=     500 IOpCl=  0
         NMat0=    1 NMatS0=    1 NMatT0=    0 NMatD0=    1 NMtDS0=    0 NMtDT0=    0
         I1Cent=           4 NGrid=           0.
 Petite list used in FoFCou.
 Requested convergence on RMS density matrix=1.00D-08 within 128 cycles.
 Requested convergence on MAX density matrix=1.00D-06.
 Requested convergence on             energy=1.00D-06.
 No special actions if energy rises.
 Integral accuracy reduced to 1.0D-05 until final iterations.
 Initial convergence to 1.0D-05 achieved.  Increase integral accuracy.
 SCF Done:  E(RHF) =  -492.839175732     A.U. after   16 cycles
             Convg  =    0.3385D-08             -V/T =  2.0019
 Calling FoFJK, ICntrl=      2127 FMM=F ISym2X=0 I1Cent= 0 IOpClX= 0 NMat=1 NMatS=1 NMatT=0.
 ***** Axes restored to original set *****
 -------------------------------------------------------------------
 Center     Atomic                   Forces (Hartrees/Bohr)
 Number     Number              X              Y              Z
 -------------------------------------------------------------------
      1        1           0.004729890    0.003740350    0.002577456
      2        6           0.003471502    0.004595351    0.004914840
      3        1          -0.003597972    0.001406374   -0.001548122
      4        1          -0.001341852   -0.003487221    0.001717448
      5        6          -0.000379169   -0.022368872   -0.034568210
      6        8          -0.002027680    0.016536117    0.026070409
      7        7           0.004923974    0.008091369    0.012199589
      8        1           0.006502848    0.000088863   -0.005373428
      9        6           0.009274986    0.000884216   -0.022372028
     10        1          -0.008069962    0.005864909    0.000726086
     11        6          -0.003677627   -0.011802611    0.002942989
     12        1           0.003143344   -0.008119280   -0.000164704
     13        1          -0.002976748   -0.002485524    0.000357881
     14        1           0.000199247    0.002338114   -0.003382715
     15        6          -0.017808185    0.011598187    0.036446101
     16        8           0.008035724   -0.013848884   -0.017395344
     17        7           0.003113466    0.000106777   -0.008163080
     18        1          -0.004256560    0.006525667    0.009049526
     19        6          -0.000598640    0.001962896   -0.000986417
     20        1           0.002437768   -0.003175856   -0.005616327
     21        1          -0.003237792    0.000326275    0.000303995
     22        1           0.002139439    0.001222784    0.002264054
 -------------------------------------------------------------------
 Cartesian Forces:  Max     0.036446101 RMS     0.010065143

 GradGradGradGradGradGradGradGradGradGradGradGradGradGradGradGradGradGrad
 Berny optimization.
 Using GEDIIS/GDIIS optimizer.
 Internal  Forces:  Max     0.031544438 RMS     0.007254347
 Search for a local minimum.
 Step number   2 out of a maximum of  108
 All quantities printed in internal units (Hartrees-Bohrs-Radians)
 Mixed Optimization -- RFO/linear search
 Update second derivatives using D2CorX and points    1    2
 DE= -2.63D-02 DEPred=-6.23D-02 R= 4.22D-01
 Trust test= 4.22D-01 RLast= 3.00D-01 DXMaxT set to 3.00D-01
 Use linear search instead of GDIIS.
     Eigenvalues ---    0.00368   0.00435   0.01004   0.01044   0.01341
     Eigenvalues ---    0.01422   0.01664   0.02552   0.02552   0.03603
     Eigenvalues ---    0.05050   0.05651   0.05886   0.05997   0.07208
     Eigenvalues ---    0.07386   0.07631   0.07695   0.15281   0.15986
     Eigenvalues ---    0.15999   0.16000   0.16000   0.16000   0.16000
     Eigenvalues ---    0.16000   0.16000   0.16000   0.16000   0.16130
     Eigenvalues ---    0.17315   0.21994   0.24260   0.24771   0.24990
     Eigenvalues ---    0.25000   0.29394   0.29815   0.30106   0.34621
     Eigenvalues ---    0.34754   0.34810   0.34811   0.34813   0.34815
     Eigenvalues ---    0.34817   0.34818   0.34819   0.34820   0.36946
     Eigenvalues ---    0.38380   0.45674   0.45969   0.56600   0.58297
     Eigenvalues ---    0.88915   0.91099   0.943191000.000001000.00000
     Eigenvalues --- 1000.000001000.000001000.000001000.000001000.00000
     Eigenvalues --- 1000.000001000.000001000.000001000.000001000.00000
     Eigenvalues --- 1000.000001000.000001000.000001000.000001000.00000
     Eigenvalues --- 1000.000001000.000001000.000001000.000001000.00000
     Eigenvalues --- 1000.000001000.000001000.000001000.000001000.00000
     Eigenvalues --- 1000.000001000.000001000.000001000.000001000.00000
     Eigenvalues --- 1000.000001000.000001000.000001000.000001000.00000
     Eigenvalues --- 1000.000001000.000001000.00000
 RFO step:  Lambda=-1.92350083D-02 EMin= 3.67826364D-03
 Quartic linear search produced a step of -0.01072.
 Maximum step size (   0.300) exceeded in Quadratic search.
    -- Step size scaled by   0.759
 Iteration  1 RMS(Cart)=  0.11473290 RMS(Int)=  0.00323085
 Iteration  2 RMS(Cart)=  0.00493473 RMS(Int)=  0.00048407
 Iteration  3 RMS(Cart)=  0.00000934 RMS(Int)=  0.00048398
 Iteration  4 RMS(Cart)=  0.00000000 RMS(Int)=  0.00048398
 Iteration  1 RMS(Cart)=  0.00019501 RMS(Int)=  0.00006904
 Iteration  2 RMS(Cart)=  0.00010818 RMS(Int)=  0.00007705
 Iteration  3 RMS(Cart)=  0.00006036 RMS(Int)=  0.00008719
 Iteration  4 RMS(Cart)=  0.00003394 RMS(Int)=  0.00009409
 Iteration  5 RMS(Cart)=  0.00001928 RMS(Int)=  0.00009828
 Iteration  6 RMS(Cart)=  0.00001109 RMS(Int)=  0.00010074
 Iteration  7 RMS(Cart)=  0.00000648 RMS(Int)=  0.00010218
 Iteration  8 RMS(Cart)=  0.00000385 RMS(Int)=  0.00010302
 Iteration  9 RMS(Cart)=  0.00000233 RMS(Int)=  0.00010351
 Iteration 10 RMS(Cart)=  0.00000144 RMS(Int)=  0.00010380
 Iteration 11 RMS(Cart)=  0.00000091 RMS(Int)=  0.00010397
 Variable       Old X    -DE/DX   Delta X   Delta X   Delta X     New X
                                 (Linear)    (Quad)   (Total)
    R1        2.05217  -0.00574   0.00008  -0.01282  -0.01274   2.03943
    R2        2.05702  -0.00197   0.00003  -0.00441  -0.00438   2.05264
    R3        2.05699  -0.00195   0.00003  -0.00438  -0.00435   2.05263
    R4        2.88192  -0.00329   0.00010  -0.00930  -0.00920   2.87272
    R5        2.30069  -0.02818   0.00023  -0.02595  -0.02571   2.27498
    R6        2.54976  -0.00003  -0.00029   0.00430   0.00401   2.55377
    R7        1.89841  -0.00800   0.00011  -0.01404  -0.01393   1.88448
    R8        2.77950  -0.01513  -0.00044  -0.02132  -0.02176   2.75774
    R9        2.05514  -0.00450   0.00005  -0.00982  -0.00977   2.04537
   R10        2.90085   0.00255  -0.00020   0.00894   0.00873   2.90958
   R11        2.89791   0.00629  -0.00023   0.01800   0.01776   2.91568
   R12        2.04532  -0.00306   0.00015  -0.00847  -0.00831   2.03701
   R13        2.05871  -0.00372   0.00001  -0.00771  -0.00770   2.05102
   R14        2.04682  -0.00225   0.00014  -0.00659  -0.00645   2.04036
   R15        2.30745  -0.02326   0.00016  -0.02094  -0.02078   2.28667
   R16        2.52870   0.00618  -0.00006   0.00856   0.00850   2.53720
   R17        1.89139  -0.01188   0.00019  -0.02119  -0.02101   1.87038
   R18        2.73875   0.00043  -0.00001   0.00089   0.00088   2.73963
   R19        2.05094  -0.00682   0.00010  -0.01521  -0.01511   2.03583
   R20        2.05618  -0.00271   0.00004  -0.00604  -0.00601   2.05017
   R21        2.05624  -0.00279   0.00004  -0.00621  -0.00617   2.05007
    A1        1.91169   0.00004  -0.00001  -0.00127  -0.00112   1.91057
    A2        1.91180   0.00012  -0.00001  -0.00085  -0.00071   1.91109
    A3        1.92711  -0.00644   0.00013  -0.02998  -0.02970   1.89742
    A4        1.90398  -0.00406   0.00007  -0.01470  -0.01498   1.88900
    A5        1.90461   0.00523  -0.00009   0.02373   0.02353   1.92814
    A6        1.90444   0.00514  -0.00009   0.02332   0.02313   1.92757
    A7        2.07552   0.01514   0.00030   0.03748   0.03777   2.11330
    A8        1.98923  -0.00092   0.00049  -0.00971  -0.00922   1.98001
    A9        2.21843  -0.01422  -0.00079  -0.02777  -0.02856   2.18987
   A10        2.01212   0.00709   0.00088   0.01147   0.01201   2.02413
   A11        2.29467  -0.00923  -0.00179  -0.00282  -0.00495   2.28972
   A12        1.97626   0.00213   0.00091  -0.00937  -0.00878   1.96748
   A13        1.90512   0.00460   0.00006  -0.02017  -0.02220   1.88292
   A14        2.02366  -0.01208  -0.00091  -0.02177  -0.02236   2.00130
   A15        1.87993  -0.01217   0.00063  -0.04124  -0.04204   1.83789
   A16        1.85623  -0.00126   0.00043   0.00119   0.00208   1.85831
   A17        1.89613  -0.01072   0.00000  -0.04970  -0.05212   1.84402
   A18        1.89980   0.03154  -0.00020   0.12933   0.12953   2.02934
   A19        1.93779   0.00742  -0.00029   0.03629   0.03587   1.97366
   A20        1.89250  -0.00173   0.00020  -0.00649  -0.00642   1.88609
   A21        1.92668   0.00228  -0.00017   0.00675   0.00658   1.93326
   A22        1.90697  -0.00049   0.00003   0.00748   0.00728   1.91425
   A23        1.89789  -0.00656   0.00013  -0.03566  -0.03554   1.86234
   A24        1.90163  -0.00102   0.00009  -0.00879  -0.00868   1.89295
   A25        2.07923  -0.00920   0.00026  -0.02933  -0.02920   2.05003
   A26        2.07402   0.00866  -0.00042   0.02973   0.02919   2.10321
   A27        2.12948   0.00053   0.00017  -0.00127  -0.00122   2.12826
   A28        2.09829  -0.00032  -0.00004   0.00080   0.00075   2.09905
   A29        2.12969   0.00294  -0.00002   0.00947   0.00944   2.13913
   A30        2.05520  -0.00262   0.00006  -0.01027  -0.01021   2.04499
   A31        1.90595  -0.00247   0.00006  -0.01198  -0.01189   1.89405
   A32        1.91655   0.00255  -0.00006   0.01191   0.01182   1.92837
   A33        1.91693   0.00259  -0.00006   0.01209   0.01199   1.92892
   A34        1.90906  -0.00035   0.00001  -0.00252  -0.00247   1.90659
   A35        1.90911  -0.00039   0.00001  -0.00280  -0.00276   1.90635
   A36        1.90618  -0.00195   0.00004  -0.00678  -0.00684   1.89935
    D1        0.00017   0.00003   0.00000   0.00056   0.00057   0.00074
    D2        3.14135  -0.00001   0.00000  -0.00048  -0.00049   3.14087
    D3        2.10228  -0.00058   0.00001  -0.00454  -0.00473   2.09755
    D4       -1.03973  -0.00063   0.00001  -0.00558  -0.00578  -1.04551
    D5       -2.10196   0.00062  -0.00001   0.00540   0.00560  -2.09636
    D6        1.03922   0.00057  -0.00001   0.00436   0.00455   1.04377
    D7       -0.01016  -0.00042   0.00011  -0.02948  -0.02944  -0.03960
    D8       -3.13285  -0.00001  -0.00009   0.02263   0.02258  -3.11027
    D9        3.13098  -0.00046   0.00011  -0.03060  -0.03053   3.10045
   D10        0.00829  -0.00005  -0.00009   0.02151   0.02149   0.02978
   D11       -2.13300  -0.00384   0.00041  -0.09326  -0.09269  -2.22569
   D12       -0.03801  -0.01023   0.00041  -0.12196  -0.12071  -0.15872
   D13        2.09447   0.01325   0.00000   0.00000   0.00000   2.09447
   D14        1.02719  -0.00348   0.00021  -0.04216  -0.04216   0.98503
   D15        3.12219  -0.00987   0.00021  -0.07085  -0.07018   3.05200
   D16       -1.02853   0.01361  -0.00020   0.05110   0.05053  -0.97800
   D17        1.03920  -0.00127   0.00009  -0.01405  -0.01351   1.02570
   D18        3.13434   0.00153   0.00008   0.01307   0.01373  -3.13511
   D19       -1.06690   0.00056   0.00021   0.00237   0.00308  -1.06382
   D20       -3.12271  -0.00408  -0.00011  -0.05306  -0.05398   3.10650
   D21       -1.02757  -0.00128  -0.00011  -0.02594  -0.02674  -1.05431
   D22        1.05437  -0.00224   0.00002  -0.03665  -0.03739   1.01698
   D23       -1.08271  -0.00146   0.00002  -0.04564  -0.04544  -1.12816
   D24        1.01243   0.00134   0.00001  -0.01852  -0.01821   0.99422
   D25        3.09436   0.00038   0.00014  -0.02923  -0.02886   3.06551
   D26        1.27710  -0.00173   0.00034  -0.03009  -0.02919   1.24791
   D27       -1.83260  -0.00120   0.00000   0.00000   0.00000  -1.83259
   D28       -0.78442   0.00537  -0.00011   0.04361   0.04201  -0.74240
   D29        2.38907   0.00590  -0.00045   0.07370   0.07121   2.46028
   D30       -2.79879  -0.00426  -0.00050  -0.00033  -0.00002  -2.79881
   D31        0.37470  -0.00373  -0.00085   0.02976   0.02918   0.40388
   D32       -0.01709  -0.00047   0.00018  -0.01712  -0.01686  -0.03395
   D33        3.12427  -0.00077   0.00019  -0.02326  -0.02303   3.10124
   D34       -3.12582   0.00025  -0.00017   0.01439   0.01417  -3.11165
   D35        0.01553  -0.00005  -0.00017   0.00824   0.00800   0.02354
   D36        0.00024   0.00016   0.00000   0.00353   0.00352   0.00375
   D37        2.09344  -0.00023   0.00001   0.00032   0.00027   2.09371
   D38       -2.09325   0.00058  -0.00001   0.00698   0.00701  -2.08624
   D39       -3.14159  -0.00013   0.00000  -0.00248  -0.00247   3.13913
   D40       -1.04838  -0.00052   0.00001  -0.00568  -0.00572  -1.05410
   D41        1.04811   0.00029  -0.00001   0.00098   0.00103   1.04913
         Item               Value     Threshold  Converged?
 Maximum Force            0.028182     0.000450     NO 
 RMS     Force            0.007007     0.000300     NO 
 Maximum Displacement     0.529592     0.001800     NO 
 RMS     Displacement     0.114456     0.001200     NO 
 Predicted change in Energy=-1.003914D-02
 GradGradGradGradGradGradGradGradGradGradGradGradGradGradGradGradGradGrad

                          Input orientation:                          
 ---------------------------------------------------------------------
 Center     Atomic      Atomic             Coordinates (Angstroms)
 Number     Number       Type             X           Y           Z
 ---------------------------------------------------------------------
      1          1           0        1.307654    2.072080   -1.549087
      2          6           0        1.676607    2.722539   -0.770953
      3          1           0        1.627756    2.207995    0.184406
      4          1           0        1.050995    3.608538   -0.712126
      5          6           0        3.111310    3.106243   -1.095506
      6          8           0        3.655117    2.695796   -2.088028
      7          7           0        3.669632    3.925635   -0.177273
      8          1           0        3.077427    4.207778    0.573821
      9          6           0        4.987886    4.549061   -0.120674
     10          1           0        5.426183    4.313046    0.840418
     11          6           0        5.980438    4.051226   -1.187269
     12          1           0        5.629569    4.203736   -2.195030
     13          1           0        6.919685    4.575883   -1.043951
     14          1           0        6.160338    2.992205   -1.078217
     15          6           0        4.719133    6.068149   -0.093930
     16          8           0        4.254128    6.534718    0.921115
     17          7           0        4.930739    6.817077   -1.187997
     18          1           0        5.288764    6.404509   -2.013369
     19          6           0        4.647082    8.238257   -1.227582
     20          1           0        4.265025    8.537886   -0.265885
     21          1           0        5.549718    8.799733   -1.444395
     22          1           0        3.907017    8.457211   -1.989987
 ---------------------------------------------------------------------
                    Distance matrix (angstroms):
                    1          2          3          4          5
     1  H    0.000000
     2  C    1.079220   0.000000
     3  H    1.768032   1.086211   0.000000
     4  H    1.768355   1.086207   1.760098   0.000000
     5  C    2.128005   1.520177   2.155448   2.155036   0.000000
     6  O    2.487984   2.376953   3.084169   3.083449   1.203866
     7  N    3.300982   2.402508   2.692648   2.691445   1.351398
     8  H    3.492856   2.444719   2.500464   2.473697   2.000295
     9  C    4.660462   3.837136   4.106597   4.090661   2.559992
    10  H    5.262504   4.380131   4.391997   4.695636   3.250048
    11  C    5.087519   4.523460   4.921873   4.972037   3.022137
    12  H    4.862114   4.455092   5.065491   4.849392   2.958897
    13  H    6.165962   5.567700   5.926235   5.957130   4.082428
    14  H    4.961541   4.502330   4.770062   5.159387   3.051208
    15  C    5.451994   4.572574   4.953268   4.459494   3.515840
    16  O    5.890564   4.903001   5.114792   4.635738   4.138506
    17  N    5.980981   5.246765   5.834109   5.057034   4.133904
    18  H    5.902096   5.305486   5.986979   5.241123   4.057380
    19  C    7.019750   6.281352   6.890146   5.884883   5.358508
    20  H    7.224908   6.385394   6.872079   5.901490   5.614452
    21  H    7.954080   7.237873   7.841287   6.908201   6.203497
    22  H    6.908038   6.272738   6.998265   5.770565   5.483257
                    6          7          8          9         10
     6  O    0.000000
     7  N    2.272378   0.000000
     8  H    3.115327   0.997223   0.000000
     9  C    3.013528   1.459335   2.061226   0.000000
    10  H    3.785231   2.066701   2.366181   1.082361   0.000000
    11  C    2.838253   2.525014   3.399033   1.539684   2.118317
    12  H    2.486724   2.826666   3.765632   2.198627   3.044218
    13  H    3.909250   3.425902   4.185169   2.141264   2.418777
    14  H    2.717298   2.808311   3.702862   2.171482   2.442287
    15  C    4.059720   2.387209   2.569449   1.542909   2.110287
    16  O    4.914375   2.890572   2.630568   2.359355   2.513175
    17  N    4.407066   3.312461   3.653384   2.507258   3.260384
    18  H    4.053262   3.483914   4.050826   2.667491   3.540791
    19  C    5.695897   4.545027   4.685471   3.866725   4.504543
    20  H    6.149976   4.651366   4.567858   4.056394   4.519012
    21  H    6.423537   5.375608   5.592090   4.487327   5.036466
    22  H    5.767753   4.886458   5.031800   4.465002   5.243393
                   11         12         13         14         15
    11  C    0.000000
    12  H    1.077939   0.000000
    13  H    1.085352   1.768581   0.000000
    14  H    1.079714   1.731126   1.756650   0.000000
    15  C    2.618064   2.952888   2.823443   3.536569   0.000000
    16  O    3.686891   4.127430   3.847560   4.492256   1.210055
    17  N    2.958345   2.886526   2.999935   4.019156   1.342630
    18  H    2.588203   2.234401   2.635062   3.643895   2.030237
    19  C    4.394394   4.263637   4.314097   5.461988   2.449435
    20  H    4.890982   4.936439   4.832192   5.916643   2.517019
    21  H    4.774930   4.657576   4.458484   5.851011   3.158351
[...]
    14  H    4.983314   4.431419   4.579530   5.089799   3.030657
    15  C    5.398137   4.630260   5.184109   4.517978   3.515418
    16  O    5.880551   5.012656   5.484805   4.676083   4.175546
    17  N    5.869423   5.295471   6.012721   5.223382   4.096513
    18  H    5.669201   5.228380   5.979139   5.328280   3.912214
    19  C    6.840035   6.312887   7.105371   6.052601   5.288982
    20  H    7.585006   6.949994   7.651668   6.632254   5.947476
    21  H    7.419592   7.002617   7.842508   6.825845   5.906316
    22  H    6.527562   6.052718   6.912268   5.645618   5.246906
                    6          7          8          9         10
     6  O    0.000000
     7  N    2.265513   0.000000
     8  H    3.116853   0.995466   0.000000
     9  C    2.979511   1.460881   2.065831   0.000000
    10  H    3.782556   2.049311   2.310546   1.083433   0.000000
    11  C    2.827024   2.531700   3.395632   1.525830   2.119312
    12  H    2.474580   2.860959   3.807424   2.193861   3.049703
    13  H    3.898274   3.429838   4.177141   2.131395   2.411003
    14  H    2.726732   2.794244   3.659684   2.152198   2.445940
    15  C    4.003100   2.390749   2.615095   1.534230   2.077393
    16  O    4.893615   2.923762   2.715769   2.365045   2.475715
    17  N    4.284334   3.292171   3.697253   2.471279   3.223702
    18  H    3.821711   3.383569   4.010090   2.600056   3.504567
    19  C    5.534175   4.499578   4.712452   3.826996   4.468678
    20  H    6.297971   4.975048   5.059593   4.163713   4.569934
    21  H    5.956072   5.265275   5.605317   4.534905   5.243401
    22  H    5.603898   4.554008   4.630603   4.216109   4.905857
                   11         12         13         14         15
    11  C    0.000000
    12  H    1.079056   0.000000
    13  H    1.085325   1.767236   0.000000
    14  H    1.081156   1.734642   1.757365   0.000000
    15  C    2.601755   2.946636   2.813334   3.515918   0.000000
    16  O    3.666759   4.123280   3.812084   4.471383   1.204252
    17  N    2.909418   2.828347   2.977989   3.968719   1.343849
    18  H    2.536777   2.137323   2.677057   3.580367   2.022562
    19  C    4.348239   4.197035   4.306346   5.413713   2.434331
    20  H    4.800859   4.855717   4.591466   5.851577   2.678544
    21  H    4.743018   4.414597   4.607769   5.816922   3.301113
    22  H    4.932162   4.721022   5.082766   5.949828   2.835515
                   16         17         18         19         20
    16  O    0.000000
    17  N    2.238384   0.000000
    18  H    3.108778   0.992310   0.000000
    19  C    2.759504   1.447919   2.110474   0.000000
    20  H    2.639721   2.080290   2.900553   1.080278   0.000000
    21  H    3.792107   2.066626   2.302047   1.081748   1.761034
    22  H    2.948434   2.105386   2.725782   1.084359   1.755673
                   21         22
    21  H    0.000000
    22  H    1.763988   0.000000
 Stoichiometry    C6H12N2O2
 Framework group  C1[X(C6H12N2O2)]
 Deg. of freedom    60
 Full point group                 C1      NOp   1
 Largest Abelian subgroup         C1      NOp   1
 Largest concise Abelian subgroup C1      NOp   1
                         Standard orientation:                         
 ---------------------------------------------------------------------
 Center     Atomic      Atomic             Coordinates (Angstroms)
 Number     Number       Type             X           Y           Z
 ---------------------------------------------------------------------
      1          1           0       -3.659842   -1.207504    1.209381
      2          6           0       -3.065185   -1.287361    0.311324
      3          1           0       -3.722261   -1.208002   -0.549311
      4          1           0       -2.581780   -2.257436    0.278974
      5          6           0       -2.066827   -0.145682    0.286398
      6          8           0       -2.227418    0.841048    0.950877
      7          7           0       -1.024020   -0.348261   -0.555750
      8          1           0       -0.981387   -1.228515   -1.018663
      9          6           0        0.078754    0.541322   -0.911706
     10          1           0        0.128347    0.547961   -1.993983
     11          6           0       -0.058423    1.989763   -0.451969
     12          1           0       -0.122588    2.099412    0.619582
     13          1           0        0.796836    2.546107   -0.822031
     14          1           0       -0.956001    2.427889   -0.865851
     15          6           0        1.360704   -0.190487   -0.493466
     16          8           0        1.730048   -1.136186   -1.141125
     17          7           0        1.999470    0.229557    0.611736
     18          1           0        1.586814    0.939768    1.168508
     19          6           0        3.141768   -0.486894    1.139299
     20          1           0        3.857183   -0.669547    0.350744
     21          1           0        3.607038    0.118378    1.905685
     22          1           0        2.853711   -1.440454    1.567762
 ---------------------------------------------------------------------
 Rotational constants (GHZ):      2.1707523      0.7517606      0.7036342

 **********************************************************************

            Population analysis using the SCF density.

 **********************************************************************

 Orbital symmetries:
       Occupied  (A) (A) (A) (A) (A) (A) (A) (A) (A) (A) (A) (A)
                 (A) (A) (A) (A) (A) (A) (A) (A) (A) (A) (A) (A)
                 (A) (A) (A) (A) (A) (A) (A) (A) (A) (A) (A) (A)
                 (A) (A) (A)
       Virtual   (A) (A) (A) (A) (A) (A) (A) (A) (A) (A) (A) (A)
                 (A) (A) (A) (A) (A) (A) (A) (A) (A) (A) (A) (A)
                 (A) (A) (A) (A) (A) (A) (A) (A) (A) (A) (A) (A)
                 (A) (A) (A) (A) (A) (A) (A) (A) (A) (A) (A) (A)
                 (A) (A) (A) (A) (A) (A) (A) (A) (A) (A) (A) (A)
                 (A) (A) (A) (A) (A) (A) (A) (A) (A) (A) (A) (A)
                 (A) (A) (A) (A) (A) (A) (A) (A) (A) (A) (A) (A)
                 (A) (A) (A) (A) (A) (A) (A) (A) (A) (A) (A) (A)
                 (A) (A) (A) (A) (A) (A) (A) (A) (A) (A) (A) (A)
                 (A) (A) (A) (A) (A) (A) (A) (A) (A) (A) (A) (A)
                 (A) (A) (A) (A) (A) (A) (A) (A) (A) (A) (A) (A)
                 (A) (A) (A)
 The electronic state is 1-A.
 Alpha  occ. eigenvalues --  -20.52402 -20.52199 -15.59010 -15.59003 -11.35250
 Alpha  occ. eigenvalues --  -11.34533 -11.28567 -11.26022 -11.23256 -11.22538
 Alpha  occ. eigenvalues --   -1.39571  -1.38877  -1.24267  -1.23436  -1.05995
 Alpha  occ. eigenvalues --   -0.99291  -0.95812  -0.89697  -0.80108  -0.77103
 Alpha  occ. eigenvalues --   -0.72519  -0.69902  -0.65976  -0.64529  -0.62292
 Alpha  occ. eigenvalues --   -0.62044  -0.59548  -0.58938  -0.56817  -0.56027
 Alpha  occ. eigenvalues --   -0.55563  -0.54581  -0.52974  -0.51912  -0.51199
 Alpha  occ. eigenvalues --   -0.43349  -0.41350  -0.39284  -0.38183
 Alpha virt. eigenvalues --    0.18968   0.21063   0.21954   0.23065   0.25732
 Alpha virt. eigenvalues --    0.27017   0.29367   0.30432   0.30577   0.31686
 Alpha virt. eigenvalues --    0.32709   0.33311   0.34587   0.35365   0.37492
 Alpha virt. eigenvalues --    0.39689   0.40296   0.44858   0.45315   0.49443
 Alpha virt. eigenvalues --    0.52446   0.59505   0.63209   0.69324   0.72373
 Alpha virt. eigenvalues --    0.74427   0.75299   0.75391   0.77212   0.78591
 Alpha virt. eigenvalues --    0.80228   0.81738   0.82452   0.87973   0.88609
 Alpha virt. eigenvalues --    0.92326   0.94480   0.96031   0.96623   0.98692
 Alpha virt. eigenvalues --    1.00773   1.03173   1.04675   1.06467   1.09573
 Alpha virt. eigenvalues --    1.10228   1.13008   1.14178   1.14691   1.15402
 Alpha virt. eigenvalues --    1.16778   1.17008   1.18944   1.19958   1.21109
 Alpha virt. eigenvalues --    1.21964   1.22613   1.23032   1.25273   1.26467
 Alpha virt. eigenvalues --    1.29544   1.35138   1.36664   1.38036   1.42242
 Alpha virt. eigenvalues --    1.46903   1.50143   1.55162   1.58647   1.60772
 Alpha virt. eigenvalues --    1.65194   1.67254   1.68760   1.74068   1.75236
 Alpha virt. eigenvalues --    1.76303   1.81867   1.84383   1.89091   1.95570
 Alpha virt. eigenvalues --    2.01128   2.05932   2.08566   2.11332   2.11598
 Alpha virt. eigenvalues --    2.13578   2.16383   2.18758   2.20310   2.22419
 Alpha virt. eigenvalues --    2.24072   2.26469   2.29317   2.31925   2.33473
 Alpha virt. eigenvalues --    2.37174   2.40402   2.41714   2.43041   2.50907
 Alpha virt. eigenvalues --    2.53594   2.54874   2.56961   2.60535   2.64446
 Alpha virt. eigenvalues --    2.67553   2.69468   2.70512   2.76533   2.77311
 Alpha virt. eigenvalues --    2.79160   2.80719   2.84195   2.91203   2.98818
 Alpha virt. eigenvalues --    3.01665   3.02967   3.08526   3.12499   3.26798
 Alpha virt. eigenvalues --    3.32545   3.37526   3.40181   3.54778   3.59553
 Alpha virt. eigenvalues --    4.38743   4.40022   4.50277   4.57410   4.62987
 Alpha virt. eigenvalues --    4.64675   4.75275   4.77538   4.93268   5.09659
          Condensed to atoms (all electrons):
              1          2          3          4          5          6
     1  H    0.464802   0.384583  -0.017519  -0.020705  -0.032683   0.003387
     2  C    0.384583   5.273517   0.375392   0.374785   0.375277  -0.072540
     3  H   -0.017519   0.375392   0.494581  -0.024398  -0.027331   0.000415
     4  H   -0.020705   0.374785  -0.024398   0.518602  -0.035329   0.002038
     5  C   -0.032683   0.375277  -0.027331  -0.035329   4.144010   0.614976
     6  O    0.003387  -0.072540   0.000415   0.002038   0.614976   8.160040
     7  N    0.004352  -0.126272   0.000819   0.005137   0.247243  -0.098412
     8  H    0.000038  -0.000534   0.000068   0.000654  -0.018001   0.002294
     9  C   -0.000057   0.002938  -0.000148   0.000062  -0.018916   0.001933
    10  H   -0.000001  -0.000102   0.000023  -0.000001   0.001619   0.000016
    11  C   -0.000001   0.000054  -0.000003  -0.000005  -0.001661  -0.006017
    12  H    0.000000   0.000041   0.000001  -0.000003   0.000593   0.002098
    13  H    0.000000   0.000010   0.000000   0.000000   0.000159   0.000682
    14  H    0.000002  -0.000061  -0.000004   0.000001   0.000379  -0.000275
    15  C    0.000005  -0.000221   0.000000   0.000008  -0.001016  -0.000269
    16  O    0.000000  -0.000012   0.000000  -0.000004   0.000150   0.000000
    17  N    0.000000   0.000003   0.000000   0.000001   0.000555  -0.000048
    18  H    0.000000  -0.000001   0.000000   0.000000   0.000093  -0.000058
    19  C    0.000000   0.000000   0.000000   0.000000  -0.000015   0.000000
    20  H    0.000000   0.000000   0.000000   0.000000   0.000000   0.000000
    21  H    0.000000   0.000000   0.000000   0.000000   0.000000   0.000000
    22  H    0.000000   0.000000   0.000000   0.000000   0.000000   0.000000
              7          8          9         10         11         12
     1  H    0.004352   0.000038  -0.000057  -0.000001  -0.000001   0.000000
     2  C   -0.126272  -0.000534   0.002938  -0.000102   0.000054   0.000041
     3  H    0.000819   0.000068  -0.000148   0.000023  -0.000003   0.000001
     4  H    0.005137   0.000654   0.000062  -0.000001  -0.000005  -0.000003
     5  C    0.247243  -0.018001  -0.018916   0.001619  -0.001661   0.000593
     6  O   -0.098412   0.002294   0.001933   0.000016  -0.006017   0.002098
     7  N    7.423914   0.322286   0.192698  -0.047164  -0.038081  -0.002269
     8  H    0.322286   0.313926  -0.028257  -0.001916   0.003286  -0.000113
     9  C    0.192698  -0.028257   5.009782   0.421749   0.327577  -0.028167
    10  H   -0.047164  -0.001916   0.421749   0.506197  -0.037100   0.003736
    11  C   -0.038081   0.003286   0.327577  -0.037100   5.127050   0.387098
    12  H   -0.002269  -0.000113  -0.028167   0.003736   0.387098   0.492897
    13  H    0.003673  -0.000066  -0.042051  -0.002933   0.382585  -0.027506
    14  H   -0.001230  -0.000106  -0.029148  -0.004331   0.394310  -0.022655
    15  C   -0.065800  -0.000346   0.379305  -0.057180  -0.044788  -0.004738
    16  O   -0.002109   0.007114  -0.077970   0.003398   0.002641  -0.000041
    17  N    0.002746   0.000268  -0.101734   0.004336   0.001024  -0.000046
    18  H    0.000178  -0.000049  -0.001664   0.000175   0.001464   0.004499
    19  C   -0.000279  -0.000009   0.004267  -0.000149  -0.000124  -0.000021
    20  H   -0.000010  -0.000003   0.000158   0.000015  -0.000031   0.000002
    21  H   -0.000001   0.000000   0.000035   0.000002  -0.000027   0.000009
    22  H    0.000066   0.000008  -0.000336  -0.000007   0.000020  -0.000007
             13         14         15         16         17         18
     1  H    0.000000   0.000002   0.000005   0.000000   0.000000   0.000000
     2  C    0.000010  -0.000061  -0.000221  -0.000012   0.000003  -0.000001
     3  H    0.000000  -0.000004   0.000000   0.000000   0.000000   0.000000
     4  H    0.000000   0.000001   0.000008  -0.000004   0.000001   0.000000
     5  C    0.000159   0.000379  -0.001016   0.000150   0.000555   0.000093
     6  O    0.000682  -0.000275  -0.000269   0.000000  -0.000048  -0.000058
     7  N    0.003673  -0.001230  -0.065800  -0.002109   0.002746   0.000178
     8  H   -0.000066  -0.000106  -0.000346   0.007114   0.000268  -0.000049
     9  C   -0.042051  -0.029148   0.379305  -0.077970  -0.101734  -0.001664
    10  H   -0.002933  -0.004331  -0.057180   0.003398   0.004336   0.000175
    11  C    0.382585   0.394310  -0.044788   0.002641   0.001024   0.001464
    12  H   -0.027506  -0.022655  -0.004738  -0.000041  -0.000046   0.004499
    13  H    0.543753  -0.024303  -0.001678   0.000034   0.000683  -0.000789
    14  H   -0.024303   0.484762   0.003595  -0.000056   0.000003  -0.000013
    15  C   -0.001678   0.003595   4.203782   0.595813   0.281477  -0.018379
    16  O    0.000034  -0.000056   0.595813   8.190950  -0.107457   0.002449
    17  N    0.000683   0.000003   0.281477  -0.107457   7.317424   0.323137
    18  H   -0.000789  -0.000013  -0.018379   0.002449   0.323137   0.311870
    19  C   -0.000080   0.000004  -0.030691   0.008786   0.198172  -0.022667
    20  H   -0.000005   0.000000  -0.003510   0.003402  -0.039564   0.002564
    21  H    0.000002   0.000000   0.004447   0.000390  -0.037742  -0.004082
    22  H    0.000002   0.000000  -0.002529   0.001356  -0.046835   0.001090
             19         20         21         22
     1  H    0.000000   0.000000   0.000000   0.000000
     2  C    0.000000   0.000000   0.000000   0.000000
     3  H    0.000000   0.000000   0.000000   0.000000
     4  H    0.000000   0.000000   0.000000   0.000000
     5  C   -0.000015   0.000000   0.000000   0.000000
     6  O    0.000000   0.000000   0.000000   0.000000
     7  N   -0.000279  -0.000010  -0.000001   0.000066
     8  H   -0.000009  -0.000003   0.000000   0.000008
     9  C    0.004267   0.000158   0.000035  -0.000336
    10  H   -0.000149   0.000015   0.000002  -0.000007
    11  C   -0.000124  -0.000031  -0.000027   0.000020
    12  H   -0.000021   0.000002   0.000009  -0.000007
    13  H   -0.000080  -0.000005   0.000002   0.000002
    14  H    0.000004   0.000000   0.000000   0.000000
    15  C   -0.030691  -0.003510   0.004447  -0.002529
    16  O    0.008786   0.003402   0.000390   0.001356
    17  N    0.198172  -0.039564  -0.037742  -0.046835
    18  H   -0.022667   0.002564  -0.004082   0.001090
    19  C    4.907694   0.404107   0.397664   0.405461
    20  H    0.404107   0.488045  -0.025034  -0.032969
    21  H    0.397664  -0.025034   0.525751  -0.031413
    22  H    0.405461  -0.032969  -0.031413   0.526109
 Mulliken atomic charges:
              1
     1  H    0.213797
     2  C   -0.586860
     3  H    0.198103
     4  H    0.179157
     5  C    0.749897
     6  O   -0.610262
     7  N   -0.821485
     8  H    0.399458
     9  C   -0.012059
    10  H    0.209619
    11  C   -0.499270
    12  H    0.194593
    13  H    0.167828
    14  H    0.199125
    15  C    0.762711
    16  O   -0.628833
    17  N   -0.796404
    18  H    0.400183
    19  C   -0.272121
    20  H    0.202835
    21  H    0.170001
    22  H    0.179985
 Sum of Mulliken atomic charges =   0.00000
 Mulliken charges with hydrogens summed into heavy atoms:
              1
     2  C    0.004198
     5  C    0.749897
     6  O   -0.610262
     7  N   -0.422027
     9  C    0.197560
    11  C    0.062276
    15  C    0.762711
    16  O   -0.628833
    17  N   -0.396221
    19  C    0.280700
 Sum of Mulliken charges with hydrogens summed into heavy atoms =   0.00000
 Electronic spatial extent (au):  <R**2>=           1799.9660
 Charge=              0.0000 electrons
 Dipole moment (field-independent basis, Debye):
    X=              0.3720    Y=             -0.0199    Z=              0.4215  Tot=              0.5625
 Quadrupole moment (field-independent basis, Debye-Ang):
   XX=            -60.1924   YY=            -61.2129   ZZ=            -61.1663
   XY=             11.0170   XZ=             11.0359   YZ=             -4.4339
 Traceless Quadrupole moment (field-independent basis, Debye-Ang):
   XX=              0.6648   YY=             -0.3557   ZZ=             -0.3091
   XY=             11.0170   XZ=             11.0359   YZ=             -4.4339
 Octapole moment (field-independent basis, Debye-Ang**2):
  XXX=              9.3956  YYY=             -0.4586  ZZZ=              2.5191  XYY=             -3.9588
  XXY=            -13.1079  XXZ=              6.3881  XZZ=              3.4496  YZZ=              2.6701
  YYZ=              1.7506  XYZ=             -0.2088
 Hexadecapole moment (field-independent basis, Debye-Ang**3):
 XXXX=          -1498.3845 YYYY=           -448.0233 ZZZZ=           -300.0892 XXXY=             30.8200
 XXXZ=             48.7076 YYYX=              3.4162 YYYZ=              2.7432 ZZZX=             10.7829
 ZZZY=              3.7049 XXYY=           -349.9914 XXZZ=           -312.2476 YYZZ=           -125.3860
 XXYZ=            -22.3781 YYXZ=             14.8958 ZZXY=             15.4989
 N-N= 5.582870539542D+02 E-N=-2.271908812746D+03  KE= 4.921182253772D+02
 1\1\GINC-RODAN\FOpt\RHF\6-31G(d)\C6H12N2O2\STEBOSS\10-Feb-2017\0\\# HF
 /6-31G* Opt=(ModRedundant) geom=nocrowd\\Phi Psi fixed scan\\0,1\H,1.2
 4706908,2.3218018492,-1.7657063217\C,1.6966356925,2.6703088285,-0.8475
 924763\H,1.7569169151,1.8387846421,-0.1521250273\H,1.0718448458,3.4373
 623283,-0.403703515\C,3.0955531243,3.1718824547,-1.1512745594\O,3.6747
 475858,2.8447906029,-2.15052587\N,3.6069127863,3.9825148627,-0.1925852
 959\H,3.0092694711,4.2146683618,0.5689132397\C,4.9330601863,4.58594995
 66,-0.0859443862\H,5.2889657568,4.366006688,0.9134474637\C,5.980937659
 9,4.0699782984,-1.0677203227\H,5.7222139415,4.2337162502,-2.1024248688
 \H,6.9233236445,4.5615782146,-0.848245445\H,6.1144132428,3.0043436608,
 -0.9431979739\C,4.7039884123,6.1028340739,-0.0647102661\O,4.240750849,
 6.608834536,0.9250364206\N,4.9906944633,6.8035897389,-1.1749674121\H,5
 .2615097914,6.3181291085,-1.9969566814\C,4.6840824992,8.2151666024,-1.
 2745127245\H,5.0616171098,8.7353342692,-0.4062426692\H,5.1618362599,8.
 6122226765,-2.1601071738\H,3.6158566825,8.3895019958,-1.3403541347\\Ve
 rsion=EM64L-G09RevA.02\State=1-A\HF=-492.8474692\RMSD=4.969e-09\RMSF=5
 .077e-04\Dipole=0.0028997,0.1755056,-0.1347813\Quadrupole=5.3236295,-0
 .633779,-4.6898505,3.0013293,-1.6348821,-10.4121221\PG=C01 [X(C6H12N2O
 2)]\\@


 WE HAVE LEFT UNDONE THOSE THINGS WHICH WE OUGHT TO HAVE DONE,
 AND WE HAVE DONE THOSE THINGS WHICH WE OUGHT NOT TO HAVE DONE.
                   BOOK OF COMMON PRAYER                      
 Job cpu time:  0 days  0 hours 27 minutes 44.5 seconds.
 File lengths (MBytes):  RWF=     25 Int=      0 D2E=      0 Chk=      3 Scr=      1
 Normal termination of Gaussian 09 at Fri Feb 10 00:28:09 2017.
