 Entering Gaussian System, Link 0=g09
 Initial command:
 /home/steboss/Software/g09/l1.exe /tmp/Gau-24832.inp -scrdir=/tmp/
 Entering Link 1 = /home/steboss/Software/g09/l1.exe PID=     24834.
  
 Copyright (c) 1988,1990,1992,1993,1995,1998,2003,2009, Gaussian, Inc.
                  All Rights Reserved.
  
 This is part of the Gaussian(R) 09 program.  It is based on
 the Gaussian(R) 03 system (copyright 2003, Gaussian, Inc.),
 the Gaussian(R) 98 system (copyright 1998, Gaussian, Inc.),
 the Gaussian(R) 94 system (copyright 1995, Gaussian, Inc.),
 the Gaussian 92(TM) system (copyright 1992, Gaussian, Inc.),
 the Gaussian 90(TM) system (copyright 1990, Gaussian, Inc.),
 the Gaussian 88(TM) system (copyright 1988, Gaussian, Inc.),
 the Gaussian 86(TM) system (copyright 1986, Carnegie Mellon
 University), and the Gaussian 82(TM) system (copyright 1983,
 Carnegie Mellon University). Gaussian is a federally registered
 trademark of Gaussian, Inc.
  
 This software contains proprietary and confidential information,
 including trade secrets, belonging to Gaussian, Inc.
  
 This software is provided under written license and may be
 used, copied, transmitted, or stored only in accord with that
 written license.
  
 The following legend is applicable only to US Government
 contracts under FAR:
  
                    RESTRICTED RIGHTS LEGEND
  
 Use, reproduction and disclosure by the US Government is
 subject to restrictions as set forth in subparagraphs (a)
 and (c) of the Commercial Computer Software - Restricted
 Rights clause in FAR 52.227-19.
  
 Gaussian, Inc.
 340 Quinnipiac St., Bldg. 40, Wallingford CT 06492
  
  
 ---------------------------------------------------------------
 Warning -- This program may not be used in any manner that
 competes with the business of Gaussian, Inc. or will provide
 assistance to any competitor of Gaussian, Inc.  The licensee
 of this program is prohibited from giving any competitor of
 Gaussian, Inc. access to this program.  By using this program,
 the user acknowledges that Gaussian, Inc. is engaged in the
 business of creating and licensing software in the field of
 computational chemistry and represents and warrants to the
 licensee that it is not a competitor of Gaussian, Inc. and that
 it will not use this program in any manner prohibited above.
 ---------------------------------------------------------------
  

 Cite this work as:
 Gaussian 09, Revision A.02,
 M. J. Frisch, G. W. Trucks, H. B. Schlegel, G. E. Scuseria, 
 M. A. Robb, J. R. Cheeseman, G. Scalmani, V. Barone, B. Mennucci, 
 G. A. Petersson, H. Nakatsuji, M. Caricato, X. Li, H. P. Hratchian, 
 A. F. Izmaylov, J. Bloino, G. Zheng, J. L. Sonnenberg, M. Hada, 
 M. Ehara, K. Toyota, R. Fukuda, J. Hasegawa, M. Ishida, T. Nakajima, 
 Y. Honda, O. Kitao, H. Nakai, T. Vreven, J. A. Montgomery, Jr., 
 J. E. Peralta, F. Ogliaro, M. Bearpark, J. J. Heyd, E. Brothers, 
 K. N. Kudin, V. N. Staroverov, R. Kobayashi, J. Normand, 
 K. Raghavachari, A. Rendell, J. C. Burant, S. S. Iyengar, J. Tomasi, 
 M. Cossi, N. Rega, J. M. Millam, M. Klene, J. E. Knox, J. B. Cross, 
 V. Bakken, C. Adamo, J. Jaramillo, R. Gomperts, R. E. Stratmann, 
 O. Yazyev, A. J. Austin, R. Cammi, C. Pomelli, J. W. Ochterski, 
 R. L. Martin, K. Morokuma, V. G. Zakrzewski, G. A. Voth, 
 P. Salvador, J. J. Dannenberg, S. Dapprich, A. D. Daniels, 
 O. Farkas, J. B. Foresman, J. V. Ortiz, J. Cioslowski, 
 and D. J. Fox, Gaussian, Inc., Wallingford CT, 2009.
 
 ******************************************
 Gaussian 09:  EM64L-G09RevA.02 11-Jun-2009
                 9-Feb-2017 
 ******************************************
 %chk=structure_30.chk
 %NProcShared=8
 Will use up to    8 processors via shared memory.
 -------------------------------------------
 # HF/6-31G* Opt=(ModRedundant) geom=nocrowd
 -------------------------------------------
 1/18=120,19=15,38=1/1,3;
 2/9=110,12=1,17=6,18=5,40=1/2;
 3/5=1,6=6,7=1,11=9,16=1,25=1,30=1,71=1/1,2,3;
 4//1;
 5/5=2,38=5/2;
 6/7=2,8=2,9=2,10=2,28=1/1;
 7//1,2,3,16;
 1/18=20,19=15/3(2);
 2/9=110,12=1/2;
 99//99;
 2/9=110,12=1/2;
 3/5=1,6=6,7=1,11=9,16=1,25=1,30=1,71=1/1,2,3;
 4/5=5,16=3/1;
 5/5=2,38=5/2;
 7//1,2,3,16;
 1/18=20,19=15/3(-5);
 2/9=110,12=1/2;
 6/7=2,8=2,9=2,10=2,19=2,28=1/1;
 99/9=1/99;
 ------------------
 Phi Psi fixed scan
 ------------------
 Symbolic Z-matrix:
 Charge =  0 Multiplicity = 1
 H                     1.5624    1.8816   -1.7047 
 C                     1.7794    2.5343   -0.8591 
 H                     1.7316    1.9596    0.0658 
 H                     1.0463    3.3401   -0.824 
 C                     3.1755    3.1484   -0.9815 
 O                     3.8914    2.883    -1.9446 
 N                     3.5554    3.9697    0. 
 H                     2.9312    4.1571    0.7716 
 C                     4.8533    4.6139    0. 
 H                     5.4076    4.3155    0.8898 
 C                     5.6613    4.2208   -1.2322 
 H                     5.1233    4.5214   -2.1312 
 H                     6.6305    4.7189   -1.2058 
 H                     5.8085    3.1409   -1.2414 
 C                     4.7127    6.1294    0. 
 O                     5.5682    6.8352   -0.5295 
 N                     3.6281    6.6291    0.5969 
 H                     2.9524    6.0081    1.0185 
 C                     3.3794    8.0551    0.6638 
 H                     4.1904    8.5895    0.169 
 H                     2.4372    8.2838    0.1658 
 H                     3.3233    8.366     1.707 
 
 The following ModRedundant input section has been read:
 D    5    7    9   15 F                                                       
 D    7    9   15   17 F                                                       

 GradGradGradGradGradGradGradGradGradGradGradGradGradGradGradGradGradGrad
 Berny optimization.
 Initialization pass.
                           ----------------------------
                           !    Initial Parameters    !
                           ! (Angstroms and Degrees)  !
 --------------------------                            --------------------------
 ! Name  Definition              Value          Derivative Info.                !
 --------------------------------------------------------------------------------
 ! R1    R(1,2)                  1.09           estimate D2E/DX2                !
 ! R2    R(2,3)                  1.09           estimate D2E/DX2                !
 ! R3    R(2,4)                  1.0899         estimate D2E/DX2                !
 ! R4    R(2,5)                  1.5301         estimate D2E/DX2                !
 ! R5    R(5,6)                  1.229          estimate D2E/DX2                !
 ! R6    R(5,7)                  1.335          estimate D2E/DX2                !
 ! R7    R(7,8)                  1.01           estimate D2E/DX2                !
 ! R8    R(7,9)                  1.449          estimate D2E/DX2                !
 ! R9    R(9,10)                 1.09           estimate D2E/DX2                !
 ! R10   R(9,11)                 1.525          estimate D2E/DX2                !
 ! R11   R(9,15)                 1.522          estimate D2E/DX2                !
 ! R12   R(11,12)                1.09           estimate D2E/DX2                !
 ! R13   R(11,13)                1.09           estimate D2E/DX2                !
 ! R14   R(11,14)                1.0899         estimate D2E/DX2                !
 ! R15   R(15,16)                1.229          estimate D2E/DX2                !
 ! R16   R(15,17)                1.335          estimate D2E/DX2                !
 ! R17   R(17,18)                1.0099         estimate D2E/DX2                !
 ! R18   R(17,19)                1.4491         estimate D2E/DX2                !
 ! R19   R(19,20)                1.09           estimate D2E/DX2                !
 ! R20   R(19,21)                1.09           estimate D2E/DX2                !
 ! R21   R(19,22)                1.09           estimate D2E/DX2                !
 ! A1    A(1,2,3)              109.5015         estimate D2E/DX2                !
 ! A2    A(1,2,4)              109.4979         estimate D2E/DX2                !
 ! A3    A(1,2,5)              111.0948         estimate D2E/DX2                !
 ! A4    A(3,2,4)              109.4502         estimate D2E/DX2                !
 ! A5    A(3,2,5)              108.6335         estimate D2E/DX2                !
 ! A6    A(4,2,5)              108.6362         estimate D2E/DX2                !
 ! A7    A(2,5,6)              120.4974         estimate D2E/DX2                !
 ! A8    A(2,5,7)              116.5994         estimate D2E/DX2                !
 ! A9    A(6,5,7)              122.9032         estimate D2E/DX2                !
 ! A10   A(5,7,8)              119.9965         estimate D2E/DX2                !
 ! A11   A(5,7,9)              121.8985         estimate D2E/DX2                !
 ! A12   A(8,7,9)              118.105          estimate D2E/DX2                !
 ! A13   A(7,9,10)             109.5            estimate D2E/DX2                !
 ! A14   A(7,9,11)             111.0992         estimate D2E/DX2                !
 ! A15   A(7,9,15)             111.0966         estimate D2E/DX2                !
 ! A16   A(10,9,11)            108.6382         estimate D2E/DX2                !
 ! A17   A(10,9,15)            108.6373         estimate D2E/DX2                !
 ! A18   A(11,9,15)            107.7947         estimate D2E/DX2                !
 ! A19   A(9,11,12)            109.5007         estimate D2E/DX2                !
 ! A20   A(9,11,13)            109.4959         estimate D2E/DX2                !
 ! A21   A(9,11,14)            109.4978         estimate D2E/DX2                !
 ! A22   A(12,11,13)           109.441          estimate D2E/DX2                !
 ! A23   A(12,11,14)           109.4482         estimate D2E/DX2                !
 ! A24   A(13,11,14)           109.4436         estimate D2E/DX2                !
 ! A25   A(9,15,16)            120.4998         estimate D2E/DX2                !
 ! A26   A(9,15,17)            116.5989         estimate D2E/DX2                !
 ! A27   A(16,15,17)           122.9013         estimate D2E/DX2                !
 ! A28   A(15,17,18)           120.0026         estimate D2E/DX2                !
 ! A29   A(15,17,19)           121.898          estimate D2E/DX2                !
 ! A30   A(18,17,19)           118.0995         estimate D2E/DX2                !
 ! A31   A(17,19,20)           109.5002         estimate D2E/DX2                !
 ! A32   A(17,19,21)           109.4963         estimate D2E/DX2                !
 ! A33   A(17,19,22)           109.4942         estimate D2E/DX2                !
 ! A34   A(20,19,21)           109.4439         estimate D2E/DX2                !
 ! A35   A(20,19,22)           109.4453         estimate D2E/DX2                !
 ! A36   A(21,19,22)           109.4473         estimate D2E/DX2                !
 ! D1    D(1,2,5,6)             -0.0016         estimate D2E/DX2                !
 ! D2    D(1,2,5,7)            179.9943         estimate D2E/DX2                !
 ! D3    D(3,2,5,6)            120.5076         estimate D2E/DX2                !
 ! D4    D(3,2,5,7)            -59.4965         estimate D2E/DX2                !
 ! D5    D(4,2,5,6)           -120.5083         estimate D2E/DX2                !
 ! D6    D(4,2,5,7)             59.4876         estimate D2E/DX2                !
 ! D7    D(2,5,7,8)              0.0085         estimate D2E/DX2                !
 ! D8    D(2,5,7,9)            179.9978         estimate D2E/DX2                !
 ! D9    D(6,5,7,8)           -179.9958         estimate D2E/DX2                !
 ! D10   D(6,5,7,9)             -0.0064         estimate D2E/DX2                !
 ! D11   D(5,7,9,10)          -119.9959         estimate D2E/DX2                !
 ! D12   D(5,7,9,11)             0.0067         estimate D2E/DX2                !
 ! D13   D(5,7,9,15)           120.0043         Frozen                          !
 ! D14   D(8,7,9,10)            59.9937         estimate D2E/DX2                !
 ! D15   D(8,7,9,11)           179.9963         estimate D2E/DX2                !
 ! D16   D(8,7,9,15)           -60.0061         estimate D2E/DX2                !
 ! D17   D(7,9,11,12)           60.0024         estimate D2E/DX2                !
 ! D18   D(7,9,11,13)          179.9986         estimate D2E/DX2                !
 ! D19   D(7,9,11,14)          -60.0038         estimate D2E/DX2                !
 ! D20   D(10,9,11,12)        -179.4843         estimate D2E/DX2                !
 ! D21   D(10,9,11,13)         -59.4881         estimate D2E/DX2                !
 ! D22   D(10,9,11,14)          60.5095         estimate D2E/DX2                !
 ! D23   D(15,9,11,12)         -61.938          estimate D2E/DX2                !
 ! D24   D(15,9,11,13)          58.0582         estimate D2E/DX2                !
 ! D25   D(15,9,11,14)         178.0558         estimate D2E/DX2                !
 ! D26   D(7,9,15,16)         -149.9979         estimate D2E/DX2                !
 ! D27   D(7,9,15,17)           30.0014         Frozen                          !
 ! D28   D(10,9,15,16)          89.491          estimate D2E/DX2                !
 ! D29   D(10,9,15,17)         -90.5096         estimate D2E/DX2                !
 ! D30   D(11,9,15,16)         -28.0559         estimate D2E/DX2                !
 ! D31   D(11,9,15,17)         151.9435         estimate D2E/DX2                !
 ! D32   D(9,15,17,18)           0.0004         estimate D2E/DX2                !
 ! D33   D(9,15,17,19)        -179.9991         estimate D2E/DX2                !
 ! D34   D(16,15,17,18)        179.9997         estimate D2E/DX2                !
 ! D35   D(16,15,17,19)          0.0002         estimate D2E/DX2                !
 ! D36   D(15,17,19,20)          0.0012         estimate D2E/DX2                !
 ! D37   D(15,17,19,21)        120.0009         estimate D2E/DX2                !
 ! D38   D(15,17,19,22)       -119.9989         estimate D2E/DX2                !
 ! D39   D(18,17,19,20)       -179.9983         estimate D2E/DX2                !
 ! D40   D(18,17,19,21)        -59.9986         estimate D2E/DX2                !
 ! D41   D(18,17,19,22)         60.0016         estimate D2E/DX2                !
 --------------------------------------------------------------------------------
 Trust Radius=3.00D-01 FncErr=1.00D-07 GrdErr=1.00D-07
 Number of steps in this run= 108 maximum allowed number of steps= 132.
 GradGradGradGradGradGradGradGradGradGradGradGradGradGradGradGradGradGrad

                          Input orientation:                          
 ---------------------------------------------------------------------
 Center     Atomic      Atomic             Coordinates (Angstroms)
 Number     Number       Type             X           Y           Z
 ---------------------------------------------------------------------
      1          1           0        1.562400    1.881600   -1.704700
      2          6           0        1.779400    2.534300   -0.859100
      3          1           0        1.731600    1.959600    0.065800
      4          1           0        1.046300    3.340100   -0.824000
      5          6           0        3.175500    3.148400   -0.981500
      6          8           0        3.891400    2.883000   -1.944600
      7          7           0        3.555400    3.969700    0.000000
      8          1           0        2.931200    4.157100    0.771600
      9          6           0        4.853300    4.613900    0.000000
     10          1           0        5.407600    4.315500    0.889800
     11          6           0        5.661300    4.220800   -1.232200
     12          1           0        5.123300    4.521400   -2.131200
     13          1           0        6.630500    4.718900   -1.205800
     14          1           0        5.808500    3.140900   -1.241400
     15          6           0        4.712700    6.129400    0.000000
     16          8           0        5.568200    6.835200   -0.529500
     17          7           0        3.628100    6.629100    0.596900
     18          1           0        2.952400    6.008100    1.018500
     19          6           0        3.379400    8.055100    0.663800
     20          1           0        4.190400    8.589500    0.169000
     21          1           0        2.437200    8.283800    0.165800
     22          1           0        3.323300    8.366000    1.707000
 ---------------------------------------------------------------------
                    Distance matrix (angstroms):
                    1          2          3          4          5
     1  H    0.000000
     2  C    1.090021   0.000000
     3  H    1.780276   1.089956   0.000000
     4  H    1.780229   1.089946   1.779652   0.000000
     5  C    2.174832   1.530097   2.143579   2.143606   0.000000
     6  O    2.546487   2.400093   3.091781   3.091808   1.229029
     7  N    3.352344   2.439795   2.714973   2.714950   1.334991
     8  H    3.630919   2.572801   2.601192   2.601207   2.037282
     9  C    4.604507   3.809416   4.098128   4.098145   2.434347
    10  H    5.238403   4.403994   4.443221   4.786382   3.137859
    11  C    4.743005   4.248839   4.715970   4.715982   2.718841
    12  H    4.453140   4.092490   4.784690   4.441415   2.645915
    13  H    5.829649   5.331590   5.764540   5.764560   3.801816
    14  H    4.453072   4.092403   4.441324   4.784606   2.645807
    15  C    5.556455   4.718797   5.126258   4.679921   3.494666
    16  O    6.478092   5.741200   6.232604   5.722765   4.418349
    17  N    5.665972   4.722819   5.067841   4.416126   3.848567
    18  H    5.135749   4.119296   4.334552   3.761150   3.496807
    19  C    6.857360   5.946298   6.342552   5.467004   5.179217
    20  H    7.443995   6.598133   7.071911   6.199001   5.653251
    21  H    6.726976   5.877063   6.364226   5.230151   5.313541
    22  H    7.535775   6.555701   6.802133   6.070450   5.871391
                    6          7          8          9         10
     6  O    0.000000
     7  N    2.252839   0.000000
     8  H    3.150088   1.010005   0.000000
     9  C    2.775380   1.448978   2.120967   0.000000
    10  H    3.519196   2.083739   2.484274   1.089970   0.000000
    11  C    2.330186   2.452791   3.387140   1.525027   2.139209
    12  H    2.058337   2.702720   3.655717   2.150225   3.041326
    13  H    3.379205   3.386959   4.232086   2.150214   2.459625
    14  H    2.058221   2.702673   3.655638   2.150165   2.466256
    15  C    3.872353   2.450234   2.767504   1.522008   2.136554
    16  O    4.520404   3.541585   3.977292   2.392828   2.896393
    17  N    4.534514   2.726533   2.574291   2.432784   2.933455
    18  H    4.407713   2.357122   1.867514   2.567987   2.984873
    19  C    5.815197   4.142716   3.925163   3.801956   4.260197
    20  H    6.092688   4.666298   4.647029   4.034029   4.502022
    21  H    5.978054   4.459744   4.200081   4.396953   5.009477
    22  H    6.612126   4.721776   4.329383   4.396931   4.628031
                   11         12         13         14         15
    11  C    0.000000
    12  H    1.089957   0.000000
    13  H    1.090023   1.779613   0.000000
    14  H    1.089925   1.779613   1.779617   0.000000
    15  C    2.461892   2.701161   2.668599   3.416575   0.000000
    16  O    2.708790   2.849044   2.462639   3.769933   1.228985
    17  N    3.644094   3.757732   3.989110   4.505666   1.335046
    18  H    3.949460   4.104107   4.487535   4.635223   2.037330
    19  C    4.848066   4.831175   5.019491   5.803419   2.434469
    20  H    4.817930   4.765570   4.777626   5.856169   2.520605
    21  H    5.371889   5.162073   5.672174   6.308351   3.137966
    22  H    5.593552   5.723000   5.720430   6.493917   3.137939
                   16         17         18         19         20
    16  O    0.000000
    17  N    2.252830   0.000000
    18  H    3.150049   1.009930   0.000000
    19  C    2.775422   1.449070   2.120931   0.000000
    20  H    2.337478   2.083854   2.986289   1.090014   0.000000
    21  H    3.519239   2.083776   2.484218   1.089976   1.779655
    22  H    3.519213   2.083758   2.484208   1.089987   1.779679
                   21         22
    21  H    0.000000
    22  H    1.779671   0.000000
 Stoichiometry    C6H12N2O2
 Framework group  C1[X(C6H12N2O2)]
 Deg. of freedom    60
 Full point group                 C1      NOp   1
 Largest Abelian subgroup         C1      NOp   1
 Largest concise Abelian subgroup C1      NOp   1
                         Standard orientation:                         
 ---------------------------------------------------------------------
 Center     Atomic      Atomic             Coordinates (Angstroms)
 Number     Number       Type             X           Y           Z
 ---------------------------------------------------------------------
      1          1           0        3.779537   -1.381857   -0.722196
      2          6           0        2.869721   -1.566845   -0.151091
      3          1           0        3.131611   -1.863748    0.864422
      4          1           0        2.297725   -2.363803   -0.626128
      5          6           0        1.996993   -0.311848   -0.083829
      6          8           0        2.355645    0.727454   -0.633129
      7          7           0        0.850735   -0.416435    0.592450
      8          1           0        0.599114   -1.292651    1.027241
      9          6           0       -0.062453    0.700274    0.728782
     10          1           0       -0.192835    0.936836    1.784752
     11          6           0        0.472325    1.937103    0.014655
     12          1           0        0.599440    1.718605   -1.045583
     13          1           0       -0.233261    2.759391    0.133567
     14          1           0        1.433351    2.218568    0.444938
     15          6           0       -1.423493    0.370926    0.132454
     16          8           0       -2.124548    1.257928   -0.349370
     17          7           0       -1.796515   -0.910512    0.165903
     18          1           0       -1.185307   -1.603942    0.572765
     19          6           0       -3.068678   -1.351896   -0.369433
     20          1           0       -3.611387   -0.495869   -0.770451
     21          1           0       -2.896750   -2.077380   -1.164519
     22          1           0       -3.656040   -1.814866    0.423496
 ---------------------------------------------------------------------
 Rotational constants (GHZ):      2.2516590      0.8367786      0.6610534
 Standard basis: 6-31G(d) (6D, 7F)
 There are   174 symmetry adapted basis functions of A   symmetry.
 Integral buffers will be    131072 words long.
 Raffenetti 1 integral format.
 Two-electron integral symmetry is turned on.
   174 basis functions,   328 primitive gaussians,   174 cartesian basis functions
    39 alpha electrons       39 beta electrons
       nuclear repulsion energy       564.8834227716 Hartrees.
 NAtoms=   22 NActive=   22 NUniq=   22 SFac= 7.50D-01 NAtFMM=   80 NAOKFM=F Big=F
 One-electron integrals computed using PRISM.
 NBasis=   174 RedAO= T  NBF=   174
 NBsUse=   174 1.00D-06 NBFU=   174
 Harris functional with IExCor=  205 diagonalized for initial guess.
 ExpMin= 1.61D-01 ExpMax= 5.48D+03 ExpMxC= 8.25D+02 IAcc=1 IRadAn=         1 AccDes= 0.00D+00
 HarFok:  IExCor=  205 AccDes= 0.00D+00 IRadAn=         1 IDoV= 1
 ScaDFX=  1.000000  1.000000  1.000000  1.000000
 FoFCou: FMM=F IPFlag=           0 FMFlag=      100000 FMFlg1=           0
         NFxFlg=           0 DoJE=T BraDBF=F KetDBF=T FulRan=T
         Omega=  0.000000  0.000000  1.000000  0.000000  0.000000 ICntrl=     500 IOpCl=  0
         NMat0=    1 NMatS0=    1 NMatT0=    0 NMatD0=    1 NMtDS0=    0 NMtDT0=    0
         I1Cent=           4 NGrid=           0.
 Petite list used in FoFCou.
 Initial guess orbital symmetries:
       Occupied  (A) (A) (A) (A) (A) (A) (A) (A) (A) (A) (A) (A)
                 (A) (A) (A) (A) (A) (A) (A) (A) (A) (A) (A) (A)
                 (A) (A) (A) (A) (A) (A) (A) (A) (A) (A) (A) (A)
                 (A) (A) (A)
       Virtual   (A) (A) (A) (A) (A) (A) (A) (A) (A) (A) (A) (A)
                 (A) (A) (A) (A) (A) (A) (A) (A) (A) (A) (A) (A)
                 (A) (A) (A) (A) (A) (A) (A) (A) (A) (A) (A) (A)
                 (A) (A) (A) (A) (A) (A) (A) (A) (A) (A) (A) (A)
                 (A) (A) (A) (A) (A) (A) (A) (A) (A) (A) (A) (A)
                 (A) (A) (A) (A) (A) (A) (A) (A) (A) (A) (A) (A)
                 (A) (A) (A) (A) (A) (A) (A) (A) (A) (A) (A) (A)
                 (A) (A) (A) (A) (A) (A) (A) (A) (A) (A) (A) (A)
                 (A) (A) (A) (A) (A) (A) (A) (A) (A) (A) (A) (A)
                 (A) (A) (A) (A) (A) (A) (A) (A) (A) (A) (A) (A)
                 (A) (A) (A) (A) (A) (A) (A) (A) (A) (A) (A) (A)
                 (A) (A) (A)
 The electronic state of the initial guess is 1-A.
 Requested convergence on RMS density matrix=1.00D-08 within 128 cycles.
 Requested convergence on MAX density matrix=1.00D-06.
 Requested convergence on             energy=1.00D-06.
 No special actions if energy rises.
 Integral accuracy reduced to 1.0D-05 until final iterations.
 Initial convergence to 1.0D-05 achieved.  Increase integral accuracy.
 SCF Done:  E(RHF) =  -492.809988572     A.U. after   15 cycles
             Convg  =    0.5578D-08             -V/T =  2.0016

 **********************************************************************

            Population analysis using the SCF density.

 **********************************************************************

 Orbital symmetries:
       Occupied  (A) (A) (A) (A) (A) (A) (A) (A) (A) (A) (A) (A)
                 (A) (A) (A) (A) (A) (A) (A) (A) (A) (A) (A) (A)
                 (A) (A) (A) (A) (A) (A) (A) (A) (A) (A) (A) (A)
                 (A) (A) (A)
       Virtual   (A) (A) (A) (A) (A) (A) (A) (A) (A) (A) (A) (A)
                 (A) (A) (A) (A) (A) (A) (A) (A) (A) (A) (A) (A)
                 (A) (A) (A) (A) (A) (A) (A) (A) (A) (A) (A) (A)
                 (A) (A) (A) (A) (A) (A) (A) (A) (A) (A) (A) (A)
                 (A) (A) (A) (A) (A) (A) (A) (A) (A) (A) (A) (A)
                 (A) (A) (A) (A) (A) (A) (A) (A) (A) (A) (A) (A)
                 (A) (A) (A) (A) (A) (A) (A) (A) (A) (A) (A) (A)
                 (A) (A) (A) (A) (A) (A) (A) (A) (A) (A) (A) (A)
                 (A) (A) (A) (A) (A) (A) (A) (A) (A) (A) (A) (A)
                 (A) (A) (A) (A) (A) (A) (A) (A) (A) (A) (A) (A)
                 (A) (A) (A) (A) (A) (A) (A) (A) (A) (A) (A) (A)
                 (A) (A) (A)
 The electronic state is 1-A.
 Alpha  occ. eigenvalues --  -20.51727 -20.51485 -15.60739 -15.59971 -11.35916
 Alpha  occ. eigenvalues --  -11.34668 -11.28196 -11.26503 -11.24431 -11.19097
 Alpha  occ. eigenvalues --   -1.38576  -1.37385  -1.25943  -1.23305  -1.05736
 Alpha  occ. eigenvalues --   -0.98923  -0.96442  -0.87372  -0.81727  -0.77717
 Alpha  occ. eigenvalues --   -0.74021  -0.70198  -0.65911  -0.64335  -0.62559
 Alpha  occ. eigenvalues --   -0.61929  -0.59579  -0.57992  -0.56872  -0.55592
 Alpha  occ. eigenvalues --   -0.53448  -0.52615  -0.52276  -0.50928  -0.49899
 Alpha  occ. eigenvalues --   -0.43368  -0.39463  -0.39176  -0.38097
 Alpha virt. eigenvalues --    0.17048   0.19295   0.19883   0.24567   0.25899
 Alpha virt. eigenvalues --    0.27486   0.29146   0.31328   0.31385   0.32086
 Alpha virt. eigenvalues --    0.32427   0.32756   0.34837   0.36236   0.37047
 Alpha virt. eigenvalues --    0.38326   0.41787   0.43671   0.48588   0.50424
 Alpha virt. eigenvalues --    0.54436   0.58313   0.63619   0.70807   0.71839
 Alpha virt. eigenvalues --    0.73586   0.75167   0.75878   0.76808   0.80392
 Alpha virt. eigenvalues --    0.81358   0.82399   0.85837   0.88221   0.89310
 Alpha virt. eigenvalues --    0.92294   0.94088   0.95434   0.96743   0.99036
 Alpha virt. eigenvalues --    1.00539   1.03137   1.03767   1.05197   1.09162
 Alpha virt. eigenvalues --    1.12693   1.13175   1.13825   1.14217   1.15473
 Alpha virt. eigenvalues --    1.16099   1.17062   1.17557   1.19884   1.20142
 Alpha virt. eigenvalues --    1.21218   1.21935   1.23803   1.24723   1.27869
 Alpha virt. eigenvalues --    1.29286   1.33000   1.38090   1.40319   1.43553
 Alpha virt. eigenvalues --    1.51875   1.53986   1.55540   1.61052   1.62819
 Alpha virt. eigenvalues --    1.65120   1.66097   1.68839   1.73804   1.74713
 Alpha virt. eigenvalues --    1.79632   1.82584   1.85802   1.91767   1.98216
 Alpha virt. eigenvalues --    2.03567   2.06634   2.11270   2.12736   2.13428
 Alpha virt. eigenvalues --    2.14605   2.15832   2.17718   2.19950   2.21137
 Alpha virt. eigenvalues --    2.25449   2.28757   2.31214   2.33239   2.34676
 Alpha virt. eigenvalues --    2.40574   2.40737   2.44293   2.47012   2.50923
 Alpha virt. eigenvalues --    2.52319   2.58273   2.59811   2.63153   2.64503
 Alpha virt. eigenvalues --    2.65656   2.69159   2.71824   2.75366   2.77413
 Alpha virt. eigenvalues --    2.78586   2.80763   2.87177   2.90641   2.98655
 Alpha virt. eigenvalues --    3.01151   3.03761   3.05600   3.11371   3.22886
 Alpha virt. eigenvalues --    3.31075   3.35310   3.42330   3.52577   3.59209
 Alpha virt. eigenvalues --    4.36221   4.44690   4.51211   4.53850   4.63985
 Alpha virt. eigenvalues --    4.66346   4.69151   4.85025   4.90031   5.10450
          Condensed to atoms (all electrons):
              1          2          3          4          5          6
     1  H    0.447126   0.385358  -0.017897  -0.017889  -0.029392   0.003763
     2  C    0.385358   5.255010   0.373651   0.373351   0.374872  -0.064097
     3  H   -0.017897   0.373651   0.517454  -0.024821  -0.036514   0.001099
     4  H   -0.017889   0.373351  -0.024821   0.520807  -0.036666   0.001108
     5  C   -0.029392   0.374872  -0.036514  -0.036666   4.197987   0.588182
     6  O    0.003763  -0.064097   0.001099   0.001108   0.588182   8.285688
     7  N    0.003855  -0.124173   0.004330   0.004408   0.237978  -0.100575
     8  H   -0.000024   0.000454   0.000502   0.000369  -0.017982   0.002368
     9  C   -0.000039   0.001919  -0.000039  -0.000097  -0.023787   0.000907
    10  H    0.000001  -0.000105   0.000011   0.000002   0.000780  -0.000121
    11  C    0.000004  -0.000174   0.000010   0.000016  -0.004402  -0.068536
    12  H    0.000010  -0.000233   0.000005   0.000002   0.000237  -0.017347
    13  H    0.000000   0.000022  -0.000001  -0.000001   0.000277   0.003820
    14  H    0.000010  -0.000230   0.000004   0.000004  -0.001450  -0.017493
    15  C    0.000000  -0.000100   0.000001   0.000023  -0.001015  -0.000509
    16  O    0.000000   0.000000   0.000000   0.000000  -0.000011   0.000000
    17  N    0.000000  -0.000053   0.000001   0.000019   0.000870  -0.000007
    18  H   -0.000001   0.000009  -0.000009   0.000032   0.000261  -0.000007
    19  C    0.000000   0.000000   0.000000  -0.000001  -0.000013   0.000000
    20  H    0.000000   0.000000   0.000000   0.000000   0.000000   0.000000
    21  H    0.000000   0.000000   0.000000   0.000000  -0.000002   0.000000
    22  H    0.000000   0.000000   0.000000   0.000000   0.000000   0.000000
              7          8          9         10         11         12
     1  H    0.003855  -0.000024  -0.000039   0.000001   0.000004   0.000010
     2  C   -0.124173   0.000454   0.001919  -0.000105  -0.000174  -0.000233
     3  H    0.004330   0.000502  -0.000039   0.000011   0.000010   0.000005
     4  H    0.004408   0.000369  -0.000097   0.000002   0.000016   0.000002
     5  C    0.237978  -0.017982  -0.023787   0.000780  -0.004402   0.000237
     6  O   -0.100575   0.002368   0.000907  -0.000121  -0.068536  -0.017347
     7  N    7.487000   0.318934   0.130983  -0.048121  -0.043391  -0.001153
     8  H    0.318934   0.334843  -0.022479  -0.001039   0.003043  -0.000162
     9  C    0.130983  -0.022479   5.124903   0.407061   0.351163  -0.037386
    10  H   -0.048121  -0.001039   0.407061   0.507603  -0.030642   0.003804
    11  C   -0.043391   0.003043   0.351163  -0.030642   5.122318   0.410162
    12  H   -0.001153  -0.000162  -0.037386   0.003804   0.410162   0.489202
    13  H    0.003819  -0.000064  -0.024489  -0.002313   0.372758  -0.024378
    14  H   -0.001257  -0.000201  -0.040605  -0.002568   0.405636  -0.019099
    15  C   -0.053912  -0.001997   0.368493  -0.041327  -0.056125  -0.004292
    16  O    0.002197  -0.000020  -0.079078   0.001257  -0.002498   0.000427
    17  N   -0.006591   0.000767  -0.114474  -0.000161   0.002376   0.000033
    18  H    0.005232   0.004735  -0.001199   0.000530   0.000095  -0.000012
    19  C   -0.000269  -0.000052   0.004177  -0.000177  -0.000108  -0.000012
    20  H   -0.000051   0.000000   0.000642  -0.000022  -0.000015  -0.000003
    21  H    0.000017   0.000015  -0.000017  -0.000002   0.000009  -0.000001
    22  H   -0.000001  -0.000005  -0.000134   0.000018  -0.000003   0.000000
             13         14         15         16         17         18
     1  H    0.000000   0.000010   0.000000   0.000000   0.000000  -0.000001
     2  C    0.000022  -0.000230  -0.000100   0.000000  -0.000053   0.000009
     3  H   -0.000001   0.000004   0.000001   0.000000   0.000001  -0.000009
     4  H   -0.000001   0.000004   0.000023   0.000000   0.000019   0.000032
     5  C    0.000277  -0.001450  -0.001015  -0.000011   0.000870   0.000261
     6  O    0.003820  -0.017493  -0.000509   0.000000  -0.000007  -0.000007
     7  N    0.003819  -0.001257  -0.053912   0.002197  -0.006591   0.005232
     8  H   -0.000064  -0.000201  -0.001997  -0.000020   0.000767   0.004735
     9  C   -0.024489  -0.040605   0.368493  -0.079078  -0.114474  -0.001199
    10  H   -0.002313  -0.002568  -0.041327   0.001257  -0.000161   0.000530
    11  C    0.372758   0.405636  -0.056125  -0.002498   0.002376   0.000095
    12  H   -0.024378  -0.019099  -0.004292   0.000427   0.000033  -0.000012
    13  H    0.517707  -0.029493  -0.007881   0.004809   0.000258  -0.000012
    14  H   -0.029493   0.509546   0.006015   0.000444  -0.000046  -0.000006
    15  C   -0.007881   0.006015   4.149938   0.591648   0.298099  -0.022920
    16  O    0.004809   0.000444   0.591648   8.204865  -0.095482   0.002526
    17  N    0.000258  -0.000046   0.298099  -0.095482   7.332709   0.321665
    18  H   -0.000012  -0.000006  -0.022920   0.002526   0.321665   0.342666
    19  C   -0.000003   0.000002  -0.025219  -0.004960   0.185190  -0.023154
    20  H   -0.000002   0.000000  -0.002260   0.011114  -0.031429   0.002342
    21  H    0.000000   0.000000   0.000822   0.000357  -0.048365  -0.000667
    22  H    0.000000   0.000000   0.000929   0.000365  -0.047640  -0.001364
             19         20         21         22
     1  H    0.000000   0.000000   0.000000   0.000000
     2  C    0.000000   0.000000   0.000000   0.000000
     3  H    0.000000   0.000000   0.000000   0.000000
     4  H   -0.000001   0.000000   0.000000   0.000000
     5  C   -0.000013   0.000000  -0.000002   0.000000
     6  O    0.000000   0.000000   0.000000   0.000000
     7  N   -0.000269  -0.000051   0.000017  -0.000001
     8  H   -0.000052   0.000000   0.000015  -0.000005
     9  C    0.004177   0.000642  -0.000017  -0.000134
    10  H   -0.000177  -0.000022  -0.000002   0.000018
    11  C   -0.000108  -0.000015   0.000009  -0.000003
    12  H   -0.000012  -0.000003  -0.000001   0.000000
    13  H   -0.000003  -0.000002   0.000000   0.000000
    14  H    0.000002   0.000000   0.000000   0.000000
    15  C   -0.025219  -0.002260   0.000822   0.000929
    16  O   -0.004960   0.011114   0.000357   0.000365
    17  N    0.185190  -0.031429  -0.048365  -0.047640
    18  H   -0.023154   0.002342  -0.000667  -0.001364
    19  C    4.953897   0.396409   0.402984   0.402298
    20  H    0.396409   0.425542  -0.022324  -0.021973
    21  H    0.402984  -0.022324   0.533882  -0.036968
    22  H    0.402298  -0.021973  -0.036968   0.535936
 Mulliken atomic charges:
              1
     1  H    0.225114
     2  C   -0.575481
     3  H    0.182212
     4  H    0.179333
     5  C    0.749789
     6  O   -0.618246
     7  N   -0.819259
     8  H    0.377995
     9  C   -0.046426
    10  H    0.205529
    11  C   -0.461697
    12  H    0.200194
    13  H    0.185168
    14  H    0.190786
    15  C    0.801589
    16  O   -0.637961
    17  N   -0.797739
    18  H    0.369256
    19  C   -0.290988
    20  H    0.242031
    21  H    0.170260
    22  H    0.168541
 Sum of Mulliken atomic charges =   0.00000
 Mulliken charges with hydrogens summed into heavy atoms:
              1
     2  C    0.011178
     5  C    0.749789
     6  O   -0.618246
     7  N   -0.441264
     9  C    0.159103
    11  C    0.114452
    15  C    0.801589
    16  O   -0.637961
    17  N   -0.428483
    19  C    0.289844
 Sum of Mulliken charges with hydrogens summed into heavy atoms =   0.00000
 Electronic spatial extent (au):  <R**2>=           1768.5641
 Charge=              0.0000 electrons
 Dipole moment (field-independent basis, Debye):
    X=              0.0252    Y=             -6.2990    Z=              3.0111  Tot=              6.9818
 Quadrupole moment (field-independent basis, Debye-Ang):
   XX=            -66.1726   YY=            -59.4498   ZZ=            -59.7190
   XY=              1.5129   XZ=              1.7687   YZ=              1.5535
 Traceless Quadrupole moment (field-independent basis, Debye-Ang):
   XX=             -4.3921   YY=              2.3307   ZZ=              2.0614
   XY=              1.5129   XZ=              1.7687   YZ=              1.5535
 Octapole moment (field-independent basis, Debye-Ang**2):
  XXX=             -8.5413  YYY=            -11.9860  ZZZ=              0.8828  XYY=              3.9109
  XXY=            -36.0477  XXZ=              6.3318  XZZ=             -2.1947  YZZ=             -2.2014
  YYZ=              5.2888  XYZ=              0.1618
 Hexadecapole moment (field-independent basis, Debye-Ang**3):
 XXXX=          -1509.2730 YYYY=           -595.1261 ZZZZ=           -144.3678 XXXY=              3.6028
 XXXZ=             18.0345 YYYX=             15.6997 YYYZ=             -5.0408 ZZZX=              0.0645
 ZZZY=             -4.0965 XXYY=           -366.8678 XXZZ=           -282.5794 YYZZ=           -119.1474
 XXYZ=             16.2731 YYXZ=             -2.4505 ZZXY=             -2.1004
 N-N= 5.648834227716D+02 E-N=-2.285128782344D+03  KE= 4.920242520711D+02
 Calling FoFJK, ICntrl=      2127 FMM=F ISym2X=0 I1Cent= 0 IOpClX= 0 NMat=1 NMatS=1 NMatT=0.
 ***** Axes restored to original set *****
 -------------------------------------------------------------------
 Center     Atomic                   Forces (Hartrees/Bohr)
 Number     Number              X              Y              Z
 -------------------------------------------------------------------
      1        1           0.005527569    0.006178394    0.005193974
      2        6           0.006490083    0.005779102    0.004497772
      3        1          -0.004130054    0.001711328   -0.002473845
      4        1          -0.000994983   -0.004665190    0.001605870
      5        6           0.004746916   -0.034596206   -0.057536709
      6        8          -0.064757673   -0.012121710    0.031159058
      7        7          -0.003157299    0.007390231    0.020358083
      8        1           0.008312838   -0.012450845   -0.013370547
      9        6           0.010085131    0.004304105   -0.005044844
     10        1          -0.002913779    0.003111507    0.000436080
     11        6           0.026953459    0.003490884   -0.003216223
     12        1           0.016174569   -0.000829262    0.008334874
     13        1          -0.006330974    0.000290915    0.004555674
     14        1           0.005977566    0.014585704   -0.002082391
     15        6           0.037176598    0.023116746   -0.021662305
     16        8          -0.031471470   -0.022982575    0.023273334
     17        7          -0.013282692    0.001544721    0.010406486
     18        1           0.012256448    0.016080042   -0.008665889
     19        6          -0.003110388    0.003267887    0.002004245
     20        1          -0.006722865   -0.007010745    0.004244753
     21        1           0.003710180    0.002012663    0.002679225
     22        1          -0.000539180    0.001792303   -0.004696675
 -------------------------------------------------------------------
 Cartesian Forces:  Max     0.064757673 RMS     0.016481858

 GradGradGradGradGradGradGradGradGradGradGradGradGradGradGradGradGradGrad
 Berny optimization.
 Internal  Forces:  Max     0.145365060 RMS     0.026136690
 Search for a local minimum.
 Step number   1 out of a maximum of  108
 All quantities printed in internal units (Hartrees-Bohrs-Radians)
 Mixed Optimization -- RFO/linear search
 Second derivative matrix not updated -- first step.
     Eigenvalues ---    0.00368   0.00435   0.00999   0.01043   0.01269
     Eigenvalues ---    0.01422   0.01659   0.02551   0.02552   0.03503
     Eigenvalues ---    0.05232   0.05841   0.05844   0.05844   0.07165
     Eigenvalues ---    0.07463   0.07685   0.07686   0.15421   0.16000
     Eigenvalues ---    0.16000   0.16000   0.16000   0.16000   0.16000
     Eigenvalues ---    0.16000   0.16000   0.16000   0.16000   0.16000
     Eigenvalues ---    0.16180   0.22000   0.22000   0.25000   0.25000
     Eigenvalues ---    0.25000   0.25000   0.29414   0.29887   0.30174
     Eigenvalues ---    0.34810   0.34810   0.34811   0.34814   0.34815
     Eigenvalues ---    0.34816   0.34818   0.34818   0.34819   0.34821
     Eigenvalues ---    0.38367   0.38379   0.45972   0.45984   0.58330
     Eigenvalues ---    0.58342   0.91492   0.915111000.000001000.00000
     Eigenvalues --- 1000.000001000.000001000.000001000.000001000.00000
     Eigenvalues --- 1000.000001000.000001000.000001000.000001000.00000
     Eigenvalues --- 1000.000001000.000001000.000001000.000001000.00000
     Eigenvalues --- 1000.000001000.000001000.000001000.000001000.00000
     Eigenvalues --- 1000.000001000.000001000.000001000.000001000.00000
     Eigenvalues --- 1000.000001000.000001000.000001000.000001000.00000
     Eigenvalues --- 1000.000001000.000001000.000001000.000001000.00000
     Eigenvalues --- 1000.000001000.000001000.00000
 RFO step:  Lambda=-1.59920489D-01 EMin= 3.67826363D-03
 Linear search not attempted -- first point.
 Maximum step size (   0.300) exceeded in Quadratic search.
    -- Step size scaled by   0.456
 Iteration  1 RMS(Cart)=  0.17994715 RMS(Int)=  0.00838386
 Iteration  2 RMS(Cart)=  0.01642975 RMS(Int)=  0.00017583
 Iteration  3 RMS(Cart)=  0.00016467 RMS(Int)=  0.00016567
 Iteration  4 RMS(Cart)=  0.00000003 RMS(Int)=  0.00016567
 Iteration  1 RMS(Cart)=  0.00002098 RMS(Int)=  0.00000859
 Iteration  2 RMS(Cart)=  0.00001416 RMS(Int)=  0.00000949
 Iteration  3 RMS(Cart)=  0.00000956 RMS(Int)=  0.00001092
 Iteration  4 RMS(Cart)=  0.00000646 RMS(Int)=  0.00001214
 Iteration  5 RMS(Cart)=  0.00000436 RMS(Int)=  0.00001305
 Iteration  6 RMS(Cart)=  0.00000294 RMS(Int)=  0.00001369
 Iteration  7 RMS(Cart)=  0.00000199 RMS(Int)=  0.00001413
 Iteration  8 RMS(Cart)=  0.00000134 RMS(Int)=  0.00001444
 Iteration  9 RMS(Cart)=  0.00000091 RMS(Int)=  0.00001464
 Variable       Old X    -DE/DX   Delta X   Delta X   Delta X     New X
                                 (Linear)    (Quad)   (Total)
    R1        2.05984  -0.00883   0.00000  -0.00792  -0.00792   2.05192
    R2        2.05972  -0.00282   0.00000  -0.00253  -0.00253   2.05719
    R3        2.05970  -0.00273   0.00000  -0.00245  -0.00245   2.05725
    R4        2.89146  -0.00920   0.00000  -0.00924  -0.00924   2.88223
    R5        2.32253  -0.05952   0.00000  -0.02525  -0.02525   2.29728
    R6        2.52277   0.05122   0.00000   0.03142   0.03142   2.55419
    R7        1.90863  -0.01766   0.00000  -0.01300  -0.01300   1.89564
    R8        2.73817   0.06198   0.00000   0.05198   0.05198   2.79015
    R9        2.05975  -0.00198   0.00000  -0.00177  -0.00177   2.05797
   R10        2.88188   0.01201   0.00000   0.01193   0.01193   2.89382
   R11        2.87618   0.01793   0.00000   0.01771   0.01771   2.89389
   R12        2.05972  -0.01509   0.00000  -0.01354  -0.01354   2.04618
   R13        2.05984  -0.00539   0.00000  -0.00483  -0.00483   2.05501
   R14        2.05966  -0.01363   0.00000  -0.01223  -0.01223   2.04743
   R15        2.32245  -0.04513   0.00000  -0.01914  -0.01914   2.30330
   R16        2.52287   0.01554   0.00000   0.00953   0.00953   2.53240
   R17        1.90849  -0.02171   0.00000  -0.01597  -0.01597   1.89252
   R18        2.73835   0.00140   0.00000   0.00117   0.00117   2.73952
   R19        2.05983  -0.01037   0.00000  -0.00930  -0.00930   2.05053
   R20        2.05976  -0.00401   0.00000  -0.00360  -0.00360   2.05616
   R21        2.05978  -0.00396   0.00000  -0.00355  -0.00355   2.05623
    A1        1.91116   0.00040   0.00000   0.00036   0.00038   1.91154
    A2        1.91110   0.00033   0.00000   0.00021   0.00024   1.91134
    A3        1.93897  -0.00831   0.00000  -0.01208  -0.01206   1.92691
    A4        1.91027  -0.00471   0.00000  -0.00622  -0.00627   1.90400
    A5        1.89601   0.00619   0.00000   0.00895   0.00894   1.90495
    A6        1.89606   0.00614   0.00000   0.00886   0.00885   1.90491
    A7        2.10308  -0.02705   0.00000  -0.03009  -0.03009   2.07299
    A8        2.03504  -0.04358   0.00000  -0.04847  -0.04847   1.98657
    A9        2.14506   0.07063   0.00000   0.07856   0.07856   2.22363
   A10        2.09433  -0.07962   0.00000  -0.09712  -0.09712   1.99722
   A11        2.12753   0.14537   0.00000   0.17446   0.17446   2.30199
   A12        2.06132  -0.06575   0.00000  -0.07735  -0.07735   1.98397
   A13        1.91114  -0.02215   0.00000  -0.01969  -0.01959   1.89155
   A14        1.93905   0.07449   0.00000   0.09377   0.09407   2.03312
   A15        1.93900  -0.01905   0.00000  -0.01803  -0.01764   1.92136
   A16        1.89609  -0.01750   0.00000  -0.02869  -0.02900   1.86709
   A17        1.89608   0.01071   0.00000   0.00617   0.00519   1.90126
   A18        1.88137  -0.02757   0.00000  -0.03550  -0.03580   1.84557
   A19        1.91115   0.01218   0.00000   0.01830   0.01819   1.92934
   A20        1.91106  -0.01381   0.00000  -0.02161  -0.02153   1.88954
   A21        1.91110   0.00972   0.00000   0.01484   0.01471   1.92581
   A22        1.91011  -0.00290   0.00000  -0.00610  -0.00600   1.90410
   A23        1.91023  -0.00370   0.00000  -0.00141  -0.00172   1.90851
   A24        1.91015  -0.00150   0.00000  -0.00402  -0.00395   1.90620
   A25        2.10312  -0.00410   0.00000  -0.00456  -0.00472   2.09840
   A26        2.03504   0.01610   0.00000   0.01790   0.01775   2.05278
   A27        2.14503  -0.01200   0.00000  -0.01334  -0.01350   2.13154
   A28        2.09444   0.00091   0.00000   0.00184   0.00184   2.09628
   A29        2.12752   0.00488   0.00000   0.00586   0.00586   2.13338
   A30        2.06122  -0.00579   0.00000  -0.00771  -0.00771   2.05352
   A31        1.91114  -0.00501   0.00000  -0.00742  -0.00741   1.90373
   A32        1.91107   0.00437   0.00000   0.00636   0.00635   1.91742
   A33        1.91103   0.00466   0.00000   0.00679   0.00678   1.91781
   A34        1.91016  -0.00040   0.00000  -0.00087  -0.00086   1.90930
   A35        1.91018  -0.00049   0.00000  -0.00097  -0.00096   1.90923
   A36        1.91022  -0.00312   0.00000  -0.00389  -0.00392   1.90630
    D1       -0.00003  -0.00006   0.00000  -0.00013  -0.00013  -0.00016
    D2        3.14149  -0.00001   0.00000   0.00000  -0.00001   3.14149
    D3        2.10326  -0.00070   0.00000  -0.00138  -0.00141   2.10185
    D4       -1.03841  -0.00065   0.00000  -0.00125  -0.00128  -1.03969
    D5       -2.10327   0.00070   0.00000   0.00135   0.00138  -2.10189
    D6        1.03825   0.00075   0.00000   0.00148   0.00150   1.03976
    D7        0.00015   0.00103   0.00000   0.00060   0.00057   0.00072
    D8        3.14155  -0.00109   0.00000  -0.00078  -0.00075   3.14080
    D9       -3.14152   0.00107   0.00000   0.00072   0.00070  -3.14082
   D10       -0.00011  -0.00105   0.00000  -0.00065  -0.00062  -0.00073
   D11       -2.09432  -0.00866   0.00000  -0.01651  -0.01660  -2.11092
   D12        0.00012   0.00223   0.00000  -0.00577  -0.00585  -0.00573
   D13        2.09447   0.00445   0.00000   0.00000   0.00000   2.09447
   D14        1.04709  -0.01075   0.00000  -0.01786  -0.01791   1.02917
   D15        3.14153   0.00014   0.00000  -0.00712  -0.00716   3.13437
   D16       -1.04730   0.00236   0.00000  -0.00135  -0.00131  -1.04862
   D17        1.04724   0.00372   0.00000   0.00904   0.00908   1.05632
   D18        3.14157  -0.00084   0.00000  -0.00047  -0.00055   3.14102
   D19       -1.04726  -0.00519   0.00000  -0.00956  -0.00973  -1.05699
   D20       -3.13259   0.01109   0.00000   0.02415   0.02389  -3.10870
   D21       -1.03826   0.00653   0.00000   0.01464   0.01427  -1.02400
   D22        1.05609   0.00218   0.00000   0.00555   0.00509   1.06118
   D23       -1.08102  -0.00075   0.00000  -0.00343  -0.00289  -1.08391
   D24        1.01331  -0.00530   0.00000  -0.01294  -0.01252   1.00079
   D25        3.10766  -0.00965   0.00000  -0.02202  -0.02169   3.08597
   D26       -2.61796  -0.03325   0.00000  -0.03213  -0.03216  -2.65012
   D27        0.52362  -0.03081   0.00000   0.00000   0.00000   0.52363
   D28        1.56191  -0.00097   0.00000  -0.00060  -0.00069   1.56122
   D29       -1.57969   0.00147   0.00000   0.03153   0.03147  -1.54822
   D30       -0.48967   0.02910   0.00000   0.04952   0.04949  -0.44018
   D31        2.65191   0.03154   0.00000   0.08165   0.08165   2.73357
   D32        0.00001  -0.00172   0.00000  -0.01763  -0.01755  -0.01754
   D33       -3.14158  -0.00161   0.00000  -0.01737  -0.01729   3.12432
   D34        3.14159   0.00079   0.00000   0.01534   0.01526  -3.12633
   D35        0.00000   0.00089   0.00000   0.01561   0.01553   0.01553
   D36        0.00002  -0.00002   0.00000  -0.00007  -0.00007  -0.00004
   D37        2.09441  -0.00091   0.00000  -0.00178  -0.00180   2.09261
   D38       -2.09438   0.00080   0.00000   0.00151   0.00153  -2.09285
   D39       -3.14156   0.00008   0.00000   0.00019   0.00019  -3.14137
   D40       -1.04717  -0.00081   0.00000  -0.00152  -0.00154  -1.04871
   D41        1.04722   0.00090   0.00000   0.00177   0.00178   1.04901
         Item               Value     Threshold  Converged?
 Maximum Force            0.145365     0.000450     NO 
 RMS     Force            0.025935     0.000300     NO 
 Maximum Displacement     0.646173     0.001800     NO 
 RMS     Displacement     0.187835     0.001200     NO 
 Predicted change in Energy=-6.348618D-02
 GradGradGradGradGradGradGradGradGradGradGradGradGradGradGradGradGradGrad

                          Input orientation:                          
 ---------------------------------------------------------------------
 Center     Atomic      Atomic             Coordinates (Angstroms)
 Number     Number       Type             X           Y           Z
 ---------------------------------------------------------------------
      1          1           0        1.284641    1.946415   -1.514052
      2          6           0        1.656304    2.608541   -0.737858
      3          1           0        1.668759    2.081576    0.214633
      4          1           0        1.003394    3.475858   -0.656433
      5          6           0        3.069759    3.075911   -1.069479
      6          8           0        3.590287    2.683279   -2.095509
      7          7           0        3.600945    3.906818   -0.145193
      8          1           0        2.997518    4.103331    0.631675
      9          6           0        4.911426    4.582084   -0.063597
     10          1           0        5.405560    4.263115    0.852961
     11          6           0        5.888256    4.318705   -1.213139
     12          1           0        5.465240    4.647494   -2.154092
     13          1           0        6.801229    4.876766   -1.019161
     14          1           0        6.122039    3.262537   -1.274189
     15          6           0        4.718831    6.100725   -0.021684
     16          8           0        5.584173    6.841244   -0.455760
     17          7           0        3.594869    6.569135    0.537907
     18          1           0        2.909452    5.933156    0.896648
     19          6           0        3.319956    7.988128    0.649654
     20          1           0        4.146930    8.544426    0.220622
     21          1           0        2.404644    8.230645    0.113659
     22          1           0        3.205187    8.261508    1.696588
 ---------------------------------------------------------------------
                    Distance matrix (angstroms):
                    1          2          3          4          5
     1  H    0.000000
     2  C    1.085827   0.000000
     3  H    1.775997   1.088617   0.000000
     4  H    1.775896   1.088650   1.773553   0.000000
     5  C    2.158716   1.525210   2.144866   2.144861   0.000000
     6  O    2.489390   2.364127   3.064486   3.064496   1.215667
     7  N    3.328997   2.412137   2.682224   2.682231   1.351618
     8  H    3.491472   2.430818   2.454999   2.455499   1.988652
     9  C    4.712127   3.865918   4.104247   4.104620   2.583040
    10  H    5.286948   4.396049   4.373815   4.719863   3.249799
    11  C    5.187637   4.589115   4.984720   4.988205   3.083683
    12  H    5.018255   4.546542   5.158300   4.850132   3.063427
    13  H    6.266148   5.629763   5.973072   5.975701   4.143607
    14  H    5.018977   4.545124   4.841793   5.160199   3.064824
    15  C    5.592773   4.699715   5.050974   4.593180   3.600946
    16  O    6.600402   5.781307   6.199543   5.687673   4.569098
    17  N    5.560327   4.590416   4.894139   4.208391   3.880985
    18  H    4.934125   3.910889   4.103551   3.476123   3.472060
    19  C    6.732490   5.799386   6.148418   5.237642   5.210364
    20  H    7.398347   6.508197   6.921690   6.028385   5.720954
    21  H    6.587518   5.735254   6.193769   5.016427   5.330429
    22  H    7.340103   6.346779   6.538223   5.769493   5.878766
                    6          7          8          9         10
     6  O    0.000000
     7  N    2.302368   0.000000
     8  H    3.131367   1.003128   0.000000
     9  C    3.078886   1.476483   2.091806   0.000000
    10  H    3.805861   2.092820   2.423462   1.089031   0.000000
    11  C    2.955310   2.557724   3.435999   1.531343   2.122464
    12  H    2.716067   2.838992   3.761152   2.163598   3.032108
    13  H    4.034856   3.456362   4.218018   2.138058   2.414394
    14  H    2.723945   2.836484   3.755247   2.161555   2.457491
    15  C    4.153709   2.465390   2.716501   1.531378   2.147885
    16  O    4.894184   3.555348   3.920391   2.389599   2.896791
    17  N    4.694122   2.748562   2.538860   2.458353   2.948828
    18  H    4.469702   2.381100   1.851006   2.599108   3.003581
    19  C    5.979166   4.167472   3.898196   3.826570   4.273967
    20  H    6.326718   4.683944   4.605805   4.045416   4.507064
    21  H    6.087647   4.493731   4.201733   4.430279   5.029250
    22  H    6.756105   4.744693   4.297395   4.421274   4.641174
                   11         12         13         14         15
    11  C    0.000000
    12  H    1.082792   0.000000
    13  H    1.087464   1.767909   0.000000
    14  H    1.083454   1.767405   1.769767   0.000000
    15  C    2.441867   2.686293   2.613315   3.404860   0.000000
    16  O    2.651281   2.776872   2.378617   3.710292   1.218855
    17  N    3.659265   3.799718   3.945797   4.539149   1.340090
    18  H    3.991356   4.182343   4.464550   4.708020   2.035992
    19  C    4.850858   4.860357   4.958304   5.821001   2.443325
    20  H    4.790052   4.750083   4.694049   5.833855   2.521400
    21  H    5.403630   5.229619   5.644621   6.358242   3.148069
    22  H    5.586687   5.744274   5.635893   6.505633   3.148422
                   16         17         18         19         20
    16  O    0.000000
    17  N    2.240256   0.000000
    18  H    3.131734   1.001479   0.000000
    19  C    2.768386   1.449691   2.110078   0.000000
    20  H    2.328946   2.075383   2.967675   1.085091   0.000000
    21  H    3.516259   2.087400   2.479185   1.088073   1.773545
    22  H    3.508466   2.087707   2.479635   1.088108   1.773528
                   21         22
    21  H    0.000000
    22  H    1.774116   0.000000
 Stoichiometry    C6H12N2O2
 Framework group  C1[X(C6H12N2O2)]
 Deg. of freedom    60
 Full point group                 C1      NOp   1
 Largest Abelian subgroup         C1      NOp   1
 Largest concise Abelian subgroup C1      NOp   1
                         Standard orientation:                         
 ---------------------------------------------------------------------
 Center     Atomic      Atomic             Coordinates (Angstroms)
 Number     Number       Type             X           Y           Z
 ---------------------------------------------------------------------
      1          1           0        3.775072   -1.548955   -0.534295
      2          6           0        2.832909   -1.594858    0.003518
      3          1           0        3.023364   -1.811814    1.053158
      4          1           0        2.212593   -2.384770   -0.416488
      5          6           0        2.092665   -0.265854   -0.106262
      6          8           0        2.602847    0.637523   -0.739880
      7          7           0        0.906185   -0.246747    0.540863
      8          1           0        0.672840   -1.104894    1.004974
      9          6           0       -0.116027    0.807473    0.694825
     10          1           0       -0.245099    1.008013    1.757422
     11          6           0        0.179737    2.149525    0.019229
     12          1           0        0.286304    2.021030   -1.050617
     13          1           0       -0.652932    2.820808    0.215753
     14          1           0        1.088481    2.581344    0.421212
     15          6           0       -1.451126    0.334512    0.112640
     16          8           0       -2.247956    1.143095   -0.331050
     17          7           0       -1.713726   -0.979119    0.148066
     18          1           0       -1.042141   -1.615532    0.531357
     19          6           0       -2.955026   -1.533361   -0.355517
     20          1           0       -3.574807   -0.727736   -0.735337
     21          1           0       -2.746557   -2.237977   -1.157987
     22          1           0       -3.482244   -2.048036    0.445189
 ---------------------------------------------------------------------
 Rotational constants (GHZ):      2.0832100      0.8181325      0.6344615
 Standard basis: 6-31G(d) (6D, 7F)
 There are   174 symmetry adapted basis functions of A   symmetry.
 Integral buffers will be    131072 words long.
 Raffenetti 1 integral format.
 Two-electron integral symmetry is turned on.
   174 basis functions,   328 primitive gaussians,   174 cartesian basis functions
    39 alpha electrons       39 beta electrons
       nuclear repulsion energy       556.2641907512 Hartrees.
 NAtoms=   22 NActive=   22 NUniq=   22 SFac= 7.50D-01 NAtFMM=   80 NAOKFM=F Big=F
 One-electron integrals computed using PRISM.
 NBasis=   174 RedAO= T  NBF=   174
 NBsUse=   174 1.00D-06 NBFU=   174
 Initial guess read from the read-write file.
 B after Tr=     0.000000    0.000000    0.000000
         Rot=    1.000000    0.000000    0.000000    0.000000 Ang=   0.00 deg.
 Initial guess orbital symmetries:
       Occupied  (A) (A) (A) (A) (A) (A) (A) (A) (A) (A) (A) (A)
                 (A) (A) (A) (A) (A) (A) (A) (A) (A) (A) (A) (A)
                 (A) (A) (A) (A) (A) (A) (A) (A) (A) (A) (A) (A)
                 (A) (A) (A)
       Virtual   (A) (A) (A) (A) (A) (A) (A) (A) (A) (A) (A) (A)
                 (A) (A) (A) (A) (A) (A) (A) (A) (A) (A) (A) (A)
                 (A) (A) (A) (A) (A) (A) (A) (A) (A) (A) (A) (A)
                 (A) (A) (A) (A) (A) (A) (A) (A) (A) (A) (A) (A)
                 (A) (A) (A) (A) (A) (A) (A) (A) (A) (A) (A) (A)
                 (A) (A) (A) (A) (A) (A) (A) (A) (A) (A) (A) (A)
                 (A) (A) (A) (A) (A) (A) (A) (A) (A) (A) (A) (A)
                 (A) (A) (A) (A) (A) (A) (A) (A) (A) (A) (A) (A)
                 (A) (A) (A) (A) (A) (A) (A) (A) (A) (A) (A) (A)
                 (A) (A) (A) (A) (A) (A) (A) (A) (A) (A) (A) (A)
                 (A) (A) (A) (A) (A) (A) (A) (A) (A) (A) (A) (A)
                 (A) (A) (A)
 Harris functional with IExCor=  205 diagonalized for initial guess.
 ExpMin= 1.61D-01 ExpMax= 5.48D+03 ExpMxC= 8.25D+02 IAcc=1 IRadAn=         1 AccDes= 0.00D+00
 HarFok:  IExCor=  205 AccDes= 0.00D+00 IRadAn=         1 IDoV= 1
 ScaDFX=  1.000000  1.000000  1.000000  1.000000
 FoFCou: FMM=F IPFlag=           0 FMFlag=      100000 FMFlg1=           0
         NFxFlg=           0 DoJE=T BraDBF=F KetDBF=T FulRan=T
         Omega=  0.000000  0.000000  1.000000  0.000000  0.000000 ICntrl=     500 IOpCl=  0
         NMat0=    1 NMatS0=    1 NMatT0=    0 NMatD0=    1 NMtDS0=    0 NMtDT0=    0
         I1Cent=           4 NGrid=           0.
 Petite list used in FoFCou.
 Requested convergence on RMS density matrix=1.00D-08 within 128 cycles.
 Requested convergence on MAX density matrix=1.00D-06.
 Requested convergence on             energy=1.00D-06.
 No special actions if energy rises.
 Integral accuracy reduced to 1.0D-05 until final iterations.
 Initial convergence to 1.0D-05 achieved.  Increase integral accuracy.
 SCF Done:  E(RHF) =  -492.832931946     A.U. after   14 cycles
             Convg  =    0.6718D-08             -V/T =  2.0019
 Calling FoFJK, ICntrl=      2127 FMM=F ISym2X=0 I1Cent= 0 IOpClX= 0 NMat=1 NMatS=1 NMatT=0.
 ***** Axes restored to original set *****
 -------------------------------------------------------------------
 Center     Atomic                   Forces (Hartrees/Bohr)
 Number     Number              X              Y              Z
 -------------------------------------------------------------------
      1        1           0.004560902    0.003930037    0.002633055
      2        6           0.003325195    0.004517889    0.005113414
      3        1          -0.003712932    0.001070652   -0.001388944
      4        1          -0.001677396   -0.003439256    0.001402033
      5        6          -0.000615120   -0.024381888   -0.038535095
      6        8          -0.002584977    0.016987953    0.029385334
      7        7           0.007708427    0.007327261    0.012448215
      8        1           0.006323792   -0.009318153   -0.006455520
      9        6          -0.000694512    0.000768177   -0.013133175
     10        1          -0.005072925    0.003374833    0.001080150
     11        6          -0.000380308   -0.010647881   -0.000817750
     12        1           0.002949331   -0.002299849    0.001021934
     13        1          -0.006464460   -0.003093741   -0.000649688
     14        1          -0.001221538    0.001298864   -0.002090208
     15        6           0.025347161    0.019601188   -0.005616226
     16        8          -0.021135544   -0.016196759    0.012179254
     17        7          -0.009354912    0.000457187    0.006431904
     18        1           0.006995911    0.010609023   -0.005353325
     19        6          -0.002125896    0.001394974    0.001094112
     20        1          -0.004524551   -0.004470345    0.002415082
     21        1           0.002438899    0.001273190    0.001926073
     22        1          -0.000084546    0.001236643   -0.003090630
 -------------------------------------------------------------------
 Cartesian Forces:  Max     0.038535095 RMS     0.009939948

 GradGradGradGradGradGradGradGradGradGradGradGradGradGradGradGradGradGrad
 Berny optimization.
 Using GEDIIS/GDIIS optimizer.
 Internal  Forces:  Max     0.031394947 RMS     0.006960898
 Search for a local minimum.
 Step number   2 out of a maximum of  108
 All quantities printed in internal units (Hartrees-Bohrs-Radians)
 Mixed Optimization -- RFO/linear search
 Update second derivatives using D2CorX and points    1    2
 DE= -2.29D-02 DEPred=-6.35D-02 R= 3.61D-01
 Trust test= 3.61D-01 RLast= 3.00D-01 DXMaxT set to 3.00D-01
 Use linear search instead of GDIIS.
     Eigenvalues ---    0.00368   0.00435   0.00996   0.01043   0.01346
     Eigenvalues ---    0.01415   0.01663   0.02551   0.02552   0.03489
     Eigenvalues ---    0.05009   0.05706   0.05927   0.06125   0.07209
     Eigenvalues ---    0.07381   0.07622   0.07706   0.15765   0.15989
     Eigenvalues ---    0.16000   0.16000   0.16000   0.16000   0.16000
     Eigenvalues ---    0.16000   0.16000   0.16000   0.16000   0.16440
     Eigenvalues ---    0.17190   0.21993   0.24308   0.24829   0.24988
     Eigenvalues ---    0.25000   0.29397   0.29858   0.30035   0.34606
     Eigenvalues ---    0.34752   0.34810   0.34811   0.34814   0.34815
     Eigenvalues ---    0.34816   0.34818   0.34819   0.34819   0.36826
     Eigenvalues ---    0.38367   0.45631   0.45977   0.56469   0.58211
     Eigenvalues ---    0.88268   0.91054   0.960291000.000001000.00000
     Eigenvalues --- 1000.000001000.000001000.000001000.000001000.00000
     Eigenvalues --- 1000.000001000.000001000.000001000.000001000.00000
     Eigenvalues --- 1000.000001000.000001000.000001000.000001000.00000
     Eigenvalues --- 1000.000001000.000001000.000001000.000001000.00000
     Eigenvalues --- 1000.000001000.000001000.000001000.000001000.00000
     Eigenvalues --- 1000.000001000.000001000.000001000.000001000.00000
     Eigenvalues --- 1000.000001000.000001000.000001000.000001000.00000
     Eigenvalues --- 1000.000001000.000001000.00000
 RFO step:  Lambda=-1.06283849D-02 EMin= 3.67826362D-03
 Quartic linear search produced a step of -0.17530.
 Maximum step size (   0.300) exceeded in Quadratic search.
    -- Step size scaled by   0.995
 Iteration  1 RMS(Cart)=  0.11049464 RMS(Int)=  0.00222247
 Iteration  2 RMS(Cart)=  0.00335446 RMS(Int)=  0.00054763
 Iteration  3 RMS(Cart)=  0.00000655 RMS(Int)=  0.00054762
 Iteration  4 RMS(Cart)=  0.00000001 RMS(Int)=  0.00054762
 Iteration  1 RMS(Cart)=  0.00026217 RMS(Int)=  0.00009779
 Iteration  2 RMS(Cart)=  0.00016279 RMS(Int)=  0.00010835
 Iteration  3 RMS(Cart)=  0.00010354 RMS(Int)=  0.00012375
 Iteration  4 RMS(Cart)=  0.00006712 RMS(Int)=  0.00013600
 Iteration  5 RMS(Cart)=  0.00004414 RMS(Int)=  0.00014473
 Iteration  6 RMS(Cart)=  0.00002933 RMS(Int)=  0.00015074
 Iteration  7 RMS(Cart)=  0.00001963 RMS(Int)=  0.00015484
 Iteration  8 RMS(Cart)=  0.00001321 RMS(Int)=  0.00015763
 Iteration  9 RMS(Cart)=  0.00000892 RMS(Int)=  0.00015952
 Iteration 10 RMS(Cart)=  0.00000603 RMS(Int)=  0.00016080
 Iteration 11 RMS(Cart)=  0.00000409 RMS(Int)=  0.00016167
 Iteration 12 RMS(Cart)=  0.00000278 RMS(Int)=  0.00016226
 Iteration 13 RMS(Cart)=  0.00000189 RMS(Int)=  0.00016266
 Iteration 14 RMS(Cart)=  0.00000128 RMS(Int)=  0.00016294
 Iteration 15 RMS(Cart)=  0.00000087 RMS(Int)=  0.00016312
 Variable       Old X    -DE/DX   Delta X   Delta X   Delta X     New X
                                 (Linear)    (Quad)   (Total)
    R1        2.05192  -0.00584   0.00139  -0.01688  -0.01549   2.03643
    R2        2.05719  -0.00178   0.00044  -0.00519  -0.00474   2.05244
    R3        2.05725  -0.00163   0.00043  -0.00481  -0.00439   2.05287
    R4        2.88223  -0.00249   0.00162  -0.01065  -0.00903   2.87320
    R5        2.29728  -0.03139   0.00443  -0.04078  -0.03635   2.26093
    R6        2.55419   0.00204  -0.00551   0.01826   0.01275   2.56694
    R7        1.89564  -0.01063   0.00228  -0.02466  -0.02238   1.87325
    R8        2.79015  -0.01057  -0.00911   0.00189  -0.00722   2.78293
    R9        2.05797  -0.00238   0.00031  -0.00623  -0.00592   2.05205
   R10        2.89382   0.00118  -0.00209   0.00826   0.00616   2.89998
   R11        2.89389   0.01437  -0.00310   0.04531   0.04221   2.93609
   R12        2.04618  -0.00274   0.00237  -0.01232  -0.00995   2.03623
   R13        2.05501  -0.00713   0.00085  -0.01844  -0.01759   2.03742
   R14        2.04743  -0.00141   0.00214  -0.00871  -0.00656   2.04087
   R15        2.30330  -0.02918   0.00336  -0.03567  -0.03231   2.27099
   R16        2.53240   0.01068  -0.00167   0.01941   0.01774   2.55014
   R17        1.89252  -0.01344   0.00280  -0.03096  -0.02816   1.86436
   R18        2.73952   0.00044  -0.00021   0.00146   0.00125   2.74077
   R19        2.05053  -0.00669   0.00163  -0.01945  -0.01782   2.03271
   R20        2.05616  -0.00272   0.00063  -0.00781  -0.00718   2.04898
   R21        2.05623  -0.00265   0.00062  -0.00765  -0.00703   2.04920
    A1        1.91154  -0.00013  -0.00007  -0.00250  -0.00236   1.90918
    A2        1.91134  -0.00025  -0.00004  -0.00347  -0.00330   1.90804
    A3        1.92691  -0.00637   0.00211  -0.03671  -0.03438   1.89253
    A4        1.90400  -0.00401   0.00110  -0.01678  -0.01622   1.88778
    A5        1.90495   0.00537  -0.00157   0.02986   0.02811   1.93306
    A6        1.90491   0.00542  -0.00155   0.02992   0.02819   1.93310
    A7        2.07299   0.01530   0.00527   0.03579   0.04106   2.11405
    A8        1.98657  -0.00038   0.00850  -0.02094  -0.01245   1.97412
    A9        2.22363  -0.01492  -0.01377  -0.01484  -0.02861   2.19501
   A10        1.99722   0.00265   0.01702  -0.03195  -0.01545   1.98177
   A11        2.30199  -0.01209  -0.03058   0.02481  -0.00631   2.29568
   A12        1.98397   0.00943   0.01356   0.00706   0.02007   2.00404
   A13        1.89155   0.00047   0.00343  -0.03306  -0.03016   1.86139
   A14        2.03312  -0.01741  -0.01649  -0.04750  -0.06681   1.96631
   A15        1.92136   0.00929   0.00309   0.05222   0.05680   1.97816
   A16        1.86709   0.00428   0.00508   0.00037   0.00384   1.87093
   A17        1.90126  -0.00795  -0.00091  -0.02134  -0.02189   1.87937
   A18        1.84557   0.01126   0.00628   0.04941   0.05666   1.90223
   A19        1.92934   0.00360  -0.00319   0.02163   0.01846   1.94780
   A20        1.88954  -0.00192   0.00377  -0.01337  -0.00958   1.87996
   A21        1.92581   0.00115  -0.00258   0.00902   0.00645   1.93226
   A22        1.90410  -0.00070   0.00105  -0.00275  -0.00168   1.90243
   A23        1.90851  -0.00278   0.00030  -0.01953  -0.01921   1.88930
   A24        1.90620   0.00062   0.00069   0.00493   0.00563   1.91183
   A25        2.09840  -0.00263   0.00083  -0.01024  -0.00959   2.08881
   A26        2.05278   0.00954  -0.00311   0.03686   0.03355   2.08633
   A27        2.13154  -0.00693   0.00237  -0.02788  -0.02573   2.10580
   A28        2.09628   0.00111  -0.00032   0.00757   0.00723   2.10351
   A29        2.13338   0.00292  -0.00103   0.01264   0.01159   2.14497
   A30        2.05352  -0.00403   0.00135  -0.02021  -0.01888   2.03464
   A31        1.90373  -0.00291   0.00130  -0.01789  -0.01653   1.88719
   A32        1.91742   0.00285  -0.00111   0.01653   0.01535   1.93277
   A33        1.91781   0.00289  -0.00119   0.01682   0.01557   1.93338
   A34        1.90930  -0.00040   0.00015  -0.00359  -0.00338   1.90592
   A35        1.90923  -0.00046   0.00017  -0.00407  -0.00385   1.90538
   A36        1.90630  -0.00199   0.00069  -0.00792  -0.00741   1.89888
    D1       -0.00016  -0.00005   0.00002  -0.00053  -0.00052  -0.00067
    D2        3.14149  -0.00002   0.00000   0.00026   0.00026  -3.14143
    D3        2.10185  -0.00075   0.00025  -0.00745  -0.00751   2.09434
    D4       -1.03969  -0.00072   0.00022  -0.00667  -0.00673  -1.04642
    D5       -2.10189   0.00077  -0.00024   0.00754   0.00759  -2.09430
    D6        1.03976   0.00079  -0.00026   0.00832   0.00837   1.04813
    D7        0.00072   0.00121  -0.00010   0.03429   0.03398   0.03470
    D8        3.14080  -0.00110   0.00013  -0.03188  -0.03152   3.10929
    D9       -3.14082   0.00124  -0.00012   0.03515   0.03480  -3.10602
   D10       -0.00073  -0.00107   0.00011  -0.03101  -0.03070  -0.03143
   D11       -2.11092  -0.00002   0.00291  -0.01539  -0.01284  -2.12376
   D12       -0.00573  -0.00591   0.00103  -0.07290  -0.07008  -0.07580
   D13        2.09447   0.00393   0.00000   0.00000   0.00000   2.09447
   D14        1.02917  -0.00232   0.00314  -0.08119  -0.07902   0.95015
   D15        3.13437  -0.00821   0.00126  -0.13870  -0.13625   2.99811
   D16       -1.04862   0.00163   0.00023  -0.06580  -0.06618  -1.11480
   D17        1.05632   0.00572  -0.00159   0.05827   0.05596   1.11227
   D18        3.14102   0.00581   0.00010   0.05944   0.05882  -3.08335
   D19       -1.05699   0.00607   0.00171   0.06257   0.06356  -0.99343
   D20       -3.10870  -0.00189  -0.00419  -0.01578  -0.01991  -3.12860
   D21       -1.02400  -0.00180  -0.00250  -0.01461  -0.01705  -1.04104
   D22        1.06118  -0.00154  -0.00089  -0.01148  -0.01230   1.04887
   D23       -1.08391  -0.00363   0.00051  -0.01643  -0.01527  -1.09918
   D24        1.00079  -0.00353   0.00219  -0.01526  -0.01241   0.98838
   D25        3.08597  -0.00328   0.00380  -0.01213  -0.00767   3.07829
   D26       -2.65012   0.00203   0.00564  -0.04414  -0.03928  -2.68940
   D27        0.52363   0.00281   0.00000   0.00000   0.00000   0.52362
   D28        1.56122   0.00077   0.00012  -0.02184  -0.02195   1.53927
   D29       -1.54822   0.00155  -0.00552   0.02229   0.01733  -1.53089
   D30       -0.44018  -0.00617  -0.00868  -0.03734  -0.04456  -0.48473
   D31        2.73357  -0.00539  -0.01431   0.00679  -0.00528   2.72829
   D32       -0.01754  -0.00122   0.00308  -0.04294  -0.04014  -0.05768
   D33        3.12432  -0.00081   0.00303  -0.03064  -0.02778   3.09654
   D34       -3.12633  -0.00052  -0.00268   0.00171  -0.00080  -3.12713
   D35        0.01553  -0.00010  -0.00272   0.01401   0.01156   0.02709
   D36       -0.00004  -0.00021   0.00001  -0.00594  -0.00590  -0.00594
   D37        2.09261  -0.00076   0.00032  -0.01132  -0.01106   2.08155
   D38       -2.09285   0.00038  -0.00027  -0.00014  -0.00028  -2.09313
   D39       -3.14137   0.00019  -0.00003   0.00607   0.00600  -3.13537
   D40       -1.04871  -0.00035   0.00027   0.00070   0.00084  -1.04788
   D41        1.04901   0.00079  -0.00031   0.01187   0.01162   1.06062
         Item               Value     Threshold  Converged?
 Maximum Force            0.031395     0.000450     NO 
 RMS     Force            0.006980     0.000300     NO 
 Maximum Displacement     0.374862     0.001800     NO 
 RMS     Displacement     0.111642     0.001200     NO 
 Predicted change in Energy=-6.668720D-03
 GradGradGradGradGradGradGradGradGradGradGradGradGradGradGradGradGradGrad

                          Input orientation:                          
 ---------------------------------------------------------------------
 Center     Atomic      Atomic             Coordinates (Angstroms)
 Number     Number       Type             X           Y           Z
 ---------------------------------------------------------------------
      1          1           0        1.395075    1.836381   -1.549594
      2          6           0        1.712304    2.493168   -0.756319
      3          1           0        1.749376    1.939303    0.177216
      4          1           0        0.990099    3.296956   -0.644707
      5          6           0        3.083825    3.046216   -1.109557
      6          8           0        3.632158    2.736848   -2.126942
      7          7           0        3.576853    3.891152   -0.167134
      8          1           0        2.984137    3.995037    0.620607
      9          6           0        4.856598    4.614322   -0.077590
     10          1           0        5.329527    4.296540    0.846819
     11          6           0        5.816017    4.262294   -1.222404
     12          1           0        5.419121    4.560970   -2.178610
     13          1           0        6.741826    4.786388   -1.047410
     14          1           0        6.002713    3.198955   -1.250936
     15          6           0        4.688480    6.157658   -0.015334
     16          8           0        5.577035    6.869052   -0.400828
     17          7           0        3.580661    6.684049    0.547458
     18          1           0        2.857721    6.097656    0.874309
     19          6           0        3.373717    8.112138    0.693262
     20          1           0        4.233761    8.617731    0.291082
     21          1           0        2.488727    8.429013    0.152864
     22          1           0        3.259669    8.379572    1.737951
 ---------------------------------------------------------------------
                    Distance matrix (angstroms):
                    1          2          3          4          5
     1  H    0.000000
     2  C    1.077630   0.000000
     3  H    1.765784   1.086107   0.000000
     4  H    1.765249   1.086329   1.759341   0.000000
     5  C    2.123490   1.520431   2.159119   2.159315   0.000000
     6  O    2.479659   2.371461   3.080598   3.080781   1.196432
     7  N    3.300520   2.403756   2.695916   2.696746   1.358365
     8  H    3.448867   2.401894   2.438703   2.462625   1.975770
     9  C    4.676098   3.853123   4.107978   4.123941   2.581983
    10  H    5.222556   4.348162   4.338481   4.696216   3.230154
    11  C    5.053398   4.493051   4.888025   4.955310   2.992733
    12  H    4.900203   4.476518   5.088230   4.854567   2.981772
    13  H    6.127192   5.535313   5.876237   5.955077   4.051300
    14  H    4.814159   4.376117   4.660173   5.050091   2.926299
    15  C    5.645698   4.778616   5.144893   4.717811   3.667876
    16  O    6.643510   5.849007   6.267977   5.818877   4.618708
    17  N    5.716144   4.770124   5.099343   4.427716   4.028197
    18  H    5.115965   4.118648   4.359618   3.693148   3.646660
    19  C    6.952018   6.036092   6.403802   5.536946   5.384957
    20  H    7.578452   6.705600   7.126468   6.301404   5.858833
    21  H    6.896175   6.055057   6.531736   5.405554   5.560787
    22  H    7.556323   6.577650   6.796613   6.054833   6.048464
                    6          7          8          9         10
     6  O    0.000000
     7  N    2.275154   0.000000
     8  H    3.090630   0.991282   0.000000
     9  C    3.037105   1.472664   2.092153   0.000000
    10  H    3.762572   2.065019   2.375485   1.085900   0.000000
    11  C    2.813257   2.503038   3.389346   1.534604   2.125918
    12  H    2.554081   2.808673   3.753005   2.175676   3.038284
    13  H    3.877633   3.404907   4.186735   2.127027   2.413016
    14  H    2.569136   2.745645   3.639811   2.166469   2.461392
    15  C    4.156518   2.528993   2.825975   1.553713   2.148955
    16  O    4.882328   3.594889   4.003300   2.388999   2.869791
    17  N    4.768172   2.882868   2.755355   2.510472   2.974617
    18  H    4.571902   2.543700   2.121639   2.664938   3.058528
    19  C    6.075696   4.312571   4.136130   3.876579   4.290403
    20  H    6.386983   4.793959   4.799943   4.068308   4.492465
    21  H    6.237443   4.677456   4.486018   4.495752   5.062514
    22  H    6.849561   4.886294   4.533048   4.474760   4.663644
                   11         12         13         14         15
    11  C    0.000000
    12  H    1.077527   0.000000
    13  H    1.078156   1.754986   0.000000
    14  H    1.079981   1.748212   1.762854   0.000000
    15  C    2.514113   2.786218   2.676153   3.465234   0.000000
    16  O    2.743591   2.917651   2.472306   3.791240   1.201756
    17  N    3.740873   3.913930   4.017174   4.609386   1.349476
    18  H    4.064022   4.271122   4.527549   4.775993   2.036355
    19  C    4.945292   5.004211   5.043284   5.901771   2.459817
[...]
    19  C    6.878831   6.144163   6.769974   5.754956   5.249725
    20  H    7.726439   6.938551   7.472129   6.612218   5.958388
    21  H    6.995850   6.396061   7.142079   6.060241   5.429739
    22  H    7.089621   6.346306   6.969405   5.782900   5.681891
                    6          7          8          9         10
     6  O    0.000000
     7  N    2.271097   0.000000
     8  H    3.088669   0.996381   0.000000
     9  C    2.972262   1.468714   2.070468   0.000000
    10  H    3.816697   2.048596   2.183651   1.086993   0.000000
    11  C    2.842141   2.541351   3.323864   1.526866   2.119683
    12  H    2.509823   2.894752   3.830892   2.175711   3.036685
    13  H    3.910466   3.429369   4.099450   2.124577   2.379361
    14  H    2.741555   2.770096   3.445510   2.157413   2.478125
    15  C    3.963151   2.492258   2.967472   1.535925   2.081510
    16  O    4.707828   3.579013   4.121760   2.384971   2.818037
    17  N    4.515336   2.769595   2.928422   2.455909   2.831613
    18  H    4.108744   2.325045   2.354621   2.579064   3.014540
    19  C    5.737581   4.183196   4.328366   3.811345   4.159187
    20  H    6.413369   4.793676   4.926561   4.129866   4.302579
    21  H    5.729223   4.560042   4.883866   4.220800   4.780931
    22  H    6.307544   4.634364   4.585548   4.519640   4.773135
                   11         12         13         14         15
    11  C    0.000000
    12  H    1.077934   0.000000
    13  H    1.080665   1.755549   0.000000
    14  H    1.082506   1.752649   1.762080   0.000000
    15  C    2.526767   2.810320   2.713933   3.468201   0.000000
    16  O    2.784925   2.947977   2.556038   3.835138   1.199160
    17  N    3.742780   3.971006   4.045046   4.577182   1.356352
    18  H    3.960944   4.152939   4.486158   4.645852   2.005790
    19  C    4.932011   5.023274   5.072416   5.864880   2.427621
    20  H    5.139514   5.329556   5.052646   6.106679   2.673090
    21  H    5.126920   4.988648   5.299815   6.112237   2.811700
    22  H    5.785025   5.917347   6.001086   6.643849   3.305279
                   16         17         18         19         20
    16  O    0.000000
    17  N    2.242378   0.000000
    18  H    3.076351   0.993663   0.000000
    19  C    2.738869   1.449128   2.096326   0.000000
    20  H    2.609354   2.075575   2.930256   1.079565   0.000000
    21  H    2.922708   2.114216   2.628399   1.085181   1.754815
    22  H    3.775412   2.067547   2.335164   1.082355   1.759692
                   21         22
    21  H    0.000000
    22  H    1.765867   0.000000
 Stoichiometry    C6H12N2O2
 Framework group  C1[X(C6H12N2O2)]
 Deg. of freedom    60
 Full point group                 C1      NOp   1
 Largest Abelian subgroup         C1      NOp   1
 Largest concise Abelian subgroup C1      NOp   1
                         Standard orientation:                         
 ---------------------------------------------------------------------
 Center     Atomic      Atomic             Coordinates (Angstroms)
 Number     Number       Type             X           Y           Z
 ---------------------------------------------------------------------
      1          1           0       -3.831088   -1.438563    0.563410
      2          6           0       -3.072192   -1.362541   -0.200833
      3          1           0       -3.544960   -1.078995   -1.136712
      4          1           0       -2.599828   -2.328965   -0.341406
      5          6           0       -2.072153   -0.298131    0.208847
      6          8           0       -2.306156    0.482738    1.081824
      7          7           0       -0.894843   -0.346935   -0.492254
      8          1           0       -0.928963   -0.962638   -1.274890
      9          6           0        0.094644    0.726404   -0.653436
     10          1           0        0.259690    0.813158   -1.724318
     11          6           0       -0.323457    2.105375   -0.148510
     12          1           0       -0.421307    2.132540    0.924630
     13          1           0        0.436404    2.813185   -0.447595
     14          1           0       -1.269981    2.396040   -0.586031
     15          6           0        1.472437    0.328498   -0.103507
     16          8           0        2.271441    1.162967    0.217800
     17          7           0        1.777697   -0.991958   -0.157398
     18          1           0        1.011716   -1.623617   -0.116826
     19          6           0        3.044902   -1.460183    0.366937
     20          1           0        3.849430   -0.894060   -0.077699
     21          1           0        3.108472   -1.354069    1.445045
     22          1           0        3.163085   -2.503939    0.105977
 ---------------------------------------------------------------------
 Rotational constants (GHZ):      2.1797633      0.7887833      0.6394282

 **********************************************************************

            Population analysis using the SCF density.

 **********************************************************************

 Orbital symmetries:
       Occupied  (A) (A) (A) (A) (A) (A) (A) (A) (A) (A) (A) (A)
                 (A) (A) (A) (A) (A) (A) (A) (A) (A) (A) (A) (A)
                 (A) (A) (A) (A) (A) (A) (A) (A) (A) (A) (A) (A)
                 (A) (A) (A)
       Virtual   (A) (A) (A) (A) (A) (A) (A) (A) (A) (A) (A) (A)
                 (A) (A) (A) (A) (A) (A) (A) (A) (A) (A) (A) (A)
                 (A) (A) (A) (A) (A) (A) (A) (A) (A) (A) (A) (A)
                 (A) (A) (A) (A) (A) (A) (A) (A) (A) (A) (A) (A)
                 (A) (A) (A) (A) (A) (A) (A) (A) (A) (A) (A) (A)
                 (A) (A) (A) (A) (A) (A) (A) (A) (A) (A) (A) (A)
                 (A) (A) (A) (A) (A) (A) (A) (A) (A) (A) (A) (A)
                 (A) (A) (A) (A) (A) (A) (A) (A) (A) (A) (A) (A)
                 (A) (A) (A) (A) (A) (A) (A) (A) (A) (A) (A) (A)
                 (A) (A) (A) (A) (A) (A) (A) (A) (A) (A) (A) (A)
                 (A) (A) (A) (A) (A) (A) (A) (A) (A) (A) (A) (A)
                 (A) (A) (A)
 The electronic state is 1-A.
 Alpha  occ. eigenvalues --  -20.53441 -20.52517 -15.59897 -15.58212 -11.36025
 Alpha  occ. eigenvalues --  -11.34272 -11.28772 -11.25555 -11.24231 -11.20851
 Alpha  occ. eigenvalues --   -1.40316  -1.39312  -1.25298  -1.22488  -1.05703
 Alpha  occ. eigenvalues --   -0.99607  -0.95904  -0.88039  -0.79993  -0.76671
 Alpha  occ. eigenvalues --   -0.72476  -0.70482  -0.66562  -0.63798  -0.62782
 Alpha  occ. eigenvalues --   -0.61912  -0.60713  -0.59308  -0.57344  -0.55229
 Alpha  occ. eigenvalues --   -0.54292  -0.53765  -0.52154  -0.51963  -0.50364
 Alpha  occ. eigenvalues --   -0.44641  -0.42215  -0.39264  -0.38739
 Alpha virt. eigenvalues --    0.18051   0.19060   0.20910   0.24910   0.25949
 Alpha virt. eigenvalues --    0.27596   0.28841   0.30218   0.31301   0.31510
 Alpha virt. eigenvalues --    0.32928   0.33482   0.34285   0.35044   0.36329
 Alpha virt. eigenvalues --    0.38853   0.41836   0.43622   0.47415   0.49829
 Alpha virt. eigenvalues --    0.53015   0.58022   0.61439   0.70587   0.72651
 Alpha virt. eigenvalues --    0.74020   0.75197   0.75828   0.77158   0.79243
 Alpha virt. eigenvalues --    0.81264   0.81653   0.83830   0.87493   0.89685
 Alpha virt. eigenvalues --    0.91507   0.93845   0.96488   0.99143   0.99817
 Alpha virt. eigenvalues --    1.01821   1.02206   1.03345   1.08143   1.09985
 Alpha virt. eigenvalues --    1.10103   1.12321   1.13441   1.14287   1.15090
 Alpha virt. eigenvalues --    1.16891   1.18002   1.18365   1.20242   1.21358
 Alpha virt. eigenvalues --    1.22368   1.22559   1.23372   1.26263   1.26944
 Alpha virt. eigenvalues --    1.27976   1.29209   1.36228   1.37832   1.38604
 Alpha virt. eigenvalues --    1.48090   1.52318   1.52812   1.56094   1.61071
 Alpha virt. eigenvalues --    1.63305   1.64416   1.70262   1.72691   1.73901
 Alpha virt. eigenvalues --    1.75149   1.81917   1.92165   1.93110   1.95937
 Alpha virt. eigenvalues --    2.01015   2.05952   2.06376   2.11131   2.13413
 Alpha virt. eigenvalues --    2.13865   2.14929   2.17342   2.18853   2.20043
 Alpha virt. eigenvalues --    2.21112   2.24326   2.30236   2.31767   2.35284
 Alpha virt. eigenvalues --    2.37174   2.37859   2.39463   2.43069   2.50373
 Alpha virt. eigenvalues --    2.52146   2.55520   2.57462   2.64065   2.64871
 Alpha virt. eigenvalues --    2.68005   2.69697   2.70185   2.74716   2.78519
 Alpha virt. eigenvalues --    2.80681   2.84734   2.87306   2.88906   2.94641
 Alpha virt. eigenvalues --    3.00456   3.05152   3.07945   3.10215   3.23710
 Alpha virt. eigenvalues --    3.34121   3.37391   3.42710   3.50540   3.57534
 Alpha virt. eigenvalues --    4.35671   4.41661   4.48675   4.50528   4.63505
 Alpha virt. eigenvalues --    4.68333   4.71438   4.82820   4.89997   5.05303
          Condensed to atoms (all electrons):
              1          2          3          4          5          6
     1  H    0.454656   0.384139  -0.016823  -0.019778  -0.031853   0.003828
     2  C    0.384139   5.286994   0.373823   0.375359   0.373604  -0.072260
     3  H   -0.016823   0.373823   0.500766  -0.025678  -0.028072   0.000573
     4  H   -0.019778   0.375359  -0.025678   0.521045  -0.035727   0.001738
     5  C   -0.031853   0.373604  -0.028072  -0.035727   4.144570   0.625413
     6  O    0.003828  -0.072260   0.000573   0.001738   0.625413   8.113848
     7  N    0.004459  -0.128918   0.001190   0.005044   0.243542  -0.097771
     8  H    0.000106   0.000569   0.000088  -0.000268  -0.023512   0.002663
     9  C   -0.000062   0.002602  -0.000174   0.000135  -0.017257   0.003794
    10  H    0.000000  -0.000069   0.000028  -0.000005   0.001509   0.000034
    11  C   -0.000001   0.000010   0.000002  -0.000003  -0.002329  -0.006568
    12  H    0.000000   0.000048   0.000000  -0.000002   0.000142   0.001945
    13  H    0.000000   0.000011  -0.000001   0.000000   0.000260   0.000514
    14  H    0.000003  -0.000155   0.000009   0.000001   0.000396  -0.000895
    15  C    0.000002  -0.000131   0.000003  -0.000007  -0.001615  -0.000422
    16  O    0.000000   0.000000   0.000000   0.000000   0.000020   0.000000
    17  N    0.000000  -0.000012   0.000000  -0.000001   0.000361  -0.000009
    18  H   -0.000003  -0.000033   0.000001   0.000081   0.000420  -0.000065
    19  C    0.000000   0.000000   0.000000   0.000000  -0.000014   0.000000
    20  H    0.000000   0.000000   0.000000   0.000000   0.000000   0.000000
    21  H    0.000000   0.000000   0.000000   0.000000  -0.000001   0.000000
    22  H    0.000000   0.000000   0.000000   0.000000   0.000000   0.000000
              7          8          9         10         11         12
     1  H    0.004459   0.000106  -0.000062   0.000000  -0.000001   0.000000
     2  C   -0.128918   0.000569   0.002602  -0.000069   0.000010   0.000048
     3  H    0.001190   0.000088  -0.000174   0.000028   0.000002   0.000000
     4  H    0.005044  -0.000268   0.000135  -0.000005  -0.000003  -0.000002
     5  C    0.243542  -0.023512  -0.017257   0.001509  -0.002329   0.000142
     6  O   -0.097771   0.002663   0.003794   0.000034  -0.006568   0.001945
     7  N    7.481979   0.325339   0.141029  -0.048925  -0.040635  -0.001685
     8  H    0.325339   0.344199  -0.026941  -0.005018   0.002734  -0.000080
     9  C    0.141029  -0.026941   5.090474   0.417314   0.349605  -0.032201
    10  H   -0.048925  -0.005018   0.417314   0.514564  -0.033173   0.003641
    11  C   -0.040635   0.002734   0.349605  -0.033173   5.078516   0.397223
    12  H   -0.001685  -0.000080  -0.032201   0.003641   0.397223   0.466952
    13  H    0.003527  -0.000098  -0.029778  -0.003118   0.382514  -0.021689
    14  H   -0.001972  -0.000069  -0.039721  -0.002797   0.393842  -0.023188
    15  C   -0.052403   0.001179   0.374986  -0.049661  -0.052092  -0.004125
    16  O    0.001846  -0.000034  -0.076185   0.000906   0.001296   0.000919
    17  N   -0.005234   0.000538  -0.115316   0.000466   0.002686   0.000051
    18  H    0.012631  -0.000713  -0.005220   0.000890  -0.000035   0.000002
    19  C   -0.000255  -0.000003   0.004823  -0.000218  -0.000087  -0.000010
    20  H   -0.000015  -0.000002  -0.000033   0.000006  -0.000015   0.000000
    21  H   -0.000007   0.000004   0.000003  -0.000007   0.000019  -0.000002
    22  H   -0.000013   0.000000   0.000003   0.000002   0.000000   0.000000
             13         14         15         16         17         18
     1  H    0.000000   0.000003   0.000002   0.000000   0.000000  -0.000003
     2  C    0.000011  -0.000155  -0.000131   0.000000  -0.000012  -0.000033
     3  H   -0.000001   0.000009   0.000003   0.000000   0.000000   0.000001
     4  H    0.000000   0.000001  -0.000007   0.000000  -0.000001   0.000081
     5  C    0.000260   0.000396  -0.001615   0.000020   0.000361   0.000420
     6  O    0.000514  -0.000895  -0.000422   0.000000  -0.000009  -0.000065
     7  N    0.003527  -0.001972  -0.052403   0.001846  -0.005234   0.012631
     8  H   -0.000098  -0.000069   0.001179  -0.000034   0.000538  -0.000713
     9  C   -0.029778  -0.039721   0.374986  -0.076185  -0.115316  -0.005220
    10  H   -0.003118  -0.002797  -0.049661   0.000906   0.000466   0.000890
    11  C    0.382514   0.393842  -0.052092   0.001296   0.002686  -0.000035
    12  H   -0.021689  -0.023188  -0.004125   0.000919   0.000051   0.000002
    13  H    0.503660  -0.027330  -0.005698   0.004791   0.000158  -0.000013
    14  H   -0.027330   0.528541   0.005137   0.000242  -0.000027  -0.000008
    15  C   -0.005698   0.005137   4.165583   0.601261   0.300285  -0.020571
    16  O    0.004791   0.000242   0.601261   8.157275  -0.102308   0.002593
    17  N    0.000158  -0.000027   0.300285  -0.102308   7.306689   0.320515
    18  H   -0.000013  -0.000008  -0.020571   0.002593   0.320515   0.326363
    19  C   -0.000006   0.000002  -0.032205   0.006544   0.209309  -0.025082
    20  H    0.000001   0.000000  -0.003754   0.004086  -0.038065   0.002853
    21  H   -0.000001   0.000000  -0.002959   0.001401  -0.048217   0.000490
    22  H    0.000000   0.000000   0.004380   0.000390  -0.039433  -0.003728
             19         20         21         22
     1  H    0.000000   0.000000   0.000000   0.000000
     2  C    0.000000   0.000000   0.000000   0.000000
     3  H    0.000000   0.000000   0.000000   0.000000
     4  H    0.000000   0.000000   0.000000   0.000000
     5  C   -0.000014   0.000000  -0.000001   0.000000
     6  O    0.000000   0.000000   0.000000   0.000000
     7  N   -0.000255  -0.000015  -0.000007  -0.000013
     8  H   -0.000003  -0.000002   0.000004   0.000000
     9  C    0.004823  -0.000033   0.000003   0.000003
    10  H   -0.000218   0.000006  -0.000007   0.000002
    11  C   -0.000087  -0.000015   0.000019   0.000000
    12  H   -0.000010   0.000000  -0.000002   0.000000
    13  H   -0.000006   0.000001  -0.000001   0.000000
    14  H    0.000002   0.000000   0.000000   0.000000
    15  C   -0.032205  -0.003754  -0.002959   0.004380
    16  O    0.006544   0.004086   0.001401   0.000390
    17  N    0.209309  -0.038065  -0.048217  -0.039433
    18  H   -0.025082   0.002853   0.000490  -0.003728
    19  C    4.909314   0.403097   0.406279   0.397764
    20  H    0.403097   0.484785  -0.032080  -0.024520
    21  H    0.406279  -0.032080   0.531434  -0.033263
    22  H    0.397764  -0.024520  -0.033263   0.532714
 Mulliken atomic charges:
              1
     1  H    0.221325
     2  C   -0.595583
     3  H    0.194263
     4  H    0.178065
     5  C    0.750142
     6  O   -0.576359
     7  N   -0.842752
     8  H    0.379320
     9  C   -0.041880
    10  H    0.203634
    11  C   -0.473509
    12  H    0.212058
    13  H    0.192296
    14  H    0.167990
    15  C    0.772826
    16  O   -0.605042
    17  N   -0.792439
    18  H    0.388632
    19  C   -0.279251
    20  H    0.203655
    21  H    0.176905
    22  H    0.165703
 Sum of Mulliken atomic charges =   0.00000
 Mulliken charges with hydrogens summed into heavy atoms:
              1
     2  C   -0.001930
     5  C    0.750142
     6  O   -0.576359
     7  N   -0.463433
     9  C    0.161753
    11  C    0.098836
    15  C    0.772826
    16  O   -0.605042
    17  N   -0.403807
    19  C    0.267013
 Sum of Mulliken charges with hydrogens summed into heavy atoms =   0.00000
 Electronic spatial extent (au):  <R**2>=           1838.8355
 Charge=              0.0000 electrons
 Dipole moment (field-independent basis, Debye):
    X=             -1.3159    Y=             -4.6429    Z=             -3.4318  Tot=              5.9216
 Quadrupole moment (field-independent basis, Debye-Ang):
   XX=            -65.5553   YY=            -58.2549   ZZ=            -60.8329
   XY=             -2.0287   XZ=              5.8388   YZ=             -2.3784
 Traceless Quadrupole moment (field-independent basis, Debye-Ang):
   XX=             -4.0076   YY=              3.2928   ZZ=              0.7148
   XY=             -2.0287   XZ=              5.8388   YZ=             -2.3784
 Octapole moment (field-independent basis, Debye-Ang**2):
  XXX=             -6.6204  YYY=             -8.5572  ZZZ=             -3.0016  XYY=             -4.2351
  XXY=            -33.5050  XXZ=            -12.6781  XZZ=              3.9748  YZZ=             -1.1905
  YYZ=             -1.5259  XYZ=             -1.3381
 Hexadecapole moment (field-independent basis, Debye-Ang**3):
 XXXX=          -1580.4245 YYYY=           -579.3700 ZZZZ=           -161.1427 XXXY=            -15.8906
 XXXZ=             23.3958 YYYX=            -13.8935 YYYZ=              3.3793 ZZZX=              8.0149
 ZZZY=              2.8478 XXYY=           -371.4111 XXZZ=           -306.7448 YYZZ=           -126.8263
 XXYZ=            -20.2536 YYXZ=             -1.2244 ZZXY=              8.5855
 N-N= 5.567231016014D+02 E-N=-2.268738378411D+03  KE= 4.921049853729D+02
 1\1\GINC-RODAN\FOpt\RHF\6-31G(d)\C6H12N2O2\STEBOSS\09-Feb-2017\0\\# HF
 /6-31G* Opt=(ModRedundant) geom=nocrowd\\Phi Psi fixed scan\\0,1\H,1.2
 62490795,1.9890771035,-1.5240459652\C,1.7867139135,2.369035681,-0.6599
 906511\H,2.1656293948,1.5300905139,-0.0834753508\H,1.0982200329,2.9251
 755622,-0.0326565019\C,2.9441104491,3.2290909241,-1.1307592844\O,3.328
 1086451,3.2035740381,-2.2614656463\N,3.4670834545,4.0352421336,-0.1526
 990724\H,3.123479457,3.82155684,0.7578226548\C,4.7933043434,4.66585692
 37,-0.1285629461\H,5.2308570156,4.3894171075,0.8273049536\C,5.76776543
 62,4.220122724,-1.2162519832\H,5.453657249,4.5366821326,-2.1976127177\
 H,6.7310798798,4.659384794,-0.9996614241\H,5.8627660014,3.1417959179,-
 1.2184798204\C,4.7028260626,6.1975130119,-0.0585025749\O,5.6148176131,
 6.885390323,-0.4233049277\N,3.6167404453,6.702527811,0.5779484082\H,2.
 7947951633,6.1445268318,0.5577805934\C,3.4355461814,8.1376562595,0.664
 8161982\H,4.326178222,8.5884557882,1.0759302305\H,3.2416923307,8.58720
 77983,-0.3036579315\H,2.6015379143,8.3420197802,1.3237237588\\Version=
 EM64L-G09RevA.02\State=1-A\HF=-492.8447009\RMSD=7.530e-09\RMSF=1.542e-
 03\Dipole=-1.427983,-0.6392682,1.7262539\Quadrupole=1.0625533,1.500063
 2,-2.5626164,-3.7834113,-1.5317462,-3.1920618\PG=C01 [X(C6H12N2O2)]\\@


            ARSENIC

 FOR SMELTER FUMES HAVE I BEEN NAMED,
    I AM AN EVIL POISONOUS SMOKE...
 BUT WHEN FROM POISON I AM FREED,
    THROUGH ART AND SLEIGHT OF HAND,
 THEN CAN I CURE BOTH MAN AND BEAST,
    FROM DIRE DISEASE OFTTIMES DIRECT THEM;
 BUT PREPARE ME CORRECTLY, AND TAKE GREAT CARE
    THAT YOU FAITHFULLY KEEP WATCHFUL GUARD OVER ME;
 FOR ELSE I AM POISON, AND POISON REMAIN,
    THAT PIERCES THE HEART OF MANY A ONE.

 ATTRIBUTED TO THE PROBABLY MYTHICAL 15TH
 CENTURY MONK, BASILIUS VALENTINUS
 Job cpu time:  0 days  0 hours 20 minutes 14.8 seconds.
 File lengths (MBytes):  RWF=     25 Int=      0 D2E=      0 Chk=      3 Scr=      1
 Normal termination of Gaussian 09 at Thu Feb  9 23:17:22 2017.
