 Entering Gaussian System, Link 0=g09
 Initial command:
 /home/steboss/Software/g09/l1.exe /tmp/Gau-5949.inp -scrdir=/tmp/
 Entering Link 1 = /home/steboss/Software/g09/l1.exe PID=      5951.
  
 Copyright (c) 1988,1990,1992,1993,1995,1998,2003,2009, Gaussian, Inc.
                  All Rights Reserved.
  
 This is part of the Gaussian(R) 09 program.  It is based on
 the Gaussian(R) 03 system (copyright 2003, Gaussian, Inc.),
 the Gaussian(R) 98 system (copyright 1998, Gaussian, Inc.),
 the Gaussian(R) 94 system (copyright 1995, Gaussian, Inc.),
 the Gaussian 92(TM) system (copyright 1992, Gaussian, Inc.),
 the Gaussian 90(TM) system (copyright 1990, Gaussian, Inc.),
 the Gaussian 88(TM) system (copyright 1988, Gaussian, Inc.),
 the Gaussian 86(TM) system (copyright 1986, Carnegie Mellon
 University), and the Gaussian 82(TM) system (copyright 1983,
 Carnegie Mellon University). Gaussian is a federally registered
 trademark of Gaussian, Inc.
  
 This software contains proprietary and confidential information,
 including trade secrets, belonging to Gaussian, Inc.
  
 This software is provided under written license and may be
 used, copied, transmitted, or stored only in accord with that
 written license.
  
 The following legend is applicable only to US Government
 contracts under FAR:
  
                    RESTRICTED RIGHTS LEGEND
  
 Use, reproduction and disclosure by the US Government is
 subject to restrictions as set forth in subparagraphs (a)
 and (c) of the Commercial Computer Software - Restricted
 Rights clause in FAR 52.227-19.
  
 Gaussian, Inc.
 340 Quinnipiac St., Bldg. 40, Wallingford CT 06492
  
  
 ---------------------------------------------------------------
 Warning -- This program may not be used in any manner that
 competes with the business of Gaussian, Inc. or will provide
 assistance to any competitor of Gaussian, Inc.  The licensee
 of this program is prohibited from giving any competitor of
 Gaussian, Inc. access to this program.  By using this program,
 the user acknowledges that Gaussian, Inc. is engaged in the
 business of creating and licensing software in the field of
 computational chemistry and represents and warrants to the
 licensee that it is not a competitor of Gaussian, Inc. and that
 it will not use this program in any manner prohibited above.
 ---------------------------------------------------------------
  

 Cite this work as:
 Gaussian 09, Revision A.02,
 M. J. Frisch, G. W. Trucks, H. B. Schlegel, G. E. Scuseria, 
 M. A. Robb, J. R. Cheeseman, G. Scalmani, V. Barone, B. Mennucci, 
 G. A. Petersson, H. Nakatsuji, M. Caricato, X. Li, H. P. Hratchian, 
 A. F. Izmaylov, J. Bloino, G. Zheng, J. L. Sonnenberg, M. Hada, 
 M. Ehara, K. Toyota, R. Fukuda, J. Hasegawa, M. Ishida, T. Nakajima, 
 Y. Honda, O. Kitao, H. Nakai, T. Vreven, J. A. Montgomery, Jr., 
 J. E. Peralta, F. Ogliaro, M. Bearpark, J. J. Heyd, E. Brothers, 
 K. N. Kudin, V. N. Staroverov, R. Kobayashi, J. Normand, 
 K. Raghavachari, A. Rendell, J. C. Burant, S. S. Iyengar, J. Tomasi, 
 M. Cossi, N. Rega, J. M. Millam, M. Klene, J. E. Knox, J. B. Cross, 
 V. Bakken, C. Adamo, J. Jaramillo, R. Gomperts, R. E. Stratmann, 
 O. Yazyev, A. J. Austin, R. Cammi, C. Pomelli, J. W. Ochterski, 
 R. L. Martin, K. Morokuma, V. G. Zakrzewski, G. A. Voth, 
 P. Salvador, J. J. Dannenberg, S. Dapprich, A. D. Daniels, 
 O. Farkas, J. B. Foresman, J. V. Ortiz, J. Cioslowski, 
 and D. J. Fox, Gaussian, Inc., Wallingford CT, 2009.
 
 ******************************************
 Gaussian 09:  EM64L-G09RevA.02 11-Jun-2009
                 9-Feb-2017 
 ******************************************
 %chk=structure_135.chk
 %NProcShared=8
 Will use up to    8 processors via shared memory.
 -------------------------------------------
 # HF/6-31G* Opt=(ModRedundant) geom=nocrowd
 -------------------------------------------
 1/18=120,19=15,38=1/1,3;
 2/9=110,12=1,17=6,18=5,40=1/2;
 3/5=1,6=6,7=1,11=9,16=1,25=1,30=1,71=1/1,2,3;
 4//1;
 5/5=2,38=5/2;
 6/7=2,8=2,9=2,10=2,28=1/1;
 7//1,2,3,16;
 1/18=20,19=15/3(2);
 2/9=110,12=1/2;
 99//99;
 2/9=110,12=1/2;
 3/5=1,6=6,7=1,11=9,16=1,25=1,30=1,71=1/1,2,3;
 4/5=5,16=3/1;
 5/5=2,38=5/2;
 7//1,2,3,16;
 1/18=20,19=15/3(-5);
 2/9=110,12=1/2;
 6/7=2,8=2,9=2,10=2,19=2,28=1/1;
 99/9=1/99;
 ------------------
 Phi Psi fixed scan
 ------------------
 Symbolic Z-matrix:
 Charge =  0 Multiplicity = 1
 H                     1.5624    1.8816   -1.7047 
 C                     1.7794    2.5343   -0.8591 
 H                     1.7316    1.9596    0.0658 
 H                     1.0463    3.3401   -0.824 
 C                     3.1755    3.1484   -0.9815 
 O                     3.8914    2.883    -1.9446 
 N                     3.5554    3.9697    0. 
 H                     2.9312    4.1571    0.7716 
 C                     4.8533    4.6139    0. 
 H                     5.4076    4.3155    0.8898 
 C                     5.6613    4.2208   -1.2322 
 H                     5.1233    4.5214   -2.1312 
 H                     6.6305    4.7189   -1.2058 
 H                     5.8085    3.1409   -1.2414 
 C                     4.7127    6.1294    0. 
 O                     3.9095    6.6814   -0.7488 
 N                     5.4979    6.8026    0.8441 
 H                     6.143     6.3041    1.4403 
 C                     5.4589    8.248     0.9387 
 H                     4.72      8.6386    0.2391 
 H                     5.1871    8.5389    1.9534 
 H                     6.4402    8.6552    0.695 
 
 The following ModRedundant input section has been read:
 D    5    7    9   15 F                                                       
 D    7    9   15   17 F                                                       

 GradGradGradGradGradGradGradGradGradGradGradGradGradGradGradGradGradGrad
 Berny optimization.
 Initialization pass.
                           ----------------------------
                           !    Initial Parameters    !
                           ! (Angstroms and Degrees)  !
 --------------------------                            --------------------------
 ! Name  Definition              Value          Derivative Info.                !
 --------------------------------------------------------------------------------
 ! R1    R(1,2)                  1.09           estimate D2E/DX2                !
 ! R2    R(2,3)                  1.09           estimate D2E/DX2                !
 ! R3    R(2,4)                  1.0899         estimate D2E/DX2                !
 ! R4    R(2,5)                  1.5301         estimate D2E/DX2                !
 ! R5    R(5,6)                  1.229          estimate D2E/DX2                !
 ! R6    R(5,7)                  1.335          estimate D2E/DX2                !
 ! R7    R(7,8)                  1.01           estimate D2E/DX2                !
 ! R8    R(7,9)                  1.449          estimate D2E/DX2                !
 ! R9    R(9,10)                 1.09           estimate D2E/DX2                !
 ! R10   R(9,11)                 1.525          estimate D2E/DX2                !
 ! R11   R(9,15)                 1.522          estimate D2E/DX2                !
 ! R12   R(11,12)                1.09           estimate D2E/DX2                !
 ! R13   R(11,13)                1.09           estimate D2E/DX2                !
 ! R14   R(11,14)                1.0899         estimate D2E/DX2                !
 ! R15   R(15,16)                1.229          estimate D2E/DX2                !
 ! R16   R(15,17)                1.335          estimate D2E/DX2                !
 ! R17   R(17,18)                1.01           estimate D2E/DX2                !
 ! R18   R(17,19)                1.449          estimate D2E/DX2                !
 ! R19   R(19,20)                1.0899         estimate D2E/DX2                !
 ! R20   R(19,21)                1.09           estimate D2E/DX2                !
 ! R21   R(19,22)                1.09           estimate D2E/DX2                !
 ! A1    A(1,2,3)              109.5015         estimate D2E/DX2                !
 ! A2    A(1,2,4)              109.4979         estimate D2E/DX2                !
 ! A3    A(1,2,5)              111.0948         estimate D2E/DX2                !
 ! A4    A(3,2,4)              109.4502         estimate D2E/DX2                !
 ! A5    A(3,2,5)              108.6335         estimate D2E/DX2                !
 ! A6    A(4,2,5)              108.6362         estimate D2E/DX2                !
 ! A7    A(2,5,6)              120.4974         estimate D2E/DX2                !
 ! A8    A(2,5,7)              116.5994         estimate D2E/DX2                !
 ! A9    A(6,5,7)              122.9032         estimate D2E/DX2                !
 ! A10   A(5,7,8)              119.9965         estimate D2E/DX2                !
 ! A11   A(5,7,9)              121.8985         estimate D2E/DX2                !
 ! A12   A(8,7,9)              118.105          estimate D2E/DX2                !
 ! A13   A(7,9,10)             109.5            estimate D2E/DX2                !
 ! A14   A(7,9,11)             111.0992         estimate D2E/DX2                !
 ! A15   A(7,9,15)             111.0966         estimate D2E/DX2                !
 ! A16   A(10,9,11)            108.6382         estimate D2E/DX2                !
 ! A17   A(10,9,15)            108.6373         estimate D2E/DX2                !
 ! A18   A(11,9,15)            107.7947         estimate D2E/DX2                !
 ! A19   A(9,11,12)            109.5007         estimate D2E/DX2                !
 ! A20   A(9,11,13)            109.4959         estimate D2E/DX2                !
 ! A21   A(9,11,14)            109.4978         estimate D2E/DX2                !
 ! A22   A(12,11,13)           109.441          estimate D2E/DX2                !
 ! A23   A(12,11,14)           109.4482         estimate D2E/DX2                !
 ! A24   A(13,11,14)           109.4436         estimate D2E/DX2                !
 ! A25   A(9,15,16)            120.5029         estimate D2E/DX2                !
 ! A26   A(9,15,17)            116.6012         estimate D2E/DX2                !
 ! A27   A(16,15,17)           122.8959         estimate D2E/DX2                !
 ! A28   A(15,17,18)           120.0006         estimate D2E/DX2                !
 ! A29   A(15,17,19)           121.9013         estimate D2E/DX2                !
 ! A30   A(18,17,19)           118.0981         estimate D2E/DX2                !
 ! A31   A(17,19,20)           109.5004         estimate D2E/DX2                !
 ! A32   A(17,19,21)           109.4935         estimate D2E/DX2                !
 ! A33   A(17,19,22)           109.5003         estimate D2E/DX2                !
 ! A34   A(20,19,21)           109.441          estimate D2E/DX2                !
 ! A35   A(20,19,22)           109.4464         estimate D2E/DX2                !
 ! A36   A(21,19,22)           109.4457         estimate D2E/DX2                !
 ! D1    D(1,2,5,6)             -0.0016         estimate D2E/DX2                !
 ! D2    D(1,2,5,7)            179.9943         estimate D2E/DX2                !
 ! D3    D(3,2,5,6)            120.5076         estimate D2E/DX2                !
 ! D4    D(3,2,5,7)            -59.4965         estimate D2E/DX2                !
 ! D5    D(4,2,5,6)           -120.5083         estimate D2E/DX2                !
 ! D6    D(4,2,5,7)             59.4876         estimate D2E/DX2                !
 ! D7    D(2,5,7,8)              0.0085         estimate D2E/DX2                !
 ! D8    D(2,5,7,9)            179.9978         estimate D2E/DX2                !
 ! D9    D(6,5,7,8)           -179.9958         estimate D2E/DX2                !
 ! D10   D(6,5,7,9)             -0.0064         estimate D2E/DX2                !
 ! D11   D(5,7,9,10)          -119.9959         estimate D2E/DX2                !
 ! D12   D(5,7,9,11)             0.0067         estimate D2E/DX2                !
 ! D13   D(5,7,9,15)           120.0043         Frozen                          !
 ! D14   D(8,7,9,10)            59.9937         estimate D2E/DX2                !
 ! D15   D(8,7,9,11)           179.9963         estimate D2E/DX2                !
 ! D16   D(8,7,9,15)           -60.0061         estimate D2E/DX2                !
 ! D17   D(7,9,11,12)           60.0024         estimate D2E/DX2                !
 ! D18   D(7,9,11,13)          179.9986         estimate D2E/DX2                !
 ! D19   D(7,9,11,14)          -60.0038         estimate D2E/DX2                !
 ! D20   D(10,9,11,12)        -179.4843         estimate D2E/DX2                !
 ! D21   D(10,9,11,13)         -59.4881         estimate D2E/DX2                !
 ! D22   D(10,9,11,14)          60.5095         estimate D2E/DX2                !
 ! D23   D(15,9,11,12)         -61.938          estimate D2E/DX2                !
 ! D24   D(15,9,11,13)          58.0582         estimate D2E/DX2                !
 ! D25   D(15,9,11,14)         178.0558         estimate D2E/DX2                !
 ! D26   D(7,9,15,16)          -45.001          estimate D2E/DX2                !
 ! D27   D(7,9,15,17)          134.9977         Frozen                          !
 ! D28   D(10,9,15,16)        -165.5121         estimate D2E/DX2                !
 ! D29   D(10,9,15,17)          14.4866         estimate D2E/DX2                !
 ! D30   D(11,9,15,16)          76.941          estimate D2E/DX2                !
 ! D31   D(11,9,15,17)        -103.0603         estimate D2E/DX2                !
 ! D32   D(9,15,17,18)           0.0065         estimate D2E/DX2                !
 ! D33   D(9,15,17,19)         179.9968         estimate D2E/DX2                !
 ! D34   D(16,15,17,18)       -179.9949         estimate D2E/DX2                !
 ! D35   D(16,15,17,19)         -0.0045         estimate D2E/DX2                !
 ! D36   D(15,17,19,20)          0.0072         estimate D2E/DX2                !
 ! D37   D(15,17,19,21)        120.0017         estimate D2E/DX2                !
 ! D38   D(15,17,19,22)       -119.9981         estimate D2E/DX2                !
 ! D39   D(18,17,19,20)        179.9977         estimate D2E/DX2                !
 ! D40   D(18,17,19,21)        -60.0078         estimate D2E/DX2                !
 ! D41   D(18,17,19,22)         59.9924         estimate D2E/DX2                !
 --------------------------------------------------------------------------------
 Trust Radius=3.00D-01 FncErr=1.00D-07 GrdErr=1.00D-07
 Number of steps in this run= 108 maximum allowed number of steps= 132.
 GradGradGradGradGradGradGradGradGradGradGradGradGradGradGradGradGradGrad

                          Input orientation:                          
 ---------------------------------------------------------------------
 Center     Atomic      Atomic             Coordinates (Angstroms)
 Number     Number       Type             X           Y           Z
 ---------------------------------------------------------------------
      1          1           0        1.562400    1.881600   -1.704700
      2          6           0        1.779400    2.534300   -0.859100
      3          1           0        1.731600    1.959600    0.065800
      4          1           0        1.046300    3.340100   -0.824000
      5          6           0        3.175500    3.148400   -0.981500
      6          8           0        3.891400    2.883000   -1.944600
      7          7           0        3.555400    3.969700    0.000000
      8          1           0        2.931200    4.157100    0.771600
      9          6           0        4.853300    4.613900    0.000000
     10          1           0        5.407600    4.315500    0.889800
     11          6           0        5.661300    4.220800   -1.232200
     12          1           0        5.123300    4.521400   -2.131200
     13          1           0        6.630500    4.718900   -1.205800
     14          1           0        5.808500    3.140900   -1.241400
     15          6           0        4.712700    6.129400    0.000000
     16          8           0        3.909500    6.681400   -0.748800
     17          7           0        5.497900    6.802600    0.844100
     18          1           0        6.143000    6.304100    1.440300
     19          6           0        5.458900    8.248000    0.938700
     20          1           0        4.720000    8.638600    0.239100
     21          1           0        5.187100    8.538900    1.953400
     22          1           0        6.440200    8.655200    0.695000
 ---------------------------------------------------------------------
                    Distance matrix (angstroms):
                    1          2          3          4          5
     1  H    0.000000
     2  C    1.090021   0.000000
     3  H    1.780276   1.089956   0.000000
     4  H    1.780229   1.089946   1.779652   0.000000
     5  C    2.174832   1.530097   2.143579   2.143606   0.000000
     6  O    2.546487   2.400093   3.091781   3.091808   1.229029
     7  N    3.352344   2.439795   2.714973   2.714950   1.334991
     8  H    3.630919   2.572801   2.601192   2.601207   2.037282
     9  C    4.604507   3.809416   4.098128   4.098145   2.434347
    10  H    5.238403   4.403994   4.443221   4.786382   3.137859
    11  C    4.743005   4.248839   4.715970   4.715982   2.718841
    12  H    4.453140   4.092490   4.784690   4.441415   2.645915
    13  H    5.829649   5.331590   5.764540   5.764560   3.801816
    14  H    4.453072   4.092403   4.441324   4.784606   2.645807
    15  C    5.556455   4.718797   5.126258   4.679921   3.494666
    16  O    5.427771   4.663468   5.263290   4.400893   3.615936
    17  N    6.797116   5.911558   6.184288   5.881174   4.698887
    18  H    7.101509   6.208030   6.342269   6.315750   4.962823
    19  C    7.918417   7.029735   7.361976   6.831225   5.908215
    20  H    7.707519   6.864084   7.319126   6.534551   5.832464
    21  H    8.416638   7.455052   7.667510   7.203312   6.458921
    22  H    8.685226   7.848802   8.209620   7.723458   6.617686
                    6          7          8          9         10
     6  O    0.000000
     7  N    2.252839   0.000000
     8  H    3.150088   1.010005   0.000000
     9  C    2.775380   1.448978   2.120967   0.000000
    10  H    3.519196   2.083739   2.484274   1.089970   0.000000
    11  C    2.330186   2.452791   3.387140   1.525027   2.139209
    12  H    2.058337   2.702720   3.655717   2.150225   3.041326
    13  H    3.379205   3.386959   4.232086   2.150214   2.459625
    14  H    2.058221   2.702673   3.655638   2.150165   2.466256
    15  C    3.872353   2.450234   2.767504   1.522008   2.136554
    16  O    3.982224   2.835384   3.104960   2.392910   3.244502
    17  N    5.071583   3.537108   3.686716   2.432781   2.489158
    18  H    5.313302   3.770883   3.920769   2.567989   2.190524
    19  C    6.289173   4.775806   4.811720   3.801919   3.933139
    20  H    6.211445   4.817893   4.854606   4.033999   4.425539
    21  H    6.990168   5.230278   5.068127   4.396910   4.360845
    22  H    6.839749   5.546080   5.705423   4.396974   4.465110
                   11         12         13         14         15
    11  C    0.000000
    12  H    1.089957   0.000000
    13  H    1.090023   1.779613   0.000000
    14  H    1.089925   1.779613   1.779617   0.000000
    15  C    2.461892   2.701161   2.668599   3.416575   0.000000
    16  O    3.058926   2.837242   3.385867   4.047715   1.229039
    17  N    3.317139   3.767839   3.134753   4.225379   1.335006
    18  H    3.422635   4.119881   3.122877   4.160437   2.037337
    19  C    4.579532   4.839882   4.292560   5.563949   2.434428
    20  H    4.750550   4.767841   4.593669   5.796673   2.520577
    21  H    5.386919   5.729602   5.162979   6.303276   3.137916
    22  H    4.897417   5.177831   4.375353   5.878452   3.137985
                   16         17         18         19         20
    16  O    0.000000
    17  N    2.252784   0.000000
    18  H    3.150085   1.010005   0.000000
    19  C    2.775344   1.449017   2.120930   0.000000
    20  H    2.337411   2.083758   2.986252   1.089946   0.000000
    21  H    3.519155   2.083718   2.484220   1.090006   1.779592
    22  H    3.519217   2.083815   2.484245   1.090023   1.779665
                   21         22
    21  H    0.000000
    22  H    1.779707   0.000000
 Stoichiometry    C6H12N2O2
 Framework group  C1[X(C6H12N2O2)]
 Deg. of freedom    60
 Full point group                 C1      NOp   1
 Largest Abelian subgroup         C1      NOp   1
 Largest concise Abelian subgroup C1      NOp   1
                         Standard orientation:                         
 ---------------------------------------------------------------------
 Center     Atomic      Atomic             Coordinates (Angstroms)
 Number     Number       Type             X           Y           Z
 ---------------------------------------------------------------------
      1          1           0       -4.178798   -0.888548    0.394101
      2          6           0       -3.266872   -1.226266   -0.098325
      3          1           0       -3.477675   -1.442986   -1.145512
      4          1           0       -2.901011   -2.128093    0.392425
      5          6           0       -2.175662   -0.155808   -0.030673
      6          8           0       -2.389111    0.918041    0.527715
      7          7           0       -1.007345   -0.456232   -0.602496
      8          1           0       -0.879811   -1.352778   -1.049766
      9          6           0        0.104768    0.472601   -0.605811
     10          1           0        0.379808    0.707210   -1.634085
     11          6           0       -0.260780    1.769248    0.108884
     12          1           0       -0.529718    1.551656    1.142485
     13          1           0        0.592378    2.447447    0.091066
     14          1           0       -1.106426    2.236675   -0.395430
     15          6           0        1.316445   -0.121033    0.098424
     16          8           0        1.189743   -0.705000    1.172419
     17          7           0        2.494999    0.029782   -0.510268
     18          1           0        2.548763    0.517947   -1.392830
     19          6           0        3.722434   -0.489853    0.058094
     20          1           0        3.503976   -0.986508    1.003393
     21          1           0        4.168968   -1.205008   -0.632757
     22          1           0        4.418918    0.330481    0.231624
 ---------------------------------------------------------------------
 Rotational constants (GHZ):      3.1142551      0.6868892      0.6337105
 Standard basis: 6-31G(d) (6D, 7F)
 There are   174 symmetry adapted basis functions of A   symmetry.
 Integral buffers will be    131072 words long.
 Raffenetti 1 integral format.
 Two-electron integral symmetry is turned on.
   174 basis functions,   328 primitive gaussians,   174 cartesian basis functions
    39 alpha electrons       39 beta electrons
       nuclear repulsion energy       560.6022848561 Hartrees.
 NAtoms=   22 NActive=   22 NUniq=   22 SFac= 7.50D-01 NAtFMM=   80 NAOKFM=F Big=F
 One-electron integrals computed using PRISM.
 NBasis=   174 RedAO= T  NBF=   174
 NBsUse=   174 1.00D-06 NBFU=   174
 Harris functional with IExCor=  205 diagonalized for initial guess.
 ExpMin= 1.61D-01 ExpMax= 5.48D+03 ExpMxC= 8.25D+02 IAcc=1 IRadAn=         1 AccDes= 0.00D+00
 HarFok:  IExCor=  205 AccDes= 0.00D+00 IRadAn=         1 IDoV= 1
 ScaDFX=  1.000000  1.000000  1.000000  1.000000
 FoFCou: FMM=F IPFlag=           0 FMFlag=      100000 FMFlg1=           0
         NFxFlg=           0 DoJE=T BraDBF=F KetDBF=T FulRan=T
         Omega=  0.000000  0.000000  1.000000  0.000000  0.000000 ICntrl=     500 IOpCl=  0
         NMat0=    1 NMatS0=    1 NMatT0=    0 NMatD0=    1 NMtDS0=    0 NMtDT0=    0
         I1Cent=           4 NGrid=           0.
 Petite list used in FoFCou.
 Initial guess orbital symmetries:
       Occupied  (A) (A) (A) (A) (A) (A) (A) (A) (A) (A) (A) (A)
                 (A) (A) (A) (A) (A) (A) (A) (A) (A) (A) (A) (A)
                 (A) (A) (A) (A) (A) (A) (A) (A) (A) (A) (A) (A)
                 (A) (A) (A)
       Virtual   (A) (A) (A) (A) (A) (A) (A) (A) (A) (A) (A) (A)
                 (A) (A) (A) (A) (A) (A) (A) (A) (A) (A) (A) (A)
                 (A) (A) (A) (A) (A) (A) (A) (A) (A) (A) (A) (A)
                 (A) (A) (A) (A) (A) (A) (A) (A) (A) (A) (A) (A)
                 (A) (A) (A) (A) (A) (A) (A) (A) (A) (A) (A) (A)
                 (A) (A) (A) (A) (A) (A) (A) (A) (A) (A) (A) (A)
                 (A) (A) (A) (A) (A) (A) (A) (A) (A) (A) (A) (A)
                 (A) (A) (A) (A) (A) (A) (A) (A) (A) (A) (A) (A)
                 (A) (A) (A) (A) (A) (A) (A) (A) (A) (A) (A) (A)
                 (A) (A) (A) (A) (A) (A) (A) (A) (A) (A) (A) (A)
                 (A) (A) (A) (A) (A) (A) (A) (A) (A) (A) (A) (A)
                 (A) (A) (A)
 The electronic state of the initial guess is 1-A.
 Requested convergence on RMS density matrix=1.00D-08 within 128 cycles.
 Requested convergence on MAX density matrix=1.00D-06.
 Requested convergence on             energy=1.00D-06.
 No special actions if energy rises.
 Integral accuracy reduced to 1.0D-05 until final iterations.
 Initial convergence to 1.0D-05 achieved.  Increase integral accuracy.
 SCF Done:  E(RHF) =  -492.819046142     A.U. after   15 cycles
             Convg  =    0.3636D-08             -V/T =  2.0017

 **********************************************************************

            Population analysis using the SCF density.

 **********************************************************************

 Orbital symmetries:
       Occupied  (A) (A) (A) (A) (A) (A) (A) (A) (A) (A) (A) (A)
                 (A) (A) (A) (A) (A) (A) (A) (A) (A) (A) (A) (A)
                 (A) (A) (A) (A) (A) (A) (A) (A) (A) (A) (A) (A)
                 (A) (A) (A)
       Virtual   (A) (A) (A) (A) (A) (A) (A) (A) (A) (A) (A) (A)
                 (A) (A) (A) (A) (A) (A) (A) (A) (A) (A) (A) (A)
                 (A) (A) (A) (A) (A) (A) (A) (A) (A) (A) (A) (A)
                 (A) (A) (A) (A) (A) (A) (A) (A) (A) (A) (A) (A)
                 (A) (A) (A) (A) (A) (A) (A) (A) (A) (A) (A) (A)
                 (A) (A) (A) (A) (A) (A) (A) (A) (A) (A) (A) (A)
                 (A) (A) (A) (A) (A) (A) (A) (A) (A) (A) (A) (A)
                 (A) (A) (A) (A) (A) (A) (A) (A) (A) (A) (A) (A)
                 (A) (A) (A) (A) (A) (A) (A) (A) (A) (A) (A) (A)
                 (A) (A) (A) (A) (A) (A) (A) (A) (A) (A) (A) (A)
                 (A) (A) (A) (A) (A) (A) (A) (A) (A) (A) (A) (A)
                 (A) (A) (A)
 The electronic state is 1-A.
 Alpha  occ. eigenvalues --  -20.51486 -20.50455 -15.59805 -15.59444 -11.34832
 Alpha  occ. eigenvalues --  -11.34445 -11.28311 -11.26312 -11.23275 -11.20251
 Alpha  occ. eigenvalues --   -1.37835  -1.36818  -1.23930  -1.23640  -1.05674
 Alpha  occ. eigenvalues --   -0.98547  -0.95722  -0.87713  -0.80078  -0.77887
 Alpha  occ. eigenvalues --   -0.72803  -0.69796  -0.65694  -0.63179  -0.62294
 Alpha  occ. eigenvalues --   -0.61290  -0.58941  -0.57141  -0.55966  -0.55209
 Alpha  occ. eigenvalues --   -0.54837  -0.53159  -0.51908  -0.51180  -0.49341
 Alpha  occ. eigenvalues --   -0.42231  -0.39125  -0.38547  -0.37929
 Alpha virt. eigenvalues --    0.19014   0.19952   0.21055   0.23178   0.26444
 Alpha virt. eigenvalues --    0.27886   0.29500   0.30723   0.31011   0.31884
 Alpha virt. eigenvalues --    0.32393   0.33388   0.33795   0.36458   0.36708
 Alpha virt. eigenvalues --    0.39164   0.40807   0.42880   0.47074   0.52347
 Alpha virt. eigenvalues --    0.52776   0.59372   0.62292   0.71900   0.72939
 Alpha virt. eigenvalues --    0.73866   0.74946   0.76569   0.78407   0.80227
 Alpha virt. eigenvalues --    0.81135   0.82846   0.83211   0.87569   0.90912
 Alpha virt. eigenvalues --    0.93317   0.93952   0.95980   0.97123   0.99663
 Alpha virt. eigenvalues --    1.01513   1.02387   1.03422   1.06998   1.08592
 Alpha virt. eigenvalues --    1.10866   1.14186   1.14514   1.15175   1.16351
 Alpha virt. eigenvalues --    1.16692   1.17516   1.18569   1.20427   1.20635
 Alpha virt. eigenvalues --    1.21321   1.22239   1.22804   1.23385   1.29160
 Alpha virt. eigenvalues --    1.31861   1.36147   1.39743   1.41392   1.47031
 Alpha virt. eigenvalues --    1.49545   1.53017   1.55173   1.58650   1.63331
 Alpha virt. eigenvalues --    1.66206   1.67785   1.70547   1.74340   1.76648
 Alpha virt. eigenvalues --    1.78774   1.81334   1.86804   1.93307   1.96642
 Alpha virt. eigenvalues --    1.99220   2.05742   2.11804   2.12837   2.13170
 Alpha virt. eigenvalues --    2.14903   2.16162   2.18489   2.21730   2.25092
 Alpha virt. eigenvalues --    2.25920   2.26654   2.31489   2.34094   2.36030
 Alpha virt. eigenvalues --    2.37267   2.41767   2.46762   2.49012   2.52939
 Alpha virt. eigenvalues --    2.53587   2.59123   2.60609   2.63074   2.64056
 Alpha virt. eigenvalues --    2.66120   2.69768   2.72145   2.74333   2.77585
 Alpha virt. eigenvalues --    2.80296   2.80577   2.86077   2.94958   2.96309
 Alpha virt. eigenvalues --    3.02496   3.06058   3.06603   3.13473   3.24931
 Alpha virt. eigenvalues --    3.31207   3.35916   3.39040   3.54130   3.58258
 Alpha virt. eigenvalues --    4.36229   4.45296   4.51035   4.60534   4.66596
 Alpha virt. eigenvalues --    4.67364   4.74490   4.83572   4.91132   5.11308
          Condensed to atoms (all electrons):
              1          2          3          4          5          6
     1  H    0.454466   0.385021  -0.018858  -0.017749  -0.029682   0.003772
     2  C    0.385021   5.250842   0.372724   0.375441   0.376173  -0.063995
     3  H   -0.018858   0.372724   0.523955  -0.024181  -0.036361   0.001170
     4  H   -0.017749   0.375441  -0.024181   0.505015  -0.035789   0.001033
     5  C   -0.029682   0.376173  -0.036361  -0.035789   4.185135   0.580179
     6  O    0.003772  -0.063995   0.001170   0.001033   0.580179   8.302673
     7  N    0.003796  -0.121785   0.004199   0.004087   0.251733  -0.100426
     8  H   -0.000021  -0.000048   0.000422   0.000444  -0.016617   0.002330
     9  C   -0.000055   0.002649  -0.000062  -0.000127  -0.029101   0.001948
    10  H    0.000002  -0.000078   0.000009   0.000001   0.000835   0.000005
    11  C    0.000002  -0.000128   0.000010   0.000015  -0.003757  -0.066311
    12  H    0.000008  -0.000172   0.000005  -0.000001   0.000212  -0.015200
    13  H    0.000000   0.000023  -0.000001  -0.000001   0.000276   0.004300
    14  H    0.000010  -0.000195  -0.000001   0.000004  -0.000707  -0.015590
    15  C    0.000001  -0.000180   0.000002   0.000040   0.000302  -0.000901
    16  O    0.000000  -0.000003   0.000000   0.000018   0.002444  -0.000054
    17  N    0.000000   0.000001   0.000000   0.000000   0.000033  -0.000008
    18  H    0.000000   0.000000   0.000000   0.000000  -0.000006   0.000000
    19  C    0.000000   0.000000   0.000000   0.000000   0.000000   0.000000
    20  H    0.000000   0.000000   0.000000   0.000000   0.000000   0.000000
    21  H    0.000000   0.000000   0.000000   0.000000   0.000000   0.000000
    22  H    0.000000   0.000000   0.000000   0.000000   0.000000   0.000000
              7          8          9         10         11         12
     1  H    0.003796  -0.000021  -0.000055   0.000002   0.000002   0.000008
     2  C   -0.121785  -0.000048   0.002649  -0.000078  -0.000128  -0.000172
     3  H    0.004199   0.000422  -0.000062   0.000009   0.000010   0.000005
     4  H    0.004087   0.000444  -0.000127   0.000001   0.000015  -0.000001
     5  C    0.251733  -0.016617  -0.029101   0.000835  -0.003757   0.000212
     6  O   -0.100426   0.002330   0.001948   0.000005  -0.066311  -0.015200
     7  N    7.364698   0.323607   0.199546  -0.050533  -0.042224  -0.001314
     8  H    0.323607   0.320360  -0.022725  -0.000249   0.002732  -0.000135
     9  C    0.199546  -0.022725   5.055805   0.417322   0.345840  -0.035992
    10  H   -0.050533  -0.000249   0.417322   0.556445  -0.033314   0.003881
    11  C   -0.042224   0.002732   0.345840  -0.033314   5.149982   0.406426
    12  H   -0.001314  -0.000135  -0.035992   0.003881   0.406426   0.453840
    13  H    0.004289  -0.000065  -0.034144  -0.001632   0.361637  -0.026728
    14  H   -0.001728  -0.000182  -0.036020  -0.003425   0.407889  -0.015902
    15  C   -0.057741  -0.001283   0.337668  -0.073102  -0.050114  -0.004632
    16  O    0.002115   0.000902  -0.082230   0.002715  -0.000396   0.003896
    17  N    0.001142   0.000238  -0.098080   0.009513  -0.002596   0.000559
    18  H    0.000053  -0.000004   0.000554   0.002919   0.000116  -0.000017
    19  C   -0.000105  -0.000006   0.004154  -0.000099  -0.000189   0.000005
    20  H   -0.000010  -0.000001   0.000566  -0.000032  -0.000019  -0.000004
    21  H    0.000008  -0.000001  -0.000079  -0.000008  -0.000006   0.000000
    22  H   -0.000001   0.000000  -0.000110  -0.000009   0.000041  -0.000001
             13         14         15         16         17         18
     1  H    0.000000   0.000010   0.000001   0.000000   0.000000   0.000000
     2  C    0.000023  -0.000195  -0.000180  -0.000003   0.000001   0.000000
     3  H   -0.000001  -0.000001   0.000002   0.000000   0.000000   0.000000
     4  H   -0.000001   0.000004   0.000040   0.000018   0.000000   0.000000
     5  C    0.000276  -0.000707   0.000302   0.002444   0.000033  -0.000006
     6  O    0.004300  -0.015590  -0.000901  -0.000054  -0.000008   0.000000
     7  N    0.004289  -0.001728  -0.057741   0.002115   0.001142   0.000053
     8  H   -0.000065  -0.000182  -0.001283   0.000902   0.000238  -0.000004
     9  C   -0.034144  -0.036020   0.337668  -0.082230  -0.098080   0.000554
    10  H   -0.001632  -0.003425  -0.073102   0.002715   0.009513   0.002919
    11  C    0.361637   0.407889  -0.050114  -0.000396  -0.002596   0.000116
    12  H   -0.026728  -0.015902  -0.004632   0.003896   0.000559  -0.000017
    13  H    0.581394  -0.028584  -0.005175   0.000030   0.001618   0.000103
    14  H   -0.028584   0.482767   0.005103  -0.000023  -0.000079  -0.000009
    15  C   -0.005175   0.005103   4.268452   0.596925   0.256726  -0.018145
    16  O    0.000030  -0.000023   0.596925   8.207614  -0.101311   0.002396
    17  N    0.001618  -0.000079   0.256726  -0.101311   7.342415   0.322361
    18  H    0.000103  -0.000009  -0.018145   0.002396   0.322361   0.325442
    19  C   -0.000107   0.000004  -0.027944  -0.005135   0.186446  -0.022631
    20  H   -0.000004   0.000000  -0.001637   0.011111  -0.031826   0.002309
    21  H    0.000002   0.000000   0.000515   0.000397  -0.047804  -0.000953
    22  H   -0.000008   0.000000   0.001550   0.000370  -0.047756  -0.001102
             19         20         21         22
     1  H    0.000000   0.000000   0.000000   0.000000
     2  C    0.000000   0.000000   0.000000   0.000000
     3  H    0.000000   0.000000   0.000000   0.000000
     4  H    0.000000   0.000000   0.000000   0.000000
     5  C    0.000000   0.000000   0.000000   0.000000
     6  O    0.000000   0.000000   0.000000   0.000000
     7  N   -0.000105  -0.000010   0.000008  -0.000001
     8  H   -0.000006  -0.000001  -0.000001   0.000000
     9  C    0.004154   0.000566  -0.000079  -0.000110
    10  H   -0.000099  -0.000032  -0.000008  -0.000009
    11  C   -0.000189  -0.000019  -0.000006   0.000041
    12  H    0.000005  -0.000004   0.000000  -0.000001
    13  H   -0.000107  -0.000004   0.000002  -0.000008
    14  H    0.000004   0.000000   0.000000   0.000000
    15  C   -0.027944  -0.001637   0.000515   0.001550
    16  O   -0.005135   0.011111   0.000397   0.000370
    17  N    0.186446  -0.031826  -0.047804  -0.047756
    18  H   -0.022631   0.002309  -0.000953  -0.001102
    19  C    4.957452   0.395870   0.402311   0.402301
    20  H    0.395870   0.428202  -0.022478  -0.022012
    21  H    0.402311  -0.022478   0.536344  -0.036538
    22  H    0.402301  -0.022012  -0.036538   0.530980
 Mulliken atomic charges:
              1
     1  H    0.219288
     2  C   -0.576288
     3  H    0.176968
     4  H    0.191749
     5  C    0.754699
     6  O   -0.634923
     7  N   -0.783406
     8  H    0.390300
     9  C   -0.027327
    10  H    0.168835
    11  C   -0.475636
    12  H    0.231263
    13  H    0.142776
    14  H    0.206666
    15  C    0.773571
    16  O   -0.641779
    17  N   -0.791591
    18  H    0.386615
    19  C   -0.292327
    20  H    0.239964
    21  H    0.168288
    22  H    0.172294
 Sum of Mulliken atomic charges =   0.00000
 Mulliken charges with hydrogens summed into heavy atoms:
              1
     2  C    0.011718
     5  C    0.754699
     6  O   -0.634923
     7  N   -0.393106
     9  C    0.141508
    11  C    0.105070
    15  C    0.773571
    16  O   -0.641779
    17  N   -0.404976
    19  C    0.288219
 Sum of Mulliken charges with hydrogens summed into heavy atoms =   0.00000
 Electronic spatial extent (au):  <R**2>=           1879.5187
 Charge=              0.0000 electrons
 Dipole moment (field-independent basis, Debye):
    X=              2.4308    Y=             -1.5560    Z=             -5.0584  Tot=              5.8238
 Quadrupole moment (field-independent basis, Debye-Ang):
   XX=            -53.5071   YY=            -60.6395   ZZ=            -61.5484
   XY=              8.8716   XZ=             -1.3768   YZ=              0.9558
 Traceless Quadrupole moment (field-independent basis, Debye-Ang):
   XX=              5.0579   YY=             -2.0745   ZZ=             -2.9834
   XY=              8.8716   XZ=             -1.3768   YZ=              0.9558
 Octapole moment (field-independent basis, Debye-Ang**2):
  XXX=             35.6780  YYY=             -6.6643  ZZZ=             -6.2347  XYY=              1.3798
  XXY=            -19.9969  XXZ=            -12.7618  XZZ=              2.0748  YZZ=              1.4041
  YYZ=             -4.3648  XYZ=              1.9050
 Hexadecapole moment (field-independent basis, Debye-Ang**3):
 XXXX=          -1731.7617 YYYY=           -380.4144 ZZZZ=           -182.2790 XXXY=             33.9526
 XXXZ=              2.9552 YYYX=             -1.8059 YYYZ=              1.8237 ZZZX=            -12.9399
 ZZZY=              2.0061 XXYY=           -380.8072 XXZZ=           -335.1267 YYZZ=            -91.3450
 XXYZ=            -15.1514 YYXZ=              1.1503 ZZXY=              6.7558
 N-N= 5.606022848561D+02 E-N=-2.276879646965D+03  KE= 4.919775849132D+02
 Calling FoFJK, ICntrl=      2127 FMM=F ISym2X=0 I1Cent= 0 IOpClX= 0 NMat=1 NMatS=1 NMatT=0.
 ***** Axes restored to original set *****
 -------------------------------------------------------------------
 Center     Atomic                   Forces (Hartrees/Bohr)
 Number     Number              X              Y              Z
 -------------------------------------------------------------------
      1        1           0.005664670    0.006009270    0.005128172
      2        6           0.006295943    0.006156871    0.004464232
      3        1          -0.004100683    0.001678405   -0.002358202
      4        1          -0.000349099   -0.004632031    0.001617350
      5        6           0.003667271   -0.028479131   -0.054060329
      6        8          -0.060305869   -0.012956172    0.029137344
      7        7           0.003705827    0.008331850    0.018972465
      8        1           0.007426384   -0.002591032   -0.013322975
      9        6           0.005942721    0.002827918    0.003520312
     10        1          -0.003042287   -0.001631414    0.000082706
     11        6           0.021817155    0.005503950   -0.005902319
     12        1           0.014893323   -0.000772850    0.009229570
     13        1          -0.000781248    0.001884266    0.004488402
     14        1           0.007216487    0.015182105   -0.002427794
     15        6          -0.042288178    0.016125176   -0.029921520
     16        8           0.027454566   -0.019444980    0.026156773
     17        7           0.010931505   -0.001012585    0.010986854
     18        1          -0.010546007    0.006806891   -0.009725713
     19        6           0.003066520    0.003737419    0.000712844
     20        1           0.006532012   -0.005661376    0.005851107
     21        1           0.001548087    0.001482156   -0.004326101
     22        1          -0.004749100    0.001455294    0.001696821
 -------------------------------------------------------------------
 Cartesian Forces:  Max     0.060305869 RMS     0.015565278

 GradGradGradGradGradGradGradGradGradGradGradGradGradGradGradGradGradGrad
 Berny optimization.
 Internal  Forces:  Max     0.140035490 RMS     0.025123840
 Search for a local minimum.
 Step number   1 out of a maximum of  108
 All quantities printed in internal units (Hartrees-Bohrs-Radians)
 Mixed Optimization -- RFO/linear search
 Second derivative matrix not updated -- first step.
     Eigenvalues ---    0.00368   0.00435   0.00999   0.01043   0.01269
     Eigenvalues ---    0.01422   0.01660   0.02552   0.02552   0.03503
     Eigenvalues ---    0.05232   0.05841   0.05844   0.05844   0.07165
     Eigenvalues ---    0.07463   0.07685   0.07686   0.15421   0.16000
     Eigenvalues ---    0.16000   0.16000   0.16000   0.16000   0.16000
     Eigenvalues ---    0.16000   0.16000   0.16000   0.16000   0.16000
     Eigenvalues ---    0.16180   0.22000   0.22000   0.25000   0.25000
     Eigenvalues ---    0.25000   0.25000   0.29414   0.29887   0.30174
     Eigenvalues ---    0.34810   0.34810   0.34810   0.34812   0.34816
     Eigenvalues ---    0.34818   0.34818   0.34819   0.34819   0.34821
     Eigenvalues ---    0.38374   0.38379   0.45972   0.45972   0.58339
     Eigenvalues ---    0.58342   0.91488   0.914921000.000001000.00000
     Eigenvalues --- 1000.000001000.000001000.000001000.000001000.00000
     Eigenvalues --- 1000.000001000.000001000.000001000.000001000.00000
     Eigenvalues --- 1000.000001000.000001000.000001000.000001000.00000
     Eigenvalues --- 1000.000001000.000001000.000001000.000001000.00000
     Eigenvalues --- 1000.000001000.000001000.000001000.000001000.00000
     Eigenvalues --- 1000.000001000.000001000.000001000.000001000.00000
     Eigenvalues --- 1000.000001000.000001000.000001000.000001000.00000
     Eigenvalues --- 1000.000001000.000001000.00000
 RFO step:  Lambda=-1.53175408D-01 EMin= 3.67826363D-03
 Linear search not attempted -- first point.
 Maximum step size (   0.300) exceeded in Quadratic search.
    -- Step size scaled by   0.459
 Iteration  1 RMS(Cart)=  0.18474155 RMS(Int)=  0.00876903
 Iteration  2 RMS(Cart)=  0.01957492 RMS(Int)=  0.00023241
 Iteration  3 RMS(Cart)=  0.00022446 RMS(Int)=  0.00021780
 Iteration  4 RMS(Cart)=  0.00000005 RMS(Int)=  0.00021780
 Iteration  1 RMS(Cart)=  0.00007390 RMS(Int)=  0.00004131
 Iteration  2 RMS(Cart)=  0.00004904 RMS(Int)=  0.00004567
 Iteration  3 RMS(Cart)=  0.00003299 RMS(Int)=  0.00005246
 Iteration  4 RMS(Cart)=  0.00002234 RMS(Int)=  0.00005811
 Iteration  5 RMS(Cart)=  0.00001517 RMS(Int)=  0.00006224
 Iteration  6 RMS(Cart)=  0.00001030 RMS(Int)=  0.00006513
 Iteration  7 RMS(Cart)=  0.00000700 RMS(Int)=  0.00006712
 Iteration  8 RMS(Cart)=  0.00000474 RMS(Int)=  0.00006847
 Iteration  9 RMS(Cart)=  0.00000321 RMS(Int)=  0.00006939
 Iteration 10 RMS(Cart)=  0.00000218 RMS(Int)=  0.00007001
 Iteration 11 RMS(Cart)=  0.00000147 RMS(Int)=  0.00007042
 Iteration 12 RMS(Cart)=  0.00000099 RMS(Int)=  0.00007071
 Variable       Old X    -DE/DX   Delta X   Delta X   Delta X     New X
                                 (Linear)    (Quad)   (Total)
    R1        2.05984  -0.00870   0.00000  -0.00797  -0.00797   2.05187
    R2        2.05972  -0.00271   0.00000  -0.00248  -0.00248   2.05724
    R3        2.05970  -0.00314   0.00000  -0.00287  -0.00287   2.05682
    R4        2.89146  -0.00984   0.00000  -0.01010  -0.01010   2.88136
    R5        2.32253  -0.05516   0.00000  -0.02372  -0.02372   2.29881
    R6        2.52277   0.04562   0.00000   0.02844   0.02844   2.55121
    R7        1.90863  -0.01525   0.00000  -0.01143  -0.01143   1.89721
    R8        2.73817   0.04581   0.00000   0.03918   0.03918   2.77735
    R9        2.05975  -0.00103   0.00000  -0.00095  -0.00095   2.05880
   R10        2.88188   0.01289   0.00000   0.01309   0.01309   2.89498
   R11        2.87618   0.00422   0.00000   0.00426   0.00426   2.88044
   R12        2.05972  -0.01518   0.00000  -0.01390  -0.01390   2.04582
   R13        2.05984   0.00028   0.00000   0.00025   0.00025   2.06010
   R14        2.05966  -0.01405   0.00000  -0.01287  -0.01287   2.04679
   R15        2.32255  -0.04261   0.00000  -0.01832  -0.01832   2.30422
   R16        2.52280   0.01071   0.00000   0.00668   0.00668   2.52947
   R17        1.90863  -0.01584   0.00000  -0.01187  -0.01187   1.89677
   R18        2.73825   0.00110   0.00000   0.00094   0.00094   2.73918
   R19        2.05970  -0.01021   0.00000  -0.00935  -0.00935   2.05034
   R20        2.05981  -0.00402   0.00000  -0.00368  -0.00368   2.05613
   R21        2.05985  -0.00411   0.00000  -0.00377  -0.00377   2.05608
    A1        1.91116   0.00045   0.00000   0.00047   0.00049   1.91166
    A2        1.91110   0.00072   0.00000   0.00078   0.00081   1.91190
    A3        1.93897  -0.00833   0.00000  -0.01244  -0.01242   1.92655
    A4        1.91027  -0.00448   0.00000  -0.00608  -0.00612   1.90415
    A5        1.89601   0.00624   0.00000   0.00928   0.00927   1.90529
    A6        1.89606   0.00543   0.00000   0.00806   0.00805   1.90411
    A7        2.10308  -0.02538   0.00000  -0.02891  -0.02891   2.07417
    A8        2.03504  -0.04240   0.00000  -0.04829  -0.04829   1.98675
    A9        2.14506   0.06778   0.00000   0.07720   0.07720   2.22226
   A10        2.09433  -0.07184   0.00000  -0.08883  -0.08884   2.00550
   A11        2.12753   0.14004   0.00000   0.17233   0.17232   2.29985
   A12        2.06132  -0.06820   0.00000  -0.08349  -0.08350   1.97782
   A13        1.91114  -0.02015   0.00000  -0.01703  -0.01712   1.89402
   A14        1.93905   0.08136   0.00000   0.10552   0.10550   2.04455
   A15        1.93900  -0.03239   0.00000  -0.04023  -0.03957   1.89944
   A16        1.89609  -0.01952   0.00000  -0.02953  -0.02996   1.86613
   A17        1.89608   0.01688   0.00000   0.01588   0.01459   1.91067
   A18        1.88137  -0.02705   0.00000  -0.03623  -0.03537   1.84600
   A19        1.91115   0.00973   0.00000   0.01529   0.01517   1.92632
   A20        1.91106  -0.01261   0.00000  -0.02051  -0.02043   1.89063
   A21        1.91110   0.01122   0.00000   0.01745   0.01733   1.92843
   A22        1.91011  -0.00212   0.00000  -0.00511  -0.00503   1.90507
   A23        1.91023  -0.00331   0.00000  -0.00082  -0.00113   1.90911
   A24        1.91015  -0.00292   0.00000  -0.00631  -0.00622   1.90393
   A25        2.10317   0.00226   0.00000   0.00257   0.00245   2.10562
   A26        2.03507  -0.00524   0.00000  -0.00597  -0.00610   2.02897
   A27        2.14494   0.00298   0.00000   0.00340   0.00327   2.14821
   A28        2.09441  -0.00475   0.00000  -0.00611  -0.00611   2.08829
   A29        2.12758   0.00730   0.00000   0.00899   0.00899   2.13657
   A30        2.06120  -0.00255   0.00000  -0.00288  -0.00288   2.05832
   A31        1.91114  -0.00482   0.00000  -0.00733  -0.00732   1.90382
   A32        1.91102   0.00381   0.00000   0.00570   0.00569   1.91671
   A33        1.91114   0.00486   0.00000   0.00728   0.00727   1.91841
   A34        1.91011  -0.00019   0.00000  -0.00058  -0.00057   1.90954
   A35        1.91020  -0.00057   0.00000  -0.00106  -0.00105   1.90915
   A36        1.91019  -0.00309   0.00000  -0.00401  -0.00403   1.90615
    D1       -0.00003  -0.00029   0.00000  -0.00075  -0.00072  -0.00075
    D2        3.14149   0.00024   0.00000   0.00071   0.00069  -3.14101
    D3        2.10326  -0.00084   0.00000  -0.00186  -0.00187   2.10139
    D4       -1.03841  -0.00032   0.00000  -0.00041  -0.00046  -1.03887
    D5       -2.10327   0.00046   0.00000   0.00077   0.00082  -2.10245
    D6        1.03825   0.00099   0.00000   0.00222   0.00223   1.04048
    D7        0.00015  -0.00022   0.00000  -0.00216  -0.00205  -0.00190
    D8        3.14155   0.00122   0.00000   0.00461   0.00444  -3.13719
    D9       -3.14152   0.00032   0.00000  -0.00067  -0.00050   3.14116
   D10       -0.00011   0.00175   0.00000   0.00609   0.00598   0.00587
   D11       -2.09432  -0.00922   0.00000  -0.01672  -0.01646  -2.11079
   D12        0.00012   0.00479   0.00000   0.00213   0.00287   0.00298
   D13        2.09447   0.00333   0.00000   0.00000   0.00000   2.09447
   D14        1.04709  -0.00781   0.00000  -0.01008  -0.01006   1.03703
   D15        3.14153   0.00620   0.00000   0.00878   0.00927  -3.13238
   D16       -1.04730   0.00474   0.00000   0.00664   0.00640  -1.04090
   D17        1.04724  -0.00230   0.00000  -0.00140  -0.00139   1.04585
   D18        3.14157  -0.00666   0.00000  -0.01086  -0.01095   3.13062
   D19       -1.04726  -0.01109   0.00000  -0.02048  -0.02067  -1.06794
   D20       -3.13259   0.01049   0.00000   0.02374   0.02356  -3.10904
   D21       -1.03826   0.00613   0.00000   0.01428   0.01400  -1.02426
   D22        1.05609   0.00170   0.00000   0.00466   0.00427   1.06036
   D23       -1.08102   0.00517   0.00000   0.00682   0.00729  -1.07373
   D24        1.01331   0.00081   0.00000  -0.00264  -0.00227   1.01104
   D25        3.10766  -0.00362   0.00000  -0.01226  -0.01200   3.09566
   D26       -0.78542  -0.03220   0.00000  -0.02872  -0.02886  -0.81428
   D27        2.35615  -0.03095   0.00000   0.00000   0.00000   2.35615
   D28       -2.88873   0.00187   0.00000   0.00699   0.00696  -2.88177
   D29        0.25284   0.00313   0.00000   0.03570   0.03582   0.28866
   D30        1.34287   0.03073   0.00000   0.05327   0.05360   1.39648
   D31       -1.79874   0.03199   0.00000   0.08198   0.08246  -1.71628
   D32        0.00011  -0.00119   0.00000  -0.01610  -0.01619  -0.01608
   D33        3.14154  -0.00184   0.00000  -0.01785  -0.01793   3.12360
   D34       -3.14150   0.00009   0.00000   0.01336   0.01344  -3.12806
   D35       -0.00008  -0.00055   0.00000   0.01162   0.01170   0.01162
   D36        0.00013   0.00038   0.00000   0.00099   0.00098   0.00111
   D37        2.09442  -0.00048   0.00000  -0.00073  -0.00074   2.09369
   D38       -2.09436   0.00105   0.00000   0.00232   0.00234  -2.09202
   D39        3.14155  -0.00025   0.00000  -0.00073  -0.00073   3.14082
   D40       -1.04733  -0.00111   0.00000  -0.00244  -0.00246  -1.04979
   D41        1.04706   0.00042   0.00000   0.00061   0.00062   1.04769
         Item               Value     Threshold  Converged?
 Maximum Force            0.140035     0.000450     NO 
 RMS     Force            0.024885     0.000300     NO 
 Maximum Displacement     0.670694     0.001800     NO 
 RMS     Displacement     0.195710     0.001200     NO 
 Predicted change in Energy=-6.107238D-02
 GradGradGradGradGradGradGradGradGradGradGradGradGradGradGradGradGradGrad

                          Input orientation:                          
 ---------------------------------------------------------------------
 Center     Atomic      Atomic             Coordinates (Angstroms)
 Number     Number       Type             X           Y           Z
 ---------------------------------------------------------------------
      1          1           0        1.284948    1.952581   -1.497669
      2          6           0        1.662799    2.620403   -0.729419
      3          1           0        1.669033    2.105307    0.229635
      4          1           0        1.019687    3.495715   -0.659387
      5          6           0        3.080727    3.068794   -1.066002
      6          8           0        3.599324    2.658000   -2.086847
      7          7           0        3.620024    3.903983   -0.152641
      8          1           0        3.023239    4.123001    0.624413
      9          6           0        4.930278    4.566307   -0.084760
     10          1           0        5.428596    4.254371    0.832473
     11          6           0        5.907236    4.302414   -1.234891
     12          1           0        5.478216    4.624635   -2.175177
     13          1           0        6.819988    4.867729   -1.045829
     14          1           0        6.149082    3.248222   -1.292605
     15          6           0        4.717931    6.075496   -0.059694
     16          8           0        3.949779    6.608113   -0.842675
     17          7           0        5.440934    6.760338    0.834702
     18          1           0        6.066750    6.270002    1.447394
     19          6           0        5.360719    8.202344    0.958292
     20          1           0        4.648133    8.581386    0.233197
     21          1           0        5.032851    8.469008    1.960922
     22          1           0        6.336726    8.645253    0.771069
 ---------------------------------------------------------------------
                    Distance matrix (angstroms):
                    1          2          3          4          5
     1  H    0.000000
     2  C    1.085801   0.000000
     3  H    1.776070   1.088645   0.000000
     4  H    1.776046   1.088425   1.773483   0.000000
     5  C    2.158029   1.524750   2.144729   2.143707   0.000000
     6  O    2.490197   2.365196   3.065548   3.064953   1.216478
     7  N    3.327108   2.410598   2.680996   2.680527   1.350041
     8  H    3.497943   2.437511   2.461872   2.460863   1.993028
     9  C    4.702797   3.857272   4.097693   4.095007   2.574145
    10  H    5.281820   4.392105   4.372208   4.715897   3.243808
    11  C    5.191948   4.593464   4.993444   4.986993   3.088608
    12  H    5.018206   4.545830   5.161396   4.842578   3.065757
    13  H    6.272074   5.634464   5.982484   5.972876   4.149536
    14  H    5.037910   4.564874   4.867680   5.174254   3.081939
    15  C    5.554419   4.660475   5.014169   4.548836   3.568382
    16  O    5.404102   4.598362   5.160127   4.278557   3.651289
    17  N    6.769542   5.818921   6.021848   5.695392   4.776061
    18  H    7.083723   6.119875   6.177987   6.132538   5.047893
    19  C    7.855138   6.905147   7.164729   6.604074   5.970718
    20  H    7.632035   6.735886   7.128439   6.310814   5.876508
    21  H    8.274808   7.266455   7.403331   6.906891   6.491176
    22  H    8.686742   7.771479   8.053037   7.538889   6.713662
                    6          7          8          9         10
     6  O    0.000000
     7  N    2.300881   0.000000
     8  H    3.135129   1.003959   0.000000
     9  C    3.069434   1.469709   2.082365   0.000000
    10  H    3.796981   2.089056   2.417910   1.089470   0.000000
    11  C    2.959119   2.561513   3.436079   1.531956   2.122593
    12  H    2.721340   2.839519   3.757160   2.161823   3.030762
    13  H    4.042190   3.459242   4.214217   2.141381   2.416650
    14  H    2.735041   2.850557   3.769760   2.163729   2.459145
    15  C    4.127943   2.435058   2.674363   1.524261   2.148838
    16  O    4.156222   2.810196   3.030941   2.388469   3.245478
    17  N    5.362477   3.528360   3.583994   2.433095   2.505999
    18  H    5.623664   3.760933   3.814429   2.557663   2.201848
    19  C    6.566212   4.768658   4.713420   3.807099   3.950561
    20  H    6.447411   4.804578   4.761357   4.037518   4.437490
    21  H    7.225458   5.225196   4.971174   4.407540   4.381002
    22  H    7.176925   5.541963   5.608161   4.398675   4.484230
                   11         12         13         14         15
    11  C    0.000000
    12  H    1.082600   0.000000
    13  H    1.090156   1.770557   0.000000
    14  H    1.083117   1.767345   1.770259   0.000000
    15  C    2.437079   2.675500   2.617214   3.400256   0.000000
    16  O    3.049872   2.836524   3.362783   4.040822   1.219343
    17  N    3.246851   3.690798   3.003358   4.166758   1.338539
    18  H    3.330389   4.022017   2.958022   4.079892   2.031861
    19  C    4.507570   4.757356   4.155192   5.498307   2.443963
    20  H    4.695766   4.705866   4.488218   5.746612   2.523913
    21  H    5.323370   5.664350   5.020320   6.252040   3.148168
    22  H    4.802977   5.057942   4.219520   5.781168   3.148701
                   16         17         18         19         20
    16  O    0.000000
    17  N    2.249514   0.000000
    18  H    3.136925   1.003726   0.000000
    19  C    2.788514   1.449513   2.114626   0.000000
    20  H    2.353509   2.075224   2.971404   1.084996   0.000000
    21  H    3.534987   2.086732   2.483603   1.088059   1.773604
    22  H    3.528686   2.087917   2.484376   1.088030   1.773339
                   21         22
    21  H    0.000000
    22  H    1.773951   0.000000
 Stoichiometry    C6H12N2O2
 Framework group  C1[X(C6H12N2O2)]
 Deg. of freedom    60
 Full point group                 C1      NOp   1
 Largest Abelian subgroup         C1      NOp   1
 Largest concise Abelian subgroup C1      NOp   1
                         Standard orientation:                         
 ---------------------------------------------------------------------
 Center     Atomic      Atomic             Coordinates (Angstroms)
 Number     Number       Type             X           Y           Z
 ---------------------------------------------------------------------
      1          1           0       -4.146150   -1.161018    0.259525
      2          6           0       -3.174955   -1.354910   -0.185617
      3          1           0       -3.295982   -1.560611   -1.247779
      4          1           0       -2.720144   -2.219126    0.294949
      5          6           0       -2.260015   -0.147799   -0.010607
      6          8           0       -2.687352    0.833505    0.567534
      7          7           0       -1.029893   -0.314180   -0.541387
      8          1           0       -0.874916   -1.204594   -0.978514
      9          6           0        0.141641    0.571688   -0.594223
     10          1           0        0.401400    0.739969   -1.638805
     11          6           0        0.005200    1.950640    0.059047
     12          1           0       -0.221596    1.847721    1.112609
     13          1           0        0.952574    2.478248   -0.052995
     14          1           0       -0.778002    2.522759   -0.423048
     15          6           0        1.305931   -0.109521    0.115532
     16          8           0        1.148486   -0.634260    1.204871
     17          7           0        2.489267   -0.061726   -0.508261
     18          1           0        2.562693    0.393978   -1.399558
     19          6           0        3.689476   -0.646337    0.056378
     20          1           0        3.448254   -1.096357    1.013723
     21          1           0        4.078643   -1.409730   -0.614182
     22          1           0        4.444875    0.123566    0.199314
 ---------------------------------------------------------------------
 Rotational constants (GHZ):      2.8513465      0.6745083      0.6131703
 Standard basis: 6-31G(d) (6D, 7F)
 There are   174 symmetry adapted basis functions of A   symmetry.
 Integral buffers will be    131072 words long.
 Raffenetti 1 integral format.
 Two-electron integral symmetry is turned on.
   174 basis functions,   328 primitive gaussians,   174 cartesian basis functions
    39 alpha electrons       39 beta electrons
       nuclear repulsion energy       552.9070895415 Hartrees.
 NAtoms=   22 NActive=   22 NUniq=   22 SFac= 7.50D-01 NAtFMM=   80 NAOKFM=F Big=F
 One-electron integrals computed using PRISM.
 NBasis=   174 RedAO= T  NBF=   174
 NBsUse=   174 1.00D-06 NBFU=   174
 Initial guess read from the read-write file.
 B after Tr=     0.000000    0.000000    0.000000
         Rot=    1.000000    0.000000    0.000000    0.000000 Ang=   0.00 deg.
 Initial guess orbital symmetries:
       Occupied  (A) (A) (A) (A) (A) (A) (A) (A) (A) (A) (A) (A)
                 (A) (A) (A) (A) (A) (A) (A) (A) (A) (A) (A) (A)
                 (A) (A) (A) (A) (A) (A) (A) (A) (A) (A) (A) (A)
                 (A) (A) (A)
       Virtual   (A) (A) (A) (A) (A) (A) (A) (A) (A) (A) (A) (A)
                 (A) (A) (A) (A) (A) (A) (A) (A) (A) (A) (A) (A)
                 (A) (A) (A) (A) (A) (A) (A) (A) (A) (A) (A) (A)
                 (A) (A) (A) (A) (A) (A) (A) (A) (A) (A) (A) (A)
                 (A) (A) (A) (A) (A) (A) (A) (A) (A) (A) (A) (A)
                 (A) (A) (A) (A) (A) (A) (A) (A) (A) (A) (A) (A)
                 (A) (A) (A) (A) (A) (A) (A) (A) (A) (A) (A) (A)
                 (A) (A) (A) (A) (A) (A) (A) (A) (A) (A) (A) (A)
                 (A) (A) (A) (A) (A) (A) (A) (A) (A) (A) (A) (A)
                 (A) (A) (A) (A) (A) (A) (A) (A) (A) (A) (A) (A)
                 (A) (A) (A) (A) (A) (A) (A) (A) (A) (A) (A) (A)
                 (A) (A) (A)
 Harris functional with IExCor=  205 diagonalized for initial guess.
 ExpMin= 1.61D-01 ExpMax= 5.48D+03 ExpMxC= 8.25D+02 IAcc=1 IRadAn=         1 AccDes= 0.00D+00
 HarFok:  IExCor=  205 AccDes= 0.00D+00 IRadAn=         1 IDoV= 1
 ScaDFX=  1.000000  1.000000  1.000000  1.000000
 FoFCou: FMM=F IPFlag=           0 FMFlag=      100000 FMFlg1=           0
         NFxFlg=           0 DoJE=T BraDBF=F KetDBF=T FulRan=T
         Omega=  0.000000  0.000000  1.000000  0.000000  0.000000 ICntrl=     500 IOpCl=  0
         NMat0=    1 NMatS0=    1 NMatT0=    0 NMatD0=    1 NMtDS0=    0 NMtDT0=    0
         I1Cent=           4 NGrid=           0.
 Petite list used in FoFCou.
 Requested convergence on RMS density matrix=1.00D-08 within 128 cycles.
 Requested convergence on MAX density matrix=1.00D-06.
 Requested convergence on             energy=1.00D-06.
 No special actions if energy rises.
 Integral accuracy reduced to 1.0D-05 until final iterations.
 Initial convergence to 1.0D-05 achieved.  Increase integral accuracy.
 SCF Done:  E(RHF) =  -492.840172720     A.U. after   15 cycles
             Convg  =    0.6650D-08             -V/T =  2.0020
 Calling FoFJK, ICntrl=      2127 FMM=F ISym2X=0 I1Cent= 0 IOpClX= 0 NMat=1 NMatS=1 NMatT=0.
 ***** Axes restored to original set *****
 -------------------------------------------------------------------
 Center     Atomic                   Forces (Hartrees/Bohr)
 Number     Number              X              Y              Z
 -------------------------------------------------------------------
      1        1           0.004676222    0.003698562    0.002516975
      2        6           0.003157961    0.004888326    0.004904330
      3        1          -0.003642007    0.001090777   -0.001286904
      4        1          -0.001171353   -0.003378223    0.001434334
      5        6          -0.001270900   -0.020620274   -0.037256894
      6        8          -0.000684081    0.016163730    0.028247242
      7        7           0.012711560    0.005206363    0.012965802
      8        1           0.004617553   -0.000779791   -0.007482875
      9        6          -0.003018556   -0.001223189   -0.003083274
     10        1          -0.004743696   -0.000825391    0.000319244
     11        6          -0.003849092   -0.006471899   -0.003229242
     12        1           0.001854494   -0.002119921    0.001356183
     13        1          -0.003058988   -0.002192289   -0.000077779
     14        1           0.000163400    0.001992145   -0.002156595
     15        6          -0.028849571    0.012982835   -0.023867410
     16        8           0.018216600   -0.013347060    0.020724674
     17        7           0.007449646    0.000690828    0.009462592
     18        1          -0.006794814    0.003988212   -0.005944561
     19        6           0.002500000    0.001694931    0.000767341
     20        1           0.003957763   -0.003493447    0.003714071
     21        1           0.001058166    0.001140168   -0.002898016
     22        1          -0.003280306    0.000914605    0.000870763
 -------------------------------------------------------------------
 Cartesian Forces:  Max     0.037256894 RMS     0.009855476

 GradGradGradGradGradGradGradGradGradGradGradGradGradGradGradGradGradGrad
 Berny optimization.
 Using GEDIIS/GDIIS optimizer.
 Internal  Forces:  Max     0.030614037 RMS     0.006339599
 Search for a local minimum.
 Step number   2 out of a maximum of  108
 All quantities printed in internal units (Hartrees-Bohrs-Radians)
 Mixed Optimization -- RFO/linear search
 Update second derivatives using D2CorX and points    1    2
 DE= -2.11D-02 DEPred=-6.11D-02 R= 3.46D-01
 Trust test= 3.46D-01 RLast= 3.00D-01 DXMaxT set to 3.00D-01
 Use linear search instead of GDIIS.
     Eigenvalues ---    0.00368   0.00435   0.01001   0.01043   0.01344
     Eigenvalues ---    0.01419   0.01659   0.02551   0.02552   0.03522
     Eigenvalues ---    0.04962   0.05707   0.05923   0.06110   0.07212
     Eigenvalues ---    0.07384   0.07623   0.07706   0.15861   0.15981
     Eigenvalues ---    0.16000   0.16000   0.16000   0.16000   0.16000
     Eigenvalues ---    0.16000   0.16000   0.16000   0.16000   0.16482
     Eigenvalues ---    0.17163   0.21981   0.24294   0.24903   0.24990
     Eigenvalues ---    0.25000   0.29395   0.29860   0.30155   0.34630
     Eigenvalues ---    0.34758   0.34810   0.34811   0.34812   0.34815
     Eigenvalues ---    0.34817   0.34818   0.34819   0.34820   0.36945
     Eigenvalues ---    0.38374   0.45743   0.45971   0.56550   0.58238
     Eigenvalues ---    0.88486   0.89941   0.943241000.000001000.00000
     Eigenvalues --- 1000.000001000.000001000.000001000.000001000.00000
     Eigenvalues --- 1000.000001000.000001000.000001000.000001000.00000
     Eigenvalues --- 1000.000001000.000001000.000001000.000001000.00000
     Eigenvalues --- 1000.000001000.000001000.000001000.000001000.00000
     Eigenvalues --- 1000.000001000.000001000.000001000.000001000.00000
     Eigenvalues --- 1000.000001000.000001000.000001000.000001000.00000
     Eigenvalues --- 1000.000001000.000001000.000001000.000001000.00000
     Eigenvalues --- 1000.000001000.000001000.00000
 RFO step:  Lambda=-6.18070302D-03 EMin= 3.67826365D-03
 Quartic linear search produced a step of -0.20909.
 Iteration  1 RMS(Cart)=  0.04689687 RMS(Int)=  0.00076289
 Iteration  2 RMS(Cart)=  0.00119644 RMS(Int)=  0.00019045
 Iteration  3 RMS(Cart)=  0.00000042 RMS(Int)=  0.00019045
 Iteration  1 RMS(Cart)=  0.00004620 RMS(Int)=  0.00002427
 Iteration  2 RMS(Cart)=  0.00002857 RMS(Int)=  0.00002688
 Iteration  3 RMS(Cart)=  0.00001835 RMS(Int)=  0.00003078
 Iteration  4 RMS(Cart)=  0.00001211 RMS(Int)=  0.00003393
 Iteration  5 RMS(Cart)=  0.00000812 RMS(Int)=  0.00003617
 Iteration  6 RMS(Cart)=  0.00000549 RMS(Int)=  0.00003772
 Iteration  7 RMS(Cart)=  0.00000372 RMS(Int)=  0.00003877
 Iteration  8 RMS(Cart)=  0.00000253 RMS(Int)=  0.00003948
 Iteration  9 RMS(Cart)=  0.00000171 RMS(Int)=  0.00003996
 Iteration 10 RMS(Cart)=  0.00000116 RMS(Int)=  0.00004027
 Iteration 11 RMS(Cart)=  0.00000079 RMS(Int)=  0.00004049
 Variable       Old X    -DE/DX   Delta X   Delta X   Delta X     New X
                                 (Linear)    (Quad)   (Total)
    R1        2.05187  -0.00568   0.00167  -0.01640  -0.01473   2.03713
    R2        2.05724  -0.00167   0.00052  -0.00488  -0.00437   2.05288
    R3        2.05682  -0.00193   0.00060  -0.00565  -0.00505   2.05177
    R4        2.88136  -0.00299   0.00211  -0.01236  -0.01024   2.87111
    R5        2.29881  -0.02945   0.00496  -0.03818  -0.03322   2.26559
    R6        2.55121  -0.00059  -0.00595   0.01390   0.00795   2.55916
    R7        1.89721  -0.00871   0.00239  -0.02045  -0.01806   1.87915
    R8        2.77735  -0.01941  -0.00819  -0.02063  -0.02882   2.74853
    R9        2.05880  -0.00166   0.00020  -0.00416  -0.00396   2.05484
   R10        2.89498   0.00148  -0.00274   0.00967   0.00694   2.90191
   R11        2.88044   0.00537  -0.00089   0.01570   0.01481   2.89524
   R12        2.04582  -0.00254   0.00291  -0.01216  -0.00925   2.03657
   R13        2.06010  -0.00371  -0.00005  -0.00816  -0.00822   2.05188
   R14        2.04679  -0.00179   0.00269  -0.00999  -0.00730   2.03950
   R15        2.30422  -0.03061   0.00383  -0.03624  -0.03241   2.27182
   R16        2.52947   0.00916  -0.00140   0.01573   0.01433   2.54380
   R17        1.89677  -0.00981   0.00248  -0.02254  -0.02006   1.87670
   R18        2.73918   0.00023  -0.00020   0.00091   0.00072   2.73990
   R19        2.05034  -0.00630   0.00196  -0.01842  -0.01647   2.03388
   R20        2.05613  -0.00271   0.00077  -0.00776  -0.00699   2.04914
   R21        2.05608  -0.00272   0.00079  -0.00783  -0.00704   2.04904
    A1        1.91166  -0.00008  -0.00010  -0.00207  -0.00197   1.90968
    A2        1.91190   0.00011  -0.00017  -0.00140  -0.00140   1.91051
    A3        1.92655  -0.00633   0.00260  -0.03619  -0.03341   1.89314
    A4        1.90415  -0.00382   0.00128  -0.01594  -0.01511   1.88903
    A5        1.90529   0.00536  -0.00194   0.02958   0.02750   1.93279
    A6        1.90411   0.00480  -0.00168   0.02635   0.02451   1.92862
    A7        2.07417   0.01595   0.00604   0.03711   0.04313   2.11730
    A8        1.98675  -0.00016   0.01010  -0.02069  -0.01062   1.97613
    A9        2.22226  -0.01579  -0.01614  -0.01644  -0.03260   2.18966
   A10        2.00550   0.00669   0.01858  -0.01162   0.00682   2.01232
   A11        2.29985  -0.01344  -0.03603   0.02108  -0.01509   2.28476
   A12        1.97782   0.00675   0.01746  -0.00961   0.00772   1.98554
   A13        1.89402   0.00113   0.00358  -0.01821  -0.01456   1.87946
   A14        2.04455  -0.01108  -0.02206  -0.02640  -0.04839   1.99615
   A15        1.89944   0.00120   0.00827  -0.01138  -0.00274   1.89669
   A16        1.86613   0.00318   0.00627   0.01467   0.01995   1.88608
   A17        1.91067  -0.00294  -0.00305   0.02191   0.01851   1.92918
   A18        1.84600   0.00874   0.00740   0.02384   0.03050   1.87651
   A19        1.92632   0.00174  -0.00317   0.01186   0.00870   1.93502
   A20        1.89063  -0.00118   0.00427  -0.00917  -0.00491   1.88572
   A21        1.92843   0.00273  -0.00362   0.01683   0.01322   1.94165
   A22        1.90507  -0.00010   0.00105   0.00138   0.00242   1.90749
   A23        1.90911  -0.00247   0.00024  -0.01808  -0.01781   1.89130
   A24        1.90393  -0.00074   0.00130  -0.00294  -0.00165   1.90228
   A25        2.10562   0.00257  -0.00051   0.00925   0.00875   2.11437
   A26        2.02897  -0.00471   0.00128  -0.01697  -0.01568   2.01329
   A27        2.14821   0.00213  -0.00068   0.00785   0.00718   2.15539
   A28        2.08829  -0.00304   0.00128  -0.01396  -0.01270   2.07560
   A29        2.13657   0.00445  -0.00188   0.01910   0.01720   2.15377
   A30        2.05832  -0.00141   0.00060  -0.00516  -0.00458   2.05375
   A31        1.90382  -0.00321   0.00153  -0.01922  -0.01763   1.88619
   A32        1.91671   0.00266  -0.00119   0.01526   0.01399   1.93071
   A33        1.91841   0.00329  -0.00152   0.01886   0.01728   1.93569
   A34        1.90954  -0.00022   0.00012  -0.00290  -0.00273   1.90680
   A35        1.90915  -0.00047   0.00022  -0.00409  -0.00380   1.90535
   A36        1.90615  -0.00207   0.00084  -0.00802  -0.00735   1.89880
    D1       -0.00075  -0.00019   0.00015  -0.00412  -0.00409  -0.00484
    D2       -3.14101   0.00019  -0.00014   0.00841   0.00841  -3.13259
    D3        2.10139  -0.00082   0.00039  -0.01038  -0.01038   2.09100
    D4       -1.03887  -0.00044   0.00010   0.00215   0.00212  -1.03675
    D5       -2.10245   0.00055  -0.00017   0.00333   0.00327  -2.09918
    D6        1.04048   0.00093  -0.00047   0.01585   0.01577   1.05625
    D7       -0.00190  -0.00003   0.00043  -0.00715  -0.00660  -0.00850
    D8       -3.13719   0.00110  -0.00093   0.02676   0.02611  -3.11109
    D9        3.14116   0.00036   0.00011   0.00660   0.00644  -3.13559
   D10        0.00587   0.00149  -0.00125   0.04051   0.03915   0.04502
   D11       -2.11079   0.00000   0.00344   0.00933   0.01228  -2.09850
   D12        0.00298  -0.00264  -0.00060  -0.00432  -0.00506  -0.00208
   D13        2.09447   0.00220   0.00000   0.00000   0.00001   2.09447
   D14        1.03703   0.00112   0.00210   0.04283   0.04460   1.08163
   D15       -3.13238  -0.00153  -0.00194   0.02918   0.02725  -3.10513
   D16       -1.04090   0.00331  -0.00134   0.03350   0.03232  -1.00858
   D17        1.04585   0.00154   0.00029   0.00962   0.00985   1.05570
   D18        3.13062   0.00172   0.00229   0.01267   0.01492  -3.13765
   D19       -1.06794   0.00170   0.00432   0.01337   0.01767  -1.05027
   D20       -3.10904  -0.00196  -0.00493  -0.02054  -0.02572  -3.13475
   D21       -1.02426  -0.00179  -0.00293  -0.01748  -0.02065  -1.04492
   D22        1.06036  -0.00180  -0.00089  -0.01678  -0.01790   1.04246
   D23       -1.07373   0.00037  -0.00152   0.02292   0.02167  -1.05207
   D24        1.01104   0.00054   0.00047   0.02597   0.02673   1.03777
   D25        3.09566   0.00052   0.00251   0.02668   0.02948   3.12515
   D26       -0.81428   0.00287   0.00603   0.00541   0.01152  -0.80276
   D27        2.35615   0.00302   0.00000   0.00000   0.00001   2.35616
   D28       -2.88177   0.00251  -0.00146   0.02140   0.02005  -2.86172
   D29        0.28866   0.00265  -0.00749   0.01598   0.00854   0.29720
   D30        1.39648  -0.00435  -0.01121  -0.01848  -0.02994   1.36654
   D31       -1.71628  -0.00420  -0.01724  -0.02390  -0.04145  -1.75773
   D32       -0.01608  -0.00086   0.00338  -0.01422  -0.01082  -0.02689
   D33        3.12360  -0.00126   0.00375  -0.02588  -0.02208   3.10152
   D34       -3.12806  -0.00071  -0.00281  -0.01979  -0.02265   3.13248
   D35        0.01162  -0.00112  -0.00245  -0.03145  -0.03391  -0.02229
   D36        0.00111   0.00023  -0.00021   0.00626   0.00606   0.00717
   D37        2.09369  -0.00040   0.00015   0.00015   0.00022   2.09390
   D38       -2.09202   0.00078  -0.00049   0.01167   0.01129  -2.08073
   D39        3.14082  -0.00017   0.00015  -0.00522  -0.00508   3.13574
   D40       -1.04979  -0.00080   0.00051  -0.01133  -0.01092  -1.06071
   D41        1.04769   0.00039  -0.00013   0.00019   0.00015   1.04784
         Item               Value     Threshold  Converged?
 Maximum Force            0.030614     0.000450     NO 
 RMS     Force            0.006371     0.000300     NO 
 Maximum Displacement     0.170392     0.001800     NO 
 RMS     Displacement     0.047204     0.001200     NO 
 Predicted change in Energy=-3.125688D-03
 GradGradGradGradGradGradGradGradGradGradGradGradGradGradGradGradGradGrad

                          Input orientation:                          
 ---------------------------------------------------------------------
 Center     Atomic      Atomic             Coordinates (Angstroms)
 Number     Number       Type             X           Y           Z
 ---------------------------------------------------------------------
      1          1           0        1.365196    1.953747   -1.512086
      2          6           0        1.696927    2.628185   -0.739310
      3          1           0        1.654864    2.124382    0.222218
      4          1           0        1.035455    3.488344   -0.701376
      5          6           0        3.117569    3.063004   -1.057222
      6          8           0        3.689492    2.659775   -2.030706
      7          7           0        3.635971    3.909065   -0.135576
      8          1           0        3.028852    4.141522    0.616893
      9          6           0        4.926154    4.577864   -0.075735
     10          1           0        5.422621    4.256850    0.836875
     11          6           0        5.855967    4.267999   -1.257928
     12          1           0        5.408817    4.575731   -2.188951
     13          1           0        6.783354    4.812508   -1.108117
     14          1           0        6.074024    3.212704   -1.317883
     15          6           0        4.693327    6.092047   -0.056768
     16          8           0        3.920139    6.611804   -0.816573
     17          7           0        5.423541    6.776272    0.843605
     18          1           0        6.036613    6.276586    1.444208
     19          6           0        5.377400    8.219201    0.977827
     20          1           0        4.675031    8.599318    0.256320
     21          1           0        5.053885    8.499934    1.974000
     22          1           0        6.351800    8.656556    0.790786
 ---------------------------------------------------------------------
                    Distance matrix (angstroms):
                    1          2          3          4          5
     1  H    0.000000
     2  C    1.078005   0.000000
     3  H    1.766588   1.086335   0.000000
     4  H    1.766627   1.085752   1.759854   0.000000
     5  C    2.123243   1.519328   2.158120   2.154702   0.000000
     6  O    2.483907   2.374662   3.082535   3.081811   1.198900
     7  N    3.297645   2.401050   2.690333   2.694405   1.354249
     8  H    3.476587   2.429711   2.472339   2.477520   1.993422
     9  C    4.650754   3.830077   4.099962   4.088523   2.555210
    10  H    5.223466   4.360929   4.372781   4.712117   3.213431
    11  C    5.058397   4.500619   4.943196   4.914769   2.998520
    12  H    4.866602   4.435372   5.090679   4.745692   2.969676
    13  H    6.139392   5.547884   5.941145   5.912460   4.062183
    14  H    4.878089   4.453694   4.804720   5.083625   2.971697
    15  C    5.506354   4.630618   5.005243   4.535948   3.557953
    16  O    5.358075   4.562660   5.132983   4.253314   3.646370
    17  N    6.728758   5.796542   6.019063   5.696730   4.766446
    18  H    7.017745   6.075480   6.159040   6.114687   5.010497
    19  C    7.845595   6.910420   7.181576   6.637260   5.986204
    20  H    7.631899   6.746467   7.144744   6.347106   5.899310
    21  H    8.283223   7.287568   7.434362   6.958552   6.519036
    22  H    8.665857   7.768545   8.065591   7.563100   6.720358
                    6          7          8          9         10
     6  O    0.000000
     7  N    2.270487   0.000000
     8  H    3.105125   0.994404   0.000000
     9  C    3.005048   1.454458   2.066370   0.000000
    10  H    3.711793   2.063670   2.406621   1.087375   0.000000
    11  C    2.806633   2.513343   3.394633   1.535627   2.139185
    12  H    2.579149   2.793524   3.704799   2.167637   3.042614
    13  H    3.880387   3.415855   4.185949   2.137770   2.437897
    14  H    2.549479   2.797655   3.725471   2.173522   2.481441
    15  C    4.084680   2.426855   2.651198   1.532097   2.167583
    16  O    4.140755   2.801661   2.991908   2.387011   3.246097
    17  N    5.311698   3.517823   3.567611   2.434251   2.519431
    18  H    5.537628   3.723433   3.780156   2.535547   2.196627
    19  C    6.542746   4.780117   4.719473   3.817454   3.965115
    20  H    6.440493   4.819927   4.765697   4.042946   4.444430
    21  H    7.211567   5.247558   4.993822   4.427229   4.408262
    22  H    7.142134   5.547300   5.608721   4.406705   4.496989
                   11         12         13         14         15
    11  C    0.000000
    12  H    1.077704   0.000000
    13  H    1.085808   1.764544   0.000000
    14  H    1.079254   1.749029   1.762532   0.000000
    15  C    2.474201   2.712442   2.666602   3.433271   0.000000
    16  O    3.071750   2.871441   3.394180   4.055171   1.202194
    17  N    3.300737   3.746864   3.084588   4.218314   1.346123
    18  H    3.371734   4.060403   3.035706   4.125278   2.022721
    19  C    4.565044   4.827458   4.234788   5.551629   2.462342
    20  H    4.737919   4.765190   4.543858   5.783675   2.526809
    21  H    5.384976   5.731972   5.107604   6.311257   3.170479
    22  H    4.868522   5.140153   4.309150   5.844584   3.169477
                   16         17         18         19         20
[...]
    15  C    5.476281   4.531828   4.775778   4.453257   3.543803
    16  O    5.306530   4.371781   4.742013   4.014331   3.635430
    17  N    6.713880   5.741937   5.840245   5.700280   4.758817
    18  H    7.048867   6.116248   6.150522   6.235535   5.024054
    19  C    7.815212   6.815783   6.925005   6.591608   5.965447
    20  H    7.639466   6.610331   6.682710   6.247360   5.978540
    21  H    8.642702   7.626034   7.629289   7.467642   6.773078
    22  H    8.225338   7.282284   7.532679   7.009718   6.346545
                    6          7          8          9         10
     6  O    0.000000
     7  N    2.270764   0.000000
     8  H    3.097466   0.995332   0.000000
     9  C    2.973896   1.452685   2.061302   0.000000
    10  H    3.648871   2.061873   2.515976   1.087358   0.000000
    11  C    2.801633   2.534005   3.381728   1.532545   2.133992
    12  H    2.639919   2.824819   3.628808   2.170457   3.043066
    13  H    3.876687   3.428977   4.166184   2.135556   2.430261
    14  H    2.508733   2.831205   3.790639   2.171524   2.478801
    15  C    4.123371   2.420114   2.499627   1.533250   2.143213
    16  O    4.257796   2.790019   2.709363   2.394058   3.223795
    17  N    5.324930   3.514884   3.490533   2.437646   2.489102
    18  H    5.505287   3.755777   3.849958   2.540426   2.192060
    19  C    6.556885   4.773122   4.606897   3.804763   3.936716
    20  H    6.699523   4.832849   4.478237   4.149067   4.409915
    21  H    7.383611   5.505666   5.304639   4.499987   4.392680
    22  H    6.787937   5.276762   5.246973   4.206681   4.476092
                   11         12         13         14         15
    11  C    0.000000
    12  H    1.079898   0.000000
    13  H    1.086384   1.761486   0.000000
    14  H    1.078403   1.751491   1.761292   0.000000
    15  C    2.482671   2.739554   2.662386   3.439307   0.000000
    16  O    3.126538   2.961292   3.436426   4.108989   1.200153
    17  N    3.289958   3.755824   3.054657   4.199380   1.349959
    18  H    3.291012   3.993353   2.902689   4.040386   2.025514
    19  C    4.515006   4.786579   4.154654   5.499613   2.442238
    20  H    5.028908   5.170451   4.861022   6.032270   2.672590
    21  H    5.248082   5.659258   4.783265   6.157743   3.307139
    22  H    4.574458   4.694011   4.078251   5.602353   2.856657
                   16         17         18         19         20
    16  O    0.000000
    17  N    2.240905   0.000000
    18  H    3.110046   0.993476   0.000000
    19  C    2.772202   1.448196   2.109351   0.000000
    20  H    2.614093   2.076963   2.908721   1.079947   0.000000
    21  H    3.794708   2.067723   2.310745   1.081862   1.760611
    22  H    3.008541   2.108378   2.707332   1.084601   1.755923
                   21         22
    21  H    0.000000
    22  H    1.764105   0.000000
 Stoichiometry    C6H12N2O2
 Framework group  C1[X(C6H12N2O2)]
 Deg. of freedom    60
 Full point group                 C1      NOp   1
 Largest Abelian subgroup         C1      NOp   1
 Largest concise Abelian subgroup C1      NOp   1
                         Standard orientation:                         
 ---------------------------------------------------------------------
 Center     Atomic      Atomic             Coordinates (Angstroms)
 Number     Number       Type             X           Y           Z
 ---------------------------------------------------------------------
      1          1           0       -4.092387   -1.179311    0.134789
      2          6           0       -3.062003   -1.414422   -0.086630
      3          1           0       -3.001535   -1.917813   -1.045708
      4          1           0       -2.680880   -2.088792    0.674163
      5          6           0       -2.253651   -0.131739   -0.071724
      6          8           0       -2.694722    0.884325    0.383533
      7          7           0       -1.018848   -0.260594   -0.634788
      8          1           0       -0.770610   -1.196058   -0.867106
      9          6           0        0.123826    0.630302   -0.530423
     10          1           0        0.406630    0.923714   -1.538530
     11          6           0       -0.088420    1.907767    0.289170
     12          1           0       -0.353278    1.676758    1.310280
     13          1           0        0.842558    2.467681    0.286928
     14          1           0       -0.866501    2.522042   -0.135340
     15          6           0        1.286214   -0.150399    0.094252
     16          8           0        1.127569   -0.873295    1.039038
     17          7           0        2.482807    0.016439   -0.508011
     18          1           0        2.564723    0.691984   -1.231837
     19          6           0        3.696381   -0.542474    0.050672
     20          1           0        3.534699   -1.579740    0.304092
     21          1           0        4.482240   -0.478130   -0.690077
     22          1           0        4.009774   -0.015705    0.945467
 ---------------------------------------------------------------------
 Rotational constants (GHZ):      2.8810921      0.6929950      0.6173868

 **********************************************************************

            Population analysis using the SCF density.

 **********************************************************************

 Orbital symmetries:
       Occupied  (A) (A) (A) (A) (A) (A) (A) (A) (A) (A) (A) (A)
                 (A) (A) (A) (A) (A) (A) (A) (A) (A) (A) (A) (A)
                 (A) (A) (A) (A) (A) (A) (A) (A) (A) (A) (A) (A)
                 (A) (A) (A)
       Virtual   (A) (A) (A) (A) (A) (A) (A) (A) (A) (A) (A) (A)
                 (A) (A) (A) (A) (A) (A) (A) (A) (A) (A) (A) (A)
                 (A) (A) (A) (A) (A) (A) (A) (A) (A) (A) (A) (A)
                 (A) (A) (A) (A) (A) (A) (A) (A) (A) (A) (A) (A)
                 (A) (A) (A) (A) (A) (A) (A) (A) (A) (A) (A) (A)
                 (A) (A) (A) (A) (A) (A) (A) (A) (A) (A) (A) (A)
                 (A) (A) (A) (A) (A) (A) (A) (A) (A) (A) (A) (A)
                 (A) (A) (A) (A) (A) (A) (A) (A) (A) (A) (A) (A)
                 (A) (A) (A) (A) (A) (A) (A) (A) (A) (A) (A) (A)
                 (A) (A) (A) (A) (A) (A) (A) (A) (A) (A) (A) (A)
                 (A) (A) (A) (A) (A) (A) (A) (A) (A) (A) (A) (A)
                 (A) (A) (A)
 The electronic state is 1-A.
 Alpha  occ. eigenvalues --  -20.52942 -20.51730 -15.59559 -15.58270 -11.34897
 Alpha  occ. eigenvalues --  -11.34534 -11.28630 -11.26463 -11.22581 -11.21915
 Alpha  occ. eigenvalues --   -1.39984  -1.38494  -1.24240  -1.23452  -1.05744
 Alpha  occ. eigenvalues --   -0.98804  -0.96324  -0.88455  -0.80158  -0.76596
 Alpha  occ. eigenvalues --   -0.72997  -0.69127  -0.66249  -0.63581  -0.63132
 Alpha  occ. eigenvalues --   -0.61991  -0.59946  -0.58476  -0.56504  -0.56064
 Alpha  occ. eigenvalues --   -0.55319  -0.53752  -0.52771  -0.51862  -0.50362
 Alpha  occ. eigenvalues --   -0.43094  -0.40515  -0.39789  -0.38563
 Alpha virt. eigenvalues --    0.19057   0.20078   0.21508   0.23497   0.25965
 Alpha virt. eigenvalues --    0.28261   0.29304   0.30141   0.31224   0.31481
 Alpha virt. eigenvalues --    0.32406   0.33426   0.34195   0.35170   0.37258
 Alpha virt. eigenvalues --    0.39005   0.40263   0.43231   0.46798   0.51219
 Alpha virt. eigenvalues --    0.52398   0.59967   0.60808   0.71915   0.72900
 Alpha virt. eigenvalues --    0.73948   0.74639   0.75750   0.77041   0.78841
 Alpha virt. eigenvalues --    0.81141   0.82793   0.83215   0.86761   0.89872
 Alpha virt. eigenvalues --    0.93468   0.94732   0.96105   0.98383   0.99907
 Alpha virt. eigenvalues --    1.00612   1.02026   1.03515   1.05958   1.08817
 Alpha virt. eigenvalues --    1.11792   1.13066   1.13944   1.14323   1.15340
 Alpha virt. eigenvalues --    1.16949   1.17515   1.19003   1.20440   1.20733
 Alpha virt. eigenvalues --    1.21485   1.22105   1.23070   1.25455   1.26467
 Alpha virt. eigenvalues --    1.30461   1.35081   1.36391   1.38511   1.42580
 Alpha virt. eigenvalues --    1.46198   1.48344   1.51277   1.57596   1.62387
 Alpha virt. eigenvalues --    1.64585   1.67396   1.69740   1.73355   1.76032
 Alpha virt. eigenvalues --    1.77480   1.83261   1.87335   1.95699   1.97210
 Alpha virt. eigenvalues --    1.97681   2.06035   2.07091   2.08225   2.13176
 Alpha virt. eigenvalues --    2.13874   2.16033   2.18793   2.20852   2.22913
 Alpha virt. eigenvalues --    2.24985   2.26258   2.28911   2.32463   2.34054
 Alpha virt. eigenvalues --    2.36473   2.40438   2.42169   2.47387   2.51125
 Alpha virt. eigenvalues --    2.54214   2.56344   2.59495   2.60946   2.65781
 Alpha virt. eigenvalues --    2.68062   2.68566   2.69445   2.73708   2.78384
 Alpha virt. eigenvalues --    2.80208   2.82929   2.87299   2.92210   2.94379
 Alpha virt. eigenvalues --    3.02428   3.06147   3.08248   3.14106   3.25986
 Alpha virt. eigenvalues --    3.32280   3.37102   3.40076   3.53658   3.58913
 Alpha virt. eigenvalues --    4.35315   4.41653   4.50860   4.57925   4.65060
 Alpha virt. eigenvalues --    4.68283   4.74943   4.81987   4.92017   5.09345
          Condensed to atoms (all electrons):
              1          2          3          4          5          6
     1  H    0.464434   0.383814  -0.020375  -0.016901  -0.032617   0.003933
     2  C    0.383814   5.281567   0.375094   0.374393   0.377617  -0.071353
     3  H   -0.020375   0.375094   0.521864  -0.024917  -0.035540   0.001718
     4  H   -0.016901   0.374393  -0.024917   0.489901  -0.027696   0.000609
     5  C   -0.032617   0.377617  -0.035540  -0.027696   4.127763   0.618944
     6  O    0.003933  -0.071353   0.001718   0.000609   0.618944   8.144807
     7  N    0.004523  -0.127768   0.004831   0.001106   0.253530  -0.097463
     8  H    0.000090  -0.000569   0.000065   0.000175  -0.019804   0.002539
     9  C   -0.000086   0.003012   0.000184  -0.000246  -0.020792   0.002453
    10  H    0.000004  -0.000114  -0.000002   0.000000  -0.000055  -0.000083
    11  C    0.000001   0.000080  -0.000008   0.000002  -0.001771  -0.007142
    12  H    0.000003  -0.000071   0.000001  -0.000003   0.001272  -0.000716
    13  H    0.000000   0.000011   0.000000   0.000000   0.000205   0.000703
    14  H    0.000000   0.000034  -0.000003   0.000000   0.000085   0.001603
    15  C    0.000000  -0.000144  -0.000011   0.000071   0.000865  -0.000177
    16  O    0.000000  -0.000146   0.000001   0.000111   0.001802  -0.000008
    17  N    0.000000   0.000000   0.000000   0.000000  -0.000012  -0.000002
    18  H    0.000000   0.000000   0.000000   0.000000  -0.000003   0.000000
    19  C    0.000000   0.000000   0.000000   0.000000  -0.000001   0.000000
    20  H    0.000000   0.000000   0.000000   0.000000   0.000000   0.000000
    21  H    0.000000   0.000000   0.000000   0.000000   0.000000   0.000000
    22  H    0.000000   0.000000   0.000000   0.000000   0.000000   0.000000
              7          8          9         10         11         12
     1  H    0.004523   0.000090  -0.000086   0.000004   0.000001   0.000003
     2  C   -0.127768  -0.000569   0.003012  -0.000114   0.000080  -0.000071
     3  H    0.004831   0.000065   0.000184  -0.000002  -0.000008   0.000001
     4  H    0.001106   0.000175  -0.000246   0.000000   0.000002  -0.000003
     5  C    0.253530  -0.019804  -0.020792  -0.000055  -0.001771   0.001272
     6  O   -0.097463   0.002539   0.002453  -0.000083  -0.007142  -0.000716
     7  N    7.381185   0.327384   0.194317  -0.052694  -0.037691  -0.001377
     8  H    0.327384   0.332636  -0.033841   0.000654   0.002934  -0.000080
     9  C    0.194317  -0.033841   5.022204   0.425298   0.338912  -0.034586
    10  H   -0.052694   0.000654   0.425298   0.546267  -0.035931   0.003954
    11  C   -0.037691   0.002934   0.338912  -0.035931   5.105449   0.395662
    12  H   -0.001377  -0.000080  -0.034586   0.003954   0.395662   0.472605
    13  H    0.004018  -0.000076  -0.039313  -0.001502   0.373484  -0.025588
    14  H   -0.002388  -0.000109  -0.030703  -0.003651   0.396505  -0.019580
    15  C   -0.047901  -0.001204   0.353471  -0.073976  -0.043913  -0.005051
    16  O   -0.002784   0.003917  -0.079016   0.002326   0.000493   0.002744
    17  N    0.002365   0.000575  -0.104044   0.010113  -0.002988   0.000560
    18  H    0.000175  -0.000004   0.000517   0.002312  -0.000184  -0.000020
    19  C   -0.000104  -0.000024   0.004658  -0.000005  -0.000224  -0.000005
    20  H    0.000011   0.000000   0.000022  -0.000023  -0.000018  -0.000001
    21  H    0.000002   0.000000   0.000007  -0.000025  -0.000003   0.000000
    22  H   -0.000004   0.000000  -0.000161   0.000005   0.000094   0.000001
             13         14         15         16         17         18
     1  H    0.000000   0.000000   0.000000   0.000000   0.000000   0.000000
     2  C    0.000011   0.000034  -0.000144  -0.000146   0.000000   0.000000
     3  H    0.000000  -0.000003  -0.000011   0.000001   0.000000   0.000000
     4  H    0.000000   0.000000   0.000071   0.000111   0.000000   0.000000
     5  C    0.000205   0.000085   0.000865   0.001802  -0.000012  -0.000003
     6  O    0.000703   0.001603  -0.000177  -0.000008  -0.000002   0.000000
     7  N    0.004018  -0.002388  -0.047901  -0.002784   0.002365   0.000175
     8  H   -0.000076  -0.000109  -0.001204   0.003917   0.000575  -0.000004
     9  C   -0.039313  -0.030703   0.353471  -0.079016  -0.104044   0.000517
    10  H   -0.001502  -0.003651  -0.073976   0.002326   0.010113   0.002312
    11  C    0.373484   0.396505  -0.043913   0.000493  -0.002988  -0.000184
    12  H   -0.025588  -0.019580  -0.005051   0.002744   0.000560  -0.000020
    13  H    0.566231  -0.025640  -0.005037   0.000017   0.002456   0.000385
    14  H   -0.025640   0.465991   0.004461  -0.000038  -0.000092  -0.000013
    15  C   -0.005037   0.004461   4.281659   0.610294   0.248356  -0.020361
    16  O    0.000017  -0.000038   0.610294   8.160105  -0.107710   0.002573
    17  N    0.002456  -0.000092   0.248356  -0.107710   7.342587   0.326175
    18  H    0.000385  -0.000013  -0.020361   0.002573   0.326175   0.326201
    19  C   -0.000147   0.000004  -0.029967   0.007281   0.196665  -0.023385
    20  H    0.000004   0.000000  -0.003804   0.004190  -0.038697   0.002704
    21  H    0.000001   0.000000   0.004187   0.000349  -0.037798  -0.004210
    22  H   -0.000025  -0.000001  -0.002065   0.001092  -0.047647   0.001024
             19         20         21         22
     1  H    0.000000   0.000000   0.000000   0.000000
     2  C    0.000000   0.000000   0.000000   0.000000
     3  H    0.000000   0.000000   0.000000   0.000000
     4  H    0.000000   0.000000   0.000000   0.000000
     5  C   -0.000001   0.000000   0.000000   0.000000
     6  O    0.000000   0.000000   0.000000   0.000000
     7  N   -0.000104   0.000011   0.000002  -0.000004
     8  H   -0.000024   0.000000   0.000000   0.000000
     9  C    0.004658   0.000022   0.000007  -0.000161
    10  H   -0.000005  -0.000023  -0.000025   0.000005
    11  C   -0.000224  -0.000018  -0.000003   0.000094
    12  H   -0.000005  -0.000001   0.000000   0.000001
    13  H   -0.000147   0.000004   0.000001  -0.000025
    14  H    0.000004   0.000000   0.000000  -0.000001
    15  C   -0.029967  -0.003804   0.004187  -0.002065
    16  O    0.007281   0.004190   0.000349   0.001092
    17  N    0.196665  -0.038697  -0.037798  -0.047647
    18  H   -0.023385   0.002704  -0.004210   0.001024
    19  C    4.913602   0.403251   0.397385   0.406384
    20  H    0.403251   0.482784  -0.024364  -0.032204
    21  H    0.397385  -0.024364   0.526191  -0.031991
    22  H    0.406384  -0.032204  -0.031991   0.524723
 Mulliken atomic charges:
              1
     1  H    0.213179
     2  C   -0.595456
     3  H    0.177099
     4  H    0.203395
     5  C    0.756206
     6  O   -0.600365
     7  N   -0.803271
     8  H    0.384743
     9  C   -0.002267
    10  H    0.177129
    11  C   -0.483743
    12  H    0.210277
    13  H    0.149813
    14  H    0.213535
    15  C    0.730249
    16  O   -0.607591
    17  N   -0.790863
    18  H    0.386113
    19  C   -0.275369
    20  H    0.206144
    21  H    0.170269
    22  H    0.180775
 Sum of Mulliken atomic charges =   0.00000
 Mulliken charges with hydrogens summed into heavy atoms:
              1
     2  C   -0.001784
     5  C    0.756206
     6  O   -0.600365
     7  N   -0.418528
     9  C    0.174862
    11  C    0.089882
    15  C    0.730249
    16  O   -0.607591
    17  N   -0.404750
    19  C    0.281819
 Sum of Mulliken charges with hydrogens summed into heavy atoms =   0.00000
 Electronic spatial extent (au):  <R**2>=           1901.9744
 Charge=              0.0000 electrons
 Dipole moment (field-independent basis, Debye):
    X=              3.5130    Y=             -0.7080    Z=             -3.6364  Tot=              5.1054
 Quadrupole moment (field-independent basis, Debye-Ang):
   XX=            -56.6906   YY=            -59.5610   ZZ=            -62.0487
   XY=             10.3698   XZ=             -1.7021   YZ=              0.8535
 Traceless Quadrupole moment (field-independent basis, Debye-Ang):
   XX=              2.7428   YY=             -0.1276   ZZ=             -2.6152
   XY=             10.3698   XZ=             -1.7021   YZ=              0.8535
 Octapole moment (field-independent basis, Debye-Ang**2):
  XXX=             51.6678  YYY=             -3.2445  ZZZ=             -1.7237  XYY=              1.4499
  XXY=            -21.9958  XXZ=            -12.5518  XZZ=              1.5485  YZZ=              3.4170
  YYZ=             -4.3979  XYZ=              1.2987
 Hexadecapole moment (field-independent basis, Debye-Ang**3):
 XXXX=          -1743.2836 YYYY=           -431.0799 ZZZZ=           -169.5266 XXXY=             46.8403
 XXXZ=              0.4478 YYYX=             -4.6798 YYYZ=             -1.4892 ZZZX=            -11.7615
 ZZZY=             -0.1449 XXYY=           -385.9467 XXZZ=           -332.8819 YYZZ=            -99.0275
 XXYZ=            -15.6143 YYXZ=             -0.6079 ZZXY=              9.1987
 N-N= 5.562174603078D+02 E-N=-2.267884718237D+03  KE= 4.921155100258D+02
 1\1\GINC-RODAN\FOpt\RHF\6-31G(d)\C6H12N2O2\STEBOSS\09-Feb-2017\0\\# HF
 /6-31G* Opt=(ModRedundant) geom=nocrowd\\Phi Psi fixed scan\\0,1\H,1.4
 308329248,1.8678444018,-1.4664716169\C,1.6930841678,2.7208741402,-0.85
 8557575\H,1.4098604772,2.5343099713,0.1719115525\H,1.142623242,3.58862
 70653,-1.2090332024\C,3.180623914,2.9803524663,-0.9957689341\O,3.83264
 53664,2.4621854048,-1.8563258212\N,3.674895165,3.8257412429,-0.0474040
 2\H,2.979919411,4.248786952,0.5259436185\C,4.9423636558,4.5354483003,-
 0.0358409491\H,5.4723147073,4.2496606187,0.8696006549\C,5.8720541774,4
 .2769040718,-1.2264399498\H,5.4035526975,4.5624900058,-2.1565620961\H,
 6.7693781159,4.8735925733,-1.0885881878\H,6.1503130752,3.2368920499,-1
 .288888065\C,4.6503047776,6.0394209191,0.0243669063\O,3.7992912035,6.5
 463427945,-0.6532572672\N,5.3979007732,6.7373918992,0.9054613254\H,6.1
 416024027,6.2750301529,1.3746360451\C,5.3352753338,8.1826008395,0.9741
 683714\H,4.3034891615,8.4995637278,1.0093297256\H,5.8363708221,8.51013
 74353,1.8753051774\H,5.8083044282,8.6492029673,0.1169143075\\Version=E
 M64L-G09RevA.02\State=1-A\HF=-492.84582\RMSD=6.881e-09\RMSF=6.893e-04\
 Dipole=0.5504077,0.6526746,1.8181574\Quadrupole=6.1191035,-4.3254525,-
 1.793651,5.7796683,1.3843375,-0.6414987\PG=C01 [X(C6H12N2O2)]\\@


 IF YOU WANT TO LEARN FROM THE THEORETICAL PHYSICISTS ABOUT THE
 METHODS WHICH THEY USE, I ADVISE YOU TO FOLLOW THIS PRINCIPLE VERY STRICTLY:
 DON'T LISTEN TO THEIR WORDS; PAY ATTENTION, INSTEAD, TO THEIR ACTIONS.
 -- A.EINSTEIN, 1934
 Job cpu time:  0 days  0 hours 32 minutes 39.7 seconds.
 File lengths (MBytes):  RWF=     25 Int=      0 D2E=      0 Chk=      3 Scr=      1
 Normal termination of Gaussian 09 at Thu Feb  9 23:38:48 2017.
