 Entering Gaussian System, Link 0=g09
 Initial command:
 /home/steboss/Software/g09/l1.exe /home/steboss/projects/phi_psi_scan/alanine/MP2/225/5418/Gau-9122.inp -scrdir=/home/steboss/projects/phi_psi_scan/alanine/MP2/225/5418/
 Entering Link 1 = /home/steboss/Software/g09/l1.exe PID=      9124.
  
 Copyright (c) 1988,1990,1992,1993,1995,1998,2003,2009, Gaussian, Inc.
                  All Rights Reserved.
  
 This is part of the Gaussian(R) 09 program.  It is based on
 the Gaussian(R) 03 system (copyright 2003, Gaussian, Inc.),
 the Gaussian(R) 98 system (copyright 1998, Gaussian, Inc.),
 the Gaussian(R) 94 system (copyright 1995, Gaussian, Inc.),
 the Gaussian 92(TM) system (copyright 1992, Gaussian, Inc.),
 the Gaussian 90(TM) system (copyright 1990, Gaussian, Inc.),
 the Gaussian 88(TM) system (copyright 1988, Gaussian, Inc.),
 the Gaussian 86(TM) system (copyright 1986, Carnegie Mellon
 University), and the Gaussian 82(TM) system (copyright 1983,
 Carnegie Mellon University). Gaussian is a federally registered
 trademark of Gaussian, Inc.
  
 This software contains proprietary and confidential information,
 including trade secrets, belonging to Gaussian, Inc.
  
 This software is provided under written license and may be
 used, copied, transmitted, or stored only in accord with that
 written license.
  
 The following legend is applicable only to US Government
 contracts under FAR:
  
                    RESTRICTED RIGHTS LEGEND
  
 Use, reproduction and disclosure by the US Government is
 subject to restrictions as set forth in subparagraphs (a)
 and (c) of the Commercial Computer Software - Restricted
 Rights clause in FAR 52.227-19.
  
 Gaussian, Inc.
 340 Quinnipiac St., Bldg. 40, Wallingford CT 06492
  
  
 ---------------------------------------------------------------
 Warning -- This program may not be used in any manner that
 competes with the business of Gaussian, Inc. or will provide
 assistance to any competitor of Gaussian, Inc.  The licensee
 of this program is prohibited from giving any competitor of
 Gaussian, Inc. access to this program.  By using this program,
 the user acknowledges that Gaussian, Inc. is engaged in the
 business of creating and licensing software in the field of
 computational chemistry and represents and warrants to the
 licensee that it is not a competitor of Gaussian, Inc. and that
 it will not use this program in any manner prohibited above.
 ---------------------------------------------------------------
  

 Cite this work as:
 Gaussian 09, Revision A.02,
 M. J. Frisch, G. W. Trucks, H. B. Schlegel, G. E. Scuseria, 
 M. A. Robb, J. R. Cheeseman, G. Scalmani, V. Barone, B. Mennucci, 
 G. A. Petersson, H. Nakatsuji, M. Caricato, X. Li, H. P. Hratchian, 
 A. F. Izmaylov, J. Bloino, G. Zheng, J. L. Sonnenberg, M. Hada, 
 M. Ehara, K. Toyota, R. Fukuda, J. Hasegawa, M. Ishida, T. Nakajima, 
 Y. Honda, O. Kitao, H. Nakai, T. Vreven, J. A. Montgomery, Jr., 
 J. E. Peralta, F. Ogliaro, M. Bearpark, J. J. Heyd, E. Brothers, 
 K. N. Kudin, V. N. Staroverov, R. Kobayashi, J. Normand, 
 K. Raghavachari, A. Rendell, J. C. Burant, S. S. Iyengar, J. Tomasi, 
 M. Cossi, N. Rega, J. M. Millam, M. Klene, J. E. Knox, J. B. Cross, 
 V. Bakken, C. Adamo, J. Jaramillo, R. Gomperts, R. E. Stratmann, 
 O. Yazyev, A. J. Austin, R. Cammi, C. Pomelli, J. W. Ochterski, 
 R. L. Martin, K. Morokuma, V. G. Zakrzewski, G. A. Voth, 
 P. Salvador, J. J. Dannenberg, S. Dapprich, A. D. Daniels, 
 O. Farkas, J. B. Foresman, J. V. Ortiz, J. Cioslowski, 
 and D. J. Fox, Gaussian, Inc., Wallingford CT, 2009.
 
 ******************************************
 Gaussian 09:  EM64L-G09RevA.02 11-Jun-2009
                13-Feb-2017 
 ******************************************
 %chk=structure_75.chk
 %NProcShared=8
 Will use up to    8 processors via shared memory.
 -------------------
 #SP MP2/aug-cc-pVDZ
 -------------------
 1/38=1/1;
 2/12=2,17=6,18=5,40=1/2;
 3/5=16,7=10,11=9,16=1,25=1,30=1/1,2,3;
 4//1;
 5/5=2,38=5/2;
 8/10=1/1;
 9/16=-3/6;
 6/7=2,8=2,9=2,10=2/1;
 99/5=1,9=1/99;
 -------------------------------
 Single Point calculation at MP2
 -------------------------------
 Symbolic Z-matrix:
 Charge =  0 Multiplicity = 1
 H                     3.4911   -1.8659   -0.6445 
 C                     3.1331   -0.8731   -0.929 
 H                     2.7637   -0.9035   -1.9589 
 H                     3.989    -0.1906   -0.8832 
 C                     2.089    -0.4214    0.0808 
 O                     2.2538   -0.5481    1.2882 
 N                     0.9484    0.1211   -0.4566 
 H                     0.9188    0.2978   -1.4524 
 C                    -0.0533    0.8019    0.3659 
 H                     0.1564    0.4762    1.389 
 C                     0.0536    2.3237    0.2708 
 H                    -0.1536    2.6644   -0.748 
 H                    -0.6791    2.8003    0.9296 
 H                     1.0561    2.6468    0.5673 
 C                    -1.4537    0.3123   -0.0611 
 O                    -2.2051    0.9946   -0.7483 
 N                    -1.7585   -0.9432    0.3759 
 H                    -1.0501   -1.4525    0.8863 
 C                    -2.9846   -1.6286    0.0102 
 H                    -3.6218   -0.9059   -0.5013 
 H                    -2.7908   -2.4726   -0.664 
 H                    -3.5032   -2.0011    0.9006 
 
                          Input orientation:                          
 ---------------------------------------------------------------------
 Center     Atomic      Atomic             Coordinates (Angstroms)
 Number     Number       Type             X           Y           Z
 ---------------------------------------------------------------------
      1          1           0        3.491100   -1.865900   -0.644500
      2          6           0        3.133100   -0.873100   -0.929000
      3          1           0        2.763700   -0.903500   -1.958900
      4          1           0        3.989000   -0.190600   -0.883200
      5          6           0        2.089000   -0.421400    0.080800
      6          8           0        2.253800   -0.548100    1.288200
      7          7           0        0.948400    0.121100   -0.456600
      8          1           0        0.918800    0.297800   -1.452400
      9          6           0       -0.053300    0.801900    0.365900
     10          1           0        0.156400    0.476200    1.389000
     11          6           0        0.053600    2.323700    0.270800
     12          1           0       -0.153600    2.664400   -0.748000
     13          1           0       -0.679100    2.800300    0.929600
     14          1           0        1.056100    2.646800    0.567300
     15          6           0       -1.453700    0.312300   -0.061100
     16          8           0       -2.205100    0.994600   -0.748300
     17          7           0       -1.758500   -0.943200    0.375900
     18          1           0       -1.050100   -1.452500    0.886300
     19          6           0       -2.984600   -1.628600    0.010200
     20          1           0       -3.621800   -0.905900   -0.501300
     21          1           0       -2.790800   -2.472600   -0.664000
     22          1           0       -3.503200   -2.001100    0.900600
 ---------------------------------------------------------------------
                    Distance matrix (angstroms):
                    1          2          3          4          5
     1  H    0.000000
     2  C    1.093049   0.000000
     3  H    1.784089   1.094566   0.000000
     4  H    1.763948   1.095659   1.779527   0.000000
     5  C    2.139749   1.521142   2.201821   2.143027   0.000000
     6  O    2.646287   2.407233   3.306050   2.802446   1.225164
     7  N    3.232460   2.446326   2.569441   3.086162   1.372616
     8  H    3.457026   2.558921   2.259053   3.160483   2.058475
     9  C    4.549817   3.825642   4.030952   4.345745   2.483384
    10  H    4.554205   4.006804   4.462065   4.505146   2.500403
    11  C    5.496083   4.598083   4.767706   4.810488   3.422649
    12  H    5.815339   4.832087   4.765168   5.032935   3.903630
    13  H    6.453044   5.610805   5.823610   5.832914   4.331534
    14  H    5.268980   4.352303   4.679980   4.330900   3.273746
    15  C    5.434699   4.816343   4.781870   5.527363   3.620659
    16  O    6.374945   5.658386   5.455026   6.307913   4.596929
    17  N    5.426868   5.063144   5.089515   5.931736   3.893920
    18  H    4.810067   4.596758   4.789743   5.487809   3.400874
    19  C    6.513036   6.235313   6.119320   7.176148   5.215720
    20  H    7.178820   6.768506   6.549749   7.653873   5.760800
    21  H    6.311159   6.141760   5.915345   7.156903   5.345521
    22  H    7.164206   6.975693   6.975350   7.911568   5.868579
                    6          7          8          9         10
     6  O    0.000000
     7  N    2.279523   0.000000
     8  H    3.163647   1.011789   0.000000
     9  C    2.827693   1.464035   2.122572   0.000000
    10  H    2.336330   2.039510   2.947310   1.093978   0.000000
    11  C    3.758087   2.486207   2.796830   1.528511   2.161989
    12  H    4.501316   2.787058   2.692028   2.172496   3.074262
    13  H    4.465678   3.427597   3.806536   2.168637   2.512081
    14  H    3.487344   2.727477   3.100942   2.162172   2.489208
    15  C    4.038125   2.441938   2.750397   1.543748   2.173034
    16  O    5.138973   3.285217   3.277200   2.430806   3.226991
    17  N    4.133636   3.025409   3.471411   2.439914   2.589963
    18  H    3.448945   2.876387   3.522731   2.519275   2.329857
    19  C    5.499236   4.329878   4.592031   3.824444   4.024569
    20  H    6.152480   4.684384   4.792758   4.050038   4.445023
    21  H    5.741322   4.555427   4.696576   4.390552   4.647173
    22  H    5.950167   5.114926   5.511409   4.477111   4.446147
                   11         12         13         14         15
    11  C    0.000000
    12  H    1.094057   0.000000
    13  H    1.094538   1.763225   0.000000
    14  H    1.094218   1.787092   1.779253   0.000000
    15  C    2.535319   2.773890   2.787765   3.484806   0.000000
    16  O    2.811903   2.645162   2.899065   3.885356   1.225716
    17  N    3.737297   4.105318   3.935160   4.565819   1.363874
    18  H    3.982045   4.519238   4.269171   4.619751   2.043276
    19  C    4.991918   5.198007   5.076986   5.909032   2.473021
    20  H    4.953284   4.983605   4.943974   5.970455   2.525558
    21  H    5.654110   5.775002   5.899348   6.520966   3.147538
    22  H    5.634835   5.975332   5.570442   6.519301   3.236841
                   16         17         18         19         20
    16  O    0.000000
    17  N    2.284370   0.000000
    18  H    3.161367   1.010804   0.000000
    19  C    2.839740   1.451493   2.130928   0.000000
    20  H    2.383264   2.059796   2.972852   1.090849   0.000000
    21  H    3.517332   2.118041   2.544419   1.097470   1.780893
    22  H    3.657616   2.106761   2.513735   1.095680   1.782934
                   21         22
    21  H    0.000000
    22  H    1.782638   0.000000
 Stoichiometry    C6H12N2O2
 Framework group  C1[X(C6H12N2O2)]
 Deg. of freedom    60
 Full point group                 C1      NOp   1
 Largest Abelian subgroup         C1      NOp   1
 Largest concise Abelian subgroup C1      NOp   1
                         Standard orientation:                         
 ---------------------------------------------------------------------
 Center     Atomic      Atomic             Coordinates (Angstroms)
 Number     Number       Type             X           Y           Z
 ---------------------------------------------------------------------
      1          1           0        3.491093   -1.865906   -0.644505
      2          6           0        3.133097   -0.873105   -0.929005
      3          1           0        2.763697   -0.903503   -1.958905
      4          1           0        3.988999   -0.190608   -0.883205
      5          6           0        2.088999   -0.421401    0.080795
      6          8           0        2.253798   -0.548102    1.288195
      7          7           0        0.948400    0.121103   -0.456605
      8          1           0        0.918801    0.297803   -1.452405
      9          6           0       -0.053297    0.801907    0.365895
     10          1           0        0.156402    0.476206    1.388995
     11          6           0        0.053608    2.323706    0.270795
     12          1           0       -0.153591    2.664407   -0.748005
     13          1           0       -0.679090    2.800309    0.929595
     14          1           0        1.056109    2.646803    0.567295
     15          6           0       -1.453699    0.312312   -0.061105
     16          8           0       -2.205097    0.994614   -0.748305
     17          7           0       -1.758503   -0.943187    0.375895
     18          1           0       -1.050105   -1.452490    0.886295
     19          6           0       -2.984606   -1.628583    0.010195
     20          1           0       -3.621803   -0.905881   -0.501305
     21          1           0       -2.790809   -2.472584   -0.664005
     22          1           0       -3.503207   -2.001081    0.900595
 ---------------------------------------------------------------------
 Rotational constants (GHZ):      1.9738934      0.7691145      0.6471512
 Standard basis: Aug-CC-pVDZ (5D, 7F)
 There are   338 symmetry adapted basis functions of A   symmetry.
 Integral buffers will be    131072 words long.
 Raffenetti 1 integral format.
 Two-electron integral symmetry is turned on.
   338 basis functions,   562 primitive gaussians,   358 cartesian basis functions
    39 alpha electrons       39 beta electrons
       nuclear repulsion energy       549.9704383983 Hartrees.
 NAtoms=   22 NActive=   22 NUniq=   22 SFac= 7.50D-01 NAtFMM=   80 NAOKFM=F Big=F
 One-electron integrals computed using PRISM.
 NBasis=   338 RedAO= T  NBF=   338
 NBsUse=   338 1.00D-06 NBFU=   338
 Harris functional with IExCor=  205 diagonalized for initial guess.
 ExpMin= 2.97D-02 ExpMax= 1.17D+04 ExpMxC= 4.01D+02 IAcc=3 IRadAn=         0 AccDes= 0.00D+00
 HarFok:  IExCor=  205 AccDes= 0.00D+00 IRadAn=         0 IDoV= 1
 ScaDFX=  1.000000  1.000000  1.000000  1.000000
 FoFCou: FMM=F IPFlag=           0 FMFlag=      100000 FMFlg1=           0
         NFxFlg=           0 DoJE=T BraDBF=F KetDBF=T FulRan=T
         Omega=  0.000000  0.000000  1.000000  0.000000  0.000000 ICntrl=     500 IOpCl=  0
         NMat0=    1 NMatS0=    1 NMatT0=    0 NMatD0=    1 NMtDS0=    0 NMtDT0=    0
         I1Cent=           4 NGrid=           0.
 Petite list used in FoFCou.
 Initial guess orbital symmetries:
       Occupied  (A) (A) (A) (A) (A) (A) (A) (A) (A) (A) (A) (A)
                 (A) (A) (A) (A) (A) (A) (A) (A) (A) (A) (A) (A)
                 (A) (A) (A) (A) (A) (A) (A) (A) (A) (A) (A) (A)
                 (A) (A) (A)
       Virtual   (A) (A) (A) (A) (A) (A) (A) (A) (A) (A) (A) (A)
                 (A) (A) (A) (A) (A) (A) (A) (A) (A) (A) (A) (A)
                 (A) (A) (A) (A) (A) (A) (A) (A) (A) (A) (A) (A)
                 (A) (A) (A) (A) (A) (A) (A) (A) (A) (A) (A) (A)
                 (A) (A) (A) (A) (A) (A) (A) (A) (A) (A) (A) (A)
                 (A) (A) (A) (A) (A) (A) (A) (A) (A) (A) (A) (A)
                 (A) (A) (A) (A) (A) (A) (A) (A) (A) (A) (A) (A)
                 (A) (A) (A) (A) (A) (A) (A) (A) (A) (A) (A) (A)
                 (A) (A) (A) (A) (A) (A) (A) (A) (A) (A) (A) (A)
                 (A) (A) (A) (A) (A) (A) (A) (A) (A) (A) (A) (A)
                 (A) (A) (A) (A) (A) (A) (A) (A) (A) (A) (A) (A)
                 (A) (A) (A) (A) (A) (A) (A) (A) (A) (A) (A) (A)
                 (A) (A) (A) (A) (A) (A) (A) (A) (A) (A) (A) (A)
                 (A) (A) (A) (A) (A) (A) (A) (A) (A) (A) (A) (A)
                 (A) (A) (A) (A) (A) (A) (A) (A) (A) (A) (A) (A)
                 (A) (A) (A) (A) (A) (A) (A) (A) (A) (A) (A) (A)
                 (A) (A) (A) (A) (A) (A) (A) (A) (A) (A) (A) (A)
                 (A) (A) (A) (A) (A) (A) (A) (A) (A) (A) (A) (A)
                 (A) (A) (A) (A) (A) (A) (A) (A) (A) (A) (A) (A)
                 (A) (A) (A) (A) (A) (A) (A) (A) (A) (A) (A) (A)
                 (A) (A) (A) (A) (A) (A) (A) (A) (A) (A) (A) (A)
                 (A) (A) (A) (A) (A) (A) (A) (A) (A) (A) (A) (A)
                 (A) (A) (A) (A) (A) (A) (A) (A) (A) (A) (A) (A)
                 (A) (A) (A) (A) (A) (A) (A) (A) (A) (A) (A) (A)
                 (A) (A) (A) (A) (A) (A) (A) (A) (A) (A) (A)
 The electronic state of the initial guess is 1-A.
 Requested convergence on RMS density matrix=1.00D-08 within 128 cycles.
 Requested convergence on MAX density matrix=1.00D-06.
 Requested convergence on             energy=1.00D-06.
 No special actions if energy rises.
 Initial convergence to 1.0D-05 achieved.  Increase integral accuracy.
 SCF Done:  E(RHF) =  -492.925100883     A.U. after   14 cycles
             Convg  =    0.7137D-08             -V/T =  2.0017
 ExpMin= 2.97D-02 ExpMax= 1.17D+04 ExpMxC= 4.01D+02 IAcc=3 IRadAn=         5 AccDes= 0.00D+00
 HarFok:  IExCor=  205 AccDes= 0.00D+00 IRadAn=         5 IDoV=-2
 ScaDFX=  1.000000  1.000000  1.000000  1.000000
 Range of M.O.s used for correlation:    11   338
 NBasis=   338 NAE=    39 NBE=    39 NFC=    10 NFV=     0
 NROrb=    328 NOA=    29 NOB=    29 NVA=   299 NVB=   299

 **** Warning!!: The largest alpha MO coefficient is  0.69425310D+02

 Disk-based method using OVN memory for 29 occupieds at a time.
 Estimated scratch disk usage=  1379983809 words.
 Actual    scratch disk usage=  1367313212 words.
 JobTyp=1 Pass  1:  I=   1 to  29 NPSUse=  8 ParTrn=T ParDer=T DoDerP=F.
 Spin components of T(2) and E(2):
     alpha-alpha T2 =       0.6784353941D-01 E2=     -0.2055688665D+00
     alpha-beta  T2 =       0.3762651234D+00 E2=     -0.1189364810D+01
     beta-beta   T2 =       0.6784353941D-01 E2=     -0.2055688665D+00
 ANorm=    0.1229614656D+01
 E2 =    -0.1600502543D+01 EUMP2 =    -0.49452560342665D+03

 **********************************************************************

            Population analysis using the SCF density.

 **********************************************************************

 Orbital symmetries:
       Occupied  (A) (A) (A) (A) (A) (A) (A) (A) (A) (A) (A) (A)
                 (A) (A) (A) (A) (A) (A) (A) (A) (A) (A) (A) (A)
                 (A) (A) (A) (A) (A) (A) (A) (A) (A) (A) (A) (A)
                 (A) (A) (A)
       Virtual   (A) (A) (A) (A) (A) (A) (A) (A) (A) (A) (A) (A)
                 (A) (A) (A) (A) (A) (A) (A) (A) (A) (A) (A) (A)
                 (A) (A) (A) (A) (A) (A) (A) (A) (A) (A) (A) (A)
                 (A) (A) (A) (A) (A) (A) (A) (A) (A) (A) (A) (A)
                 (A) (A) (A) (A) (A) (A) (A) (A) (A) (A) (A) (A)
                 (A) (A) (A) (A) (A) (A) (A) (A) (A) (A) (A) (A)
                 (A) (A) (A) (A) (A) (A) (A) (A) (A) (A) (A) (A)
                 (A) (A) (A) (A) (A) (A) (A) (A) (A) (A) (A) (A)
                 (A) (A) (A) (A) (A) (A) (A) (A) (A) (A) (A) (A)
                 (A) (A) (A) (A) (A) (A) (A) (A) (A) (A) (A) (A)
                 (A) (A) (A) (A) (A) (A) (A) (A) (A) (A) (A) (A)
                 (A) (A) (A) (A) (A) (A) (A) (A) (A) (A) (A) (A)
                 (A) (A) (A) (A) (A) (A) (A) (A) (A) (A) (A) (A)
                 (A) (A) (A) (A) (A) (A) (A) (A) (A) (A) (A) (A)
                 (A) (A) (A) (A) (A) (A) (A) (A) (A) (A) (A) (A)
                 (A) (A) (A) (A) (A) (A) (A) (A) (A) (A) (A) (A)
                 (A) (A) (A) (A) (A) (A) (A) (A) (A) (A) (A) (A)
                 (A) (A) (A) (A) (A) (A) (A) (A) (A) (A) (A) (A)
                 (A) (A) (A) (A) (A) (A) (A) (A) (A) (A) (A) (A)
                 (A) (A) (A) (A) (A) (A) (A) (A) (A) (A) (A) (A)
                 (A) (A) (A) (A) (A) (A) (A) (A) (A) (A) (A) (A)
                 (A) (A) (A) (A) (A) (A) (A) (A) (A) (A) (A) (A)
                 (A) (A) (A) (A) (A) (A) (A) (A) (A) (A) (A) (A)
                 (A) (A) (A) (A) (A) (A) (A) (A) (A) (A) (A) (A)
                 (A) (A) (A) (A) (A) (A) (A) (A) (A) (A) (A)
 The electronic state is 1-A.
 Alpha  occ. eigenvalues --  -20.53816 -20.53556 -15.60623 -15.59630 -11.37235
 Alpha  occ. eigenvalues --  -11.36164 -11.29179 -11.26948 -11.25486 -11.22987
 Alpha  occ. eigenvalues --   -1.39367  -1.38655  -1.24957  -1.23027  -1.05646
 Alpha  occ. eigenvalues --   -0.99626  -0.96310  -0.87517  -0.80382  -0.79005
 Alpha  occ. eigenvalues --   -0.73111  -0.67960  -0.65752  -0.65208  -0.62382
 Alpha  occ. eigenvalues --   -0.61875  -0.60327  -0.59107  -0.57872  -0.56127
 Alpha  occ. eigenvalues --   -0.54786  -0.53315  -0.52780  -0.51810  -0.50919
 Alpha  occ. eigenvalues --   -0.43838  -0.43276  -0.40106  -0.38966
 Alpha virt. eigenvalues --    0.02770   0.03743   0.04360   0.04755   0.05664
 Alpha virt. eigenvalues --    0.05860   0.06210   0.06771   0.07406   0.07979
 Alpha virt. eigenvalues --    0.08982   0.09251   0.11233   0.12039   0.12176
 Alpha virt. eigenvalues --    0.13312   0.13986   0.14567   0.14908   0.15075
 Alpha virt. eigenvalues --    0.15745   0.16112   0.16301   0.16536   0.16885
 Alpha virt. eigenvalues --    0.17712   0.17912   0.18155   0.18470   0.19073
 Alpha virt. eigenvalues --    0.19495   0.19740   0.20338   0.21664   0.22088
 Alpha virt. eigenvalues --    0.23604   0.24021   0.24875   0.25273   0.25551
 Alpha virt. eigenvalues --    0.26532   0.27239   0.28837   0.29657   0.30292
 Alpha virt. eigenvalues --    0.31583   0.31823   0.32358   0.33293   0.33540
 Alpha virt. eigenvalues --    0.34538   0.34919   0.35458   0.35957   0.36183
 Alpha virt. eigenvalues --    0.36892   0.37792   0.38239   0.39063   0.39705
 Alpha virt. eigenvalues --    0.40477   0.40889   0.41082   0.41923   0.42524
 Alpha virt. eigenvalues --    0.43289   0.43948   0.44368   0.44816   0.45518
 Alpha virt. eigenvalues --    0.46300   0.46634   0.47177   0.47916   0.48793
 Alpha virt. eigenvalues --    0.49406   0.50318   0.50729   0.51663   0.52517
 Alpha virt. eigenvalues --    0.53044   0.53494   0.54063   0.54429   0.54868
 Alpha virt. eigenvalues --    0.55878   0.56580   0.56810   0.58021   0.59179
 Alpha virt. eigenvalues --    0.59347   0.60162   0.60724   0.60970   0.61675
 Alpha virt. eigenvalues --    0.61962   0.62937   0.63525   0.64572   0.64871
 Alpha virt. eigenvalues --    0.65037   0.65700   0.67395   0.68113   0.68481
 Alpha virt. eigenvalues --    0.69031   0.69817   0.70361   0.71399   0.71843
 Alpha virt. eigenvalues --    0.71909   0.72831   0.73137   0.73332   0.74076
 Alpha virt. eigenvalues --    0.75511   0.76313   0.76613   0.78009   0.78643
 Alpha virt. eigenvalues --    0.79311   0.79992   0.81581   0.81915   0.83262
 Alpha virt. eigenvalues --    0.84285   0.84766   0.86200   0.87095   0.87813
 Alpha virt. eigenvalues --    0.88967   0.90244   0.90636   0.91419   0.92727
 Alpha virt. eigenvalues --    0.93740   0.96105   0.96577   0.97750   0.98598
 Alpha virt. eigenvalues --    0.98831   1.00670   1.01719   1.03032   1.03946
 Alpha virt. eigenvalues --    1.05479   1.07600   1.08630   1.09377   1.09986
 Alpha virt. eigenvalues --    1.11352   1.12809   1.13238   1.14211   1.15210
 Alpha virt. eigenvalues --    1.16631   1.17298   1.18202   1.19760   1.20155
 Alpha virt. eigenvalues --    1.22065   1.23002   1.25364   1.26245   1.28055
 Alpha virt. eigenvalues --    1.29675   1.31145   1.32854   1.35222   1.36389
 Alpha virt. eigenvalues --    1.38304   1.41339   1.44707   1.45453   1.46172
 Alpha virt. eigenvalues --    1.48643   1.49326   1.49696   1.51797   1.53172
 Alpha virt. eigenvalues --    1.55062   1.57273   1.59823   1.61202   1.63068
 Alpha virt. eigenvalues --    1.65598   1.69788   1.70279   1.71430   1.72989
 Alpha virt. eigenvalues --    1.74544   1.76185   1.76788   1.77314   1.81418
 Alpha virt. eigenvalues --    1.82298   1.83140   1.84545   1.86767   1.87200
 Alpha virt. eigenvalues --    1.88289   1.89623   1.91085   1.92427   1.92941
 Alpha virt. eigenvalues --    1.94611   1.95806   1.96246   1.99227   1.99813
 Alpha virt. eigenvalues --    2.03088   2.04904   2.05247   2.06806   2.08498
 Alpha virt. eigenvalues --    2.09393   2.11773   2.14396   2.15224   2.16432
 Alpha virt. eigenvalues --    2.18921   2.19840   2.20883   2.21067   2.22302
 Alpha virt. eigenvalues --    2.24430   2.26292   2.26683   2.28563   2.29763
 Alpha virt. eigenvalues --    2.31062   2.32794   2.33815   2.35324   2.36724
 Alpha virt. eigenvalues --    2.37507   2.38476   2.39150   2.39457   2.42332
 Alpha virt. eigenvalues --    2.43071   2.46099   2.47652   2.48252   2.50829
 Alpha virt. eigenvalues --    2.53617   2.53787   2.57395   2.59945   2.61396
 Alpha virt. eigenvalues --    2.62419   2.63470   2.66044   2.66721   2.68037
 Alpha virt. eigenvalues --    2.71912   2.73685   2.76286   2.78349   2.79854
 Alpha virt. eigenvalues --    2.82164   2.84734   2.87125   2.88021   2.89473
 Alpha virt. eigenvalues --    2.91813   2.93125   2.94138   2.96289   2.98301
 Alpha virt. eigenvalues --    3.00115   3.02414   3.02944   3.04430   3.07656
 Alpha virt. eigenvalues --    3.10891   3.13749   3.16896   3.19883   3.25146
 Alpha virt. eigenvalues --    3.29076   3.33650   3.40338   3.46079   3.47811
 Alpha virt. eigenvalues --    3.62529   3.65412   3.75686   3.82008   3.84157
 Alpha virt. eigenvalues --    3.84725   3.85404   3.87830   3.98425   4.01179
 Alpha virt. eigenvalues --    4.05738   4.13578   4.19550   4.25368
          Condensed to atoms (all electrons):
              1          2          3          4          5          6
     1  H    0.732406   0.374502  -0.084509  -0.042664  -0.082972   0.026275
     2  C    0.374502   4.590331   0.388557   0.320816   0.185313  -0.043457
     3  H   -0.084509   0.388557   1.076114  -0.070944   0.054702  -0.012197
     4  H   -0.042664   0.320816  -0.070944   0.718174  -0.033817   0.014461
     5  C   -0.082972   0.185313   0.054702  -0.033817   5.459553   0.173777
     6  O    0.026275  -0.043457  -0.012197   0.014461   0.173777   8.729717
     7  N    0.052577  -0.047178  -0.214043   0.038353   0.013381  -0.097031
     8  H   -0.004359  -0.066415   0.008298  -0.003020  -0.128518   0.005366
     9  C   -0.000267  -0.009770  -0.001202   0.001015  -0.261713   0.116911
    10  H   -0.000304  -0.004383   0.001296  -0.001137   0.095947  -0.042625
    11  C    0.000321  -0.025021  -0.010045   0.001558  -0.030586  -0.000206
    12  H    0.000201  -0.007624  -0.001536  -0.000566   0.002886  -0.003120
    13  H   -0.000080   0.002180  -0.000441   0.000631  -0.020209   0.001197
    14  H   -0.000846   0.004436   0.002309   0.000303   0.041600   0.001923
    15  C   -0.002483  -0.029912  -0.013435   0.003610  -0.109362  -0.008443
    16  O    0.000089   0.000574   0.001191   0.000001   0.023406  -0.000206
    17  N    0.000874   0.003931  -0.000405  -0.000134   0.034367  -0.003661
    18  H    0.000271   0.000674  -0.001326  -0.000354  -0.011912   0.001323
    19  C    0.000276   0.000460   0.000911   0.000072   0.005802  -0.003618
    20  H    0.000080   0.000928   0.000226   0.000032   0.002693  -0.000176
    21  H    0.000142  -0.000478  -0.000199   0.000002   0.000799   0.000295
    22  H   -0.000122  -0.000615  -0.000030   0.000007  -0.003257  -0.000076
              7          8          9         10         11         12
     1  H    0.052577  -0.004359  -0.000267  -0.000304   0.000321   0.000201
     2  C   -0.047178  -0.066415  -0.009770  -0.004383  -0.025021  -0.007624
     3  H   -0.214043   0.008298  -0.001202   0.001296  -0.010045  -0.001536
     4  H    0.038353  -0.003020   0.001015  -0.001137   0.001558  -0.000566
     5  C    0.013381  -0.128518  -0.261713   0.095947  -0.030586   0.002886
     6  O   -0.097031   0.005366   0.116911  -0.042625  -0.000206  -0.003120
     7  N    7.542646   0.295416  -0.068890   0.054008  -0.121266  -0.024916
     8  H    0.295416   1.016311  -0.032096  -0.006173   0.010095   0.014387
     9  C   -0.068890  -0.032096   7.175916  -0.381866   0.257344  -0.121867
    10  H    0.054008  -0.006173  -0.381866   1.594811  -0.003612   0.061504
    11  C   -0.121266   0.010095   0.257344  -0.003612   4.277313   0.403209
    12  H   -0.024916   0.014387  -0.121867   0.061504   0.403209   0.988995
    13  H    0.031891   0.000287  -0.073022  -0.062338   0.237953  -0.112502
    14  H   -0.041904  -0.007217   0.201975  -0.043473   0.217009  -0.228377
    15  C   -0.065668   0.027680  -0.558383  -0.054472   0.027692   0.055878
    16  O    0.026910  -0.001565  -0.016314  -0.014557  -0.023500  -0.008757
    17  N   -0.011630  -0.006292   0.131629  -0.033812  -0.023255  -0.009795
    18  H    0.022400   0.001991  -0.054805   0.018439   0.009975  -0.000727
    19  C   -0.011201  -0.000577  -0.012977   0.009082   0.001151   0.001343
    20  H    0.001269  -0.001624   0.008159   0.000832  -0.003753  -0.000570
    21  H    0.001362  -0.000111   0.002415  -0.000422   0.004263   0.000133
    22  H   -0.007986   0.000399   0.005399   0.001973   0.002206   0.000573
             13         14         15         16         17         18
     1  H   -0.000080  -0.000846  -0.002483   0.000089   0.000874   0.000271
     2  C    0.002180   0.004436  -0.029912   0.000574   0.003931   0.000674
     3  H   -0.000441   0.002309  -0.013435   0.001191  -0.000405  -0.001326
     4  H    0.000631   0.000303   0.003610   0.000001  -0.000134  -0.000354
     5  C   -0.020209   0.041600  -0.109362   0.023406   0.034367  -0.011912
     6  O    0.001197   0.001923  -0.008443  -0.000206  -0.003661   0.001323
     7  N    0.031891  -0.041904  -0.065668   0.026910  -0.011630   0.022400
     8  H    0.000287  -0.007217   0.027680  -0.001565  -0.006292   0.001991
     9  C   -0.073022   0.201975  -0.558383  -0.016314   0.131629  -0.054805
    10  H   -0.062338  -0.043473  -0.054472  -0.014557  -0.033812   0.018439
    11  C    0.237953   0.217009   0.027692  -0.023500  -0.023255   0.009975
    12  H   -0.112502  -0.228377   0.055878  -0.008757  -0.009795  -0.000727
    13  H    1.106447  -0.145528   0.074700   0.005551  -0.018583   0.000103
    14  H   -0.145528   1.122827  -0.130029   0.012521   0.021952  -0.000173
    15  C    0.074700  -0.130029   5.476916   0.170213   0.053247  -0.068431
    16  O    0.005551   0.012521   0.170213   8.774298  -0.148860   0.010814
    17  N   -0.018583   0.021952   0.053247  -0.148860   7.122884   0.276126
    18  H    0.000103  -0.000173  -0.068431   0.010814   0.276126   0.983233
    19  C   -0.001297  -0.000046  -0.092189   0.005144   0.260847  -0.103635
    20  H   -0.000384   0.000138  -0.001973   0.000746  -0.033056   0.001341
    21  H    0.000356   0.000169  -0.030550   0.009079   0.013008  -0.002388
    22  H   -0.000276  -0.000170   0.001158   0.006801  -0.098185   0.009466
             19         20         21         22
     1  H    0.000276   0.000080   0.000142  -0.000122
     2  C    0.000460   0.000928  -0.000478  -0.000615
     3  H    0.000911   0.000226  -0.000199  -0.000030
     4  H    0.000072   0.000032   0.000002   0.000007
     5  C    0.005802   0.002693   0.000799  -0.003257
     6  O   -0.003618  -0.000176   0.000295  -0.000076
     7  N   -0.011201   0.001269   0.001362  -0.007986
     8  H   -0.000577  -0.001624  -0.000111   0.000399
     9  C   -0.012977   0.008159   0.002415   0.005399
    10  H    0.009082   0.000832  -0.000422   0.001973
    11  C    0.001151  -0.003753   0.004263   0.002206
    12  H    0.001343  -0.000570   0.000133   0.000573
    13  H   -0.001297  -0.000384   0.000356  -0.000276
    14  H   -0.000046   0.000138   0.000169  -0.000170
    15  C   -0.092189  -0.001973  -0.030550   0.001158
    16  O    0.005144   0.000746   0.009079   0.006801
    17  N    0.260847  -0.033056   0.013008  -0.098185
    18  H   -0.103635   0.001341  -0.002388   0.009466
    19  C    4.065824   0.457055   0.312529   0.371438
    20  H    0.457055   0.961579  -0.108581  -0.138025
    21  H    0.312529  -0.108581   1.030841  -0.143545
    22  H    0.371438  -0.138025  -0.143545   1.101514
 Mulliken atomic charges:
              1
     1  H    0.030591
     2  C    0.362152
     3  H   -0.123292
     4  H    0.053599
     5  C    0.588118
     6  O   -0.856428
     7  N   -0.368501
     8  H   -0.122265
     9  C   -0.307591
    10  H   -0.188716
    11  C    0.791154
    12  H   -0.008752
    13  H   -0.026634
    14  H   -0.029398
    15  C    1.274235
    16  O   -0.833580
    17  N   -0.531198
    18  H   -0.092405
    19  C    0.733607
    20  H   -0.146933
    21  H   -0.089119
    22  H   -0.108645
 Sum of Mulliken atomic charges =   0.00000
 Mulliken charges with hydrogens summed into heavy atoms:
              1
     2  C    0.323050
     5  C    0.588118
     6  O   -0.856428
     7  N   -0.490766
     9  C   -0.496307
    11  C    0.726371
    15  C    1.274235
    16  O   -0.833580
    17  N   -0.623603
    19  C    0.388910
 Sum of Mulliken charges with hydrogens summed into heavy atoms =   0.00000
 Electronic spatial extent (au):  <R**2>=           1873.9591
 Charge=              0.0000 electrons
 Dipole moment (field-independent basis, Debye):
    X=              1.0001    Y=             -1.8042    Z=             -1.7149  Tot=              2.6826
 Quadrupole moment (field-independent basis, Debye-Ang):
   XX=            -65.0727   YY=            -59.0700   ZZ=            -63.5356
   XY=              7.8414   XZ=            -13.1032   YZ=              3.1390
 Traceless Quadrupole moment (field-independent basis, Debye-Ang):
   XX=             -2.5133   YY=              3.4894   ZZ=             -0.9762
   XY=              7.8414   XZ=            -13.1032   YZ=              3.1390
 Octapole moment (field-independent basis, Debye-Ang**2):
  XXX=             10.1303  YYY=             -8.6181  ZZZ=             -8.0624  XYY=              0.8350
  XXY=            -19.6766  XXZ=            -13.5658  XZZ=             -5.5833  YZZ=              0.6949
  YYZ=              4.0878  XYZ=              1.3494
 Hexadecapole moment (field-independent basis, Debye-Ang**3):
 XXXX=          -1569.3572 YYYY=           -599.2112 ZZZZ=           -235.3477 XXXY=             44.7313
 XXXZ=            -64.2337 YYYX=              1.9133 YYYZ=             -2.2219 ZZZX=            -15.8228
 ZZZY=             -2.0600 XXYY=           -362.3434 XXZZ=           -339.2916 YYZZ=           -139.8613
 XXYZ=             21.3795 YYXZ=             -8.2531 ZZXY=              9.5978
 N-N= 5.499704383983D+02 E-N=-2.255075494998D+03  KE= 4.920770187637D+02
 1\1\GINC-NODE001\SP\RMP2-FC\Aug-CC-pVDZ\C6H12N2O2\STEBOSS\13-Feb-2017\
 0\\#SP MP2/aug-cc-pVDZ\\Single Point calculation at MP2\\0,1\H,0,3.491
 1,-1.8659,-0.6445\C,0,3.1331,-0.8731,-0.929\H,0,2.7637,-0.9035,-1.9589
 \H,0,3.989,-0.1906,-0.8832\C,0,2.089,-0.4214,0.0808\O,0,2.2538,-0.5481
 ,1.2882\N,0,0.9484,0.1211,-0.4566\H,0,0.9188,0.2978,-1.4524\C,0,-0.053
 3,0.8019,0.3659\H,0,0.1564,0.4762,1.389\C,0,0.0536,2.3237,0.2708\H,0,-
 0.1536,2.6644,-0.748\H,0,-0.6791,2.8003,0.9296\H,0,1.0561,2.6468,0.567
 3\C,0,-1.4537,0.3123,-0.0611\O,0,-2.2051,0.9946,-0.7483\N,0,-1.7585,-0
 .9432,0.3759\H,0,-1.0501,-1.4525,0.8863\C,0,-2.9846,-1.6286,0.0102\H,0
 ,-3.6218,-0.9059,-0.5013\H,0,-2.7908,-2.4726,-0.664\H,0,-3.5032,-2.001
 1,0.9006\\Version=EM64L-G09RevA.02\State=1-A\HF=-492.9251009\MP2=-494.
 5256034\RMSD=7.137e-09\PG=C01 [X(C6H12N2O2)]\\@


 A people that values its privileges above its principles soon loses both.
 -- Dwight D. Eisenhower
 Job cpu time:  0 days 12 hours 36 minutes 54.1 seconds.
 File lengths (MBytes):  RWF=  10548 Int=      0 D2E=      0 Chk=      7 Scr=      2
 Normal termination of Gaussian 09 at Mon Feb 13 07:11:54 2017.
