 Entering Gaussian System, Link 0=g09
 Initial command:
 /home/steboss/Software/g09/l1.exe /home/steboss/projects/phi_psi_scan/alanine/MP2/225/5404/Gau-20627.inp -scrdir=/home/steboss/projects/phi_psi_scan/alanine/MP2/225/5404/
 Entering Link 1 = /home/steboss/Software/g09/l1.exe PID=     20629.
  
 Copyright (c) 1988,1990,1992,1993,1995,1998,2003,2009, Gaussian, Inc.
                  All Rights Reserved.
  
 This is part of the Gaussian(R) 09 program.  It is based on
 the Gaussian(R) 03 system (copyright 2003, Gaussian, Inc.),
 the Gaussian(R) 98 system (copyright 1998, Gaussian, Inc.),
 the Gaussian(R) 94 system (copyright 1995, Gaussian, Inc.),
 the Gaussian 92(TM) system (copyright 1992, Gaussian, Inc.),
 the Gaussian 90(TM) system (copyright 1990, Gaussian, Inc.),
 the Gaussian 88(TM) system (copyright 1988, Gaussian, Inc.),
 the Gaussian 86(TM) system (copyright 1986, Carnegie Mellon
 University), and the Gaussian 82(TM) system (copyright 1983,
 Carnegie Mellon University). Gaussian is a federally registered
 trademark of Gaussian, Inc.
  
 This software contains proprietary and confidential information,
 including trade secrets, belonging to Gaussian, Inc.
  
 This software is provided under written license and may be
 used, copied, transmitted, or stored only in accord with that
 written license.
  
 The following legend is applicable only to US Government
 contracts under FAR:
  
                    RESTRICTED RIGHTS LEGEND
  
 Use, reproduction and disclosure by the US Government is
 subject to restrictions as set forth in subparagraphs (a)
 and (c) of the Commercial Computer Software - Restricted
 Rights clause in FAR 52.227-19.
  
 Gaussian, Inc.
 340 Quinnipiac St., Bldg. 40, Wallingford CT 06492
  
  
 ---------------------------------------------------------------
 Warning -- This program may not be used in any manner that
 competes with the business of Gaussian, Inc. or will provide
 assistance to any competitor of Gaussian, Inc.  The licensee
 of this program is prohibited from giving any competitor of
 Gaussian, Inc. access to this program.  By using this program,
 the user acknowledges that Gaussian, Inc. is engaged in the
 business of creating and licensing software in the field of
 computational chemistry and represents and warrants to the
 licensee that it is not a competitor of Gaussian, Inc. and that
 it will not use this program in any manner prohibited above.
 ---------------------------------------------------------------
  

 Cite this work as:
 Gaussian 09, Revision A.02,
 M. J. Frisch, G. W. Trucks, H. B. Schlegel, G. E. Scuseria, 
 M. A. Robb, J. R. Cheeseman, G. Scalmani, V. Barone, B. Mennucci, 
 G. A. Petersson, H. Nakatsuji, M. Caricato, X. Li, H. P. Hratchian, 
 A. F. Izmaylov, J. Bloino, G. Zheng, J. L. Sonnenberg, M. Hada, 
 M. Ehara, K. Toyota, R. Fukuda, J. Hasegawa, M. Ishida, T. Nakajima, 
 Y. Honda, O. Kitao, H. Nakai, T. Vreven, J. A. Montgomery, Jr., 
 J. E. Peralta, F. Ogliaro, M. Bearpark, J. J. Heyd, E. Brothers, 
 K. N. Kudin, V. N. Staroverov, R. Kobayashi, J. Normand, 
 K. Raghavachari, A. Rendell, J. C. Burant, S. S. Iyengar, J. Tomasi, 
 M. Cossi, N. Rega, J. M. Millam, M. Klene, J. E. Knox, J. B. Cross, 
 V. Bakken, C. Adamo, J. Jaramillo, R. Gomperts, R. E. Stratmann, 
 O. Yazyev, A. J. Austin, R. Cammi, C. Pomelli, J. W. Ochterski, 
 R. L. Martin, K. Morokuma, V. G. Zakrzewski, G. A. Voth, 
 P. Salvador, J. J. Dannenberg, S. Dapprich, A. D. Daniels, 
 O. Farkas, J. B. Foresman, J. V. Ortiz, J. Cioslowski, 
 and D. J. Fox, Gaussian, Inc., Wallingford CT, 2009.
 
 ******************************************
 Gaussian 09:  EM64L-G09RevA.02 11-Jun-2009
                13-Feb-2017 
 ******************************************
 %chk=structure_195.chk
 %NProcShared=8
 Will use up to    8 processors via shared memory.
 -------------------
 #SP MP2/aug-cc-pVDZ
 -------------------
 1/38=1/1;
 2/12=2,17=6,18=5,40=1/2;
 3/5=16,7=10,11=9,16=1,25=1,30=1/1,2,3;
 4//1;
 5/5=2,38=5/2;
 8/10=1/1;
 9/16=-3/6;
 6/7=2,8=2,9=2,10=2/1;
 99/5=1,9=1/99;
 -------------------------------
 Single Point calculation at MP2
 -------------------------------
 Symbolic Z-matrix:
 Charge =  0 Multiplicity = 1
 H                     4.2932   -0.6643   -0.3372 
 C                     3.3064   -1.126    -0.2523 
 H                     3.3648   -1.8907    0.5309 
 H                     3.0493   -1.6129   -1.1979 
 C                     2.3002   -0.065     0.1651 
 O                     2.5594    0.791     1.0028 
 N                     1.0866   -0.1231   -0.4788 
 H                     0.8208   -1.0181   -0.8795 
 C                    -0.0459    0.6155    0.0624 
 H                     0.1801    0.8406    1.1143 
 C                    -0.238     1.9497   -0.678 
 H                    -0.5086    1.7872   -1.7263 
 H                    -1.0038    2.5815   -0.2115 
 H                     0.7041    2.5031   -0.6414 
 C                    -1.2658   -0.3289    0.0285 
 O                    -1.1315   -1.5347   -0.1688 
 N                    -2.4798    0.2623    0.1927 
 H                    -2.5127    1.2508    0.3925 
 C                    -3.7185   -0.496     0.2558 
 H                    -3.4984   -1.5136   -0.0681 
 H                    -4.1215   -0.5269    1.2756 
 H                    -4.47     -0.0573   -0.4092 
 
                          Input orientation:                          
 ---------------------------------------------------------------------
 Center     Atomic      Atomic             Coordinates (Angstroms)
 Number     Number       Type             X           Y           Z
 ---------------------------------------------------------------------
      1          1           0        4.293200   -0.664300   -0.337200
      2          6           0        3.306400   -1.126000   -0.252300
      3          1           0        3.364800   -1.890700    0.530900
      4          1           0        3.049300   -1.612900   -1.197900
      5          6           0        2.300200   -0.065000    0.165100
      6          8           0        2.559400    0.791000    1.002800
      7          7           0        1.086600   -0.123100   -0.478800
      8          1           0        0.820800   -1.018100   -0.879500
      9          6           0       -0.045900    0.615500    0.062400
     10          1           0        0.180100    0.840600    1.114300
     11          6           0       -0.238000    1.949700   -0.678000
     12          1           0       -0.508600    1.787200   -1.726300
     13          1           0       -1.003800    2.581500   -0.211500
     14          1           0        0.704100    2.503100   -0.641400
     15          6           0       -1.265800   -0.328900    0.028500
     16          8           0       -1.131500   -1.534700   -0.168800
     17          7           0       -2.479800    0.262300    0.192700
     18          1           0       -2.512700    1.250800    0.392500
     19          6           0       -3.718500   -0.496000    0.255800
     20          1           0       -3.498400   -1.513600   -0.068100
     21          1           0       -4.121500   -0.526900    1.275600
     22          1           0       -4.470000   -0.057300   -0.409200
 ---------------------------------------------------------------------
                    Distance matrix (angstroms):
                    1          2          3          4          5
     1  H    0.000000
     2  C    1.092771   0.000000
     3  H    1.766234   1.096166   0.000000
     4  H    1.785479   1.094226   1.779175   0.000000
     5  C    2.140914   1.520652   2.144846   2.194291   0.000000
     6  O    2.630506   2.410015   2.839520   3.295727   1.225423
     7  N    3.255032   2.446349   3.055176   2.566866   1.375066
     8  H    3.532255   2.565781   3.036873   2.328385   2.046512
     9  C    4.541515   3.790748   4.258334   4.016763   2.444957
    10  H    4.614019   3.938129   4.235879   4.426990   2.493174
    11  C    5.242224   4.712104   5.402803   4.875321   3.348476
    12  H    5.567471   5.021318   5.798718   4.949600   3.859715
    13  H    6.213632   5.685512   6.295744   5.915539   4.249965
    14  H    4.796519   4.482603   5.268690   4.769813   3.129395
    15  C    5.581103   4.649648   4.912645   4.666133   3.578360
    16  O    5.496665   4.457462   4.564321   4.306304   3.748076
    17  N    6.856596   5.967035   6.237719   6.001757   4.791272
    18  H    7.107767   6.318771   6.665822   6.454920   4.994702
    19  C    8.035379   7.071371   7.224542   7.011692   6.034794
    20  H    7.842369   6.818318   6.899603   6.645200   5.981353
    21  H    8.568966   7.607043   7.645863   7.662765   6.533360
    22  H    8.784492   7.851059   8.101187   7.718926   6.794519
                    6          7          8          9         10
     6  O    0.000000
     7  N    2.280320   0.000000
     8  H    3.136658   1.015990   0.000000
     9  C    2.775381   1.456360   2.075330   0.000000
    10  H    2.382428   2.070852   2.800089   1.099200   0.000000
    11  C    3.463109   2.467944   3.157451   1.537916   2.148779
    12  H    4.225284   2.783912   3.217776   2.187789   3.072355
    13  H    4.168550   3.428714   4.090539   2.204030   2.487991
    14  H    3.012776   2.658885   3.531170   2.149620   2.474058
    15  C    4.103120   2.415262   2.377680   1.543113   2.153443
    16  O    4.517109   2.647392   2.140898   2.419781   3.001448
    17  N    5.131211   3.649473   3.699054   2.462843   2.873821
    18  H    5.129335   3.949902   4.228252   2.568594   2.817877
    19  C    6.451853   4.875211   4.708157   3.841982   4.209822
    20  H    6.569243   4.808783   4.422599   4.058307   4.524565
    21  H    6.815109   5.510470   5.414062   4.403118   4.516618
    22  H    7.219821   5.557425   5.397859   4.499747   4.975008
                   11         12         13         14         15
    11  C    0.000000
    12  H    1.094789   0.000000
    13  H    1.096924   1.780661   0.000000
    14  H    1.093226   1.777684   1.762919   0.000000
    15  C    2.597601   2.851413   2.932008   3.514185   0.000000
    16  O    3.632997   3.721402   4.118402   4.460561   1.229194
    17  N    2.937874   3.145395   2.778604   3.981724   1.360248
    18  H    2.609347   2.965376   2.100561   3.603471   2.045167
    19  C    4.355148   4.409669   4.130251   5.418391   2.468871
    20  H    4.795480   4.752243   4.797232   5.841537   2.529298
    21  H    5.003166   5.236364   4.646899   6.011839   3.122417
    22  H    4.691495   4.563948   4.360836   5.777619   3.245342
                   16         17         18         19         20
    16  O    0.000000
    17  N    2.275479   0.000000
    18  H    3.159396   1.009027   0.000000
    19  C    2.819885   1.453746   2.126958   0.000000
    20  H    2.369135   2.063827   2.970802   1.090351   0.000000
    21  H    3.470166   2.119124   2.555058   1.096976   1.779708
    22  H    3.658700   2.103645   2.486940   1.095187   1.783582
                   21         22
    21  H    0.000000
    22  H    1.783403   0.000000
 Stoichiometry    C6H12N2O2
 Framework group  C1[X(C6H12N2O2)]
 Deg. of freedom    60
 Full point group                 C1      NOp   1
 Largest Abelian subgroup         C1      NOp   1
 Largest concise Abelian subgroup C1      NOp   1
                         Standard orientation:                         
 ---------------------------------------------------------------------
 Center     Atomic      Atomic             Coordinates (Angstroms)
 Number     Number       Type             X           Y           Z
 ---------------------------------------------------------------------
      1          1           0        4.293220   -0.664297   -0.337206
      2          6           0        3.306420   -1.125998   -0.252306
      3          1           0        3.364820   -1.890698    0.530894
      4          1           0        3.049320   -1.612898   -1.197906
      5          6           0        2.300219   -0.064999    0.165094
      6          8           0        2.559419    0.791002    1.002794
      7          7           0        1.086619   -0.123099   -0.478806
      8          1           0        0.820820   -1.018099   -0.879506
      9          6           0       -0.045881    0.615500    0.062394
     10          1           0        0.180119    0.840600    1.114294
     11          6           0       -0.237982    1.949700   -0.678006
     12          1           0       -0.508582    1.787200   -1.726306
     13          1           0       -1.003782    2.581499   -0.211506
     14          1           0        0.704118    2.503100   -0.641406
     15          6           0       -1.265781   -0.328901    0.028494
     16          8           0       -1.131480   -1.534701   -0.168806
     17          7           0       -2.479781    0.262298    0.192694
     18          1           0       -2.512682    1.250798    0.392494
     19          6           0       -3.718480   -0.496002    0.255794
     20          1           0       -3.498380   -1.513602   -0.068106
     21          1           0       -4.121480   -0.526903    1.275594
     22          1           0       -4.469981   -0.057303   -0.409206
 ---------------------------------------------------------------------
 Rotational constants (GHZ):      2.7463011      0.6798690      0.5920408
 Standard basis: Aug-CC-pVDZ (5D, 7F)
 There are   338 symmetry adapted basis functions of A   symmetry.
 Integral buffers will be    131072 words long.
 Raffenetti 1 integral format.
 Two-electron integral symmetry is turned on.
   338 basis functions,   562 primitive gaussians,   358 cartesian basis functions
    39 alpha electrons       39 beta electrons
       nuclear repulsion energy       549.5580475670 Hartrees.
 NAtoms=   22 NActive=   22 NUniq=   22 SFac= 7.50D-01 NAtFMM=   80 NAOKFM=F Big=F
 One-electron integrals computed using PRISM.
 NBasis=   338 RedAO= T  NBF=   338
 NBsUse=   338 1.00D-06 NBFU=   338
 Harris functional with IExCor=  205 diagonalized for initial guess.
 ExpMin= 2.97D-02 ExpMax= 1.17D+04 ExpMxC= 4.01D+02 IAcc=3 IRadAn=         0 AccDes= 0.00D+00
 HarFok:  IExCor=  205 AccDes= 0.00D+00 IRadAn=         0 IDoV= 1
 ScaDFX=  1.000000  1.000000  1.000000  1.000000
 FoFCou: FMM=F IPFlag=           0 FMFlag=      100000 FMFlg1=           0
         NFxFlg=           0 DoJE=T BraDBF=F KetDBF=T FulRan=T
         Omega=  0.000000  0.000000  1.000000  0.000000  0.000000 ICntrl=     500 IOpCl=  0
         NMat0=    1 NMatS0=    1 NMatT0=    0 NMatD0=    1 NMtDS0=    0 NMtDT0=    0
         I1Cent=           4 NGrid=           0.
 Petite list used in FoFCou.
 Initial guess orbital symmetries:
       Occupied  (A) (A) (A) (A) (A) (A) (A) (A) (A) (A) (A) (A)
                 (A) (A) (A) (A) (A) (A) (A) (A) (A) (A) (A) (A)
                 (A) (A) (A) (A) (A) (A) (A) (A) (A) (A) (A) (A)
                 (A) (A) (A)
       Virtual   (A) (A) (A) (A) (A) (A) (A) (A) (A) (A) (A) (A)
                 (A) (A) (A) (A) (A) (A) (A) (A) (A) (A) (A) (A)
                 (A) (A) (A) (A) (A) (A) (A) (A) (A) (A) (A) (A)
                 (A) (A) (A) (A) (A) (A) (A) (A) (A) (A) (A) (A)
                 (A) (A) (A) (A) (A) (A) (A) (A) (A) (A) (A) (A)
                 (A) (A) (A) (A) (A) (A) (A) (A) (A) (A) (A) (A)
                 (A) (A) (A) (A) (A) (A) (A) (A) (A) (A) (A) (A)
                 (A) (A) (A) (A) (A) (A) (A) (A) (A) (A) (A) (A)
                 (A) (A) (A) (A) (A) (A) (A) (A) (A) (A) (A) (A)
                 (A) (A) (A) (A) (A) (A) (A) (A) (A) (A) (A) (A)
                 (A) (A) (A) (A) (A) (A) (A) (A) (A) (A) (A) (A)
                 (A) (A) (A) (A) (A) (A) (A) (A) (A) (A) (A) (A)
                 (A) (A) (A) (A) (A) (A) (A) (A) (A) (A) (A) (A)
                 (A) (A) (A) (A) (A) (A) (A) (A) (A) (A) (A) (A)
                 (A) (A) (A) (A) (A) (A) (A) (A) (A) (A) (A) (A)
                 (A) (A) (A) (A) (A) (A) (A) (A) (A) (A) (A) (A)
                 (A) (A) (A) (A) (A) (A) (A) (A) (A) (A) (A) (A)
                 (A) (A) (A) (A) (A) (A) (A) (A) (A) (A) (A) (A)
                 (A) (A) (A) (A) (A) (A) (A) (A) (A) (A) (A) (A)
                 (A) (A) (A) (A) (A) (A) (A) (A) (A) (A) (A) (A)
                 (A) (A) (A) (A) (A) (A) (A) (A) (A) (A) (A) (A)
                 (A) (A) (A) (A) (A) (A) (A) (A) (A) (A) (A) (A)
                 (A) (A) (A) (A) (A) (A) (A) (A) (A) (A) (A) (A)
                 (A) (A) (A) (A) (A) (A) (A) (A) (A) (A) (A) (A)
                 (A) (A) (A) (A) (A) (A) (A) (A) (A) (A) (A)
 The electronic state of the initial guess is 1-A.
 Requested convergence on RMS density matrix=1.00D-08 within 128 cycles.
 Requested convergence on MAX density matrix=1.00D-06.
 Requested convergence on             energy=1.00D-06.
 No special actions if energy rises.
 Initial convergence to 1.0D-05 achieved.  Increase integral accuracy.
 SCF Done:  E(RHF) =  -492.925507969     A.U. after   14 cycles
             Convg  =    0.7361D-08             -V/T =  2.0017
 ExpMin= 2.97D-02 ExpMax= 1.17D+04 ExpMxC= 4.01D+02 IAcc=3 IRadAn=         5 AccDes= 0.00D+00
 HarFok:  IExCor=  205 AccDes= 0.00D+00 IRadAn=         5 IDoV=-2
 ScaDFX=  1.000000  1.000000  1.000000  1.000000
 Range of M.O.s used for correlation:    11   338
 NBasis=   338 NAE=    39 NBE=    39 NFC=    10 NFV=     0
 NROrb=    328 NOA=    29 NOB=    29 NVA=   299 NVB=   299

 **** Warning!!: The largest alpha MO coefficient is  0.10941251D+03

 Disk-based method using OVN memory for 29 occupieds at a time.
 Estimated scratch disk usage=  1373310444 words.
 Actual    scratch disk usage=  1360037682 words.
 JobTyp=1 Pass  1:  I=   1 to  29 NPSUse=  8 ParTrn=T ParDer=T DoDerP=F.
 Spin components of T(2) and E(2):
     alpha-alpha T2 =       0.6791668927D-01 E2=     -0.2058217167D+00
     alpha-beta  T2 =       0.3760254616D+00 E2=     -0.1189267311D+01
     beta-beta   T2 =       0.6791668927D-01 E2=     -0.2058217167D+00
 ANorm=    0.1229576691D+01
 E2 =    -0.1600910745D+01 EUMP2 =    -0.49452641871324D+03

 **********************************************************************

            Population analysis using the SCF density.

 **********************************************************************

 Orbital symmetries:
       Occupied  (A) (A) (A) (A) (A) (A) (A) (A) (A) (A) (A) (A)
                 (A) (A) (A) (A) (A) (A) (A) (A) (A) (A) (A) (A)
                 (A) (A) (A) (A) (A) (A) (A) (A) (A) (A) (A) (A)
                 (A) (A) (A)
       Virtual   (A) (A) (A) (A) (A) (A) (A) (A) (A) (A) (A) (A)
                 (A) (A) (A) (A) (A) (A) (A) (A) (A) (A) (A) (A)
                 (A) (A) (A) (A) (A) (A) (A) (A) (A) (A) (A) (A)
                 (A) (A) (A) (A) (A) (A) (A) (A) (A) (A) (A) (A)
                 (A) (A) (A) (A) (A) (A) (A) (A) (A) (A) (A) (A)
                 (A) (A) (A) (A) (A) (A) (A) (A) (A) (A) (A) (A)
                 (A) (A) (A) (A) (A) (A) (A) (A) (A) (A) (A) (A)
                 (A) (A) (A) (A) (A) (A) (A) (A) (A) (A) (A) (A)
                 (A) (A) (A) (A) (A) (A) (A) (A) (A) (A) (A) (A)
                 (A) (A) (A) (A) (A) (A) (A) (A) (A) (A) (A) (A)
                 (A) (A) (A) (A) (A) (A) (A) (A) (A) (A) (A) (A)
                 (A) (A) (A) (A) (A) (A) (A) (A) (A) (A) (A) (A)
                 (A) (A) (A) (A) (A) (A) (A) (A) (A) (A) (A) (A)
                 (A) (A) (A) (A) (A) (A) (A) (A) (A) (A) (A) (A)
                 (A) (A) (A) (A) (A) (A) (A) (A) (A) (A) (A) (A)
                 (A) (A) (A) (A) (A) (A) (A) (A) (A) (A) (A) (A)
                 (A) (A) (A) (A) (A) (A) (A) (A) (A) (A) (A) (A)
                 (A) (A) (A) (A) (A) (A) (A) (A) (A) (A) (A) (A)
                 (A) (A) (A) (A) (A) (A) (A) (A) (A) (A) (A) (A)
                 (A) (A) (A) (A) (A) (A) (A) (A) (A) (A) (A) (A)
                 (A) (A) (A) (A) (A) (A) (A) (A) (A) (A) (A) (A)
                 (A) (A) (A) (A) (A) (A) (A) (A) (A) (A) (A) (A)
                 (A) (A) (A) (A) (A) (A) (A) (A) (A) (A) (A) (A)
                 (A) (A) (A) (A) (A) (A) (A) (A) (A) (A) (A) (A)
                 (A) (A) (A) (A) (A) (A) (A) (A) (A) (A) (A)
 The electronic state is 1-A.
 Alpha  occ. eigenvalues --  -20.54298 -20.52900 -15.60632 -15.58585 -11.37154
 Alpha  occ. eigenvalues --  -11.35816 -11.29276 -11.27625 -11.24181 -11.24166
 Alpha  occ. eigenvalues --   -1.39847  -1.38050  -1.24426  -1.23274  -1.05484
 Alpha  occ. eigenvalues --   -0.99059  -0.96121  -0.88623  -0.80326  -0.77938
 Alpha  occ. eigenvalues --   -0.73158  -0.67369  -0.65824  -0.65080  -0.62915
 Alpha  occ. eigenvalues --   -0.61728  -0.59590  -0.58937  -0.56763  -0.56442
 Alpha  occ. eigenvalues --   -0.55452  -0.54299  -0.53441  -0.52378  -0.49063
 Alpha  occ. eigenvalues --   -0.43531  -0.42247  -0.40647  -0.39565
 Alpha virt. eigenvalues --    0.02797   0.04006   0.04367   0.04445   0.05793
 Alpha virt. eigenvalues --    0.06044   0.06285   0.06842   0.07401   0.07836
 Alpha virt. eigenvalues --    0.09049   0.10219   0.11395   0.11701   0.12932
 Alpha virt. eigenvalues --    0.13178   0.14319   0.14552   0.14838   0.15073
 Alpha virt. eigenvalues --    0.15459   0.15943   0.16150   0.16500   0.17023
 Alpha virt. eigenvalues --    0.17903   0.18255   0.18841   0.19120   0.19191
 Alpha virt. eigenvalues --    0.19585   0.19917   0.20498   0.21777   0.22249
 Alpha virt. eigenvalues --    0.23832   0.24452   0.24592   0.25754   0.26099
 Alpha virt. eigenvalues --    0.27120   0.28108   0.29374   0.29882   0.30353
 Alpha virt. eigenvalues --    0.30505   0.31705   0.32078   0.32584   0.33849
 Alpha virt. eigenvalues --    0.34096   0.34886   0.35097   0.35733   0.36508
 Alpha virt. eigenvalues --    0.36918   0.37226   0.38079   0.38705   0.39496
 Alpha virt. eigenvalues --    0.40842   0.41372   0.42344   0.42607   0.43550
 Alpha virt. eigenvalues --    0.44246   0.44289   0.44445   0.44930   0.46068
 Alpha virt. eigenvalues --    0.46382   0.46845   0.47786   0.47939   0.48859
 Alpha virt. eigenvalues --    0.49482   0.50094   0.50464   0.51221   0.52214
 Alpha virt. eigenvalues --    0.52721   0.53830   0.54601   0.55290   0.55625
 Alpha virt. eigenvalues --    0.55915   0.56871   0.57862   0.58539   0.58708
 Alpha virt. eigenvalues --    0.59414   0.60167   0.60499   0.61208   0.62430
 Alpha virt. eigenvalues --    0.62630   0.63384   0.64160   0.64733   0.65267
 Alpha virt. eigenvalues --    0.65977   0.66332   0.67509   0.67839   0.68842
 Alpha virt. eigenvalues --    0.68923   0.70004   0.70170   0.71216   0.71817
 Alpha virt. eigenvalues --    0.72907   0.73318   0.73871   0.74247   0.74883
 Alpha virt. eigenvalues --    0.75591   0.76931   0.77936   0.78421   0.79164
 Alpha virt. eigenvalues --    0.80010   0.81098   0.81495   0.82754   0.83032
 Alpha virt. eigenvalues --    0.83577   0.84374   0.85344   0.86387   0.88774
 Alpha virt. eigenvalues --    0.89378   0.90455   0.91432   0.93349   0.93642
 Alpha virt. eigenvalues --    0.95375   0.95785   0.97039   0.97541   0.98733
 Alpha virt. eigenvalues --    0.99259   1.00617   1.01926   1.03683   1.04530
 Alpha virt. eigenvalues --    1.06830   1.07542   1.08548   1.09296   1.10571
 Alpha virt. eigenvalues --    1.12324   1.13029   1.14176   1.15627   1.15846
 Alpha virt. eigenvalues --    1.16795   1.16997   1.19866   1.20437   1.20523
 Alpha virt. eigenvalues --    1.23190   1.25157   1.26038   1.27035   1.28786
 Alpha virt. eigenvalues --    1.30089   1.32806   1.33689   1.34957   1.36309
 Alpha virt. eigenvalues --    1.40064   1.41491   1.45081   1.46510   1.47129
 Alpha virt. eigenvalues --    1.48697   1.50613   1.51790   1.54563   1.55419
 Alpha virt. eigenvalues --    1.56257   1.57406   1.60667   1.62299   1.64141
 Alpha virt. eigenvalues --    1.65275   1.66056   1.68899   1.69831   1.72777
 Alpha virt. eigenvalues --    1.74478   1.75179   1.77283   1.78564   1.79903
 Alpha virt. eigenvalues --    1.81814   1.82922   1.84392   1.85281   1.86894
 Alpha virt. eigenvalues --    1.88330   1.89077   1.90146   1.91107   1.93205
 Alpha virt. eigenvalues --    1.95147   1.97324   1.99149   2.00130   2.00859
 Alpha virt. eigenvalues --    2.02183   2.02835   2.03982   2.05212   2.06675
 Alpha virt. eigenvalues --    2.07514   2.09705   2.11692   2.12132   2.16976
 Alpha virt. eigenvalues --    2.18289   2.19533   2.20056   2.20498   2.21703
 Alpha virt. eigenvalues --    2.23646   2.25943   2.27046   2.29201   2.30368
 Alpha virt. eigenvalues --    2.31291   2.32379   2.35244   2.35566   2.37325
 Alpha virt. eigenvalues --    2.38035   2.39764   2.40862   2.41664   2.43926
 Alpha virt. eigenvalues --    2.44467   2.44882   2.47141   2.50101   2.51841
 Alpha virt. eigenvalues --    2.52185   2.53921   2.56820   2.59933   2.60504
 Alpha virt. eigenvalues --    2.62294   2.64112   2.64905   2.67615   2.70111
 Alpha virt. eigenvalues --    2.70543   2.72471   2.74546   2.75401   2.78358
 Alpha virt. eigenvalues --    2.81788   2.82682   2.84007   2.85769   2.87672
 Alpha virt. eigenvalues --    2.90036   2.91860   2.94393   2.95523   2.97267
 Alpha virt. eigenvalues --    2.99699   3.01320   3.02047   3.04264   3.07295
 Alpha virt. eigenvalues --    3.10384   3.13879   3.19318   3.20870   3.23397
 Alpha virt. eigenvalues --    3.26829   3.29253   3.43493   3.48625   3.52512
 Alpha virt. eigenvalues --    3.57500   3.66058   3.76293   3.83497   3.83703
 Alpha virt. eigenvalues --    3.85437   3.86334   3.94555   3.99339   4.01893
 Alpha virt. eigenvalues --    4.05773   4.12763   4.20329   4.23383
          Condensed to atoms (all electrons):
              1          2          3          4          5          6
     1  H    0.766795   0.390389  -0.045208  -0.095348  -0.086294   0.028483
     2  C    0.390389   4.481778   0.350028   0.334000   0.192411  -0.050283
     3  H   -0.045208   0.350028   0.697768  -0.063594  -0.050126   0.017106
     4  H   -0.095348   0.334000  -0.063594   1.007679   0.066031  -0.006799
     5  C   -0.086294   0.192411  -0.050126   0.066031   5.210370   0.206754
     6  O    0.028483  -0.050283   0.017106  -0.006799   0.206754   8.721819
     7  N    0.044349  -0.024647   0.025838  -0.154830   0.118306  -0.110297
     8  H   -0.003583  -0.053389  -0.004401   0.015719  -0.060602  -0.001411
     9  C   -0.000753  -0.005919  -0.012702   0.016110  -0.018111  -0.011957
    10  H   -0.000343  -0.004149  -0.000350   0.001767   0.067197  -0.028924
    11  C   -0.001502  -0.007058  -0.000224  -0.007164  -0.041178   0.043088
    12  H    0.000109   0.002084  -0.000052   0.000482   0.022974  -0.005258
    13  H    0.000104   0.000237   0.000069  -0.001162  -0.025494   0.005032
    14  H   -0.000777   0.004697  -0.000144   0.001623   0.018084   0.019567
    15  C   -0.000062   0.008701   0.015347  -0.020449  -0.099232   0.006834
    16  O   -0.000674  -0.002885   0.000080   0.002819  -0.002863  -0.001187
    17  N   -0.000391  -0.000118  -0.000344   0.001645  -0.006300   0.003704
    18  H    0.000034  -0.000591  -0.000065  -0.000258  -0.000234  -0.000626
    19  C   -0.000052   0.001087   0.000116   0.000357  -0.006603   0.001396
    20  H   -0.000010   0.000187   0.000060   0.000010  -0.000967   0.000158
    21  H    0.000009   0.000177   0.000012   0.000026   0.001282   0.000072
    22  H   -0.000002   0.000051   0.000004   0.000005  -0.000797   0.000060
              7          8          9         10         11         12
     1  H    0.044349  -0.003583  -0.000753  -0.000343  -0.001502   0.000109
     2  C   -0.024647  -0.053389  -0.005919  -0.004149  -0.007058   0.002084
     3  H    0.025838  -0.004401  -0.012702  -0.000350  -0.000224  -0.000052
     4  H   -0.154830   0.015719   0.016110   0.001767  -0.007164   0.000482
     5  C    0.118306  -0.060602  -0.018111   0.067197  -0.041178   0.022974
     6  O   -0.110297  -0.001411  -0.011957  -0.028924   0.043088  -0.005258
     7  N    7.619191   0.314343  -0.480300  -0.138861   0.047882  -0.085225
     8  H    0.314343   0.868283  -0.071147   0.024514  -0.002568   0.007037
     9  C   -0.480300  -0.071147   7.213160   0.286159   0.134274   0.112350
    10  H   -0.138861   0.024514   0.286159   1.071315  -0.090923   0.063833
    11  C    0.047882  -0.002568   0.134274  -0.090923   4.248766   0.214931
    12  H   -0.085225   0.007037   0.112350   0.063833   0.214931   1.061135
    13  H    0.107973   0.005993  -0.208942  -0.085466   0.316962  -0.126780
    14  H   -0.023347  -0.010857  -0.042651  -0.029335   0.412747  -0.188208
    15  C    0.211293  -0.050032  -0.761327  -0.118950  -0.034487  -0.050634
    16  O   -0.005095   0.037265  -0.011770  -0.005599   0.011125  -0.003910
    17  N   -0.026061   0.007456   0.009324  -0.006022  -0.017654   0.005140
    18  H    0.011793   0.000845  -0.093487   0.007270   0.004159   0.003514
    19  C   -0.016098  -0.006892  -0.023375  -0.002401   0.014097  -0.005791
    20  H   -0.001495  -0.000530   0.001646   0.001182  -0.007833  -0.001092
    21  H    0.000456   0.000213   0.037227  -0.001680  -0.005042  -0.000015
    22  H    0.000725  -0.001117  -0.047882  -0.001377   0.022146  -0.000529
             13         14         15         16         17         18
     1  H    0.000104  -0.000777  -0.000062  -0.000674  -0.000391   0.000034
     2  C    0.000237   0.004697   0.008701  -0.002885  -0.000118  -0.000591
     3  H    0.000069  -0.000144   0.015347   0.000080  -0.000344  -0.000065
     4  H   -0.001162   0.001623  -0.020449   0.002819   0.001645  -0.000258
     5  C   -0.025494   0.018084  -0.099232  -0.002863  -0.006300  -0.000234
     6  O    0.005032   0.019567   0.006834  -0.001187   0.003704  -0.000626
     7  N    0.107973  -0.023347   0.211293  -0.005095  -0.026061   0.011793
     8  H    0.005993  -0.010857  -0.050032   0.037265   0.007456   0.000845
     9  C   -0.208942  -0.042651  -0.761327  -0.011770   0.009324  -0.093487
    10  H   -0.085466  -0.029335  -0.118950  -0.005599  -0.006022   0.007270
    11  C    0.316962   0.412747  -0.034487   0.011125  -0.017654   0.004159
    12  H   -0.126780  -0.188208  -0.050634  -0.003910   0.005140   0.003514
    13  H    1.148123  -0.147492   0.120155  -0.002327  -0.043371   0.021452
    14  H   -0.147492   1.043946   0.007466   0.001112   0.014390  -0.003479
    15  C    0.120155   0.007466   5.437801   0.307640   0.155918   0.016993
    16  O   -0.002327   0.001112   0.307640   8.717394  -0.183717   0.004974
    17  N   -0.043371   0.014390   0.155918  -0.183717   7.182110   0.229131
    18  H    0.021452  -0.003479   0.016993   0.004974   0.229131   1.039363
    19  C   -0.008420   0.008054  -0.155960  -0.007071   0.305870  -0.138054
    20  H    0.002101   0.000014  -0.012224  -0.004137  -0.046365   0.003576
    21  H   -0.001102   0.000040  -0.041680   0.007457   0.035040  -0.003457
    22  H   -0.000089   0.001347   0.014337   0.010839  -0.110179   0.009556
             19         20         21         22
     1  H   -0.000052  -0.000010   0.000009  -0.000002
     2  C    0.001087   0.000187   0.000177   0.000051
     3  H    0.000116   0.000060   0.000012   0.000004
     4  H    0.000357   0.000010   0.000026   0.000005
     5  C   -0.006603  -0.000967   0.001282  -0.000797
     6  O    0.001396   0.000158   0.000072   0.000060
     7  N   -0.016098  -0.001495   0.000456   0.000725
     8  H   -0.006892  -0.000530   0.000213  -0.001117
     9  C   -0.023375   0.001646   0.037227  -0.047882
    10  H   -0.002401   0.001182  -0.001680  -0.001377
    11  C    0.014097  -0.007833  -0.005042   0.022146
    12  H   -0.005791  -0.001092  -0.000015  -0.000529
    13  H   -0.008420   0.002101  -0.001102  -0.000089
    14  H    0.008054   0.000014   0.000040   0.001347
    15  C   -0.155960  -0.012224  -0.041680   0.014337
    16  O   -0.007071  -0.004137   0.007457   0.010839
    17  N    0.305870  -0.046365   0.035040  -0.110179
    18  H   -0.138054   0.003576  -0.003457   0.009556
    19  C    4.168706   0.489018   0.289292   0.384428
    20  H    0.489018   0.980465  -0.107084  -0.149797
    21  H    0.289292  -0.107084   1.025685  -0.152736
    22  H    0.384428  -0.149797  -0.152736   1.143005
 Mulliken atomic charges:
              1
     1  H    0.004731
     2  C    0.383211
     3  H    0.070779
     4  H   -0.098667
     5  C    0.495393
     6  O   -0.837329
     7  N   -0.435894
     8  H   -0.015140
     9  C   -0.019929
    10  H   -0.008857
    11  C    0.745457
    12  H   -0.026094
    13  H   -0.077556
    14  H   -0.086795
    15  C    1.042552
    16  O   -0.869470
    17  N   -0.509206
    18  H   -0.112409
    19  C    0.708295
    20  H   -0.146883
    21  H   -0.084192
    22  H   -0.121998
 Sum of Mulliken atomic charges =   0.00000
 Mulliken charges with hydrogens summed into heavy atoms:
              1
     2  C    0.360054
     5  C    0.495393
     6  O   -0.837329
     7  N   -0.451033
     9  C   -0.028786
    11  C    0.555012
    15  C    1.042552
    16  O   -0.869470
    17  N   -0.621615
    19  C    0.355222
 Sum of Mulliken charges with hydrogens summed into heavy atoms =   0.00000
 Electronic spatial extent (au):  <R**2>=           1964.4872
 Charge=              0.0000 electrons
 Dipole moment (field-independent basis, Debye):
    X=             -3.0759    Y=              0.8130    Z=             -1.3032  Tot=              3.4381
 Quadrupole moment (field-independent basis, Debye-Ang):
   XX=            -54.8411   YY=            -63.5294   ZZ=            -63.4511
   XY=            -11.7157   XZ=             -7.6043   YZ=             -1.4037
 Traceless Quadrupole moment (field-independent basis, Debye-Ang):
   XX=              5.7661   YY=             -2.9222   ZZ=             -2.8439
   XY=            -11.7157   XZ=             -7.6043   YZ=             -1.4037
 Octapole moment (field-independent basis, Debye-Ang**2):
  XXX=            -38.2358  YYY=              7.4320  ZZZ=             -0.3508  XYY=              0.3045
  XXY=            -17.8401  XXZ=            -11.7111  XZZ=             -7.8625  YZZ=             -4.7133
  YYZ=             -0.2214  XYZ=             -6.0821
 Hexadecapole moment (field-independent basis, Debye-Ang**3):
 XXXX=          -1799.1614 YYYY=           -478.2545 ZZZZ=           -166.4387 XXXY=            -48.5467
 XXXZ=            -55.0363 YYYX=            -16.0174 YYYZ=              4.2064 ZZZX=             -4.2913
 ZZZY=              2.6876 XXYY=           -396.3830 XXZZ=           -371.6276 YYZZ=           -105.7956
 XXYZ=            -14.8466 YYXZ=             -7.0612 ZZXY=             -7.8918
 N-N= 5.495580475670D+02 E-N=-2.254325322831D+03  KE= 4.920823724540D+02
 1\1\GINC-NODE010\SP\RMP2-FC\Aug-CC-pVDZ\C6H12N2O2\MANAGER\13-Feb-2017\
 0\\#SP MP2/aug-cc-pVDZ\\Single Point calculation at MP2\\0,1\H,0,4.293
 2,-0.6643,-0.3372\C,0,3.3064,-1.126,-0.2523\H,0,3.3648,-1.8907,0.5309\
 H,0,3.0493,-1.6129,-1.1979\C,0,2.3002,-0.065,0.1651\O,0,2.5594,0.791,1
 .0028\N,0,1.0866,-0.1231,-0.4788\H,0,0.8208,-1.0181,-0.8795\C,0,-0.045
 9,0.6155,0.0624\H,0,0.1801,0.8406,1.1143\C,0,-0.238,1.9497,-0.678\H,0,
 -0.5086,1.7872,-1.7263\H,0,-1.0038,2.5815,-0.2115\H,0,0.7041,2.5031,-0
 .6414\C,0,-1.2658,-0.3289,0.0285\O,0,-1.1315,-1.5347,-0.1688\N,0,-2.47
 98,0.2623,0.1927\H,0,-2.5127,1.2508,0.3925\C,0,-3.7185,-0.496,0.2558\H
 ,0,-3.4984,-1.5136,-0.0681\H,0,-4.1215,-0.5269,1.2756\H,0,-4.47,-0.057
 3,-0.4092\\Version=EM64L-G09RevA.02\State=1-A\HF=-492.925508\MP2=-494.
 5264187\RMSD=7.361e-09\PG=C01 [X(C6H12N2O2)]\\@


      TO SUSPECT YOUR OWN MORTALITY IS TO KNOW THE BEGINNING OF TERROR.
      TO LEARN IRREFUTABLY THAT YOU ARE MORTAL IS TO KNOW THE END
      OF TERROR.

                                                  -- JESSICA
                                                     CHILDREN OF DUNE
                                                     BY FRANK HERBERT
 Job cpu time:  0 days 15 hours 39 minutes 51.2 seconds.
 File lengths (MBytes):  RWF=  10493 Int=      0 D2E=      0 Chk=      7 Scr=      2
 Normal termination of Gaussian 09 at Mon Feb 13 06:50:57 2017.
