 Entering Gaussian System, Link 0=g09
 Initial command:
 /home/steboss/Software/g09/l1.exe /home/steboss/projects/phi_psi_scan/alanine/MP2/225/5411/Gau-23885.inp -scrdir=/home/steboss/projects/phi_psi_scan/alanine/MP2/225/5411/
 Entering Link 1 = /home/steboss/Software/g09/l1.exe PID=     23888.
  
 Copyright (c) 1988,1990,1992,1993,1995,1998,2003,2009, Gaussian, Inc.
                  All Rights Reserved.
  
 This is part of the Gaussian(R) 09 program.  It is based on
 the Gaussian(R) 03 system (copyright 2003, Gaussian, Inc.),
 the Gaussian(R) 98 system (copyright 1998, Gaussian, Inc.),
 the Gaussian(R) 94 system (copyright 1995, Gaussian, Inc.),
 the Gaussian 92(TM) system (copyright 1992, Gaussian, Inc.),
 the Gaussian 90(TM) system (copyright 1990, Gaussian, Inc.),
 the Gaussian 88(TM) system (copyright 1988, Gaussian, Inc.),
 the Gaussian 86(TM) system (copyright 1986, Carnegie Mellon
 University), and the Gaussian 82(TM) system (copyright 1983,
 Carnegie Mellon University). Gaussian is a federally registered
 trademark of Gaussian, Inc.
  
 This software contains proprietary and confidential information,
 including trade secrets, belonging to Gaussian, Inc.
  
 This software is provided under written license and may be
 used, copied, transmitted, or stored only in accord with that
 written license.
  
 The following legend is applicable only to US Government
 contracts under FAR:
  
                    RESTRICTED RIGHTS LEGEND
  
 Use, reproduction and disclosure by the US Government is
 subject to restrictions as set forth in subparagraphs (a)
 and (c) of the Commercial Computer Software - Restricted
 Rights clause in FAR 52.227-19.
  
 Gaussian, Inc.
 340 Quinnipiac St., Bldg. 40, Wallingford CT 06492
  
  
 ---------------------------------------------------------------
 Warning -- This program may not be used in any manner that
 competes with the business of Gaussian, Inc. or will provide
 assistance to any competitor of Gaussian, Inc.  The licensee
 of this program is prohibited from giving any competitor of
 Gaussian, Inc. access to this program.  By using this program,
 the user acknowledges that Gaussian, Inc. is engaged in the
 business of creating and licensing software in the field of
 computational chemistry and represents and warrants to the
 licensee that it is not a competitor of Gaussian, Inc. and that
 it will not use this program in any manner prohibited above.
 ---------------------------------------------------------------
  

 Cite this work as:
 Gaussian 09, Revision A.02,
 M. J. Frisch, G. W. Trucks, H. B. Schlegel, G. E. Scuseria, 
 M. A. Robb, J. R. Cheeseman, G. Scalmani, V. Barone, B. Mennucci, 
 G. A. Petersson, H. Nakatsuji, M. Caricato, X. Li, H. P. Hratchian, 
 A. F. Izmaylov, J. Bloino, G. Zheng, J. L. Sonnenberg, M. Hada, 
 M. Ehara, K. Toyota, R. Fukuda, J. Hasegawa, M. Ishida, T. Nakajima, 
 Y. Honda, O. Kitao, H. Nakai, T. Vreven, J. A. Montgomery, Jr., 
 J. E. Peralta, F. Ogliaro, M. Bearpark, J. J. Heyd, E. Brothers, 
 K. N. Kudin, V. N. Staroverov, R. Kobayashi, J. Normand, 
 K. Raghavachari, A. Rendell, J. C. Burant, S. S. Iyengar, J. Tomasi, 
 M. Cossi, N. Rega, J. M. Millam, M. Klene, J. E. Knox, J. B. Cross, 
 V. Bakken, C. Adamo, J. Jaramillo, R. Gomperts, R. E. Stratmann, 
 O. Yazyev, A. J. Austin, R. Cammi, C. Pomelli, J. W. Ochterski, 
 R. L. Martin, K. Morokuma, V. G. Zakrzewski, G. A. Voth, 
 P. Salvador, J. J. Dannenberg, S. Dapprich, A. D. Daniels, 
 O. Farkas, J. B. Foresman, J. V. Ortiz, J. Cioslowski, 
 and D. J. Fox, Gaussian, Inc., Wallingford CT, 2009.
 
 ******************************************
 Gaussian 09:  EM64L-G09RevA.02 11-Jun-2009
                13-Feb-2017 
 ******************************************
 %chk=structure_300.chk
 %NProcShared=8
 Will use up to    8 processors via shared memory.
 -------------------
 #SP MP2/aug-cc-pVDZ
 -------------------
 1/38=1/1;
 2/12=2,17=6,18=5,40=1/2;
 3/5=16,7=10,11=9,16=1,25=1,30=1/1,2,3;
 4//1;
 5/5=2,38=5/2;
 8/10=1/1;
 9/16=-3/6;
 6/7=2,8=2,9=2,10=2/1;
 99/5=1,9=1/99;
 -------------------------------
 Single Point calculation at MP2
 -------------------------------
 Symbolic Z-matrix:
 Charge =  0 Multiplicity = 1
 H                     3.9695   -1.2538   -0.6469 
 C                     3.0063   -1.5238   -0.2059 
 H                     3.2108   -2.0365    0.7402 
 H                     2.4863   -2.216    -0.8761 
 C                     2.2263   -0.2495    0.0838 
 O                     2.7306    0.709     0.6528 
 N                     0.9224   -0.2466   -0.3492 
 H                     0.5221   -1.119    -0.6663 
 C                    -0.0063    0.8143    0.0572 
 H                     0.4057    1.2683    0.9603 
 C                    -0.1449    1.8998   -1.0222 
 H                    -0.497     1.4907   -1.9773 
 H                    -0.8446    2.6792   -0.7001 
 H                     0.8323    2.36     -1.1946 
 C                    -1.3515    0.1956    0.4719 
 O                    -1.7982    0.2981    1.6041 
 N                    -1.9852   -0.5243   -0.5149 
 H                    -1.7056   -0.3561   -1.4723 
 C                    -3.3078   -1.0936   -0.2978 
 H                    -3.3772   -1.4012    0.7462 
 H                    -4.1092   -0.3697   -0.4965 
 H                    -3.4445   -1.9642   -0.9456 
 
                          Input orientation:                          
 ---------------------------------------------------------------------
 Center     Atomic      Atomic             Coordinates (Angstroms)
 Number     Number       Type             X           Y           Z
 ---------------------------------------------------------------------
      1          1           0        3.969500   -1.253800   -0.646900
      2          6           0        3.006300   -1.523800   -0.205900
      3          1           0        3.210800   -2.036500    0.740200
      4          1           0        2.486300   -2.216000   -0.876100
      5          6           0        2.226300   -0.249500    0.083800
      6          8           0        2.730600    0.709000    0.652800
      7          7           0        0.922400   -0.246600   -0.349200
      8          1           0        0.522100   -1.119000   -0.666300
      9          6           0       -0.006300    0.814300    0.057200
     10          1           0        0.405700    1.268300    0.960300
     11          6           0       -0.144900    1.899800   -1.022200
     12          1           0       -0.497000    1.490700   -1.977300
     13          1           0       -0.844600    2.679200   -0.700100
     14          1           0        0.832300    2.360000   -1.194600
     15          6           0       -1.351500    0.195600    0.471900
     16          8           0       -1.798200    0.298100    1.604100
     17          7           0       -1.985200   -0.524300   -0.514900
     18          1           0       -1.705600   -0.356100   -1.472300
     19          6           0       -3.307800   -1.093600   -0.297800
     20          1           0       -3.377200   -1.401200    0.746200
     21          1           0       -4.109200   -0.369700   -0.496500
     22          1           0       -3.444500   -1.964200   -0.945600
 ---------------------------------------------------------------------
                    Distance matrix (angstroms):
                    1          2          3          4          5
     1  H    0.000000
     2  C    1.093222   0.000000
     3  H    1.764169   1.095348   0.000000
     4  H    1.782763   1.094856   1.780322   0.000000
     5  C    2.140394   1.521896   2.143238   2.203663   0.000000
     6  O    2.660202   2.408064   2.788548   3.309508   1.223438
     7  N    3.223026   2.448349   3.102791   2.569425   1.373919
     8  H    3.450089   2.558726   3.170040   2.259537   2.054989
     9  C    4.536494   3.822524   4.352388   4.033215   2.473233
    10  H    4.652392   3.989858   4.340361   4.454392   2.527163
    11  C    5.197531   4.724134   5.464543   4.887164   3.386047
    12  H    5.408499   4.949564   5.794284   4.883886   3.833118
    13  H    6.216661   5.721789   6.384243   5.923585   4.315346
    14  H    4.816799   4.559354   5.360030   4.876160   3.222892
    15  C    5.627212   4.733516   5.086142   4.728808   3.626209
    16  O    6.382927   5.447811   5.593457   5.552390   4.336794
    17  N    6.000670   5.099956   5.555217   4.794437   4.262709
    18  H    5.804646   5.016901   5.647113   4.624577   4.229970
    19  C    7.287430   6.329406   6.667732   5.930077   5.611095
    20  H    7.479068   6.455277   6.618564   6.138110   5.758854
    21  H    8.128324   7.214342   7.608551   6.859558   6.363156
    22  H    7.453944   6.507990   6.865870   5.936550   6.013138
                    6          7          8          9         10
     6  O    0.000000
     7  N    2.277447   0.000000
     8  H    3.155801   1.010878   0.000000
     9  C    2.802936   1.467363   2.130800   0.000000
    10  H    2.410919   2.068016   2.891121   1.091535   0.000000
    11  C    3.534421   2.489797   3.112026   1.537083   2.152268
    12  H    4.236258   2.771934   3.093189   2.199430   3.081205
    13  H    4.300475   3.435946   4.036748   2.180390   2.512134
    14  H    3.121255   2.741748   3.532530   2.158574   2.453037
    15  C    4.118233   2.457716   2.556179   1.537637   2.115886
    16  O    4.645841   3.393191   3.542129   2.422864   2.492577
    17  N    5.012317   2.925528   2.581307   2.456663   3.332571
    18  H    5.032927   2.860022   2.488835   2.568429   3.607465
    19  C    6.373012   4.314469   3.847671   3.829623   4.577278
    20  H    6.462731   4.584710   4.156842   4.092203   4.634911
    21  H    7.019070   5.035261   4.694595   4.306069   5.018927
    22  H    6.916122   4.730292   4.065254   4.532868   5.376388
                   11         12         13         14         15
    11  C    0.000000
    12  H    1.097066   0.000000
    13  H    1.095807   1.778932   0.000000
    14  H    1.093812   1.770689   1.777192   0.000000
    15  C    2.567590   2.899316   2.792633   3.497261   0.000000
    16  O    3.492319   3.992724   3.447945   4.359321   1.221443
    17  N    3.085501   2.900617   3.405537   4.088947   1.376084
    18  H    2.779831   2.264158   3.248178   3.727634   2.051749
    19  C    4.414650   4.171322   4.523629   5.465531   2.466087
    20  H    4.946878   4.906739   5.015527   5.969357   2.593930
    21  H    4.598115   4.324563   4.471561   5.688324   2.976957
    22  H    5.081705   4.657091   5.327374   6.087013   3.324860
                   16         17         18         19         20
    16  O    0.000000
    17  N    2.280674   0.000000
    18  H    3.146552   1.011475   0.000000
    19  C    2.798740   1.456196   2.119057   0.000000
    20  H    2.473227   2.072918   2.967865   1.090582   0.000000
    21  H    3.193618   2.129699   2.594160   1.098069   1.773167
    22  H    3.785403   2.094844   2.426349   1.093744   1.784289
                   21         22
    21  H    0.000000
    22  H    1.784922   0.000000
 Stoichiometry    C6H12N2O2
 Framework group  C1[X(C6H12N2O2)]
 Deg. of freedom    60
 Full point group                 C1      NOp   1
 Largest Abelian subgroup         C1      NOp   1
 Largest concise Abelian subgroup C1      NOp   1
                         Standard orientation:                         
 ---------------------------------------------------------------------
 Center     Atomic      Atomic             Coordinates (Angstroms)
 Number     Number       Type             X           Y           Z
 ---------------------------------------------------------------------
      1          1           0        3.969489   -1.253789   -0.646894
      2          6           0        3.006289   -1.523789   -0.205894
      3          1           0        3.210789   -2.036489    0.740206
      4          1           0        2.486289   -2.215988   -0.876094
      5          6           0        2.226290   -0.249488    0.083806
      6          8           0        2.730590    0.709011    0.652806
      7          7           0        0.922390   -0.246588   -0.349194
      8          1           0        0.522089   -1.118987   -0.666294
      9          6           0       -0.006310    0.814313    0.057206
     10          1           0        0.405690    1.268313    0.960306
     11          6           0       -0.144909    1.899813   -1.022194
     12          1           0       -0.497010    1.490713   -1.977294
     13          1           0       -0.844609    2.679213   -0.700094
     14          1           0        0.832291    2.360012   -1.194594
     15          6           0       -1.351510    0.195613    0.471906
     16          8           0       -1.798210    0.298114    1.604106
     17          7           0       -1.985211   -0.524286   -0.514894
     18          1           0       -1.705610   -0.356086   -1.472294
     19          6           0       -3.307811   -1.093586   -0.297794
     20          1           0       -3.377211   -1.401186    0.746206
     21          1           0       -4.109210   -0.369685   -0.496494
     22          1           0       -3.444511   -1.964185   -0.945594
 ---------------------------------------------------------------------
 Rotational constants (GHZ):      2.2317446      0.7016609      0.6469207
 Standard basis: Aug-CC-pVDZ (5D, 7F)
 There are   338 symmetry adapted basis functions of A   symmetry.
 Integral buffers will be    131072 words long.
 Raffenetti 1 integral format.
 Two-electron integral symmetry is turned on.
   338 basis functions,   562 primitive gaussians,   358 cartesian basis functions
    39 alpha electrons       39 beta electrons
       nuclear repulsion energy       548.9050676305 Hartrees.
 NAtoms=   22 NActive=   22 NUniq=   22 SFac= 7.50D-01 NAtFMM=   80 NAOKFM=F Big=F
 One-electron integrals computed using PRISM.
 NBasis=   338 RedAO= T  NBF=   338
 NBsUse=   338 1.00D-06 NBFU=   338
 Harris functional with IExCor=  205 diagonalized for initial guess.
 ExpMin= 2.97D-02 ExpMax= 1.17D+04 ExpMxC= 4.01D+02 IAcc=3 IRadAn=         0 AccDes= 0.00D+00
 HarFok:  IExCor=  205 AccDes= 0.00D+00 IRadAn=         0 IDoV= 1
 ScaDFX=  1.000000  1.000000  1.000000  1.000000
 FoFCou: FMM=F IPFlag=           0 FMFlag=      100000 FMFlg1=           0
         NFxFlg=           0 DoJE=T BraDBF=F KetDBF=T FulRan=T
         Omega=  0.000000  0.000000  1.000000  0.000000  0.000000 ICntrl=     500 IOpCl=  0
         NMat0=    1 NMatS0=    1 NMatT0=    0 NMatD0=    1 NMtDS0=    0 NMtDT0=    0
         I1Cent=           4 NGrid=           0.
 Petite list used in FoFCou.
 Initial guess orbital symmetries:
       Occupied  (A) (A) (A) (A) (A) (A) (A) (A) (A) (A) (A) (A)
                 (A) (A) (A) (A) (A) (A) (A) (A) (A) (A) (A) (A)
                 (A) (A) (A) (A) (A) (A) (A) (A) (A) (A) (A) (A)
                 (A) (A) (A)
       Virtual   (A) (A) (A) (A) (A) (A) (A) (A) (A) (A) (A) (A)
                 (A) (A) (A) (A) (A) (A) (A) (A) (A) (A) (A) (A)
                 (A) (A) (A) (A) (A) (A) (A) (A) (A) (A) (A) (A)
                 (A) (A) (A) (A) (A) (A) (A) (A) (A) (A) (A) (A)
                 (A) (A) (A) (A) (A) (A) (A) (A) (A) (A) (A) (A)
                 (A) (A) (A) (A) (A) (A) (A) (A) (A) (A) (A) (A)
                 (A) (A) (A) (A) (A) (A) (A) (A) (A) (A) (A) (A)
                 (A) (A) (A) (A) (A) (A) (A) (A) (A) (A) (A) (A)
                 (A) (A) (A) (A) (A) (A) (A) (A) (A) (A) (A) (A)
                 (A) (A) (A) (A) (A) (A) (A) (A) (A) (A) (A) (A)
                 (A) (A) (A) (A) (A) (A) (A) (A) (A) (A) (A) (A)
                 (A) (A) (A) (A) (A) (A) (A) (A) (A) (A) (A) (A)
                 (A) (A) (A) (A) (A) (A) (A) (A) (A) (A) (A) (A)
                 (A) (A) (A) (A) (A) (A) (A) (A) (A) (A) (A) (A)
                 (A) (A) (A) (A) (A) (A) (A) (A) (A) (A) (A) (A)
                 (A) (A) (A) (A) (A) (A) (A) (A) (A) (A) (A) (A)
                 (A) (A) (A) (A) (A) (A) (A) (A) (A) (A) (A) (A)
                 (A) (A) (A) (A) (A) (A) (A) (A) (A) (A) (A) (A)
                 (A) (A) (A) (A) (A) (A) (A) (A) (A) (A) (A) (A)
                 (A) (A) (A) (A) (A) (A) (A) (A) (A) (A) (A) (A)
                 (A) (A) (A) (A) (A) (A) (A) (A) (A) (A) (A) (A)
                 (A) (A) (A) (A) (A) (A) (A) (A) (A) (A) (A) (A)
                 (A) (A) (A) (A) (A) (A) (A) (A) (A) (A) (A) (A)
                 (A) (A) (A) (A) (A) (A) (A) (A) (A) (A) (A) (A)
                 (A) (A) (A) (A) (A) (A) (A) (A) (A) (A) (A)
 The electronic state of the initial guess is 1-A.
 Requested convergence on RMS density matrix=1.00D-08 within 128 cycles.
 Requested convergence on MAX density matrix=1.00D-06.
 Requested convergence on             energy=1.00D-06.
 No special actions if energy rises.
 Initial convergence to 1.0D-05 achieved.  Increase integral accuracy.
 SCF Done:  E(RHF) =  -492.918993615     A.U. after   14 cycles
             Convg  =    0.8330D-08             -V/T =  2.0017
 ExpMin= 2.97D-02 ExpMax= 1.17D+04 ExpMxC= 4.01D+02 IAcc=3 IRadAn=         5 AccDes= 0.00D+00
 HarFok:  IExCor=  205 AccDes= 0.00D+00 IRadAn=         5 IDoV=-2
 ScaDFX=  1.000000  1.000000  1.000000  1.000000
 Range of M.O.s used for correlation:    11   338
 NBasis=   338 NAE=    39 NBE=    39 NFC=    10 NFV=     0
 NROrb=    328 NOA=    29 NOB=    29 NVA=   299 NVB=   299

 **** Warning!!: The largest alpha MO coefficient is  0.66354776D+02

 Disk-based method using OVN memory for 29 occupieds at a time.
 Estimated scratch disk usage=  1377588121 words.
 Actual    scratch disk usage=  1364367309 words.
 JobTyp=1 Pass  1:  I=   1 to  29 NPSUse=  8 ParTrn=T ParDer=T DoDerP=F.
 Spin components of T(2) and E(2):
     alpha-alpha T2 =       0.6789960246D-01 E2=     -0.2055090498D+00
     alpha-beta  T2 =       0.3769934123D+00 E2=     -0.1190060058D+01
     beta-beta   T2 =       0.6789960246D-01 E2=     -0.2055090498D+00
 ANorm=    0.1229956348D+01
 E2 =    -0.1601078158D+01 EUMP2 =    -0.49452007177264D+03

 **********************************************************************

            Population analysis using the SCF density.

 **********************************************************************

 Orbital symmetries:
       Occupied  (A) (A) (A) (A) (A) (A) (A) (A) (A) (A) (A) (A)
                 (A) (A) (A) (A) (A) (A) (A) (A) (A) (A) (A) (A)
                 (A) (A) (A) (A) (A) (A) (A) (A) (A) (A) (A) (A)
                 (A) (A) (A)
       Virtual   (A) (A) (A) (A) (A) (A) (A) (A) (A) (A) (A) (A)
                 (A) (A) (A) (A) (A) (A) (A) (A) (A) (A) (A) (A)
                 (A) (A) (A) (A) (A) (A) (A) (A) (A) (A) (A) (A)
                 (A) (A) (A) (A) (A) (A) (A) (A) (A) (A) (A) (A)
                 (A) (A) (A) (A) (A) (A) (A) (A) (A) (A) (A) (A)
                 (A) (A) (A) (A) (A) (A) (A) (A) (A) (A) (A) (A)
                 (A) (A) (A) (A) (A) (A) (A) (A) (A) (A) (A) (A)
                 (A) (A) (A) (A) (A) (A) (A) (A) (A) (A) (A) (A)
                 (A) (A) (A) (A) (A) (A) (A) (A) (A) (A) (A) (A)
                 (A) (A) (A) (A) (A) (A) (A) (A) (A) (A) (A) (A)
                 (A) (A) (A) (A) (A) (A) (A) (A) (A) (A) (A) (A)
                 (A) (A) (A) (A) (A) (A) (A) (A) (A) (A) (A) (A)
                 (A) (A) (A) (A) (A) (A) (A) (A) (A) (A) (A) (A)
                 (A) (A) (A) (A) (A) (A) (A) (A) (A) (A) (A) (A)
                 (A) (A) (A) (A) (A) (A) (A) (A) (A) (A) (A) (A)
                 (A) (A) (A) (A) (A) (A) (A) (A) (A) (A) (A) (A)
                 (A) (A) (A) (A) (A) (A) (A) (A) (A) (A) (A) (A)
                 (A) (A) (A) (A) (A) (A) (A) (A) (A) (A) (A) (A)
                 (A) (A) (A) (A) (A) (A) (A) (A) (A) (A) (A) (A)
                 (A) (A) (A) (A) (A) (A) (A) (A) (A) (A) (A) (A)
                 (A) (A) (A) (A) (A) (A) (A) (A) (A) (A) (A) (A)
                 (A) (A) (A) (A) (A) (A) (A) (A) (A) (A) (A) (A)
                 (A) (A) (A) (A) (A) (A) (A) (A) (A) (A) (A) (A)
                 (A) (A) (A) (A) (A) (A) (A) (A) (A) (A) (A) (A)
                 (A) (A) (A) (A) (A) (A) (A) (A) (A) (A) (A)
 The electronic state is 1-A.
 Alpha  occ. eigenvalues --  -20.54296 -20.53328 -15.60548 -15.60312 -11.36761
 Alpha  occ. eigenvalues --  -11.36693 -11.29223 -11.27657 -11.25121 -11.24298
 Alpha  occ. eigenvalues --   -1.39606  -1.38688  -1.25189  -1.23118  -1.05911
 Alpha  occ. eigenvalues --   -0.99607  -0.96278  -0.88752  -0.79993  -0.79468
 Alpha  occ. eigenvalues --   -0.73401  -0.67787  -0.66207  -0.64232  -0.63425
 Alpha  occ. eigenvalues --   -0.62136  -0.59605  -0.59225  -0.57926  -0.57027
 Alpha  occ. eigenvalues --   -0.55805  -0.54652  -0.52976  -0.52185  -0.49886
 Alpha  occ. eigenvalues --   -0.44393  -0.42703  -0.40529  -0.39498
 Alpha virt. eigenvalues --    0.02160   0.03673   0.04094   0.04714   0.05671
 Alpha virt. eigenvalues --    0.05898   0.06251   0.06630   0.07502   0.07938
 Alpha virt. eigenvalues --    0.08332   0.09648   0.11184   0.11945   0.12296
 Alpha virt. eigenvalues --    0.12874   0.13410   0.14293   0.14642   0.14980
 Alpha virt. eigenvalues --    0.15657   0.15864   0.16347   0.17143   0.17280
 Alpha virt. eigenvalues --    0.17546   0.18050   0.18211   0.19015   0.19189
 Alpha virt. eigenvalues --    0.19532   0.20173   0.20609   0.21455   0.21786
 Alpha virt. eigenvalues --    0.22521   0.23590   0.24897   0.25218   0.26046
 Alpha virt. eigenvalues --    0.26505   0.27400   0.29403   0.29452   0.30161
 Alpha virt. eigenvalues --    0.31490   0.32108   0.32230   0.32789   0.33207
 Alpha virt. eigenvalues --    0.33773   0.34444   0.34849   0.36052   0.36397
 Alpha virt. eigenvalues --    0.36786   0.37711   0.38249   0.38986   0.39628
 Alpha virt. eigenvalues --    0.40986   0.41222   0.41523   0.42427   0.42623
 Alpha virt. eigenvalues --    0.43009   0.43507   0.44428   0.45051   0.45134
 Alpha virt. eigenvalues --    0.45408   0.45899   0.46340   0.47256   0.48329
 Alpha virt. eigenvalues --    0.48716   0.49081   0.49923   0.51473   0.52038
 Alpha virt. eigenvalues --    0.52655   0.54033   0.54478   0.54710   0.55168
 Alpha virt. eigenvalues --    0.56097   0.56508   0.57151   0.58095   0.58665
 Alpha virt. eigenvalues --    0.59130   0.59705   0.60005   0.60647   0.61422
 Alpha virt. eigenvalues --    0.62772   0.63232   0.63338   0.64225   0.64590
 Alpha virt. eigenvalues --    0.65247   0.66009   0.66963   0.67756   0.68297
 Alpha virt. eigenvalues --    0.68649   0.69614   0.69900   0.70847   0.71440
 Alpha virt. eigenvalues --    0.72123   0.72723   0.73396   0.74206   0.74449
 Alpha virt. eigenvalues --    0.75619   0.76838   0.77469   0.78342   0.78602
 Alpha virt. eigenvalues --    0.79803   0.80006   0.81172   0.82248   0.83495
 Alpha virt. eigenvalues --    0.84168   0.84693   0.85556   0.87594   0.88094
 Alpha virt. eigenvalues --    0.89114   0.89851   0.90859   0.93707   0.94098
 Alpha virt. eigenvalues --    0.94876   0.95528   0.96029   0.96266   0.97815
 Alpha virt. eigenvalues --    0.98621   0.99759   1.02064   1.03043   1.04452
 Alpha virt. eigenvalues --    1.05848   1.07069   1.07913   1.09277   1.09966
 Alpha virt. eigenvalues --    1.11394   1.12023   1.13965   1.14451   1.15635
 Alpha virt. eigenvalues --    1.16009   1.17285   1.18706   1.19121   1.20063
 Alpha virt. eigenvalues --    1.22658   1.24093   1.24367   1.27909   1.29378
 Alpha virt. eigenvalues --    1.29695   1.32061   1.32939   1.34048   1.35947
 Alpha virt. eigenvalues --    1.37883   1.40190   1.42471   1.44489   1.45010
 Alpha virt. eigenvalues --    1.46883   1.47598   1.50175   1.51299   1.55132
 Alpha virt. eigenvalues --    1.55944   1.59287   1.59738   1.63206   1.64076
 Alpha virt. eigenvalues --    1.65384   1.65652   1.69218   1.70798   1.72171
 Alpha virt. eigenvalues --    1.73783   1.75264   1.76156   1.79667   1.80105
 Alpha virt. eigenvalues --    1.82433   1.83255   1.85372   1.87181   1.88181
 Alpha virt. eigenvalues --    1.88961   1.89952   1.90749   1.91363   1.92707
 Alpha virt. eigenvalues --    1.94121   1.94642   1.97271   1.97520   2.00330
 Alpha virt. eigenvalues --    2.02140   2.03191   2.05711   2.07715   2.08989
 Alpha virt. eigenvalues --    2.11055   2.11740   2.13194   2.14686   2.16853
 Alpha virt. eigenvalues --    2.17497   2.18728   2.19802   2.21117   2.21829
 Alpha virt. eigenvalues --    2.24053   2.25279   2.25960   2.28438   2.28583
 Alpha virt. eigenvalues --    2.31024   2.32875   2.34961   2.35991   2.36655
 Alpha virt. eigenvalues --    2.37219   2.41360   2.41790   2.42925   2.43704
 Alpha virt. eigenvalues --    2.44391   2.46421   2.48868   2.50451   2.51404
 Alpha virt. eigenvalues --    2.53383   2.54890   2.56298   2.57133   2.58918
 Alpha virt. eigenvalues --    2.61567   2.63121   2.64739   2.67302   2.67848
 Alpha virt. eigenvalues --    2.69275   2.73330   2.75390   2.76010   2.77198
 Alpha virt. eigenvalues --    2.79722   2.82146   2.84250   2.86596   2.87311
 Alpha virt. eigenvalues --    2.88280   2.91112   2.91585   2.92857   2.96243
 Alpha virt. eigenvalues --    2.98910   3.01353   3.02923   3.05120   3.08803
 Alpha virt. eigenvalues --    3.11659   3.13556   3.16920   3.20221   3.22395
 Alpha virt. eigenvalues --    3.28087   3.30510   3.41776   3.42332   3.53538
 Alpha virt. eigenvalues --    3.58471   3.67410   3.76865   3.81893   3.82737
 Alpha virt. eigenvalues --    3.84435   3.86736   3.91592   3.95155   3.99389
 Alpha virt. eigenvalues --    4.02062   4.14478   4.20471   4.29284
          Condensed to atoms (all electrons):
              1          2          3          4          5          6
     1  H    0.745043   0.389043  -0.047135  -0.090526  -0.091200   0.027623
     2  C    0.389043   4.509265   0.319653   0.379407   0.232014  -0.050215
     3  H   -0.047135   0.319653   0.719226  -0.072382  -0.061833   0.017544
     4  H   -0.090526   0.379407  -0.072382   1.111077   0.114472  -0.012959
     5  C   -0.091200   0.232014  -0.061833   0.114472   5.573208   0.169534
     6  O    0.027623  -0.050215   0.017544  -0.012959   0.169534   8.709613
     7  N    0.045729  -0.108224   0.060860  -0.231220   0.046124  -0.118503
     8  H   -0.003268  -0.068257  -0.004337  -0.002925  -0.146605   0.000859
     9  C    0.005655   0.071904  -0.003502   0.001981  -0.163492   0.083645
    10  H   -0.000621  -0.010437  -0.002203   0.001305   0.018500  -0.018594
    11  C   -0.000459  -0.025802   0.002410  -0.019087  -0.135470   0.024550
    12  H   -0.000485  -0.000821   0.000411  -0.000471  -0.007780  -0.002040
    13  H    0.000271   0.001548   0.000164  -0.001324  -0.015319   0.001837
    14  H    0.000411   0.002041  -0.000482  -0.000145   0.009204   0.015453
    15  C   -0.005135  -0.035942   0.010244  -0.006380  -0.056903  -0.005819
    16  O    0.000010   0.000253   0.000033  -0.000303   0.003896  -0.000851
    17  N   -0.000431   0.003691   0.000827   0.001146  -0.031693   0.001188
    18  H    0.000432   0.004726  -0.000252   0.000526  -0.002075   0.000429
    19  C   -0.000252  -0.002884   0.000454  -0.001407  -0.003581  -0.000055
    20  H   -0.000086  -0.000403   0.000078   0.000117  -0.000494  -0.000080
    21  H    0.000012   0.000196   0.000010   0.000173   0.000201  -0.000007
    22  H   -0.000007  -0.000174   0.000033  -0.000399   0.000285   0.000088
              7          8          9         10         11         12
     1  H    0.045729  -0.003268   0.005655  -0.000621  -0.000459  -0.000485
     2  C   -0.108224  -0.068257   0.071904  -0.010437  -0.025802  -0.000821
     3  H    0.060860  -0.004337  -0.003502  -0.002203   0.002410   0.000411
     4  H   -0.231220  -0.002925   0.001981   0.001305  -0.019087  -0.000471
     5  C    0.046124  -0.146605  -0.163492   0.018500  -0.135470  -0.007780
     6  O   -0.118503   0.000859   0.083645  -0.018594   0.024550  -0.002040
     7  N    7.868883   0.352020  -0.751111  -0.085304   0.109527  -0.107425
     8  H    0.352020   0.993554  -0.170186   0.011212   0.022536   0.001175
     9  C   -0.751111  -0.170186   8.267921  -0.260390  -0.150318  -0.033567
    10  H   -0.085304   0.011212  -0.260390   1.324280  -0.022219   0.068905
    11  C    0.109527   0.022536  -0.150318  -0.022219   4.363865   0.308500
    12  H   -0.107425   0.001175  -0.033567   0.068905   0.308500   1.183471
    13  H    0.141381   0.005163  -0.238934  -0.070969   0.401546  -0.144529
    14  H   -0.052171  -0.003164   0.150109  -0.036353   0.281825  -0.212165
    15  C   -0.006671   0.048626  -0.502901   0.145639  -0.046249   0.085988
    16  O   -0.000625  -0.006341   0.039912   0.030160   0.019389  -0.004250
    17  N    0.016029   0.009280  -0.165455   0.022871   0.080771  -0.017542
    18  H   -0.008648  -0.003932   0.044340  -0.005685  -0.022319   0.003833
    19  C   -0.001823   0.013443  -0.104084   0.010389   0.002285   0.001739
    20  H   -0.002994   0.001927   0.007170   0.004019  -0.009827   0.003305
    21  H   -0.001985  -0.004737   0.032569   0.000504   0.001304  -0.002187
    22  H   -0.000169   0.001744  -0.019313  -0.000930   0.002827  -0.002067
             13         14         15         16         17         18
     1  H    0.000271   0.000411  -0.005135   0.000010  -0.000431   0.000432
     2  C    0.001548   0.002041  -0.035942   0.000253   0.003691   0.004726
     3  H    0.000164  -0.000482   0.010244   0.000033   0.000827  -0.000252
     4  H   -0.001324  -0.000145  -0.006380  -0.000303   0.001146   0.000526
     5  C   -0.015319   0.009204  -0.056903   0.003896  -0.031693  -0.002075
     6  O    0.001837   0.015453  -0.005819  -0.000851   0.001188   0.000429
     7  N    0.141381  -0.052171  -0.006671  -0.000625   0.016029  -0.008648
     8  H    0.005163  -0.003164   0.048626  -0.006341   0.009280  -0.003932
     9  C   -0.238934   0.150109  -0.502901   0.039912  -0.165455   0.044340
    10  H   -0.070969  -0.036353   0.145639   0.030160   0.022871  -0.005685
    11  C    0.401546   0.281825  -0.046249   0.019389   0.080771  -0.022319
    12  H   -0.144529  -0.212165   0.085988  -0.004250  -0.017542   0.003833
    13  H    1.117085  -0.138051  -0.060144   0.004494   0.030104  -0.002282
    14  H   -0.138051   1.055624  -0.005292   0.000669   0.013300  -0.001264
    15  C   -0.060144  -0.005292   5.309911   0.186656   0.163512  -0.093575
    16  O    0.004494   0.000669   0.186656   8.683646  -0.126561   0.005177
    17  N    0.030104   0.013300   0.163512  -0.126561   7.182574   0.285814
    18  H   -0.002282  -0.001264  -0.093575   0.005177   0.285814   0.981459
    19  C   -0.003919   0.004328  -0.027760  -0.015108   0.204434  -0.107902
    20  H   -0.002229  -0.000690   0.044184  -0.027555  -0.046416  -0.002899
    21  H    0.000143   0.000700  -0.040510   0.003725   0.074222  -0.006455
    22  H    0.000264   0.000579  -0.030326   0.010721  -0.148964   0.018393
             19         20         21         22
     1  H   -0.000252  -0.000086   0.000012  -0.000007
     2  C   -0.002884  -0.000403   0.000196  -0.000174
     3  H    0.000454   0.000078   0.000010   0.000033
     4  H   -0.001407   0.000117   0.000173  -0.000399
     5  C   -0.003581  -0.000494   0.000201   0.000285
     6  O   -0.000055  -0.000080  -0.000007   0.000088
     7  N   -0.001823  -0.002994  -0.001985  -0.000169
     8  H    0.013443   0.001927  -0.004737   0.001744
     9  C   -0.104084   0.007170   0.032569  -0.019313
    10  H    0.010389   0.004019   0.000504  -0.000930
    11  C    0.002285  -0.009827   0.001304   0.002827
    12  H    0.001739   0.003305  -0.002187  -0.002067
    13  H   -0.003919  -0.002229   0.000143   0.000264
    14  H    0.004328  -0.000690   0.000700   0.000579
    15  C   -0.027760   0.044184  -0.040510  -0.030326
    16  O   -0.015108  -0.027555   0.003725   0.010721
    17  N    0.204434  -0.046416   0.074222  -0.148964
    18  H   -0.107902  -0.002899  -0.006455   0.018393
    19  C    4.124646   0.418337   0.277607   0.459070
    20  H    0.418337   0.980936  -0.085488  -0.172210
    21  H    0.277607  -0.085488   0.996252  -0.175782
    22  H    0.459070  -0.172210  -0.175782   1.220572
 Mulliken atomic charges:
              1
     1  H    0.025375
     2  C    0.389417
     3  H    0.060180
     4  H   -0.170676
     5  C    0.549005
     6  O   -0.843242
     7  N   -0.163682
     8  H   -0.047789
     9  C   -0.141953
    10  H   -0.124080
    11  C    0.810415
    12  H   -0.122000
    13  H   -0.026303
    14  H   -0.084466
    15  C    0.928848
    16  O   -0.807147
    17  N   -0.552701
    18  H   -0.087841
    19  C    0.752043
    20  H   -0.108703
    21  H   -0.070468
    22  H   -0.164234
 Sum of Mulliken atomic charges =   0.00000
 Mulliken charges with hydrogens summed into heavy atoms:
              1
     2  C    0.304297
     5  C    0.549005
     6  O   -0.843242
     7  N   -0.211471
     9  C   -0.266032
    11  C    0.577646
    15  C    0.928848
    16  O   -0.807147
    17  N   -0.640542
    19  C    0.408639
 Sum of Mulliken charges with hydrogens summed into heavy atoms =   0.00000
 Electronic spatial extent (au):  <R**2>=           1904.6467
 Charge=              0.0000 electrons
 Dipole moment (field-independent basis, Debye):
    X=             -1.7172    Y=             -3.1499    Z=             -5.1907  Tot=              6.3099
 Quadrupole moment (field-independent basis, Debye-Ang):
   XX=            -64.9640   YY=            -57.6751   ZZ=            -65.9821
   XY=             -5.2477   XZ=              3.3914   YZ=             -1.6038
 Traceless Quadrupole moment (field-independent basis, Debye-Ang):
   XX=             -2.0903   YY=              5.1986   ZZ=             -3.1084
   XY=             -5.2477   XZ=              3.3914   YZ=             -1.6038
 Octapole moment (field-independent basis, Debye-Ang**2):
  XXX=            -29.2620  YYY=             -0.6842  ZZZ=            -10.2995  XYY=             -1.6973
  XXY=            -32.7165  XXZ=            -25.6058  XZZ=              4.8005  YZZ=             -5.6384
  YYZ=             -0.8210  XYZ=             -2.7676
 Hexadecapole moment (field-independent basis, Debye-Ang**3):
 XXXX=          -1715.1952 YYYY=           -475.3715 ZZZZ=           -289.2409 XXXY=            -37.9297
 XXXZ=            -18.8602 YYYX=              0.0843 YYYZ=              5.8619 ZZZX=             25.7130
 ZZZY=              1.7282 XXYY=           -358.5853 XXZZ=           -355.4254 YYZZ=           -124.5245
 XXYZ=            -15.0849 YYXZ=             -0.2968 ZZXY=              5.6905
 N-N= 5.489050676305D+02 E-N=-2.252742896614D+03  KE= 4.920637827725D+02
 1\1\GINC-NODE005\SP\RMP2-FC\Aug-CC-pVDZ\C6H12N2O2\MANAGER\13-Feb-2017\
 0\\#SP MP2/aug-cc-pVDZ\\Single Point calculation at MP2\\0,1\H,0,3.969
 5,-1.2538,-0.6469\C,0,3.0063,-1.5238,-0.2059\H,0,3.2108,-2.0365,0.7402
 \H,0,2.4863,-2.216,-0.8761\C,0,2.2263,-0.2495,0.0838\O,0,2.7306,0.709,
 0.6528\N,0,0.9224,-0.2466,-0.3492\H,0,0.5221,-1.119,-0.6663\C,0,-0.006
 3,0.8143,0.0572\H,0,0.4057,1.2683,0.9603\C,0,-0.1449,1.8998,-1.0222\H,
 0,-0.497,1.4907,-1.9773\H,0,-0.8446,2.6792,-0.7001\H,0,0.8323,2.36,-1.
 1946\C,0,-1.3515,0.1956,0.4719\O,0,-1.7982,0.2981,1.6041\N,0,-1.9852,-
 0.5243,-0.5149\H,0,-1.7056,-0.3561,-1.4723\C,0,-3.3078,-1.0936,-0.2978
 \H,0,-3.3772,-1.4012,0.7462\H,0,-4.1092,-0.3697,-0.4965\H,0,-3.4445,-1
 .9642,-0.9456\\Version=EM64L-G09RevA.02\State=1-A\HF=-492.9189936\MP2=
 -494.5200718\RMSD=8.330e-09\PG=C01 [X(C6H12N2O2)]\\@


 NOT WHAT WE DID SHALL BE THE TEST
 WHEN ACT AND WILL ARE DONE,
 BUT WHAT OUR LORD INFERS WE WOULD-
 HAD WE DIVINER BEEN.
           EMILY DICKINSON  POEMS NO. CLXXV
 Job cpu time:  0 days 14 hours 12 minutes 46.4 seconds.
 File lengths (MBytes):  RWF=  10526 Int=      0 D2E=      0 Chk=      7 Scr=      2
 Normal termination of Gaussian 09 at Mon Feb 13 07:20:23 2017.
