 Entering Gaussian System, Link 0=g09
 Initial command:
 /home/steboss/Software/g09/l1.exe /home/steboss/projects/phi_psi_scan/alanine/MP2/225/5413/Gau-9001.inp -scrdir=/home/steboss/projects/phi_psi_scan/alanine/MP2/225/5413/
 Entering Link 1 = /home/steboss/Software/g09/l1.exe PID=      9037.
  
 Copyright (c) 1988,1990,1992,1993,1995,1998,2003,2009, Gaussian, Inc.
                  All Rights Reserved.
  
 This is part of the Gaussian(R) 09 program.  It is based on
 the Gaussian(R) 03 system (copyright 2003, Gaussian, Inc.),
 the Gaussian(R) 98 system (copyright 1998, Gaussian, Inc.),
 the Gaussian(R) 94 system (copyright 1995, Gaussian, Inc.),
 the Gaussian 92(TM) system (copyright 1992, Gaussian, Inc.),
 the Gaussian 90(TM) system (copyright 1990, Gaussian, Inc.),
 the Gaussian 88(TM) system (copyright 1988, Gaussian, Inc.),
 the Gaussian 86(TM) system (copyright 1986, Carnegie Mellon
 University), and the Gaussian 82(TM) system (copyright 1983,
 Carnegie Mellon University). Gaussian is a federally registered
 trademark of Gaussian, Inc.
  
 This software contains proprietary and confidential information,
 including trade secrets, belonging to Gaussian, Inc.
  
 This software is provided under written license and may be
 used, copied, transmitted, or stored only in accord with that
 written license.
  
 The following legend is applicable only to US Government
 contracts under FAR:
  
                    RESTRICTED RIGHTS LEGEND
  
 Use, reproduction and disclosure by the US Government is
 subject to restrictions as set forth in subparagraphs (a)
 and (c) of the Commercial Computer Software - Restricted
 Rights clause in FAR 52.227-19.
  
 Gaussian, Inc.
 340 Quinnipiac St., Bldg. 40, Wallingford CT 06492
  
  
 ---------------------------------------------------------------
 Warning -- This program may not be used in any manner that
 competes with the business of Gaussian, Inc. or will provide
 assistance to any competitor of Gaussian, Inc.  The licensee
 of this program is prohibited from giving any competitor of
 Gaussian, Inc. access to this program.  By using this program,
 the user acknowledges that Gaussian, Inc. is engaged in the
 business of creating and licensing software in the field of
 computational chemistry and represents and warrants to the
 licensee that it is not a competitor of Gaussian, Inc. and that
 it will not use this program in any manner prohibited above.
 ---------------------------------------------------------------
  

 Cite this work as:
 Gaussian 09, Revision A.02,
 M. J. Frisch, G. W. Trucks, H. B. Schlegel, G. E. Scuseria, 
 M. A. Robb, J. R. Cheeseman, G. Scalmani, V. Barone, B. Mennucci, 
 G. A. Petersson, H. Nakatsuji, M. Caricato, X. Li, H. P. Hratchian, 
 A. F. Izmaylov, J. Bloino, G. Zheng, J. L. Sonnenberg, M. Hada, 
 M. Ehara, K. Toyota, R. Fukuda, J. Hasegawa, M. Ishida, T. Nakajima, 
 Y. Honda, O. Kitao, H. Nakai, T. Vreven, J. A. Montgomery, Jr., 
 J. E. Peralta, F. Ogliaro, M. Bearpark, J. J. Heyd, E. Brothers, 
 K. N. Kudin, V. N. Staroverov, R. Kobayashi, J. Normand, 
 K. Raghavachari, A. Rendell, J. C. Burant, S. S. Iyengar, J. Tomasi, 
 M. Cossi, N. Rega, J. M. Millam, M. Klene, J. E. Knox, J. B. Cross, 
 V. Bakken, C. Adamo, J. Jaramillo, R. Gomperts, R. E. Stratmann, 
 O. Yazyev, A. J. Austin, R. Cammi, C. Pomelli, J. W. Ochterski, 
 R. L. Martin, K. Morokuma, V. G. Zakrzewski, G. A. Voth, 
 P. Salvador, J. J. Dannenberg, S. Dapprich, A. D. Daniels, 
 O. Farkas, J. B. Foresman, J. V. Ortiz, J. Cioslowski, 
 and D. J. Fox, Gaussian, Inc., Wallingford CT, 2009.
 
 ******************************************
 Gaussian 09:  EM64L-G09RevA.02 11-Jun-2009
                13-Feb-2017 
 ******************************************
 %chk=structure_315.chk
 %NProcShared=8
 Will use up to    8 processors via shared memory.
 -------------------
 #SP MP2/aug-cc-pVDZ
 -------------------
 1/38=1/1;
 2/12=2,17=6,18=5,40=1/2;
 3/5=16,7=10,11=9,16=1,25=1,30=1/1,2,3;
 4//1;
 5/5=2,38=5/2;
 8/10=1/1;
 9/16=-3/6;
 6/7=2,8=2,9=2,10=2/1;
 99/5=1,9=1/99;
 -------------------------------
 Single Point calculation at MP2
 -------------------------------
 Symbolic Z-matrix:
 Charge =  0 Multiplicity = 1
 H                     3.9726   -1.3255   -0.4715 
 C                     2.983    -1.5522   -0.0667 
 H                     3.1287   -2.0158    0.9154 
 H                     2.4818   -2.2697   -0.7243 
 C                     2.2171   -0.249     0.1104 
 O                     2.7224    0.7408    0.6203 
 N                     0.9231   -0.2574   -0.3631 
 H                     0.5122   -1.1664   -0.5318 
 C                    -0.0027    0.8206    0.0143 
 H                     0.3998    1.2994    0.9097 
 C                    -0.1221    1.8809   -1.0935 
 H                    -0.4903    1.4478   -2.0313 
 H                    -0.8056    2.6796   -0.7858 
 H                     0.8631    2.3168   -1.2816 
 C                    -1.375     0.2609    0.4147 
 O                    -1.9603    0.6363    1.4185 
 N                    -1.8836   -0.7104   -0.4203 
 H                    -1.5251   -0.7418   -1.3668 
 C                    -3.2316   -1.2249   -0.2138 
 H                    -3.3869   -1.3629    0.857 
 H                    -4.0018   -0.5356   -0.5839 
 H                    -3.3343   -2.1865   -0.7237 
 
                          Input orientation:                          
 ---------------------------------------------------------------------
 Center     Atomic      Atomic             Coordinates (Angstroms)
 Number     Number       Type             X           Y           Z
 ---------------------------------------------------------------------
      1          1           0        3.972600   -1.325500   -0.471500
      2          6           0        2.983000   -1.552200   -0.066700
      3          1           0        3.128700   -2.015800    0.915400
      4          1           0        2.481800   -2.269700   -0.724300
      5          6           0        2.217100   -0.249000    0.110400
      6          8           0        2.722400    0.740800    0.620300
      7          7           0        0.923100   -0.257400   -0.363100
      8          1           0        0.512200   -1.166400   -0.531800
      9          6           0       -0.002700    0.820600    0.014300
     10          1           0        0.399800    1.299400    0.909700
     11          6           0       -0.122100    1.880900   -1.093500
     12          1           0       -0.490300    1.447800   -2.031300
     13          1           0       -0.805600    2.679600   -0.785800
     14          1           0        0.863100    2.316800   -1.281600
     15          6           0       -1.375000    0.260900    0.414700
     16          8           0       -1.960300    0.636300    1.418500
     17          7           0       -1.883600   -0.710400   -0.420300
     18          1           0       -1.525100   -0.741800   -1.366800
     19          6           0       -3.231600   -1.224900   -0.213800
     20          1           0       -3.386900   -1.362900    0.857000
     21          1           0       -4.001800   -0.535600   -0.583900
     22          1           0       -3.334300   -2.186500   -0.723700
 ---------------------------------------------------------------------
                    Distance matrix (angstroms):
                    1          2          3          4          5
     1  H    0.000000
     2  C    1.092961   0.000000
     3  H    1.764135   1.095753   0.000000
     4  H    1.782668   1.094735   1.780888   0.000000
     5  C    2.139916   1.521939   2.144906   2.202276   0.000000
     6  O    2.650401   2.407848   2.801965   3.305896   1.222714
     7  N    3.232961   2.451030   3.096967   2.570868   1.377936
     8  H    3.464580   2.543622   3.108366   2.265756   2.039786
     9  C    4.543650   3.814596   4.320048   4.033389   2.465926
    10  H    4.643567   3.969622   4.293889   4.443327   2.517738
    11  C    5.237791   4.741533   5.457806   4.913663   3.384923
    12  H    5.481026   4.992341   5.811775   4.935730   3.846560
    13  H    6.242660   5.725271   6.357639   5.941915   4.303090
    14  H    4.857119   4.575928   5.360147   4.895585   3.217811
    15  C    5.647906   4.744601   5.071230   4.751438   3.640849
    16  O    6.528404   5.606386   5.760613   5.724393   4.466044
    17  N    5.888637   4.951510   5.348955   4.645487   4.160562
    18  H    5.600623   4.761300   5.337543   4.336189   4.053274
    19  C    7.209510   6.224951   6.507998   5.830537   5.544891
    20  H    7.478539   6.439308   6.548491   6.145278   5.762205
    21  H    8.014214   7.077316   7.435249   6.712964   6.264097
    22  H    7.361774   6.382967   6.669794   5.816695   5.938659
                    6          7          8          9         10
     6  O    0.000000
     7  N    2.280561   0.000000
     8  H    3.138428   1.011721   0.000000
     9  C    2.792808   1.470245   2.124033   0.000000
    10  H    2.406295   2.077857   2.858448   1.092244   0.000000
    11  C    3.511142   2.489629   3.162891   1.538088   2.150194
    12  H    4.225195   2.772778   3.176090   2.194450   3.076326
    13  H    4.264135   3.434101   4.073430   2.177312   2.496530
    14  H    3.091601   2.733816   3.580225   2.160458   2.459989
    15  C    4.130528   2.480901   2.548445   1.535185   2.115047
    16  O    4.751392   3.505252   3.628588   2.416183   2.503727
    17  N    4.940047   2.843597   2.441357   2.463863   3.319957
    18  H    4.918122   2.689933   2.242343   2.581905   3.613058
    19  C    6.325331   4.268475   3.757737   3.829085   4.563048
    20  H    6.465688   4.613770   4.143713   4.114684   4.629224
    21  H    6.949400   4.937691   4.558160   4.264965   4.997214
    22  H    6.859959   4.687954   3.984092   4.548280   5.363115
                   11         12         13         14         15
    11  C    0.000000
    12  H    1.096638   0.000000
    13  H    1.095342   1.779892   0.000000
    14  H    1.093622   1.774515   1.778202   0.000000
    15  C    2.543389   2.859081   2.759624   3.480409   0.000000
    16  O    3.352335   3.836737   3.219836   4.252788   1.221112
    17  N    3.204827   3.032232   3.576000   4.177336   1.378159
    18  H    2.986914   2.511318   3.544181   3.881468   2.049800
    19  C    4.482059   4.238084   4.632254   5.518188   2.459589
    20  H    4.998561   4.963124   5.069882   6.014674   2.622994
    21  H    4.599047   4.284796   4.538058   5.682449   2.920906
    22  H    5.196030   4.796487   5.484260   6.181353   3.335353
                   16         17         18         19         20
    16  O    0.000000
    17  N    2.280498   0.000000
    18  H    3.137906   1.012606   0.000000
    19  C    2.782925   1.457552   2.115405   0.000000
    20  H    2.519379   2.077778   2.966033   1.090768   0.000000
    21  H    3.090417   2.131687   2.605666   1.097869   1.771643
    22  H    3.800671   2.091758   2.402902   1.093261   1.783170
                   21         22
    21  H    0.000000
    22  H    1.786217   0.000000
 Stoichiometry    C6H12N2O2
 Framework group  C1[X(C6H12N2O2)]
 Deg. of freedom    60
 Full point group                 C1      NOp   1
 Largest Abelian subgroup         C1      NOp   1
 Largest concise Abelian subgroup C1      NOp   1
                         Standard orientation:                         
 ---------------------------------------------------------------------
 Center     Atomic      Atomic             Coordinates (Angstroms)
 Number     Number       Type             X           Y           Z
 ---------------------------------------------------------------------
      1          1           0        3.972600   -1.325503   -0.471505
      2          6           0        2.982999   -1.552201   -0.066705
      3          1           0        3.128698   -2.015801    0.915395
      4          1           0        2.481797   -2.269699   -0.724305
      5          6           0        2.217103   -0.248999    0.110395
      6          8           0        2.722406    0.740800    0.620295
      7          7           0        0.923103   -0.257395   -0.363105
      8          1           0        0.512201   -1.166394   -0.531805
      9          6           0       -0.002694    0.820608    0.014295
     10          1           0        0.399807    1.299407    0.909695
     11          6           0       -0.122091    1.880908   -1.093505
     12          1           0       -0.490292    1.447809   -2.031305
     13          1           0       -0.805589    2.679610   -0.785805
     14          1           0        0.863110    2.316805   -1.281605
     15          6           0       -1.374995    0.260912    0.414695
     16          8           0       -1.960294    0.636313    1.418495
     17          7           0       -1.883598   -0.710387   -0.420305
     18          1           0       -1.525098   -0.741788   -1.366805
     19          6           0       -3.231600   -1.224883   -0.213805
     20          1           0       -3.386900   -1.362883    0.856995
     21          1           0       -4.001798   -0.535581   -0.583905
     22          1           0       -3.334302   -2.186483   -0.723705
 ---------------------------------------------------------------------
 Rotational constants (GHZ):      2.1899068      0.7189654      0.6400245
 Standard basis: Aug-CC-pVDZ (5D, 7F)
 There are   338 symmetry adapted basis functions of A   symmetry.
 Integral buffers will be    131072 words long.
 Raffenetti 1 integral format.
 Two-electron integral symmetry is turned on.
   338 basis functions,   562 primitive gaussians,   358 cartesian basis functions
    39 alpha electrons       39 beta electrons
       nuclear repulsion energy       549.2144384290 Hartrees.
 NAtoms=   22 NActive=   22 NUniq=   22 SFac= 7.50D-01 NAtFMM=   80 NAOKFM=F Big=F
 One-electron integrals computed using PRISM.
 NBasis=   338 RedAO= T  NBF=   338
 NBsUse=   338 1.00D-06 NBFU=   338
 Harris functional with IExCor=  205 diagonalized for initial guess.
 ExpMin= 2.97D-02 ExpMax= 1.17D+04 ExpMxC= 4.01D+02 IAcc=3 IRadAn=         0 AccDes= 0.00D+00
 HarFok:  IExCor=  205 AccDes= 0.00D+00 IRadAn=         0 IDoV= 1
 ScaDFX=  1.000000  1.000000  1.000000  1.000000
 FoFCou: FMM=F IPFlag=           0 FMFlag=      100000 FMFlg1=           0
         NFxFlg=           0 DoJE=T BraDBF=F KetDBF=T FulRan=T
         Omega=  0.000000  0.000000  1.000000  0.000000  0.000000 ICntrl=     500 IOpCl=  0
         NMat0=    1 NMatS0=    1 NMatT0=    0 NMatD0=    1 NMtDS0=    0 NMtDT0=    0
         I1Cent=           4 NGrid=           0.
 Petite list used in FoFCou.
 Initial guess orbital symmetries:
       Occupied  (A) (A) (A) (A) (A) (A) (A) (A) (A) (A) (A) (A)
                 (A) (A) (A) (A) (A) (A) (A) (A) (A) (A) (A) (A)
                 (A) (A) (A) (A) (A) (A) (A) (A) (A) (A) (A) (A)
                 (A) (A) (A)
       Virtual   (A) (A) (A) (A) (A) (A) (A) (A) (A) (A) (A) (A)
                 (A) (A) (A) (A) (A) (A) (A) (A) (A) (A) (A) (A)
                 (A) (A) (A) (A) (A) (A) (A) (A) (A) (A) (A) (A)
                 (A) (A) (A) (A) (A) (A) (A) (A) (A) (A) (A) (A)
                 (A) (A) (A) (A) (A) (A) (A) (A) (A) (A) (A) (A)
                 (A) (A) (A) (A) (A) (A) (A) (A) (A) (A) (A) (A)
                 (A) (A) (A) (A) (A) (A) (A) (A) (A) (A) (A) (A)
                 (A) (A) (A) (A) (A) (A) (A) (A) (A) (A) (A) (A)
                 (A) (A) (A) (A) (A) (A) (A) (A) (A) (A) (A) (A)
                 (A) (A) (A) (A) (A) (A) (A) (A) (A) (A) (A) (A)
                 (A) (A) (A) (A) (A) (A) (A) (A) (A) (A) (A) (A)
                 (A) (A) (A) (A) (A) (A) (A) (A) (A) (A) (A) (A)
                 (A) (A) (A) (A) (A) (A) (A) (A) (A) (A) (A) (A)
                 (A) (A) (A) (A) (A) (A) (A) (A) (A) (A) (A) (A)
                 (A) (A) (A) (A) (A) (A) (A) (A) (A) (A) (A) (A)
                 (A) (A) (A) (A) (A) (A) (A) (A) (A) (A) (A) (A)
                 (A) (A) (A) (A) (A) (A) (A) (A) (A) (A) (A) (A)
                 (A) (A) (A) (A) (A) (A) (A) (A) (A) (A) (A) (A)
                 (A) (A) (A) (A) (A) (A) (A) (A) (A) (A) (A) (A)
                 (A) (A) (A) (A) (A) (A) (A) (A) (A) (A) (A) (A)
                 (A) (A) (A) (A) (A) (A) (A) (A) (A) (A) (A) (A)
                 (A) (A) (A) (A) (A) (A) (A) (A) (A) (A) (A) (A)
                 (A) (A) (A) (A) (A) (A) (A) (A) (A) (A) (A) (A)
                 (A) (A) (A) (A) (A) (A) (A) (A) (A) (A) (A) (A)
                 (A) (A) (A) (A) (A) (A) (A) (A) (A) (A) (A)
 The electronic state of the initial guess is 1-A.
 Requested convergence on RMS density matrix=1.00D-08 within 128 cycles.
 Requested convergence on MAX density matrix=1.00D-06.
 Requested convergence on             energy=1.00D-06.
 No special actions if energy rises.
 Initial convergence to 1.0D-05 achieved.  Increase integral accuracy.
 SCF Done:  E(RHF) =  -492.918659074     A.U. after   14 cycles
             Convg  =    0.8005D-08             -V/T =  2.0017
 ExpMin= 2.97D-02 ExpMax= 1.17D+04 ExpMxC= 4.01D+02 IAcc=3 IRadAn=         5 AccDes= 0.00D+00
 HarFok:  IExCor=  205 AccDes= 0.00D+00 IRadAn=         5 IDoV=-2
 ScaDFX=  1.000000  1.000000  1.000000  1.000000
 Range of M.O.s used for correlation:    11   338
 NBasis=   338 NAE=    39 NBE=    39 NFC=    10 NFV=     0
 NROrb=    328 NOA=    29 NOB=    29 NVA=   299 NVB=   299

 **** Warning!!: The largest alpha MO coefficient is  0.59778949D+02

 Disk-based method using OVN memory for 29 occupieds at a time.
 Estimated scratch disk usage=  1378144335 words.
 Actual    scratch disk usage=  1365265457 words.
 JobTyp=1 Pass  1:  I=   1 to  29 NPSUse=  8 ParTrn=T ParDer=T DoDerP=F.
 Spin components of T(2) and E(2):
     alpha-alpha T2 =       0.6790915294D-01 E2=     -0.2054984160D+00
     alpha-beta  T2 =       0.3770518734D+00 E2=     -0.1190109526D+01
     beta-beta   T2 =       0.6790915294D-01 E2=     -0.2054984160D+00
 ANorm=    0.1229987878D+01
 E2 =    -0.1601106358D+01 EUMP2 =    -0.49451976543271D+03

 **********************************************************************

            Population analysis using the SCF density.

 **********************************************************************

 Orbital symmetries:
       Occupied  (A) (A) (A) (A) (A) (A) (A) (A) (A) (A) (A) (A)
                 (A) (A) (A) (A) (A) (A) (A) (A) (A) (A) (A) (A)
                 (A) (A) (A) (A) (A) (A) (A) (A) (A) (A) (A) (A)
                 (A) (A) (A)
       Virtual   (A) (A) (A) (A) (A) (A) (A) (A) (A) (A) (A) (A)
                 (A) (A) (A) (A) (A) (A) (A) (A) (A) (A) (A) (A)
                 (A) (A) (A) (A) (A) (A) (A) (A) (A) (A) (A) (A)
                 (A) (A) (A) (A) (A) (A) (A) (A) (A) (A) (A) (A)
                 (A) (A) (A) (A) (A) (A) (A) (A) (A) (A) (A) (A)
                 (A) (A) (A) (A) (A) (A) (A) (A) (A) (A) (A) (A)
                 (A) (A) (A) (A) (A) (A) (A) (A) (A) (A) (A) (A)
                 (A) (A) (A) (A) (A) (A) (A) (A) (A) (A) (A) (A)
                 (A) (A) (A) (A) (A) (A) (A) (A) (A) (A) (A) (A)
                 (A) (A) (A) (A) (A) (A) (A) (A) (A) (A) (A) (A)
                 (A) (A) (A) (A) (A) (A) (A) (A) (A) (A) (A) (A)
                 (A) (A) (A) (A) (A) (A) (A) (A) (A) (A) (A) (A)
                 (A) (A) (A) (A) (A) (A) (A) (A) (A) (A) (A) (A)
                 (A) (A) (A) (A) (A) (A) (A) (A) (A) (A) (A) (A)
                 (A) (A) (A) (A) (A) (A) (A) (A) (A) (A) (A) (A)
                 (A) (A) (A) (A) (A) (A) (A) (A) (A) (A) (A) (A)
                 (A) (A) (A) (A) (A) (A) (A) (A) (A) (A) (A) (A)
                 (A) (A) (A) (A) (A) (A) (A) (A) (A) (A) (A) (A)
                 (A) (A) (A) (A) (A) (A) (A) (A) (A) (A) (A) (A)
                 (A) (A) (A) (A) (A) (A) (A) (A) (A) (A) (A) (A)
                 (A) (A) (A) (A) (A) (A) (A) (A) (A) (A) (A) (A)
                 (A) (A) (A) (A) (A) (A) (A) (A) (A) (A) (A) (A)
                 (A) (A) (A) (A) (A) (A) (A) (A) (A) (A) (A) (A)
                 (A) (A) (A) (A) (A) (A) (A) (A) (A) (A) (A) (A)
                 (A) (A) (A) (A) (A) (A) (A) (A) (A) (A) (A)
 The electronic state is 1-A.
 Alpha  occ. eigenvalues --  -20.54430 -20.53637 -15.60664 -15.60315 -11.36856
 Alpha  occ. eigenvalues --  -11.36817 -11.29175 -11.27714 -11.25251 -11.24015
 Alpha  occ. eigenvalues --   -1.39762  -1.38937  -1.25366  -1.23041  -1.05861
 Alpha  occ. eigenvalues --   -0.99657  -0.96353  -0.88439  -0.80082  -0.79108
 Alpha  occ. eigenvalues --   -0.73617  -0.67947  -0.66232  -0.63978  -0.63558
 Alpha  occ. eigenvalues --   -0.62241  -0.59798  -0.59521  -0.57754  -0.57010
 Alpha  occ. eigenvalues --   -0.55861  -0.54544  -0.52890  -0.52171  -0.49571
 Alpha  occ. eigenvalues --   -0.44539  -0.42850  -0.40979  -0.39677
 Alpha virt. eigenvalues --    0.02139   0.03718   0.04135   0.04707   0.05618
 Alpha virt. eigenvalues --    0.05920   0.06342   0.06654   0.07416   0.08018
 Alpha virt. eigenvalues --    0.08405   0.09464   0.10936   0.11952   0.12350
 Alpha virt. eigenvalues --    0.12970   0.13400   0.14346   0.14602   0.15188
 Alpha virt. eigenvalues --    0.15566   0.15823   0.16385   0.17053   0.17120
 Alpha virt. eigenvalues --    0.17697   0.18076   0.18290   0.19033   0.19156
 Alpha virt. eigenvalues --    0.19567   0.20279   0.20733   0.21664   0.21718
 Alpha virt. eigenvalues --    0.22481   0.23345   0.24634   0.25037   0.26017
 Alpha virt. eigenvalues --    0.26471   0.27407   0.29212   0.29621   0.30080
 Alpha virt. eigenvalues --    0.31343   0.31880   0.32252   0.33172   0.33289
 Alpha virt. eigenvalues --    0.33678   0.34383   0.34763   0.35798   0.36698
 Alpha virt. eigenvalues --    0.37163   0.37374   0.37832   0.39251   0.39707
 Alpha virt. eigenvalues --    0.40538   0.41354   0.41615   0.41869   0.42498
 Alpha virt. eigenvalues --    0.43333   0.43898   0.44502   0.45030   0.45462
 Alpha virt. eigenvalues --    0.45570   0.45885   0.46747   0.47285   0.48321
 Alpha virt. eigenvalues --    0.48440   0.49516   0.50487   0.50757   0.52269
 Alpha virt. eigenvalues --    0.52434   0.53964   0.54771   0.54969   0.55355
 Alpha virt. eigenvalues --    0.55439   0.56308   0.57010   0.57856   0.58236
 Alpha virt. eigenvalues --    0.58605   0.59798   0.60251   0.60579   0.61455
 Alpha virt. eigenvalues --    0.62182   0.63447   0.63782   0.64480   0.64550
 Alpha virt. eigenvalues --    0.65157   0.66368   0.67091   0.67469   0.67914
 Alpha virt. eigenvalues --    0.68895   0.69307   0.70068   0.70654   0.71013
 Alpha virt. eigenvalues --    0.72179   0.73040   0.73465   0.73829   0.74228
 Alpha virt. eigenvalues --    0.74967   0.76445   0.76944   0.78052   0.78621
 Alpha virt. eigenvalues --    0.79799   0.80306   0.82249   0.82747   0.82909
 Alpha virt. eigenvalues --    0.84094   0.84773   0.86240   0.87553   0.88568
 Alpha virt. eigenvalues --    0.89583   0.89964   0.91185   0.93397   0.93752
 Alpha virt. eigenvalues --    0.94318   0.95117   0.95509   0.97324   0.98145
 Alpha virt. eigenvalues --    0.99197   1.00638   1.01382   1.02115   1.03614
 Alpha virt. eigenvalues --    1.05998   1.07595   1.08099   1.08556   1.09926
 Alpha virt. eigenvalues --    1.10370   1.12340   1.13454   1.13682   1.15097
 Alpha virt. eigenvalues --    1.16317   1.17560   1.18495   1.18990   1.20354
 Alpha virt. eigenvalues --    1.23353   1.24742   1.25237   1.29088   1.29445
 Alpha virt. eigenvalues --    1.30838   1.32509   1.33348   1.35190   1.36685
 Alpha virt. eigenvalues --    1.38306   1.40993   1.42174   1.43680   1.45333
 Alpha virt. eigenvalues --    1.46270   1.47797   1.49676   1.52295   1.54630
 Alpha virt. eigenvalues --    1.55813   1.58062   1.60437   1.63386   1.64727
 Alpha virt. eigenvalues --    1.65486   1.66579   1.68579   1.69625   1.71872
 Alpha virt. eigenvalues --    1.73622   1.74367   1.74939   1.77998   1.81104
 Alpha virt. eigenvalues --    1.83482   1.83696   1.86647   1.87753   1.88850
 Alpha virt. eigenvalues --    1.89073   1.90469   1.91025   1.91621   1.92784
 Alpha virt. eigenvalues --    1.94112   1.95558   1.97147   1.97181   2.00184
 Alpha virt. eigenvalues --    2.02120   2.03247   2.05222   2.07139   2.08237
 Alpha virt. eigenvalues --    2.10117   2.11882   2.13239   2.13545   2.15810
 Alpha virt. eigenvalues --    2.17208   2.18546   2.19514   2.20654   2.22847
 Alpha virt. eigenvalues --    2.23219   2.25158   2.26762   2.28582   2.30282
 Alpha virt. eigenvalues --    2.30995   2.33747   2.34154   2.35665   2.36779
 Alpha virt. eigenvalues --    2.37559   2.40913   2.41708   2.42257   2.43810
 Alpha virt. eigenvalues --    2.46485   2.48177   2.48294   2.49445   2.50709
 Alpha virt. eigenvalues --    2.53232   2.54659   2.56980   2.57319   2.58093
 Alpha virt. eigenvalues --    2.62143   2.63530   2.64102   2.66552   2.68074
 Alpha virt. eigenvalues --    2.69582   2.73673   2.75458   2.76166   2.77713
 Alpha virt. eigenvalues --    2.78338   2.81386   2.84695   2.86439   2.87046
 Alpha virt. eigenvalues --    2.89843   2.90977   2.92271   2.94070   2.96211
 Alpha virt. eigenvalues --    2.99012   3.00668   3.03636   3.05108   3.09479
 Alpha virt. eigenvalues --    3.10844   3.13851   3.16497   3.20905   3.23872
 Alpha virt. eigenvalues --    3.26507   3.31135   3.40846   3.41637   3.53379
 Alpha virt. eigenvalues --    3.56583   3.64972   3.76779   3.82241   3.83151
 Alpha virt. eigenvalues --    3.84726   3.87268   3.92416   3.94894   3.98254
 Alpha virt. eigenvalues --    4.01588   4.12497   4.19652   4.27378
          Condensed to atoms (all electrons):
              1          2          3          4          5          6
     1  H    0.758190   0.389569  -0.049117  -0.099097  -0.081155   0.030331
     2  C    0.389569   4.496914   0.324546   0.362751   0.230943  -0.049492
     3  H   -0.049117   0.324546   0.722215  -0.067277  -0.064302   0.016006
     4  H   -0.099097   0.362751  -0.067277   1.096489   0.112262  -0.012032
     5  C   -0.081155   0.230943  -0.064302   0.112262   5.448078   0.195371
     6  O    0.030331  -0.049492   0.016006  -0.012032   0.195371   8.694526
     7  N    0.041428  -0.094308   0.053574  -0.206274   0.076635  -0.116072
     8  H   -0.004357  -0.065072  -0.006702   0.001806  -0.130541   0.000934
     9  C    0.004573   0.073756   0.000342  -0.010626  -0.124693   0.064992
    10  H   -0.000271  -0.008957  -0.001468   0.000193   0.017683  -0.017621
    11  C    0.000249  -0.022329   0.000767  -0.014917  -0.128908   0.027027
    12  H   -0.000296   0.002095   0.000291   0.000321   0.001830  -0.002927
    13  H    0.000158   0.000385   0.000066  -0.001150  -0.023266   0.003103
    14  H    0.000307  -0.000297  -0.000483  -0.000122   0.015666   0.014301
    15  C   -0.004547  -0.036147   0.009639  -0.003550  -0.023621  -0.011705
    16  O    0.000087   0.001292  -0.000215   0.000226  -0.000088  -0.000174
    17  N   -0.001094   0.004561   0.001410   0.003776  -0.035078   0.000010
    18  H    0.000663   0.005505  -0.000085  -0.000861  -0.007494   0.001043
    19  C   -0.000282  -0.002996   0.000431  -0.000469  -0.000795  -0.000602
    20  H   -0.000100  -0.000599   0.000079   0.000087   0.000655  -0.000084
    21  H    0.000016   0.000270   0.000024   0.000200  -0.000035  -0.000024
    22  H   -0.000001  -0.000160   0.000036  -0.000462   0.000371   0.000075
              7          8          9         10         11         12
     1  H    0.041428  -0.004357   0.004573  -0.000271   0.000249  -0.000296
     2  C   -0.094308  -0.065072   0.073756  -0.008957  -0.022329   0.002095
     3  H    0.053574  -0.006702   0.000342  -0.001468   0.000767   0.000291
     4  H   -0.206274   0.001806  -0.010626   0.000193  -0.014917   0.000321
     5  C    0.076635  -0.130541  -0.124693   0.017683  -0.128908   0.001830
     6  O   -0.116072   0.000934   0.064992  -0.017621   0.027027  -0.002927
     7  N    7.830598   0.343568  -0.712224  -0.096988   0.151534  -0.110131
     8  H    0.343568   0.968427  -0.198401   0.022134   0.016404  -0.001344
     9  C   -0.712224  -0.198401   7.966104  -0.205615  -0.103580   0.018162
    10  H   -0.096988   0.022134  -0.205615   1.278886  -0.030285   0.070087
    11  C    0.151534   0.016404  -0.103580  -0.030285   4.384831   0.261287
    12  H   -0.110131  -0.001344   0.018162   0.070087   0.261287   1.186638
    13  H    0.135410   0.004456  -0.245323  -0.064233   0.454470  -0.168046
    14  H   -0.041518  -0.004085   0.134466  -0.030951   0.267264  -0.200878
    15  C    0.002855   0.063982  -0.425695   0.110309  -0.124496   0.045840
    16  O   -0.020273  -0.005767   0.062999   0.023521   0.032883  -0.004582
    17  N    0.005843   0.001120  -0.103936   0.015667   0.087403  -0.001544
    18  H    0.001859  -0.003985   0.042222  -0.004371  -0.020403   0.001285
    19  C   -0.022343   0.018465  -0.074746   0.010545  -0.009341   0.005744
    20  H    0.000139   0.003092  -0.002978   0.003255  -0.008147   0.002432
    21  H   -0.004196  -0.006194   0.053068   0.001414  -0.004498  -0.001458
    22  H   -0.001062   0.003265  -0.025241  -0.001206   0.003471  -0.001521
             13         14         15         16         17         18
     1  H    0.000158   0.000307  -0.004547   0.000087  -0.001094   0.000663
     2  C    0.000385  -0.000297  -0.036147   0.001292   0.004561   0.005505
     3  H    0.000066  -0.000483   0.009639  -0.000215   0.001410  -0.000085
     4  H   -0.001150  -0.000122  -0.003550   0.000226   0.003776  -0.000861
     5  C   -0.023266   0.015666  -0.023621  -0.000088  -0.035078  -0.007494
     6  O    0.003103   0.014301  -0.011705  -0.000174   0.000010   0.001043
     7  N    0.135410  -0.041518   0.002855  -0.020273   0.005843   0.001859
     8  H    0.004456  -0.004085   0.063982  -0.005767   0.001120  -0.003985
     9  C   -0.245323   0.134466  -0.425695   0.062999  -0.103936   0.042222
    10  H   -0.064233  -0.030951   0.110309   0.023521   0.015667  -0.004371
    11  C    0.454470   0.267264  -0.124496   0.032883   0.087403  -0.020403
    12  H   -0.168046  -0.200878   0.045840  -0.004582  -0.001544   0.001285
    13  H    1.096084  -0.134203  -0.058537   0.020405   0.018596   0.000152
    14  H   -0.134203   1.038687   0.014669  -0.001572   0.006381  -0.001018
    15  C   -0.058537   0.014669   5.279603   0.161068   0.131981  -0.097559
    16  O    0.020405  -0.001572   0.161068   8.702330  -0.120595   0.006839
    17  N    0.018596   0.006381   0.131981  -0.120595   7.212635   0.286238
    18  H    0.000152  -0.001018  -0.097559   0.006839   0.286238   0.958605
    19  C   -0.005286   0.001897  -0.017710  -0.019995   0.175348  -0.095501
    20  H   -0.001621  -0.000619   0.059180  -0.028632  -0.059478   0.000260
    21  H   -0.001130   0.000398  -0.045650   0.003530   0.107244  -0.002201
    22  H    0.000410   0.000529  -0.031315   0.010344  -0.169891   0.014690
             19         20         21         22
     1  H   -0.000282  -0.000100   0.000016  -0.000001
     2  C   -0.002996  -0.000599   0.000270  -0.000160
     3  H    0.000431   0.000079   0.000024   0.000036
     4  H   -0.000469   0.000087   0.000200  -0.000462
     5  C   -0.000795   0.000655  -0.000035   0.000371
     6  O   -0.000602  -0.000084  -0.000024   0.000075
     7  N   -0.022343   0.000139  -0.004196  -0.001062
     8  H    0.018465   0.003092  -0.006194   0.003265
     9  C   -0.074746  -0.002978   0.053068  -0.025241
    10  H    0.010545   0.003255   0.001414  -0.001206
    11  C   -0.009341  -0.008147  -0.004498   0.003471
    12  H    0.005744   0.002432  -0.001458  -0.001521
    13  H   -0.005286  -0.001621  -0.001130   0.000410
    14  H    0.001897  -0.000619   0.000398   0.000529
    15  C   -0.017710   0.059180  -0.045650  -0.031315
    16  O   -0.019995  -0.028632   0.003530   0.010344
    17  N    0.175348  -0.059478   0.107244  -0.169891
    18  H   -0.095501   0.000260  -0.002201   0.014690
    19  C    4.109932   0.411800   0.249718   0.484112
    20  H    0.411800   0.985620  -0.089448  -0.173805
    21  H    0.249718  -0.089448   0.989437  -0.186678
    22  H    0.484112  -0.173805  -0.186678   1.249183
 Mulliken atomic charges:
              1
     1  H    0.014747
     2  C    0.387771
     3  H    0.060224
     4  H   -0.161274
     5  C    0.520482
     6  O   -0.836986
     7  N   -0.218052
     8  H   -0.021204
     9  C   -0.187626
    10  H   -0.091730
    11  C    0.779316
    12  H   -0.103284
    13  H   -0.030900
    14  H   -0.078820
    15  C    1.001407
    16  O   -0.823629
    17  N   -0.566598
    18  H   -0.085883
    19  C    0.782075
    20  H   -0.101086
    21  H   -0.063805
    22  H   -0.175143
 Sum of Mulliken atomic charges =   0.00000
 Mulliken charges with hydrogens summed into heavy atoms:
              1
     2  C    0.301468
     5  C    0.520482
     6  O   -0.836986
     7  N   -0.239257
     9  C   -0.279356
    11  C    0.566311
    15  C    1.001407
    16  O   -0.823629
    17  N   -0.652482
    19  C    0.442040
 Sum of Mulliken charges with hydrogens summed into heavy atoms =   0.00000
 Electronic spatial extent (au):  <R**2>=           1898.7967
 Charge=              0.0000 electrons
 Dipole moment (field-independent basis, Debye):
    X=             -1.3096    Y=             -4.0738    Z=             -4.4999  Tot=              6.2097
 Quadrupole moment (field-independent basis, Debye-Ang):
   XX=            -66.4702   YY=            -58.1993   ZZ=            -64.8430
   XY=             -3.4606   XZ=              3.7028   YZ=             -2.5417
 Traceless Quadrupole moment (field-independent basis, Debye-Ang):
   XX=             -3.2994   YY=              4.9715   ZZ=             -1.6722
   XY=             -3.4606   XZ=              3.7028   YZ=             -2.5417
 Octapole moment (field-independent basis, Debye-Ang**2):
  XXX=            -23.6296  YYY=             -1.4272  ZZZ=             -5.2175  XYY=             -1.1131
  XXY=            -37.0753  XXZ=            -23.8398  XZZ=              3.8989  YZZ=             -7.2924
  YYZ=             -3.1795  XYZ=             -1.1686
 Hexadecapole moment (field-independent basis, Debye-Ang**3):
 XXXX=          -1703.1046 YYYY=           -511.7585 ZZZZ=           -260.3501 XXXY=            -30.7983
 XXXZ=            -13.6192 YYYX=              1.9129 YYYZ=              7.0177 ZZZX=             18.5251
 ZZZY=              1.2555 XXYY=           -363.7868 XXZZ=           -346.8725 YYZZ=           -127.9748
 XXYZ=            -20.3778 YYXZ=              3.6646 ZZXY=              8.9342
 N-N= 5.492144384290D+02 E-N=-2.253325825911D+03  KE= 4.920640104586D+02
 1\1\GINC-NODE011\SP\RMP2-FC\Aug-CC-pVDZ\C6H12N2O2\MANAGER\13-Feb-2017\
 0\\#SP MP2/aug-cc-pVDZ\\Single Point calculation at MP2\\0,1\H,0,3.972
 6,-1.3255,-0.4715\C,0,2.983,-1.5522,-0.0667\H,0,3.1287,-2.0158,0.9154\
 H,0,2.4818,-2.2697,-0.7243\C,0,2.2171,-0.249,0.1104\O,0,2.7224,0.7408,
 0.6203\N,0,0.9231,-0.2574,-0.3631\H,0,0.5122,-1.1664,-0.5318\C,0,-0.00
 27,0.8206,0.0143\H,0,0.3998,1.2994,0.9097\C,0,-0.1221,1.8809,-1.0935\H
 ,0,-0.4903,1.4478,-2.0313\H,0,-0.8056,2.6796,-0.7858\H,0,0.8631,2.3168
 ,-1.2816\C,0,-1.375,0.2609,0.4147\O,0,-1.9603,0.6363,1.4185\N,0,-1.883
 6,-0.7104,-0.4203\H,0,-1.5251,-0.7418,-1.3668\C,0,-3.2316,-1.2249,-0.2
 138\H,0,-3.3869,-1.3629,0.857\H,0,-4.0018,-0.5356,-0.5839\H,0,-3.3343,
 -2.1865,-0.7237\\Version=EM64L-G09RevA.02\State=1-A\HF=-492.9186591\MP
 2=-494.5197654\RMSD=8.005e-09\PG=C01 [X(C6H12N2O2)]\\@


 IF YOU WANT TO LEARN FROM THE THEORETICAL PHYSICISTS ABOUT THE
 METHODS WHICH THEY USE, I ADVISE YOU TO FOLLOW THIS PRINCIPLE VERY STRICTLY:
 DON'T LISTEN TO THEIR WORDS; PAY ATTENTION, INSTEAD, TO THEIR ACTIONS.
 -- A.EINSTEIN, 1934
 Job cpu time:  0 days 12 hours 11 minutes 20.4 seconds.
 File lengths (MBytes):  RWF=  10533 Int=      0 D2E=      0 Chk=      7 Scr=      2
 Normal termination of Gaussian 09 at Mon Feb 13 07:06:38 2017.
