 Entering Gaussian System, Link 0=g09
 Initial command:
 /home/steboss/Software/g09/l1.exe /home/steboss/projects/phi_psi_scan/alanine/MP2/105/5193/Gau-14985.inp -scrdir=/home/steboss/projects/phi_psi_scan/alanine/MP2/105/5193/
 Entering Link 1 = /home/steboss/Software/g09/l1.exe PID=     14987.
  
 Copyright (c) 1988,1990,1992,1993,1995,1998,2003,2009, Gaussian, Inc.
                  All Rights Reserved.
  
 This is part of the Gaussian(R) 09 program.  It is based on
 the Gaussian(R) 03 system (copyright 2003, Gaussian, Inc.),
 the Gaussian(R) 98 system (copyright 1998, Gaussian, Inc.),
 the Gaussian(R) 94 system (copyright 1995, Gaussian, Inc.),
 the Gaussian 92(TM) system (copyright 1992, Gaussian, Inc.),
 the Gaussian 90(TM) system (copyright 1990, Gaussian, Inc.),
 the Gaussian 88(TM) system (copyright 1988, Gaussian, Inc.),
 the Gaussian 86(TM) system (copyright 1986, Carnegie Mellon
 University), and the Gaussian 82(TM) system (copyright 1983,
 Carnegie Mellon University). Gaussian is a federally registered
 trademark of Gaussian, Inc.
  
 This software contains proprietary and confidential information,
 including trade secrets, belonging to Gaussian, Inc.
  
 This software is provided under written license and may be
 used, copied, transmitted, or stored only in accord with that
 written license.
  
 The following legend is applicable only to US Government
 contracts under FAR:
  
                    RESTRICTED RIGHTS LEGEND
  
 Use, reproduction and disclosure by the US Government is
 subject to restrictions as set forth in subparagraphs (a)
 and (c) of the Commercial Computer Software - Restricted
 Rights clause in FAR 52.227-19.
  
 Gaussian, Inc.
 340 Quinnipiac St., Bldg. 40, Wallingford CT 06492
  
  
 ---------------------------------------------------------------
 Warning -- This program may not be used in any manner that
 competes with the business of Gaussian, Inc. or will provide
 assistance to any competitor of Gaussian, Inc.  The licensee
 of this program is prohibited from giving any competitor of
 Gaussian, Inc. access to this program.  By using this program,
 the user acknowledges that Gaussian, Inc. is engaged in the
 business of creating and licensing software in the field of
 computational chemistry and represents and warrants to the
 licensee that it is not a competitor of Gaussian, Inc. and that
 it will not use this program in any manner prohibited above.
 ---------------------------------------------------------------
  

 Cite this work as:
 Gaussian 09, Revision A.02,
 M. J. Frisch, G. W. Trucks, H. B. Schlegel, G. E. Scuseria, 
 M. A. Robb, J. R. Cheeseman, G. Scalmani, V. Barone, B. Mennucci, 
 G. A. Petersson, H. Nakatsuji, M. Caricato, X. Li, H. P. Hratchian, 
 A. F. Izmaylov, J. Bloino, G. Zheng, J. L. Sonnenberg, M. Hada, 
 M. Ehara, K. Toyota, R. Fukuda, J. Hasegawa, M. Ishida, T. Nakajima, 
 Y. Honda, O. Kitao, H. Nakai, T. Vreven, J. A. Montgomery, Jr., 
 J. E. Peralta, F. Ogliaro, M. Bearpark, J. J. Heyd, E. Brothers, 
 K. N. Kudin, V. N. Staroverov, R. Kobayashi, J. Normand, 
 K. Raghavachari, A. Rendell, J. C. Burant, S. S. Iyengar, J. Tomasi, 
 M. Cossi, N. Rega, J. M. Millam, M. Klene, J. E. Knox, J. B. Cross, 
 V. Bakken, C. Adamo, J. Jaramillo, R. Gomperts, R. E. Stratmann, 
 O. Yazyev, A. J. Austin, R. Cammi, C. Pomelli, J. W. Ochterski, 
 R. L. Martin, K. Morokuma, V. G. Zakrzewski, G. A. Voth, 
 P. Salvador, J. J. Dannenberg, S. Dapprich, A. D. Daniels, 
 O. Farkas, J. B. Foresman, J. V. Ortiz, J. Cioslowski, 
 and D. J. Fox, Gaussian, Inc., Wallingford CT, 2009.
 
 ******************************************
 Gaussian 09:  EM64L-G09RevA.02 11-Jun-2009
                12-Feb-2017 
 ******************************************
 %chk=structure_255.chk
 %NProcShared=8
 Will use up to    8 processors via shared memory.
 -------------------
 #SP MP2/aug-cc-pVDZ
 -------------------
 1/38=1/1;
 2/12=2,17=6,18=5,40=1/2;
 3/5=16,7=10,11=9,16=1,25=1,30=1/1,2,3;
 4//1;
 5/5=2,38=5/2;
 8/10=1/1;
 9/16=-3/6;
 6/7=2,8=2,9=2,10=2/1;
 99/5=1,9=1/99;
 -------------------------------
 Single Point calculation at MP2
 -------------------------------
 Symbolic Z-matrix:
 Charge =  0 Multiplicity = 1
 H                    -4.0586   -0.7376    0.1475 
 C                    -3.0888   -1.2398    0.2197 
 H                    -2.9843   -1.9283   -0.6246 
 H                    -3.0883   -1.8136    1.1513 
 C                    -1.9986   -0.176     0.3012 
 O                    -1.9825    0.6447    1.2118 
 N                    -1.0816   -0.2264   -0.7133 
 H                    -1.1132   -1.0255   -1.331 
 C                     0.0826    0.6456   -0.932 
 H                     0.1753    0.7366   -2.0204 
 C                    -0.0466    2.0591   -0.3617 
 H                    -0.1682    2.0767    0.7212 
 H                     0.8376    2.6378   -0.6508 
 H                    -0.9292    2.5494   -0.7825 
 C                     1.3386   -0.1687   -0.5403 
 O                     1.7214   -1.0742   -1.2753 
 N                     1.9297    0.1481    0.6425 
 H                     1.4901    0.8454    1.2255 
 C                     3.0449   -0.6091    1.1849 
 H                     3.4294   -1.245     0.3865 
 H                     3.8368    0.0652    1.5278 
 H                     2.7319   -1.2437    2.0235 
 
                          Input orientation:                          
 ---------------------------------------------------------------------
 Center     Atomic      Atomic             Coordinates (Angstroms)
 Number     Number       Type             X           Y           Z
 ---------------------------------------------------------------------
      1          1           0       -4.058600   -0.737600    0.147500
      2          6           0       -3.088800   -1.239800    0.219700
      3          1           0       -2.984300   -1.928300   -0.624600
      4          1           0       -3.088300   -1.813600    1.151300
      5          6           0       -1.998600   -0.176000    0.301200
      6          8           0       -1.982500    0.644700    1.211800
      7          7           0       -1.081600   -0.226400   -0.713300
      8          1           0       -1.113200   -1.025500   -1.331000
      9          6           0        0.082600    0.645600   -0.932000
     10          1           0        0.175300    0.736600   -2.020400
     11          6           0       -0.046600    2.059100   -0.361700
     12          1           0       -0.168200    2.076700    0.721200
     13          1           0        0.837600    2.637800   -0.650800
     14          1           0       -0.929200    2.549400   -0.782500
     15          6           0        1.338600   -0.168700   -0.540300
     16          8           0        1.721400   -1.074200   -1.275300
     17          7           0        1.929700    0.148100    0.642500
     18          1           0        1.490100    0.845400    1.225500
     19          6           0        3.044900   -0.609100    1.184900
     20          1           0        3.429400   -1.245000    0.386500
     21          1           0        3.836800    0.065200    1.527800
     22          1           0        2.731900   -1.243700    2.023500
 ---------------------------------------------------------------------
                    Distance matrix (angstroms):
                    1          2          3          4          5
     1  H    0.000000
     2  C    1.094500   0.000000
     3  H    1.779895   1.094438   0.000000
     4  H    1.762632   1.094132   1.782637   0.000000
     5  C    2.140705   1.525401   2.213428   2.142860   0.000000
     6  O    2.711767   2.399896   3.316067   2.696237   1.225969
     7  N    3.140833   2.434403   2.554329   3.165878   1.368444
     8  H    3.308206   2.520633   2.194325   3.268629   2.041975
     9  C    4.497566   3.865090   4.015636   4.521328   2.554839
    10  H    4.979856   4.424766   4.362685   5.216731   3.308853
    11  C    4.917007   4.525014   4.959693   5.151593   3.040627
    12  H    4.835766   4.447536   5.077561   4.883278   2.932818
    13  H    6.000282   5.586606   5.954568   6.202839   4.107043
    14  H    4.632754   4.475077   4.929317   5.238040   3.121831
    15  C    5.470510   4.618087   4.668058   5.016438   3.441668
    16  O    5.962052   5.039888   4.826646   5.437675   4.138903
    17  N    6.073650   5.224018   5.483099   5.411790   3.956396
    18  H    5.869927   5.130889   5.580012   5.295048   3.750815
    19  C    7.180002   6.241127   6.431627   6.250447   5.138618
    20  H    7.508976   6.520336   6.528765   6.587005   5.532922
    21  H    8.055250   7.167851   7.425246   7.185308   5.967798
    22  H    7.063031   6.093788   6.336880   5.912719   5.146254
                    6          7          8          9         10
     6  O    0.000000
     7  N    2.297052   0.000000
     8  H    3.164029   1.010501   0.000000
     9  C    2.976662   1.470910   2.093254   0.000000
    10  H    3.887372   2.053211   2.289214   1.096124   0.000000
    11  C    2.867776   2.533448   3.404693   1.529679   2.132963
    12  H    2.362837   2.862928   3.837733   2.200913   3.070868
    13  H    3.923607   3.448315   4.205717   2.148944   2.434955
    14  H    2.952043   2.780842   3.621411   2.161144   2.457348
    15  C    3.842028   2.427061   2.714892   1.547272   2.088907
    16  O    4.781125   2.981848   2.835565   2.400257   2.494914
    17  N    3.984473   3.323608   3.811992   2.477566   3.242728
    18  H    3.478422   3.394310   4.100382   2.583754   3.503770
    19  C    5.181456   4.558248   4.877800   3.851072   4.507711
    20  H    5.791437   4.753549   4.861399   4.063727   4.506559
    21  H    5.856614   5.412783   5.819353   4.525649   5.142673
    22  H    5.143003   4.802890   5.107355   4.395819   5.177926
                   11         12         13         14         15
    11  C    0.000000
    12  H    1.089848   0.000000
    13  H    1.095574   1.791327   0.000000
    14  H    1.093823   1.750337   1.773906   0.000000
    15  C    2.629405   2.983898   2.853008   3.548189   0.000000
    16  O    3.711881   4.181480   3.866529   4.516526   1.227473
    17  N    2.926790   2.850768   3.010633   3.996270   1.359697
    18  H    2.520658   2.126118   2.675622   3.576128   2.041911
    19  C    4.366765   4.213378   4.334089   5.444287   2.466116
    20  H    4.853808   4.907998   4.782212   5.895882   2.527612
    21  H    4.756747   4.553763   4.512180   5.850085   3.251577
    22  H    4.931301   4.596914   5.079990   5.972009   3.109659
                   16         17         18         19         20
    16  O    0.000000
    17  N    2.283717   0.000000
    18  H    3.161070   1.009636   0.000000
    19  C    2.832058   1.453004   2.129465   0.000000
    20  H    2.389145   2.062853   2.972302   1.090712   0.000000
    21  H    3.691953   2.104200   2.491405   1.095156   1.784703
    22  H    3.454261   2.118441   2.557970   1.097240   1.779404
                   21         22
    21  H    0.000000
    22  H    1.783183   0.000000
 Stoichiometry    C6H12N2O2
 Framework group  C1[X(C6H12N2O2)]
 Deg. of freedom    60
 Full point group                 C1      NOp   1
 Largest Abelian subgroup         C1      NOp   1
 Largest concise Abelian subgroup C1      NOp   1
                         Standard orientation:                         
 ---------------------------------------------------------------------
 Center     Atomic      Atomic             Coordinates (Angstroms)
 Number     Number       Type             X           Y           Z
 ---------------------------------------------------------------------
      1          1           0       -4.058595   -0.737611    0.147485
      2          6           0       -3.088794   -1.239808    0.219685
      3          1           0       -2.984292   -1.928308   -0.624615
      4          1           0       -3.088292   -1.813608    1.151285
      5          6           0       -1.998597   -0.176005    0.301185
      6          8           0       -1.982499    0.644695    1.211785
      7          7           0       -1.081597   -0.226402   -0.713315
      8          1           0       -1.113194   -1.025502   -1.331015
      9          6           0        0.082601    0.645602   -0.932015
     10          1           0        0.175300    0.736602   -2.020415
     11          6           0       -0.046604    2.059101   -0.361715
     12          1           0       -0.168204    2.076701    0.721185
     13          1           0        0.837595    2.637804   -0.650815
     14          1           0       -0.929205    2.549398   -0.782515
     15          6           0        1.338603   -0.168695   -0.540315
     16          8           0        1.721406   -1.074194   -1.275315
     17          7           0        1.929702    0.148107    0.642485
     18          1           0        1.490100    0.845406    1.225485
     19          6           0        3.044904   -0.609090    1.184885
     20          1           0        3.429406   -1.244988    0.386485
     21          1           0        3.836802    0.065213    1.527785
     22          1           0        2.731906   -1.243691    2.023485
 ---------------------------------------------------------------------
 Rotational constants (GHZ):      2.0236006      0.7639043      0.7360896
 Standard basis: Aug-CC-pVDZ (5D, 7F)
 There are   338 symmetry adapted basis functions of A   symmetry.
 Integral buffers will be    131072 words long.
 Raffenetti 1 integral format.
 Two-electron integral symmetry is turned on.
   338 basis functions,   562 primitive gaussians,   358 cartesian basis functions
    39 alpha electrons       39 beta electrons
       nuclear repulsion energy       555.3795045662 Hartrees.
 NAtoms=   22 NActive=   22 NUniq=   22 SFac= 7.50D-01 NAtFMM=   80 NAOKFM=F Big=F
 One-electron integrals computed using PRISM.
 NBasis=   338 RedAO= T  NBF=   338
 NBsUse=   338 1.00D-06 NBFU=   338
 Harris functional with IExCor=  205 diagonalized for initial guess.
 ExpMin= 2.97D-02 ExpMax= 1.17D+04 ExpMxC= 4.01D+02 IAcc=3 IRadAn=         0 AccDes= 0.00D+00
 HarFok:  IExCor=  205 AccDes= 0.00D+00 IRadAn=         0 IDoV= 1
 ScaDFX=  1.000000  1.000000  1.000000  1.000000
 FoFCou: FMM=F IPFlag=           0 FMFlag=      100000 FMFlg1=           0
         NFxFlg=           0 DoJE=T BraDBF=F KetDBF=T FulRan=T
         Omega=  0.000000  0.000000  1.000000  0.000000  0.000000 ICntrl=     500 IOpCl=  0
         NMat0=    1 NMatS0=    1 NMatT0=    0 NMatD0=    1 NMtDS0=    0 NMtDT0=    0
         I1Cent=           4 NGrid=           0.
 Petite list used in FoFCou.
 Initial guess orbital symmetries:
       Occupied  (A) (A) (A) (A) (A) (A) (A) (A) (A) (A) (A) (A)
                 (A) (A) (A) (A) (A) (A) (A) (A) (A) (A) (A) (A)
                 (A) (A) (A) (A) (A) (A) (A) (A) (A) (A) (A) (A)
                 (A) (A) (A)
       Virtual   (A) (A) (A) (A) (A) (A) (A) (A) (A) (A) (A) (A)
                 (A) (A) (A) (A) (A) (A) (A) (A) (A) (A) (A) (A)
                 (A) (A) (A) (A) (A) (A) (A) (A) (A) (A) (A) (A)
                 (A) (A) (A) (A) (A) (A) (A) (A) (A) (A) (A) (A)
                 (A) (A) (A) (A) (A) (A) (A) (A) (A) (A) (A) (A)
                 (A) (A) (A) (A) (A) (A) (A) (A) (A) (A) (A) (A)
                 (A) (A) (A) (A) (A) (A) (A) (A) (A) (A) (A) (A)
                 (A) (A) (A) (A) (A) (A) (A) (A) (A) (A) (A) (A)
                 (A) (A) (A) (A) (A) (A) (A) (A) (A) (A) (A) (A)
                 (A) (A) (A) (A) (A) (A) (A) (A) (A) (A) (A) (A)
                 (A) (A) (A) (A) (A) (A) (A) (A) (A) (A) (A) (A)
                 (A) (A) (A) (A) (A) (A) (A) (A) (A) (A) (A) (A)
                 (A) (A) (A) (A) (A) (A) (A) (A) (A) (A) (A) (A)
                 (A) (A) (A) (A) (A) (A) (A) (A) (A) (A) (A) (A)
                 (A) (A) (A) (A) (A) (A) (A) (A) (A) (A) (A) (A)
                 (A) (A) (A) (A) (A) (A) (A) (A) (A) (A) (A) (A)
                 (A) (A) (A) (A) (A) (A) (A) (A) (A) (A) (A) (A)
                 (A) (A) (A) (A) (A) (A) (A) (A) (A) (A) (A) (A)
                 (A) (A) (A) (A) (A) (A) (A) (A) (A) (A) (A) (A)
                 (A) (A) (A) (A) (A) (A) (A) (A) (A) (A) (A) (A)
                 (A) (A) (A) (A) (A) (A) (A) (A) (A) (A) (A) (A)
                 (A) (A) (A) (A) (A) (A) (A) (A) (A) (A) (A) (A)
                 (A) (A) (A) (A) (A) (A) (A) (A) (A) (A) (A) (A)
                 (A) (A) (A) (A) (A) (A) (A) (A) (A) (A) (A) (A)
                 (A) (A) (A) (A) (A) (A) (A) (A) (A) (A) (A)
 The electronic state of the initial guess is 1-A.
 Requested convergence on RMS density matrix=1.00D-08 within 128 cycles.
 Requested convergence on MAX density matrix=1.00D-06.
 Requested convergence on             energy=1.00D-06.
 No special actions if energy rises.
 Initial convergence to 1.0D-05 achieved.  Increase integral accuracy.
 SCF Done:  E(RHF) =  -492.917482764     A.U. after   14 cycles
             Convg  =    0.7382D-08             -V/T =  2.0017
 ExpMin= 2.97D-02 ExpMax= 1.17D+04 ExpMxC= 4.01D+02 IAcc=3 IRadAn=         5 AccDes= 0.00D+00
 HarFok:  IExCor=  205 AccDes= 0.00D+00 IRadAn=         5 IDoV=-2
 ScaDFX=  1.000000  1.000000  1.000000  1.000000
 Range of M.O.s used for correlation:    11   338
 NBasis=   338 NAE=    39 NBE=    39 NFC=    10 NFV=     0
 NROrb=    328 NOA=    29 NOB=    29 NVA=   299 NVB=   299

 **** Warning!!: The largest alpha MO coefficient is  0.78928107D+02

 Disk-based method using OVN memory for 29 occupieds at a time.
 Estimated scratch disk usage=  1384824319 words.
 Actual    scratch disk usage=  1371833601 words.
 JobTyp=1 Pass  1:  I=   1 to  29 NPSUse=  8 ParTrn=T ParDer=T DoDerP=F.
 Spin components of T(2) and E(2):
     alpha-alpha T2 =       0.6785578167D-01 E2=     -0.2056409030D+00
     alpha-beta  T2 =       0.3763928167D+00 E2=     -0.1189915700D+01
     beta-beta   T2 =       0.6785578167D-01 E2=     -0.2056409030D+00
 ANorm=    0.1229676535D+01
 E2 =    -0.1601197506D+01 EUMP2 =    -0.49451868026962D+03

 **********************************************************************

            Population analysis using the SCF density.

 **********************************************************************

 Orbital symmetries:
       Occupied  (A) (A) (A) (A) (A) (A) (A) (A) (A) (A) (A) (A)
                 (A) (A) (A) (A) (A) (A) (A) (A) (A) (A) (A) (A)
                 (A) (A) (A) (A) (A) (A) (A) (A) (A) (A) (A) (A)
                 (A) (A) (A)
       Virtual   (A) (A) (A) (A) (A) (A) (A) (A) (A) (A) (A) (A)
                 (A) (A) (A) (A) (A) (A) (A) (A) (A) (A) (A) (A)
                 (A) (A) (A) (A) (A) (A) (A) (A) (A) (A) (A) (A)
                 (A) (A) (A) (A) (A) (A) (A) (A) (A) (A) (A) (A)
                 (A) (A) (A) (A) (A) (A) (A) (A) (A) (A) (A) (A)
                 (A) (A) (A) (A) (A) (A) (A) (A) (A) (A) (A) (A)
                 (A) (A) (A) (A) (A) (A) (A) (A) (A) (A) (A) (A)
                 (A) (A) (A) (A) (A) (A) (A) (A) (A) (A) (A) (A)
                 (A) (A) (A) (A) (A) (A) (A) (A) (A) (A) (A) (A)
                 (A) (A) (A) (A) (A) (A) (A) (A) (A) (A) (A) (A)
                 (A) (A) (A) (A) (A) (A) (A) (A) (A) (A) (A) (A)
                 (A) (A) (A) (A) (A) (A) (A) (A) (A) (A) (A) (A)
                 (A) (A) (A) (A) (A) (A) (A) (A) (A) (A) (A) (A)
                 (A) (A) (A) (A) (A) (A) (A) (A) (A) (A) (A) (A)
                 (A) (A) (A) (A) (A) (A) (A) (A) (A) (A) (A) (A)
                 (A) (A) (A) (A) (A) (A) (A) (A) (A) (A) (A) (A)
                 (A) (A) (A) (A) (A) (A) (A) (A) (A) (A) (A) (A)
                 (A) (A) (A) (A) (A) (A) (A) (A) (A) (A) (A) (A)
                 (A) (A) (A) (A) (A) (A) (A) (A) (A) (A) (A) (A)
                 (A) (A) (A) (A) (A) (A) (A) (A) (A) (A) (A) (A)
                 (A) (A) (A) (A) (A) (A) (A) (A) (A) (A) (A) (A)
                 (A) (A) (A) (A) (A) (A) (A) (A) (A) (A) (A) (A)
                 (A) (A) (A) (A) (A) (A) (A) (A) (A) (A) (A) (A)
                 (A) (A) (A) (A) (A) (A) (A) (A) (A) (A) (A) (A)
                 (A) (A) (A) (A) (A) (A) (A) (A) (A) (A) (A)
 The electronic state is 1-A.
 Alpha  occ. eigenvalues --  -20.53214 -20.53033 -15.60320 -15.59890 -11.36822
 Alpha  occ. eigenvalues --  -11.36100 -11.29879 -11.26955 -11.24844 -11.23712
 Alpha  occ. eigenvalues --   -1.38887  -1.38218  -1.24351  -1.23358  -1.05905
 Alpha  occ. eigenvalues --   -0.99295  -0.95648  -0.89541  -0.80150  -0.77209
 Alpha  occ. eigenvalues --   -0.72313  -0.69896  -0.65827  -0.64742  -0.61911
 Alpha  occ. eigenvalues --   -0.61838  -0.59565  -0.58939  -0.56759  -0.55695
 Alpha  occ. eigenvalues --   -0.55278  -0.54554  -0.52802  -0.51789  -0.51019
 Alpha  occ. eigenvalues --   -0.44006  -0.42061  -0.39572  -0.38900
 Alpha virt. eigenvalues --    0.03158   0.03722   0.04127   0.05067   0.05628
 Alpha virt. eigenvalues --    0.05826   0.06402   0.06924   0.07660   0.07756
 Alpha virt. eigenvalues --    0.08854   0.09732   0.11345   0.11473   0.12836
 Alpha virt. eigenvalues --    0.13291   0.14075   0.14442   0.14834   0.15191
 Alpha virt. eigenvalues --    0.15251   0.15935   0.16422   0.16870   0.17317
 Alpha virt. eigenvalues --    0.17535   0.18013   0.18242   0.18431   0.18903
 Alpha virt. eigenvalues --    0.19544   0.19980   0.20740   0.20963   0.22718
 Alpha virt. eigenvalues --    0.23051   0.23226   0.25413   0.26103   0.26520
 Alpha virt. eigenvalues --    0.27418   0.28303   0.29031   0.29920   0.30277
 Alpha virt. eigenvalues --    0.31341   0.31831   0.32499   0.32852   0.33351
 Alpha virt. eigenvalues --    0.33466   0.34993   0.35119   0.35975   0.36813
 Alpha virt. eigenvalues --    0.37468   0.38006   0.38609   0.39053   0.39777
 Alpha virt. eigenvalues --    0.40421   0.40903   0.41870   0.42210   0.42847
 Alpha virt. eigenvalues --    0.43278   0.43950   0.44143   0.44327   0.44752
 Alpha virt. eigenvalues --    0.46298   0.47185   0.47555   0.47700   0.49518
 Alpha virt. eigenvalues --    0.49763   0.50306   0.50833   0.51432   0.52464
 Alpha virt. eigenvalues --    0.52762   0.54169   0.54576   0.55645   0.55714
 Alpha virt. eigenvalues --    0.56266   0.57248   0.58175   0.58968   0.59565
 Alpha virt. eigenvalues --    0.59736   0.60514   0.60799   0.60988   0.61970
 Alpha virt. eigenvalues --    0.62306   0.63242   0.63546   0.64246   0.64939
 Alpha virt. eigenvalues --    0.65809   0.66691   0.67634   0.67883   0.68387
 Alpha virt. eigenvalues --    0.69559   0.70150   0.70908   0.71030   0.71619
 Alpha virt. eigenvalues --    0.72408   0.73466   0.73657   0.74272   0.75596
 Alpha virt. eigenvalues --    0.76361   0.77262   0.77926   0.79174   0.79396
 Alpha virt. eigenvalues --    0.80322   0.80553   0.81351   0.83527   0.84229
 Alpha virt. eigenvalues --    0.85108   0.85429   0.85700   0.87387   0.88571
 Alpha virt. eigenvalues --    0.88928   0.90506   0.91093   0.92412   0.92819
 Alpha virt. eigenvalues --    0.94330   0.94899   0.96267   0.97087   0.97966
 Alpha virt. eigenvalues --    1.00378   1.00768   1.03164   1.03313   1.04149
 Alpha virt. eigenvalues --    1.05887   1.06621   1.06969   1.09994   1.10946
 Alpha virt. eigenvalues --    1.11339   1.12355   1.14118   1.14752   1.16587
 Alpha virt. eigenvalues --    1.16943   1.17333   1.19471   1.20637   1.21978
 Alpha virt. eigenvalues --    1.22611   1.23753   1.25775   1.27652   1.30794
 Alpha virt. eigenvalues --    1.31493   1.31909   1.34953   1.37272   1.38100
 Alpha virt. eigenvalues --    1.39360   1.42039   1.43785   1.44802   1.47113
 Alpha virt. eigenvalues --    1.49643   1.51038   1.51556   1.52932   1.54335
 Alpha virt. eigenvalues --    1.56533   1.57378   1.57988   1.60221   1.62071
 Alpha virt. eigenvalues --    1.66607   1.69516   1.70186   1.71314   1.73476
 Alpha virt. eigenvalues --    1.74187   1.74682   1.78364   1.79632   1.80332
 Alpha virt. eigenvalues --    1.81947   1.83555   1.85211   1.86727   1.88239
 Alpha virt. eigenvalues --    1.88636   1.89857   1.90063   1.93045   1.93546
 Alpha virt. eigenvalues --    1.94328   1.97037   1.98452   1.99407   2.02329
 Alpha virt. eigenvalues --    2.03337   2.05188   2.05805   2.06526   2.08767
 Alpha virt. eigenvalues --    2.10224   2.12226   2.13905   2.14218   2.17132
 Alpha virt. eigenvalues --    2.17365   2.19252   2.20673   2.21659   2.23303
 Alpha virt. eigenvalues --    2.24798   2.26786   2.27695   2.28939   2.29868
 Alpha virt. eigenvalues --    2.30308   2.33847   2.35419   2.35930   2.37049
 Alpha virt. eigenvalues --    2.37572   2.39484   2.42390   2.44612   2.45721
 Alpha virt. eigenvalues --    2.46030   2.47911   2.48513   2.50749   2.51865
 Alpha virt. eigenvalues --    2.53540   2.55907   2.57516   2.59017   2.60443
 Alpha virt. eigenvalues --    2.62146   2.63785   2.65495   2.66734   2.68928
 Alpha virt. eigenvalues --    2.70961   2.72830   2.76727   2.78257   2.81289
 Alpha virt. eigenvalues --    2.82211   2.82370   2.84369   2.85982   2.89040
 Alpha virt. eigenvalues --    2.90072   2.91086   2.93618   2.94483   2.98240
 Alpha virt. eigenvalues --    2.99847   3.02505   3.05827   3.06972   3.09280
 Alpha virt. eigenvalues --    3.10399   3.13957   3.16286   3.20750   3.23219
 Alpha virt. eigenvalues --    3.28092   3.37795   3.44446   3.49753   3.52353
 Alpha virt. eigenvalues --    3.60109   3.68102   3.73250   3.82979   3.83761
 Alpha virt. eigenvalues --    3.85469   3.87550   3.90239   3.98408   4.02846
 Alpha virt. eigenvalues --    4.07820   4.10841   4.20046   4.24184
          Condensed to atoms (all electrons):
              1          2          3          4          5          6
     1  H    0.734033   0.369528  -0.083936  -0.048696  -0.067164   0.017007
     2  C    0.369528   4.545848   0.334517   0.335745   0.164590  -0.034036
     3  H   -0.083936   0.334517   1.115806  -0.074038   0.123932  -0.011522
     4  H   -0.048696   0.335745  -0.074038   0.745424  -0.079958   0.020276
     5  C   -0.067164   0.164590   0.123932  -0.079958   5.579564   0.137760
     6  O    0.017007  -0.034036  -0.011522   0.020276   0.137760   8.736604
     7  N    0.048493  -0.067013  -0.222797   0.055269   0.010285  -0.078687
     8  H   -0.001170  -0.068760  -0.002826  -0.002833  -0.112628  -0.005273
     9  C   -0.004955   0.006061  -0.017009   0.003078  -0.318732   0.075622
    10  H   -0.001917   0.005923   0.002624   0.000743   0.012611   0.003684
    11  C    0.001777  -0.009527  -0.005905   0.001422  -0.022503  -0.017976
    12  H   -0.000668   0.003147   0.002066   0.000310   0.051368  -0.067133
    13  H    0.000293   0.000233  -0.000926   0.000156  -0.039578   0.005564
    14  H    0.000434  -0.001002  -0.000475  -0.000633   0.008808   0.026711
    15  C   -0.002072  -0.014565  -0.006380   0.000560  -0.063547   0.023058
    16  O    0.000482   0.006932   0.001838   0.000030   0.015641  -0.000622
    17  N    0.000083  -0.003753  -0.000986   0.000986   0.023796   0.001175
    18  H   -0.000395  -0.000489  -0.000247   0.000699  -0.011067  -0.002261
    19  C   -0.000142  -0.000729   0.000051   0.000318  -0.006070   0.002404
    20  H   -0.000062  -0.000220  -0.000047   0.000056  -0.004243   0.000087
    21  H    0.000020  -0.000140  -0.000067  -0.000098  -0.000647   0.000161
    22  H   -0.000035   0.001082   0.000410   0.000151   0.003884   0.000441
              7          8          9         10         11         12
     1  H    0.048493  -0.001170  -0.004955  -0.001917   0.001777  -0.000668
     2  C   -0.067013  -0.068760   0.006061   0.005923  -0.009527   0.003147
     3  H   -0.222797  -0.002826  -0.017009   0.002624  -0.005905   0.002066
     4  H    0.055269  -0.002833   0.003078   0.000743   0.001422   0.000310
     5  C    0.010285  -0.112628  -0.318732   0.012611  -0.022503   0.051368
     6  O   -0.078687  -0.005273   0.075622   0.003684  -0.017976  -0.067133
     7  N    7.646254   0.356254  -0.332527  -0.061122  -0.014024  -0.034889
     8  H    0.356254   0.960821  -0.089192   0.014224  -0.012277  -0.006628
     9  C   -0.332527  -0.089192   7.671151  -0.280799   0.079597  -0.048423
    10  H   -0.061122   0.014224  -0.280799   1.377975  -0.006630   0.063242
    11  C   -0.014024  -0.012277   0.079597  -0.006630   4.355511   0.356789
    12  H   -0.034889  -0.006628  -0.048423   0.063242   0.356789   0.975429
    13  H    0.091581  -0.002728  -0.175310  -0.081144   0.332933  -0.199904
    14  H   -0.053200   0.005508   0.085102  -0.023012   0.219404  -0.201790
    15  C    0.032430   0.028513  -0.426665   0.017249  -0.037995  -0.062683
    16  O    0.006851   0.012872  -0.021271   0.037760   0.015362   0.003626
    17  N    0.070241   0.004351  -0.227941   0.070392   0.012891   0.007103
    18  H   -0.015066  -0.000131   0.085188  -0.004210  -0.001198   0.026555
    19  C    0.023308   0.002109  -0.124227   0.009487   0.000671   0.001159
    20  H   -0.002182  -0.000036  -0.005982   0.004937  -0.008106   0.003157
    21  H    0.003612   0.000915  -0.055576  -0.004511   0.017656  -0.000846
    22  H   -0.007206  -0.001831   0.064142   0.001922  -0.007053  -0.003811
             13         14         15         16         17         18
     1  H    0.000293   0.000434  -0.002072   0.000482   0.000083  -0.000395
     2  C    0.000233  -0.001002  -0.014565   0.006932  -0.003753  -0.000489
     3  H   -0.000926  -0.000475  -0.006380   0.001838  -0.000986  -0.000247
     4  H    0.000156  -0.000633   0.000560   0.000030   0.000986   0.000699
     5  C   -0.039578   0.008808  -0.063547   0.015641   0.023796  -0.011067
     6  O    0.005564   0.026711   0.023058  -0.000622   0.001175  -0.002261
     7  N    0.091581  -0.053200   0.032430   0.006851   0.070241  -0.015066
     8  H   -0.002728   0.005508   0.028513   0.012872   0.004351  -0.000131
     9  C   -0.175310   0.085102  -0.426665  -0.021271  -0.227941   0.085188
    10  H   -0.081144  -0.023012   0.017249   0.037760   0.070392  -0.004210
    11  C    0.332933   0.219404  -0.037995   0.015362   0.012891  -0.001198
    12  H   -0.199904  -0.201790  -0.062683   0.003626   0.007103   0.026555
    13  H    1.330936  -0.209810   0.030640  -0.004981   0.021474  -0.012371
    14  H   -0.209810   1.175438   0.063174  -0.002599  -0.019495   0.000130
    15  C    0.030640   0.063174   5.303952   0.150758   0.188925  -0.136696
    16  O   -0.004981  -0.002599   0.150758   8.808009  -0.130964   0.018615
    17  N    0.021474  -0.019495   0.188925  -0.130964   7.157873   0.273418
    18  H   -0.012371   0.000130  -0.136696   0.018615   0.273418   0.991702
    19  C    0.011311  -0.000156  -0.036491  -0.016977   0.221073  -0.124907
    20  H   -0.000176  -0.000444   0.019921  -0.017020  -0.081989   0.001569
    21  H    0.001981   0.001014   0.028666   0.006148  -0.096924   0.002751
    22  H   -0.001646   0.000907  -0.076932   0.011467   0.076876  -0.002464
             19         20         21         22
     1  H   -0.000142  -0.000062   0.000020  -0.000035
     2  C   -0.000729  -0.000220  -0.000140   0.001082
     3  H    0.000051  -0.000047  -0.000067   0.000410
     4  H    0.000318   0.000056  -0.000098   0.000151
     5  C   -0.006070  -0.004243  -0.000647   0.003884
     6  O    0.002404   0.000087   0.000161   0.000441
     7  N    0.023308  -0.002182   0.003612  -0.007206
     8  H    0.002109  -0.000036   0.000915  -0.001831
     9  C   -0.124227  -0.005982  -0.055576   0.064142
    10  H    0.009487   0.004937  -0.004511   0.001922
    11  C    0.000671  -0.008106   0.017656  -0.007053
    12  H    0.001159   0.003157  -0.000846  -0.003811
    13  H    0.011311  -0.000176   0.001981  -0.001646
    14  H   -0.000156  -0.000444   0.001014   0.000907
    15  C   -0.036491   0.019921   0.028666  -0.076932
    16  O   -0.016977  -0.017020   0.006148   0.011467
    17  N    0.221073  -0.081989  -0.096924   0.076876
    18  H   -0.124907   0.001569   0.002751  -0.002464
    19  C    4.154758   0.491198   0.383304   0.270217
    20  H    0.491198   1.007779  -0.161957  -0.106627
    21  H    0.383304  -0.161957   1.146939  -0.151411
    22  H    0.270217  -0.106627  -0.151411   1.008823
 Mulliken atomic charges:
              1
     1  H    0.039062
     2  C    0.426628
     3  H   -0.154083
     4  H    0.041035
     5  C    0.593899
     6  O   -0.833043
     7  N   -0.455866
     8  H   -0.079254
     9  C    0.058668
    10  H   -0.159429
    11  C    0.749179
    12  H    0.132822
    13  H   -0.098527
    14  H   -0.074014
    15  C    0.976181
    16  O   -0.901958
    17  N   -0.568604
    18  H   -0.089124
    19  C    0.738332
    20  H   -0.139613
    21  H   -0.120989
    22  H   -0.081303
 Sum of Mulliken atomic charges =   0.00000
 Mulliken charges with hydrogens summed into heavy atoms:
              1
     2  C    0.352643
     5  C    0.593899
     6  O   -0.833043
     7  N   -0.535120
     9  C   -0.100761
    11  C    0.709460
    15  C    0.976181
    16  O   -0.901958
    17  N   -0.657728
    19  C    0.396426
 Sum of Mulliken charges with hydrogens summed into heavy atoms =   0.00000
 Electronic spatial extent (au):  <R**2>=           1779.5895
 Charge=              0.0000 electrons
 Dipole moment (field-independent basis, Debye):
    X=             -0.2184    Y=              0.2639    Z=              0.0259  Tot=              0.3435
 Quadrupole moment (field-independent basis, Debye-Ang):
   XX=            -59.2444   YY=            -60.8365   ZZ=            -64.1458
   XY=              9.5606   XZ=             12.2614   YZ=             -4.9439
 Traceless Quadrupole moment (field-independent basis, Debye-Ang):
   XX=              2.1645   YY=              0.5724   ZZ=             -2.7369
   XY=              9.5606   XZ=             12.2614   YZ=             -4.9439
 Octapole moment (field-independent basis, Debye-Ang**2):
  XXX=             -1.6298  YYY=              1.1412  ZZZ=              0.2954  XYY=             -5.4527
  XXY=            -10.9649  XXZ=              6.5259  XZZ=              4.5928  YZZ=              0.7478
  YYZ=              2.2643  XYZ=             -1.8749
 Hexadecapole moment (field-independent basis, Debye-Ang**3):
 XXXX=          -1434.4738 YYYY=           -457.5753 ZZZZ=           -360.2934 XXXY=             23.4872
 XXXZ=             46.1286 YYYX=              4.8838 YYYZ=              0.9676 ZZZX=             22.1847
 ZZZY=             -2.6612 XXYY=           -329.3111 XXZZ=           -333.4545 YYZZ=           -132.4917
 XXYZ=            -21.4351 YYXZ=             11.3607 ZZXY=             20.3316
 N-N= 5.553795045662D+02 E-N=-2.265967598264D+03  KE= 4.920695876684D+02
 1\1\GINC-NODE002\SP\RMP2-FC\Aug-CC-pVDZ\C6H12N2O2\STEBOSS\12-Feb-2017\
 0\\#SP MP2/aug-cc-pVDZ\\Single Point calculation at MP2\\0,1\H,0,-4.05
 86,-0.7376,0.1475\C,0,-3.0888,-1.2398,0.2197\H,0,-2.9843,-1.9283,-0.62
 46\H,0,-3.0883,-1.8136,1.1513\C,0,-1.9986,-0.176,0.3012\O,0,-1.9825,0.
 6447,1.2118\N,0,-1.0816,-0.2264,-0.7133\H,0,-1.1132,-1.0255,-1.331\C,0
 ,0.0826,0.6456,-0.932\H,0,0.1753,0.7366,-2.0204\C,0,-0.0466,2.0591,-0.
 3617\H,0,-0.1682,2.0767,0.7212\H,0,0.8376,2.6378,-0.6508\H,0,-0.9292,2
 .5494,-0.7825\C,0,1.3386,-0.1687,-0.5403\O,0,1.7214,-1.0742,-1.2753\N,
 0,1.9297,0.1481,0.6425\H,0,1.4901,0.8454,1.2255\C,0,3.0449,-0.6091,1.1
 849\H,0,3.4294,-1.245,0.3865\H,0,3.8368,0.0652,1.5278\H,0,2.7319,-1.24
 37,2.0235\\Version=EM64L-G09RevA.02\State=1-A\HF=-492.9174828\MP2=-494
 .5186803\RMSD=7.382e-09\PG=C01 [X(C6H12N2O2)]\\@


 ROSE IS A RED
 TY COBB IS BLUE
 'CAUSE PETE JUST HIT
 NO. 4592.
 Job cpu time:  0 days  8 hours 51 minutes 50.6 seconds.
 File lengths (MBytes):  RWF=  10583 Int=      0 D2E=      0 Chk=      7 Scr=      2
 Normal termination of Gaussian 09 at Sun Feb 12 15:03:38 2017.
