 Entering Gaussian System, Link 0=g09
 Initial command:
 /home/steboss/Software/g09/l1.exe /home/steboss/projects/phi_psi_scan/alanine/MP2/60/5678/Gau-14230.inp -scrdir=/home/steboss/projects/phi_psi_scan/alanine/MP2/60/5678/
 Entering Link 1 = /home/steboss/Software/g09/l1.exe PID=     14233.
  
 Copyright (c) 1988,1990,1992,1993,1995,1998,2003,2009, Gaussian, Inc.
                  All Rights Reserved.
  
 This is part of the Gaussian(R) 09 program.  It is based on
 the Gaussian(R) 03 system (copyright 2003, Gaussian, Inc.),
 the Gaussian(R) 98 system (copyright 1998, Gaussian, Inc.),
 the Gaussian(R) 94 system (copyright 1995, Gaussian, Inc.),
 the Gaussian 92(TM) system (copyright 1992, Gaussian, Inc.),
 the Gaussian 90(TM) system (copyright 1990, Gaussian, Inc.),
 the Gaussian 88(TM) system (copyright 1988, Gaussian, Inc.),
 the Gaussian 86(TM) system (copyright 1986, Carnegie Mellon
 University), and the Gaussian 82(TM) system (copyright 1983,
 Carnegie Mellon University). Gaussian is a federally registered
 trademark of Gaussian, Inc.
  
 This software contains proprietary and confidential information,
 including trade secrets, belonging to Gaussian, Inc.
  
 This software is provided under written license and may be
 used, copied, transmitted, or stored only in accord with that
 written license.
  
 The following legend is applicable only to US Government
 contracts under FAR:
  
                    RESTRICTED RIGHTS LEGEND
  
 Use, reproduction and disclosure by the US Government is
 subject to restrictions as set forth in subparagraphs (a)
 and (c) of the Commercial Computer Software - Restricted
 Rights clause in FAR 52.227-19.
  
 Gaussian, Inc.
 340 Quinnipiac St., Bldg. 40, Wallingford CT 06492
  
  
 ---------------------------------------------------------------
 Warning -- This program may not be used in any manner that
 competes with the business of Gaussian, Inc. or will provide
 assistance to any competitor of Gaussian, Inc.  The licensee
 of this program is prohibited from giving any competitor of
 Gaussian, Inc. access to this program.  By using this program,
 the user acknowledges that Gaussian, Inc. is engaged in the
 business of creating and licensing software in the field of
 computational chemistry and represents and warrants to the
 licensee that it is not a competitor of Gaussian, Inc. and that
 it will not use this program in any manner prohibited above.
 ---------------------------------------------------------------
  

 Cite this work as:
 Gaussian 09, Revision A.02,
 M. J. Frisch, G. W. Trucks, H. B. Schlegel, G. E. Scuseria, 
 M. A. Robb, J. R. Cheeseman, G. Scalmani, V. Barone, B. Mennucci, 
 G. A. Petersson, H. Nakatsuji, M. Caricato, X. Li, H. P. Hratchian, 
 A. F. Izmaylov, J. Bloino, G. Zheng, J. L. Sonnenberg, M. Hada, 
 M. Ehara, K. Toyota, R. Fukuda, J. Hasegawa, M. Ishida, T. Nakajima, 
 Y. Honda, O. Kitao, H. Nakai, T. Vreven, J. A. Montgomery, Jr., 
 J. E. Peralta, F. Ogliaro, M. Bearpark, J. J. Heyd, E. Brothers, 
 K. N. Kudin, V. N. Staroverov, R. Kobayashi, J. Normand, 
 K. Raghavachari, A. Rendell, J. C. Burant, S. S. Iyengar, J. Tomasi, 
 M. Cossi, N. Rega, J. M. Millam, M. Klene, J. E. Knox, J. B. Cross, 
 V. Bakken, C. Adamo, J. Jaramillo, R. Gomperts, R. E. Stratmann, 
 O. Yazyev, A. J. Austin, R. Cammi, C. Pomelli, J. W. Ochterski, 
 R. L. Martin, K. Morokuma, V. G. Zakrzewski, G. A. Voth, 
 P. Salvador, J. J. Dannenberg, S. Dapprich, A. D. Daniels, 
 O. Farkas, J. B. Foresman, J. V. Ortiz, J. Cioslowski, 
 and D. J. Fox, Gaussian, Inc., Wallingford CT, 2009.
 
 ******************************************
 Gaussian 09:  EM64L-G09RevA.02 11-Jun-2009
                14-Feb-2017 
 ******************************************
 %chk=structure_345.chk
 %NProcShared=8
 Will use up to    8 processors via shared memory.
 -------------------
 #SP MP2/aug-cc-pVDZ
 -------------------
 1/38=1/1;
 2/12=2,17=6,18=5,40=1/2;
 3/5=16,7=10,11=9,16=1,25=1,30=1/1,2,3;
 4//1;
 5/5=2,38=5/2;
 8/10=1/1;
 9/16=-3/6;
 6/7=2,8=2,9=2,10=2/1;
 99/5=1,9=1/99;
 -------------------------------
 Single Point calculation at MP2
 -------------------------------
 Symbolic Z-matrix:
 Charge =  0 Multiplicity = 1
 H                    -3.9317   -0.4847    0.387 
 C                    -3.218    -0.7346   -0.4045 
 H                    -3.521    -0.2286   -1.3262 
 H                    -3.2679   -1.8167   -0.5571 
 C                    -1.8199   -0.3728    0.0739 
 O                    -1.3317   -0.9115    1.0704 
 N                    -1.1671    0.5631   -0.6647 
 H                    -1.6471    0.9068   -1.4839 
 C                     0.1312    1.202    -0.3805 
 H                     0.3425    1.8223   -1.2555 
 C                     0.0413    2.1156    0.8567 
 H                    -0.2125    1.5271    1.7432 
 H                     1.0059    2.6037    1.0166 
 H                    -0.7281    2.8815    0.7127 
 C                     1.3946    0.3125   -0.2595 
 O                     2.4843    0.8695   -0.3577 
 N                     1.2417   -1.0277   -0.1098 
 H                     0.3667   -1.3319    0.3122 
 C                     2.4177   -1.8641    0.0814 
 H                     3.179    -1.5846   -0.6494 
 H                     2.8525   -1.7491    1.0833 
 H                     2.1367   -2.9099   -0.0678 
 
                          Input orientation:                          
 ---------------------------------------------------------------------
 Center     Atomic      Atomic             Coordinates (Angstroms)
 Number     Number       Type             X           Y           Z
 ---------------------------------------------------------------------
      1          1           0       -3.931700   -0.484700    0.387000
      2          6           0       -3.218000   -0.734600   -0.404500
      3          1           0       -3.521000   -0.228600   -1.326200
      4          1           0       -3.267900   -1.816700   -0.557100
      5          6           0       -1.819900   -0.372800    0.073900
      6          8           0       -1.331700   -0.911500    1.070400
      7          7           0       -1.167100    0.563100   -0.664700
      8          1           0       -1.647100    0.906800   -1.483900
      9          6           0        0.131200    1.202000   -0.380500
     10          1           0        0.342500    1.822300   -1.255500
     11          6           0        0.041300    2.115600    0.856700
     12          1           0       -0.212500    1.527100    1.743200
     13          1           0        1.005900    2.603700    1.016600
     14          1           0       -0.728100    2.881500    0.712700
     15          6           0        1.394600    0.312500   -0.259500
     16          8           0        2.484300    0.869500   -0.357700
     17          7           0        1.241700   -1.027700   -0.109800
     18          1           0        0.366700   -1.331900    0.312200
     19          6           0        2.417700   -1.864100    0.081400
     20          1           0        3.179000   -1.584600   -0.649400
     21          1           0        2.852500   -1.749100    1.083300
     22          1           0        2.136700   -2.909900   -0.067800
 ---------------------------------------------------------------------
                    Distance matrix (angstroms):
                    1          2          3          4          5
     1  H    0.000000
     2  C    1.094664   0.000000
     3  H    1.780257   1.094247   0.000000
     4  H    1.762436   1.093946   1.782593   0.000000
     5  C    2.137815   1.521331   2.207898   2.140026   0.000000
     6  O    2.721983   2.400990   3.317089   2.686450   1.233511
     7  N    3.137988   2.440885   2.570062   3.176222   1.359260
     8  H    3.264343   2.515358   2.196703   3.302030   2.023358
     9  C    4.465554   3.868868   4.034790   4.549463   2.548189
    10  H    5.127264   4.465322   4.374680   5.173497   3.355852
    11  C    4.771468   4.509690   4.790648   5.330349   3.204524
    12  H    4.440616   4.331389   4.842507   5.080142   2.996651
    13  H    5.857858   5.568223   5.831248   6.346797   4.211102
    14  H    4.658373   4.530333   4.650820   5.489632   3.491498
    15  C    5.424294   4.732179   5.059028   5.134293   3.303604
    16  O    6.599507   5.923812   6.181217   6.351633   4.500636
    17  N    5.225488   4.479027   4.980111   4.599901   3.136245
    18  H    4.381733   3.704119   4.360715   3.768425   2.399558
    19  C    6.504692   5.768274   6.318572   5.721536   4.492359
    20  H    7.269523   6.457870   6.869264   6.451737   5.194288
    21  H    6.936059   6.331961   6.981340   6.336780   4.974376
    22  H    6.550871   5.789483   6.386119   5.535721   4.702301
                    6          7          8          9         10
     6  O    0.000000
     7  N    2.283005   0.000000
     8  H    3.151213   1.009762   0.000000
     9  C    2.951621   1.474634   2.113524   0.000000
    10  H    3.960608   2.052686   2.202002   1.093181   0.000000
    11  C    3.330785   2.486995   3.128946   1.540588   2.153633
    12  H    2.766232   2.763791   3.585669   2.175758   3.063881
    13  H    4.221836   3.422389   4.021241   2.163736   2.492614
    14  H    3.857348   2.732202   3.093389   2.180413   2.478286
    15  C    3.271012   2.605627   3.332310   1.549849   2.092469
    16  O    4.446716   3.677071   4.282311   2.376585   2.510215
    17  N    2.833507   2.939537   3.738396   2.505604   3.200576
    18  H    1.906873   2.626386   3.506158   2.637412   3.522392
    19  C    3.992940   4.393035   5.162427   3.852584   4.436587
    20  H    4.874135   4.847828   5.494971   4.138421   4.474378
    21  H    4.267232   4.955699   5.821574   4.272842   4.952271
    22  H    4.161598   4.830436   5.557849   4.585579   5.198413
                   11         12         13         14         15
    11  C    0.000000
    12  H    1.093905   0.000000
    13  H    1.092823   1.780874   0.000000
    14  H    1.095132   1.778250   1.782213   0.000000
    15  C    2.515650   2.840569   2.651248   3.471425   0.000000
    16  O    2.999297   3.481228   2.661168   3.938707   1.227737
    17  N    3.500774   3.474955   3.809389   4.454039   1.357175
    18  H    3.505370   3.249171   4.048914   4.371696   2.021749
    19  C    4.699615   4.602148   4.777972   5.728465   2.429101
    20  H    5.079860   5.187435   5.003976   6.088251   2.633457
    21  H    4.784360   4.534664   4.728768   5.865194   2.859856
    22  H    5.522776   5.337174   5.731877   6.508193   3.312299
                   16         17         18         19         20
    16  O    0.000000
    17  N    2.281420   0.000000
    18  H    3.127164   1.017962   0.000000
    19  C    2.769443   1.455712   2.131456   0.000000
    20  H    2.567159   2.086729   2.982878   1.091681   0.000000
    21  H    3.011498   2.130395   2.635878   1.098217   1.770851
    22  H    3.806407   2.084578   2.401538   1.093124   1.783555
                   21         22
    21  H    0.000000
    22  H    1.784617   0.000000
 Stoichiometry    C6H12N2O2
 Framework group  C1[X(C6H12N2O2)]
 Deg. of freedom    60
 Full point group                 C1      NOp   1
 Largest Abelian subgroup         C1      NOp   1
 Largest concise Abelian subgroup C1      NOp   1
                         Standard orientation:                         
 ---------------------------------------------------------------------
 Center     Atomic      Atomic             Coordinates (Angstroms)
 Number     Number       Type             X           Y           Z
 ---------------------------------------------------------------------
      1          1           0       -3.931689   -0.484717    0.386997
      2          6           0       -3.217987   -0.734612   -0.404503
      3          1           0       -3.520991   -0.228614   -1.326203
      4          1           0       -3.267880   -1.816712   -0.557103
      5          6           0       -1.819890   -0.372803    0.073897
      6          8           0       -1.331686   -0.911500    1.070397
      7          7           0       -1.167096    0.563101   -0.664703
      8          1           0       -1.647098    0.906798   -1.483903
      9          6           0        0.131200    1.202010   -0.380503
     10          1           0        0.342496    1.822311   -1.255503
     11          6           0        0.041294    2.115609    0.856697
     12          1           0       -0.212502    1.527108    1.743197
     13          1           0        1.005891    2.603716    1.016597
     14          1           0       -0.728111    2.881504    0.712697
     15          6           0        1.394606    0.312518   -0.259503
     16          8           0        2.484302    0.869525   -0.357703
     17          7           0        1.241714   -1.027683   -0.109803
     18          1           0        0.366716   -1.331889    0.312197
     19          6           0        2.417720   -1.864075    0.081397
     20          1           0        3.179018   -1.584570   -0.649403
     21          1           0        2.852519   -1.749072    1.083297
     22          1           0        2.136727   -2.909877   -0.067803
 ---------------------------------------------------------------------
 Rotational constants (GHZ):      1.9430629      0.9280794      0.7219959
 Standard basis: Aug-CC-pVDZ (5D, 7F)
 There are   338 symmetry adapted basis functions of A   symmetry.
 Integral buffers will be    131072 words long.
 Raffenetti 1 integral format.
 Two-electron integral symmetry is turned on.
   338 basis functions,   562 primitive gaussians,   358 cartesian basis functions
    39 alpha electrons       39 beta electrons
       nuclear repulsion energy       562.7262541211 Hartrees.
 NAtoms=   22 NActive=   22 NUniq=   22 SFac= 7.50D-01 NAtFMM=   80 NAOKFM=F Big=F
 One-electron integrals computed using PRISM.
 NBasis=   338 RedAO= T  NBF=   338
 NBsUse=   338 1.00D-06 NBFU=   338
 Harris functional with IExCor=  205 diagonalized for initial guess.
 ExpMin= 2.97D-02 ExpMax= 1.17D+04 ExpMxC= 4.01D+02 IAcc=3 IRadAn=         0 AccDes= 0.00D+00
 HarFok:  IExCor=  205 AccDes= 0.00D+00 IRadAn=         0 IDoV= 1
 ScaDFX=  1.000000  1.000000  1.000000  1.000000
 FoFCou: FMM=F IPFlag=           0 FMFlag=      100000 FMFlg1=           0
         NFxFlg=           0 DoJE=T BraDBF=F KetDBF=T FulRan=T
         Omega=  0.000000  0.000000  1.000000  0.000000  0.000000 ICntrl=     500 IOpCl=  0
         NMat0=    1 NMatS0=    1 NMatT0=    0 NMatD0=    1 NMtDS0=    0 NMtDT0=    0
         I1Cent=           4 NGrid=           0.
 Petite list used in FoFCou.
 Initial guess orbital symmetries:
       Occupied  (A) (A) (A) (A) (A) (A) (A) (A) (A) (A) (A) (A)
                 (A) (A) (A) (A) (A) (A) (A) (A) (A) (A) (A) (A)
                 (A) (A) (A) (A) (A) (A) (A) (A) (A) (A) (A) (A)
                 (A) (A) (A)
       Virtual   (A) (A) (A) (A) (A) (A) (A) (A) (A) (A) (A) (A)
                 (A) (A) (A) (A) (A) (A) (A) (A) (A) (A) (A) (A)
                 (A) (A) (A) (A) (A) (A) (A) (A) (A) (A) (A) (A)
                 (A) (A) (A) (A) (A) (A) (A) (A) (A) (A) (A) (A)
                 (A) (A) (A) (A) (A) (A) (A) (A) (A) (A) (A) (A)
                 (A) (A) (A) (A) (A) (A) (A) (A) (A) (A) (A) (A)
                 (A) (A) (A) (A) (A) (A) (A) (A) (A) (A) (A) (A)
                 (A) (A) (A) (A) (A) (A) (A) (A) (A) (A) (A) (A)
                 (A) (A) (A) (A) (A) (A) (A) (A) (A) (A) (A) (A)
                 (A) (A) (A) (A) (A) (A) (A) (A) (A) (A) (A) (A)
                 (A) (A) (A) (A) (A) (A) (A) (A) (A) (A) (A) (A)
                 (A) (A) (A) (A) (A) (A) (A) (A) (A) (A) (A) (A)
                 (A) (A) (A) (A) (A) (A) (A) (A) (A) (A) (A) (A)
                 (A) (A) (A) (A) (A) (A) (A) (A) (A) (A) (A) (A)
                 (A) (A) (A) (A) (A) (A) (A) (A) (A) (A) (A) (A)
                 (A) (A) (A) (A) (A) (A) (A) (A) (A) (A) (A) (A)
                 (A) (A) (A) (A) (A) (A) (A) (A) (A) (A) (A) (A)
                 (A) (A) (A) (A) (A) (A) (A) (A) (A) (A) (A) (A)
                 (A) (A) (A) (A) (A) (A) (A) (A) (A) (A) (A) (A)
                 (A) (A) (A) (A) (A) (A) (A) (A) (A) (A) (A) (A)
                 (A) (A) (A) (A) (A) (A) (A) (A) (A) (A) (A) (A)
                 (A) (A) (A) (A) (A) (A) (A) (A) (A) (A) (A) (A)
                 (A) (A) (A) (A) (A) (A) (A) (A) (A) (A) (A) (A)
                 (A) (A) (A) (A) (A) (A) (A) (A) (A) (A) (A) (A)
                 (A) (A) (A) (A) (A) (A) (A) (A) (A) (A) (A)
 The electronic state of the initial guess is 1-A.
 Requested convergence on RMS density matrix=1.00D-08 within 128 cycles.
 Requested convergence on MAX density matrix=1.00D-06.
 Requested convergence on             energy=1.00D-06.
 No special actions if energy rises.
 Initial convergence to 1.0D-05 achieved.  Increase integral accuracy.
 SCF Done:  E(RHF) =  -492.922046538     A.U. after   14 cycles
             Convg  =    0.6768D-08             -V/T =  2.0017
 ExpMin= 2.97D-02 ExpMax= 1.17D+04 ExpMxC= 4.01D+02 IAcc=3 IRadAn=         5 AccDes= 0.00D+00
 HarFok:  IExCor=  205 AccDes= 0.00D+00 IRadAn=         5 IDoV=-2
 ScaDFX=  1.000000  1.000000  1.000000  1.000000
 Range of M.O.s used for correlation:    11   338
 NBasis=   338 NAE=    39 NBE=    39 NFC=    10 NFV=     0
 NROrb=    328 NOA=    29 NOB=    29 NVA=   299 NVB=   299

 **** Warning!!: The largest alpha MO coefficient is  0.74309460D+02

 Disk-based method using OVN memory for 29 occupieds at a time.
 Estimated scratch disk usage=  1389844277 words.
 Actual    scratch disk usage=  1377156757 words.
 JobTyp=1 Pass  1:  I=   1 to  29 NPSUse=  8 ParTrn=T ParDer=T DoDerP=F.
 Spin components of T(2) and E(2):
     alpha-alpha T2 =       0.6814781606D-01 E2=     -0.2063317180D+00
     alpha-beta  T2 =       0.3768221445D+00 E2=     -0.1191194996D+01
     beta-beta   T2 =       0.6814781606D-01 E2=     -0.2063317180D+00
 ANorm=    0.1230088524D+01
 E2 =    -0.1603858432D+01 EUMP2 =    -0.49452590497062D+03

 **********************************************************************

            Population analysis using the SCF density.

 **********************************************************************

 Orbital symmetries:
       Occupied  (A) (A) (A) (A) (A) (A) (A) (A) (A) (A) (A) (A)
                 (A) (A) (A) (A) (A) (A) (A) (A) (A) (A) (A) (A)
                 (A) (A) (A) (A) (A) (A) (A) (A) (A) (A) (A) (A)
                 (A) (A) (A)
       Virtual   (A) (A) (A) (A) (A) (A) (A) (A) (A) (A) (A) (A)
                 (A) (A) (A) (A) (A) (A) (A) (A) (A) (A) (A) (A)
                 (A) (A) (A) (A) (A) (A) (A) (A) (A) (A) (A) (A)
                 (A) (A) (A) (A) (A) (A) (A) (A) (A) (A) (A) (A)
                 (A) (A) (A) (A) (A) (A) (A) (A) (A) (A) (A) (A)
                 (A) (A) (A) (A) (A) (A) (A) (A) (A) (A) (A) (A)
                 (A) (A) (A) (A) (A) (A) (A) (A) (A) (A) (A) (A)
                 (A) (A) (A) (A) (A) (A) (A) (A) (A) (A) (A) (A)
                 (A) (A) (A) (A) (A) (A) (A) (A) (A) (A) (A) (A)
                 (A) (A) (A) (A) (A) (A) (A) (A) (A) (A) (A) (A)
                 (A) (A) (A) (A) (A) (A) (A) (A) (A) (A) (A) (A)
                 (A) (A) (A) (A) (A) (A) (A) (A) (A) (A) (A) (A)
                 (A) (A) (A) (A) (A) (A) (A) (A) (A) (A) (A) (A)
                 (A) (A) (A) (A) (A) (A) (A) (A) (A) (A) (A) (A)
                 (A) (A) (A) (A) (A) (A) (A) (A) (A) (A) (A) (A)
                 (A) (A) (A) (A) (A) (A) (A) (A) (A) (A) (A) (A)
                 (A) (A) (A) (A) (A) (A) (A) (A) (A) (A) (A) (A)
                 (A) (A) (A) (A) (A) (A) (A) (A) (A) (A) (A) (A)
                 (A) (A) (A) (A) (A) (A) (A) (A) (A) (A) (A) (A)
                 (A) (A) (A) (A) (A) (A) (A) (A) (A) (A) (A) (A)
                 (A) (A) (A) (A) (A) (A) (A) (A) (A) (A) (A) (A)
                 (A) (A) (A) (A) (A) (A) (A) (A) (A) (A) (A) (A)
                 (A) (A) (A) (A) (A) (A) (A) (A) (A) (A) (A) (A)
                 (A) (A) (A) (A) (A) (A) (A) (A) (A) (A) (A) (A)
                 (A) (A) (A) (A) (A) (A) (A) (A) (A) (A) (A)
 The electronic state is 1-A.
 Alpha  occ. eigenvalues --  -20.54620 -20.52300 -15.61621 -15.57663 -11.38227
 Alpha  occ. eigenvalues --  -11.35264 -11.30089 -11.26120 -11.25608 -11.23220
 Alpha  occ. eigenvalues --   -1.40107  -1.37616  -1.25414  -1.21787  -1.06034
 Alpha  occ. eigenvalues --   -1.00160  -0.94714  -0.88427  -0.81287  -0.76723
 Alpha  occ. eigenvalues --   -0.72398  -0.70717  -0.65022  -0.63463  -0.62465
 Alpha  occ. eigenvalues --   -0.61248  -0.60362  -0.59231  -0.57922  -0.56169
 Alpha  occ. eigenvalues --   -0.54436  -0.54073  -0.52123  -0.51853  -0.49540
 Alpha  occ. eigenvalues --   -0.44082  -0.43551  -0.40043  -0.38071
 Alpha virt. eigenvalues --    0.02321   0.03906   0.04270   0.04539   0.05873
 Alpha virt. eigenvalues --    0.06298   0.06326   0.06740   0.07612   0.08095
 Alpha virt. eigenvalues --    0.09014   0.09755   0.10980   0.12061   0.12168
 Alpha virt. eigenvalues --    0.13245   0.13384   0.14162   0.15302   0.15464
 Alpha virt. eigenvalues --    0.15894   0.15937   0.16325   0.16796   0.17663
 Alpha virt. eigenvalues --    0.17864   0.18296   0.18679   0.18946   0.19344
 Alpha virt. eigenvalues --    0.19769   0.20380   0.20753   0.21104   0.22289
 Alpha virt. eigenvalues --    0.23439   0.24183   0.25133   0.26129   0.26485
 Alpha virt. eigenvalues --    0.27019   0.27719   0.29717   0.30371   0.30823
 Alpha virt. eigenvalues --    0.30960   0.31299   0.32313   0.33703   0.33869
 Alpha virt. eigenvalues --    0.34319   0.34565   0.35967   0.36616   0.36881
 Alpha virt. eigenvalues --    0.37631   0.38245   0.39564   0.40156   0.40735
 Alpha virt. eigenvalues --    0.40935   0.41839   0.42085   0.42554   0.43172
 Alpha virt. eigenvalues --    0.43966   0.44314   0.45247   0.45755   0.46313
 Alpha virt. eigenvalues --    0.46585   0.47228   0.47910   0.48343   0.48589
 Alpha virt. eigenvalues --    0.49569   0.50568   0.51333   0.52084   0.52652
 Alpha virt. eigenvalues --    0.53736   0.54043   0.54582   0.54769   0.55819
 Alpha virt. eigenvalues --    0.56584   0.57429   0.57954   0.58602   0.58719
 Alpha virt. eigenvalues --    0.59868   0.60638   0.61172   0.61518   0.62178
 Alpha virt. eigenvalues --    0.62976   0.63156   0.63348   0.64317   0.64983
 Alpha virt. eigenvalues --    0.65232   0.66021   0.66427   0.67651   0.68393
 Alpha virt. eigenvalues --    0.69145   0.70586   0.70909   0.71319   0.72243
 Alpha virt. eigenvalues --    0.72430   0.73492   0.73995   0.75014   0.75253
 Alpha virt. eigenvalues --    0.75825   0.77129   0.78165   0.78351   0.80510
 Alpha virt. eigenvalues --    0.80835   0.81858   0.82468   0.83564   0.84323
 Alpha virt. eigenvalues --    0.85137   0.85638   0.86337   0.87632   0.88471
 Alpha virt. eigenvalues --    0.90167   0.90606   0.92244   0.92921   0.94535
 Alpha virt. eigenvalues --    0.94687   0.96398   0.98180   0.98490   1.00202
 Alpha virt. eigenvalues --    1.01060   1.02594   1.02953   1.04347   1.05769
 Alpha virt. eigenvalues --    1.07014   1.08069   1.08599   1.09474   1.10795
 Alpha virt. eigenvalues --    1.12505   1.13849   1.15346   1.16928   1.17184
 Alpha virt. eigenvalues --    1.17608   1.19300   1.20473   1.20634   1.21611
 Alpha virt. eigenvalues --    1.22626   1.24254   1.26504   1.27957   1.31272
 Alpha virt. eigenvalues --    1.32332   1.35264   1.35456   1.38478   1.38877
 Alpha virt. eigenvalues --    1.39684   1.41143   1.42279   1.44943   1.46009
 Alpha virt. eigenvalues --    1.50022   1.51274   1.52241   1.53028   1.54476
 Alpha virt. eigenvalues --    1.55875   1.59780   1.60202   1.61540   1.63706
 Alpha virt. eigenvalues --    1.65544   1.66757   1.68589   1.69748   1.73759
 Alpha virt. eigenvalues --    1.75276   1.77266   1.78395   1.80086   1.83000
 Alpha virt. eigenvalues --    1.84348   1.85263   1.87157   1.87419   1.88388
 Alpha virt. eigenvalues --    1.91211   1.91839   1.92118   1.92863   1.94188
 Alpha virt. eigenvalues --    1.94413   1.95916   1.98120   2.01275   2.02090
 Alpha virt. eigenvalues --    2.03553   2.03918   2.05951   2.08536   2.09438
 Alpha virt. eigenvalues --    2.11809   2.13297   2.14109   2.16615   2.18201
 Alpha virt. eigenvalues --    2.18483   2.19504   2.20766   2.22867   2.23600
 Alpha virt. eigenvalues --    2.24190   2.26428   2.27613   2.29089   2.30847
 Alpha virt. eigenvalues --    2.31966   2.33167   2.34907   2.36569   2.38284
 Alpha virt. eigenvalues --    2.39602   2.40326   2.41814   2.42759   2.46310
 Alpha virt. eigenvalues --    2.47427   2.49120   2.49832   2.52011   2.53449
 Alpha virt. eigenvalues --    2.53853   2.55598   2.56121   2.59718   2.61707
 Alpha virt. eigenvalues --    2.62883   2.64994   2.66061   2.68128   2.69889
 Alpha virt. eigenvalues --    2.71634   2.73424   2.74445   2.78460   2.81193
 Alpha virt. eigenvalues --    2.84304   2.85147   2.85774   2.87563   2.88667
 Alpha virt. eigenvalues --    2.91507   2.92123   2.94041   2.95165   2.98928
 Alpha virt. eigenvalues --    3.00326   3.02722   3.05949   3.09524   3.12442
 Alpha virt. eigenvalues --    3.13276   3.16547   3.17220   3.20041   3.22868
 Alpha virt. eigenvalues --    3.30806   3.41746   3.44676   3.49317   3.55683
 Alpha virt. eigenvalues --    3.57768   3.63800   3.74815   3.84068   3.84779
 Alpha virt. eigenvalues --    3.87889   3.92681   3.95413   3.96409   3.99123
 Alpha virt. eigenvalues --    4.04998   4.15460   4.22798   4.24674
          Condensed to atoms (all electrons):
              1          2          3          4          5          6
     1  H    0.726046   0.378565  -0.079890  -0.041893  -0.102814   0.011939
     2  C    0.378565   4.610651   0.389887   0.327413   0.111733  -0.041580
     3  H   -0.079890   0.389887   1.071198  -0.073526   0.073077  -0.010601
     4  H   -0.041893   0.327413  -0.073526   0.718546  -0.048197   0.019596
     5  C   -0.102814   0.111733   0.073077  -0.048197   5.593227   0.150409
     6  O    0.011939  -0.041580  -0.010601   0.019596   0.150409   8.821619
     7  N    0.043713  -0.041637  -0.197804   0.056941   0.030281  -0.066393
     8  H   -0.003910  -0.077753   0.004845  -0.001312  -0.086931  -0.007933
     9  C    0.024195  -0.031244  -0.028556  -0.005000  -0.235121  -0.064512
    10  H    0.000155  -0.004731   0.001736  -0.001422  -0.032377   0.009244
    11  C   -0.002432  -0.029607  -0.007989   0.001063  -0.049022   0.025249
    12  H   -0.000801  -0.003569   0.001972  -0.001405  -0.029789   0.027912
    13  H    0.000625   0.004976  -0.000526   0.000076  -0.013402   0.004915
    14  H   -0.000214   0.003229  -0.000169   0.000637   0.050456  -0.010284
    15  C    0.000612   0.018375  -0.007047   0.000011  -0.082290   0.046444
    16  O   -0.000064  -0.000355   0.000340   0.000009   0.000798  -0.002152
    17  N   -0.003018  -0.020987   0.001874   0.002736   0.028370  -0.054264
    18  H   -0.004632  -0.004139  -0.000758   0.003763   0.000706   0.043341
    19  C    0.000307   0.000105   0.000263  -0.000769   0.031679  -0.004640
    20  H    0.000021   0.000543  -0.000111   0.000200  -0.001862   0.000343
    21  H   -0.000001  -0.000422   0.000013  -0.000068  -0.005189  -0.000537
    22  H    0.000193   0.000812   0.000054  -0.000493   0.017861  -0.000344
              7          8          9         10         11         12
     1  H    0.043713  -0.003910   0.024195   0.000155  -0.002432  -0.000801
     2  C   -0.041637  -0.077753  -0.031244  -0.004731  -0.029607  -0.003569
     3  H   -0.197804   0.004845  -0.028556   0.001736  -0.007989   0.001972
     4  H    0.056941  -0.001312  -0.005000  -0.001422   0.001063  -0.001405
     5  C    0.030281  -0.086931  -0.235121  -0.032377  -0.049022  -0.029789
     6  O   -0.066393  -0.007933  -0.064512   0.009244   0.025249   0.027912
     7  N    7.562171   0.295823  -0.217304  -0.218385   0.038786  -0.096509
     8  H    0.295823   0.984699   0.062081  -0.024534  -0.005275  -0.008392
     9  C   -0.217304   0.062081   6.877444   0.022496   0.182459  -0.015234
    10  H   -0.218385  -0.024534   0.022496   1.285221   0.031479   0.076706
    11  C    0.038786  -0.005275   0.182459   0.031479   4.184631   0.361472
    12  H   -0.096509  -0.008392  -0.015234   0.076706   0.361472   1.025196
    13  H    0.087293  -0.003584  -0.073125  -0.037566   0.362775  -0.151827
    14  H   -0.071130   0.010569   0.080346  -0.049195   0.185157  -0.169358
    15  C   -0.008987  -0.034318  -0.069544  -0.086554  -0.074110  -0.017753
    16  O    0.006028  -0.000105  -0.100761   0.029555   0.030549   0.004105
    17  N   -0.063746   0.019791  -0.093495   0.056139   0.053935   0.027466
    18  H    0.024683   0.000376   0.091557  -0.001970  -0.026698  -0.002160
    19  C   -0.032188   0.004076  -0.062395   0.005957   0.005633   0.010560
    20  H   -0.000617   0.000314  -0.004481   0.000685  -0.005942   0.000691
    21  H   -0.003736  -0.000206   0.057274   0.003053  -0.010836   0.000332
    22  H   -0.001230   0.000197  -0.040549  -0.002874   0.006151  -0.000228
             13         14         15         16         17         18
     1  H    0.000625  -0.000214   0.000612  -0.000064  -0.003018  -0.004632
     2  C    0.004976   0.003229   0.018375  -0.000355  -0.020987  -0.004139
     3  H   -0.000526  -0.000169  -0.007047   0.000340   0.001874  -0.000758
     4  H    0.000076   0.000637   0.000011   0.000009   0.002736   0.003763
     5  C   -0.013402   0.050456  -0.082290   0.000798   0.028370   0.000706
     6  O    0.004915  -0.010284   0.046444  -0.002152  -0.054264   0.043341
     7  N    0.087293  -0.071130  -0.008987   0.006028  -0.063746   0.024683
     8  H   -0.003584   0.010569  -0.034318  -0.000105   0.019791   0.000376
     9  C   -0.073125   0.080346  -0.069544  -0.100761  -0.093495   0.091557
    10  H   -0.037566  -0.049195  -0.086554   0.029555   0.056139  -0.001970
    11  C    0.362775   0.185157  -0.074110   0.030549   0.053935  -0.026698
    12  H   -0.151827  -0.169358  -0.017753   0.004105   0.027466  -0.002160
    13  H    1.102459  -0.190019  -0.021280   0.014761  -0.028453   0.001076
    14  H   -0.190019   1.189176   0.044174  -0.004496  -0.001353  -0.004157
    15  C   -0.021280   0.044174   5.124056   0.218647   0.145659  -0.078112
    16  O    0.014761  -0.004496   0.218647   8.801122  -0.126040   0.009780
    17  N   -0.028453  -0.001353   0.145659  -0.126040   7.189539   0.196225
    18  H    0.001076  -0.004157  -0.078112   0.009780   0.196225   0.975748
    19  C   -0.012239   0.003341  -0.120094   0.017662   0.192484  -0.171387
    20  H   -0.000153  -0.000461   0.063977  -0.015197  -0.098439   0.011519
    21  H   -0.003171   0.000287  -0.034352   0.003761   0.150726  -0.019645
    22  H    0.000514   0.000661  -0.029631   0.009102  -0.123694  -0.006072
             19         20         21         22
     1  H    0.000307   0.000021  -0.000001   0.000193
     2  C    0.000105   0.000543  -0.000422   0.000812
     3  H    0.000263  -0.000111   0.000013   0.000054
     4  H   -0.000769   0.000200  -0.000068  -0.000493
     5  C    0.031679  -0.001862  -0.005189   0.017861
     6  O   -0.004640   0.000343  -0.000537  -0.000344
     7  N   -0.032188  -0.000617  -0.003736  -0.001230
     8  H    0.004076   0.000314  -0.000206   0.000197
     9  C   -0.062395  -0.004481   0.057274  -0.040549
    10  H    0.005957   0.000685   0.003053  -0.002874
    11  C    0.005633  -0.005942  -0.010836   0.006151
    12  H    0.010560   0.000691   0.000332  -0.000228
    13  H   -0.012239  -0.000153  -0.003171   0.000514
    14  H    0.003341  -0.000461   0.000287   0.000661
    15  C   -0.120094   0.063977  -0.034352  -0.029631
    16  O    0.017662  -0.015197   0.003761   0.009102
    17  N    0.192484  -0.098439   0.150726  -0.123694
    18  H   -0.171387   0.011519  -0.019645  -0.006072
    19  C    4.227937   0.448069   0.223062   0.469897
    20  H    0.448069   1.042760  -0.101283  -0.217573
    21  H    0.223062  -0.101283   0.962796  -0.171358
    22  H    0.469897  -0.217573  -0.171358   1.278748
 Mulliken atomic charges:
              1
     1  H    0.053296
     2  C    0.409734
     3  H   -0.138284
     4  H    0.043091
     5  C    0.598399
     6  O   -0.897771
     7  N   -0.126053
     8  H   -0.128519
     9  C   -0.356530
    10  H   -0.062816
    11  C    0.742571
    12  H   -0.039387
    13  H   -0.044127
    14  H   -0.067199
    15  C    1.002114
    16  O   -0.897049
    17  N   -0.451457
    18  H   -0.039045
    19  C    0.762680
    20  H   -0.123004
    21  H   -0.050500
    22  H   -0.190143
 Sum of Mulliken atomic charges =   0.00000
 Mulliken charges with hydrogens summed into heavy atoms:
              1
     2  C    0.367837
     5  C    0.598399
     6  O   -0.897771
     7  N   -0.254571
     9  C   -0.419346
    11  C    0.591858
    15  C    1.002114
    16  O   -0.897049
    17  N   -0.490502
    19  C    0.399032
 Sum of Mulliken charges with hydrogens summed into heavy atoms =   0.00000
 Electronic spatial extent (au):  <R**2>=           1690.9752
 Charge=              0.0000 electrons
 Dipole moment (field-independent basis, Debye):
    X=             -4.5916    Y=             -0.0358    Z=             -2.2131  Tot=              5.0973
 Quadrupole moment (field-independent basis, Debye-Ang):
   XX=            -62.8655   YY=            -58.7333   ZZ=            -61.9346
   XY=             -7.6994   XZ=              7.3549   YZ=              0.8394
 Traceless Quadrupole moment (field-independent basis, Debye-Ang):
   XX=             -1.6877   YY=              2.4445   ZZ=             -0.7568
   XY=             -7.6994   XZ=              7.3549   YZ=              0.8394
 Octapole moment (field-independent basis, Debye-Ang**2):
  XXX=            -52.6694  YYY=             -5.1148  ZZZ=             -6.8792  XYY=              0.1029
  XXY=            -21.5067  XXZ=             -2.8584  XZZ=              0.0576  YZZ=              7.4152
  YYZ=             -3.3344  XYZ=             -0.3186
 Hexadecapole moment (field-independent basis, Debye-Ang**3):
 XXXX=          -1358.9110 YYYY=           -629.1469 ZZZZ=           -202.0524 XXXY=            -35.5783
 XXXZ=             17.3671 YYYX=             -4.7156 YYYZ=             -4.1128 ZZZX=             11.4095
 ZZZY=            -10.7454 XXYY=           -335.3660 XXZZ=           -256.9459 YYZZ=           -144.8916
 XXYZ=              7.3207 YYXZ=             11.0732 ZZXY=             -8.6362
 N-N= 5.627262541211D+02 E-N=-2.280686190828D+03  KE= 4.920650326592D+02
 1\1\GINC-NODE011\SP\RMP2-FC\Aug-CC-pVDZ\C6H12N2O2\MANAGER\14-Feb-2017\
 0\\#SP MP2/aug-cc-pVDZ\\Single Point calculation at MP2\\0,1\H,0,-3.93
 17,-0.4847,0.387\C,0,-3.218,-0.7346,-0.4045\H,0,-3.521,-0.2286,-1.3262
 \H,0,-3.2679,-1.8167,-0.5571\C,0,-1.8199,-0.3728,0.0739\O,0,-1.3317,-0
 .9115,1.0704\N,0,-1.1671,0.5631,-0.6647\H,0,-1.6471,0.9068,-1.4839\C,0
 ,0.1312,1.202,-0.3805\H,0,0.3425,1.8223,-1.2555\C,0,0.0413,2.1156,0.85
 67\H,0,-0.2125,1.5271,1.7432\H,0,1.0059,2.6037,1.0166\H,0,-0.7281,2.88
 15,0.7127\C,0,1.3946,0.3125,-0.2595\O,0,2.4843,0.8695,-0.3577\N,0,1.24
 17,-1.0277,-0.1098\H,0,0.3667,-1.3319,0.3122\C,0,2.4177,-1.8641,0.0814
 \H,0,3.179,-1.5846,-0.6494\H,0,2.8525,-1.7491,1.0833\H,0,2.1367,-2.909
 9,-0.0678\\Version=EM64L-G09RevA.02\State=1-A\HF=-492.9220465\MP2=-494
 .525905\RMSD=6.768e-09\PG=C01 [X(C6H12N2O2)]\\@


 MEMORIES ARE LIKE AN ENGLISH GRAMMER LESSON -
 PRESENT TENSE, AND PAST PERFECT.
 Job cpu time:  0 days 11 hours 59 minutes 59.1 seconds.
 File lengths (MBytes):  RWF=  10623 Int=      0 D2E=      0 Chk=      7 Scr=      2
 Normal termination of Gaussian 09 at Tue Feb 14 02:09:25 2017.
