 Entering Gaussian System, Link 0=g09
 Initial command:
 /home/steboss/Software/g09/l1.exe /home/steboss/projects/phi_psi_scan/alanine/MP2/345/5615/Gau-4821.inp -scrdir=/home/steboss/projects/phi_psi_scan/alanine/MP2/345/5615/
 Entering Link 1 = /home/steboss/Software/g09/l1.exe PID=      4823.
  
 Copyright (c) 1988,1990,1992,1993,1995,1998,2003,2009, Gaussian, Inc.
                  All Rights Reserved.
  
 This is part of the Gaussian(R) 09 program.  It is based on
 the Gaussian(R) 03 system (copyright 2003, Gaussian, Inc.),
 the Gaussian(R) 98 system (copyright 1998, Gaussian, Inc.),
 the Gaussian(R) 94 system (copyright 1995, Gaussian, Inc.),
 the Gaussian 92(TM) system (copyright 1992, Gaussian, Inc.),
 the Gaussian 90(TM) system (copyright 1990, Gaussian, Inc.),
 the Gaussian 88(TM) system (copyright 1988, Gaussian, Inc.),
 the Gaussian 86(TM) system (copyright 1986, Carnegie Mellon
 University), and the Gaussian 82(TM) system (copyright 1983,
 Carnegie Mellon University). Gaussian is a federally registered
 trademark of Gaussian, Inc.
  
 This software contains proprietary and confidential information,
 including trade secrets, belonging to Gaussian, Inc.
  
 This software is provided under written license and may be
 used, copied, transmitted, or stored only in accord with that
 written license.
  
 The following legend is applicable only to US Government
 contracts under FAR:
  
                    RESTRICTED RIGHTS LEGEND
  
 Use, reproduction and disclosure by the US Government is
 subject to restrictions as set forth in subparagraphs (a)
 and (c) of the Commercial Computer Software - Restricted
 Rights clause in FAR 52.227-19.
  
 Gaussian, Inc.
 340 Quinnipiac St., Bldg. 40, Wallingford CT 06492
  
  
 ---------------------------------------------------------------
 Warning -- This program may not be used in any manner that
 competes with the business of Gaussian, Inc. or will provide
 assistance to any competitor of Gaussian, Inc.  The licensee
 of this program is prohibited from giving any competitor of
 Gaussian, Inc. access to this program.  By using this program,
 the user acknowledges that Gaussian, Inc. is engaged in the
 business of creating and licensing software in the field of
 computational chemistry and represents and warrants to the
 licensee that it is not a competitor of Gaussian, Inc. and that
 it will not use this program in any manner prohibited above.
 ---------------------------------------------------------------
  

 Cite this work as:
 Gaussian 09, Revision A.02,
 M. J. Frisch, G. W. Trucks, H. B. Schlegel, G. E. Scuseria, 
 M. A. Robb, J. R. Cheeseman, G. Scalmani, V. Barone, B. Mennucci, 
 G. A. Petersson, H. Nakatsuji, M. Caricato, X. Li, H. P. Hratchian, 
 A. F. Izmaylov, J. Bloino, G. Zheng, J. L. Sonnenberg, M. Hada, 
 M. Ehara, K. Toyota, R. Fukuda, J. Hasegawa, M. Ishida, T. Nakajima, 
 Y. Honda, O. Kitao, H. Nakai, T. Vreven, J. A. Montgomery, Jr., 
 J. E. Peralta, F. Ogliaro, M. Bearpark, J. J. Heyd, E. Brothers, 
 K. N. Kudin, V. N. Staroverov, R. Kobayashi, J. Normand, 
 K. Raghavachari, A. Rendell, J. C. Burant, S. S. Iyengar, J. Tomasi, 
 M. Cossi, N. Rega, J. M. Millam, M. Klene, J. E. Knox, J. B. Cross, 
 V. Bakken, C. Adamo, J. Jaramillo, R. Gomperts, R. E. Stratmann, 
 O. Yazyev, A. J. Austin, R. Cammi, C. Pomelli, J. W. Ochterski, 
 R. L. Martin, K. Morokuma, V. G. Zakrzewski, G. A. Voth, 
 P. Salvador, J. J. Dannenberg, S. Dapprich, A. D. Daniels, 
 O. Farkas, J. B. Foresman, J. V. Ortiz, J. Cioslowski, 
 and D. J. Fox, Gaussian, Inc., Wallingford CT, 2009.
 
 ******************************************
 Gaussian 09:  EM64L-G09RevA.02 11-Jun-2009
                13-Feb-2017 
 ******************************************
 %chk=structure_150.chk
 %NProcShared=8
 Will use up to    8 processors via shared memory.
 -------------------
 #SP MP2/aug-cc-pVDZ
 -------------------
 1/38=1/1;
 2/12=2,17=6,18=5,40=1/2;
 3/5=16,7=10,11=9,16=1,25=1,30=1/1,2,3;
 4//1;
 5/5=2,38=5/2;
 8/10=1/1;
 9/16=-3/6;
 6/7=2,8=2,9=2,10=2/1;
 99/5=1,9=1/99;
 -------------------------------
 Single Point calculation at MP2
 -------------------------------
 Symbolic Z-matrix:
 Charge =  0 Multiplicity = 1
 H                    -3.0241   -0.5692    1.529 
 C                    -3.1889   -0.5897    0.4448 
 H                    -3.8401    0.2516    0.1816 
 H                    -3.6845   -1.5275    0.1887 
 C                    -1.8436   -0.5334   -0.262 
 O                    -1.2659   -1.5284   -0.6637 
 N                    -1.3547    0.7496   -0.4786 
 H                    -1.9031    1.4657   -0.0158 
 C                     0.0753    1.0721   -0.4865 
 H                     0.3937    1.2453   -1.5254 
 C                     0.3112    2.3603    0.3154 
 H                     0.0649    2.1932    1.3692 
 H                     1.3594    2.6658    0.2493 
 H                    -0.3075    3.1774   -0.0744 
 C                     0.9613   -0.0391    0.1208 
 O                     0.6597   -0.612     1.1569 
 N                     2.218    -0.0963   -0.4232 
 H                     2.3284    0.2253   -1.3758 
 C                     3.1976   -1.0531    0.0701 
 H                     3.0533   -1.1591    1.1461 
 H                     3.0823   -2.0422   -0.3919 
 H                     4.2059   -0.6788   -0.1293 
 
                          Input orientation:                          
 ---------------------------------------------------------------------
 Center     Atomic      Atomic             Coordinates (Angstroms)
 Number     Number       Type             X           Y           Z
 ---------------------------------------------------------------------
      1          1           0       -3.024100   -0.569200    1.529000
      2          6           0       -3.188900   -0.589700    0.444800
      3          1           0       -3.840100    0.251600    0.181600
      4          1           0       -3.684500   -1.527500    0.188700
      5          6           0       -1.843600   -0.533400   -0.262000
      6          8           0       -1.265900   -1.528400   -0.663700
      7          7           0       -1.354700    0.749600   -0.478600
      8          1           0       -1.903100    1.465700   -0.015800
      9          6           0        0.075300    1.072100   -0.486500
     10          1           0        0.393700    1.245300   -1.525400
     11          6           0        0.311200    2.360300    0.315400
     12          1           0        0.064900    2.193200    1.369200
     13          1           0        1.359400    2.665800    0.249300
     14          1           0       -0.307500    3.177400   -0.074400
     15          6           0        0.961300   -0.039100    0.120800
     16          8           0        0.659700   -0.612000    1.156900
     17          7           0        2.218000   -0.096300   -0.423200
     18          1           0        2.328400    0.225300   -1.375800
     19          6           0        3.197600   -1.053100    0.070100
     20          1           0        3.053300   -1.159100    1.146100
     21          1           0        3.082300   -2.042200   -0.391900
     22          1           0        4.205900   -0.678800   -0.129300
 ---------------------------------------------------------------------
                    Distance matrix (angstroms):
                    1          2          3          4          5
     1  H    0.000000
     2  C    1.096845   0.000000
     3  H    1.776248   1.095957   0.000000
     4  H    1.775069   1.091181   1.785906   0.000000
     5  C    2.145354   1.520713   2.190666   2.140158   0.000000
     6  O    2.969725   2.409950   3.241826   2.564413   1.218657
     7  N    2.925165   2.451669   2.619367   3.325424   1.389974
     8  H    2.789958   2.467813   2.294553   3.489191   2.015082
     9  C    4.045045   3.779405   4.055852   4.620596   2.512013
    10  H    4.929820   4.481510   4.671868   5.220946   3.124974
    11  C    4.602067   4.579295   4.658091   5.576438   3.653773
    12  H    4.147085   4.380213   4.519870   5.412503   3.706418
    13  H    5.596242   5.596743   5.733040   6.559601   4.555822
    14  H    4.897736   4.771067   4.594029   5.797364   4.020551
    15  C    4.259982   4.199083   4.810576   4.878873   2.873731
    16  O    3.702793   3.913988   4.684572   4.543966   2.878535
    17  N    5.613763   5.498312   6.098147   6.104282   4.088231
    18  H    6.141527   5.866806   6.362121   6.455613   4.384263
    19  C    6.408752   6.414244   7.158484   6.899451   5.078787
    20  H    6.117956   6.307226   7.102063   6.815444   5.133603
    21  H    6.568691   6.491361   7.315056   6.811138   5.153430
    22  H    7.418549   7.417587   8.105579   7.942281   6.052702
                    6          7          8          9         10
     6  O    0.000000
     7  N    2.287232   0.000000
     8  H    3.128967   1.013768   0.000000
     9  C    2.931351   1.465936   2.071363   0.000000
    10  H    3.345177   2.097239   2.757310   1.100314   0.000000
    11  C    4.309045   2.449492   2.411043   1.535627   2.153735
    12  H    4.444549   2.741096   2.514062   2.168086   3.063549
    13  H    5.031608   3.401176   3.486320   2.174901   2.469809
    14  H    4.838425   2.674737   2.340788   2.179140   2.515968
    15  C    2.791751   2.518965   3.238498   1.545501   2.163753
    16  O    2.803981   2.930294   3.501429   2.424558   3.273385
    17  N    3.774428   3.671893   4.425978   2.441378   2.518493
    18  H    4.062209   3.826890   4.614519   2.566006   2.192224
    19  C    4.548319   4.926889   5.689365   3.817727   3.961075
    20  H    4.697579   5.070823   5.727607   4.063511   4.471188
    21  H    4.386879   5.242960   6.107457   4.330111   4.395571
    22  H    5.563093   5.751748   6.475465   4.500567   4.492675
                   11         12         13         14         15
    11  C    0.000000
    12  H    1.095025   0.000000
    13  H    1.093811   1.775741   0.000000
    14  H    1.096534   1.786424   1.773435   0.000000
    15  C    2.493515   2.710203   2.737057   3.463211   0.000000
    16  O    3.108720   2.875414   3.472361   4.100138   1.221753
    17  N    3.196295   3.618059   2.969621   4.149328   1.370585
    18  H    3.389318   4.065844   3.088034   4.166114   2.044182
    19  C    4.476916   4.694671   4.152266   5.495793   2.455973
    20  H    4.538210   4.496468   4.278248   5.620483   2.584977
    21  H    5.249883   5.490427   5.054185   6.231836   2.962079
    22  H    4.960098   5.257544   4.408203   5.936672   3.316503
                   16         17         18         19         20
    16  O    0.000000
    17  N    2.278368   0.000000
    18  H    3.146458   1.011465   0.000000
    19  C    2.795825   1.455482   2.116705   0.000000
    20  H    2.455353   2.071225   2.966820   1.090795   0.000000
    21  H    3.211424   2.129441   2.584179   1.097751   1.773739
    22  H    3.772838   2.092231   2.428202   1.093860   1.784887
                   21         22
    21  H    0.000000
    22  H    1.786140   0.000000
 Stoichiometry    C6H12N2O2
 Framework group  C1[X(C6H12N2O2)]
 Deg. of freedom    60
 Full point group                 C1      NOp   1
 Largest Abelian subgroup         C1      NOp   1
 Largest concise Abelian subgroup C1      NOp   1
                         Standard orientation:                         
 ---------------------------------------------------------------------
 Center     Atomic      Atomic             Coordinates (Angstroms)
 Number     Number       Type             X           Y           Z
 ---------------------------------------------------------------------
      1          1           0       -3.024091   -0.569216    1.529001
      2          6           0       -3.188891   -0.589717    0.444801
      3          1           0       -3.840095    0.251580    0.181601
      4          1           0       -3.684486   -1.527519    0.188701
      5          6           0       -1.843591   -0.533410   -0.261999
      6          8           0       -1.265886   -1.528407   -0.663699
      7          7           0       -1.354697    0.749593   -0.478599
      8          1           0       -1.903101    1.465690   -0.015799
      9          6           0        0.075301    1.072100   -0.486499
     10          1           0        0.393700    1.245302   -1.525399
     11          6           0        0.311194    2.360302    0.315401
     12          1           0        0.064895    2.193200    1.369201
     13          1           0        1.359393    2.665807    0.249301
     14          1           0       -0.307510    3.177398   -0.074399
     15          6           0        0.961307   -0.039095    0.120801
     16          8           0        0.659710   -0.611997    1.156901
     17          7           0        2.218007   -0.096288   -0.423199
     18          1           0        2.328405    0.225312   -1.375799
     19          6           0        3.197612   -1.053083    0.070101
     20          1           0        3.053312   -1.159084    1.146101
     21          1           0        3.082317   -2.042184   -0.391899
     22          1           0        4.205910   -0.678778   -0.129299
 ---------------------------------------------------------------------
 Rotational constants (GHZ):      2.1145275      0.8982588      0.7236691
 Standard basis: Aug-CC-pVDZ (5D, 7F)
 There are   338 symmetry adapted basis functions of A   symmetry.
 Integral buffers will be    131072 words long.
 Raffenetti 1 integral format.
 Two-electron integral symmetry is turned on.
   338 basis functions,   562 primitive gaussians,   358 cartesian basis functions
    39 alpha electrons       39 beta electrons
       nuclear repulsion energy       563.9578337694 Hartrees.
 NAtoms=   22 NActive=   22 NUniq=   22 SFac= 7.50D-01 NAtFMM=   80 NAOKFM=F Big=F
 One-electron integrals computed using PRISM.
 NBasis=   338 RedAO= T  NBF=   338
 NBsUse=   338 1.00D-06 NBFU=   338
 Harris functional with IExCor=  205 diagonalized for initial guess.
 ExpMin= 2.97D-02 ExpMax= 1.17D+04 ExpMxC= 4.01D+02 IAcc=3 IRadAn=         0 AccDes= 0.00D+00
 HarFok:  IExCor=  205 AccDes= 0.00D+00 IRadAn=         0 IDoV= 1
 ScaDFX=  1.000000  1.000000  1.000000  1.000000
 FoFCou: FMM=F IPFlag=           0 FMFlag=      100000 FMFlg1=           0
         NFxFlg=           0 DoJE=T BraDBF=F KetDBF=T FulRan=T
         Omega=  0.000000  0.000000  1.000000  0.000000  0.000000 ICntrl=     500 IOpCl=  0
         NMat0=    1 NMatS0=    1 NMatT0=    0 NMatD0=    1 NMtDS0=    0 NMtDT0=    0
         I1Cent=           4 NGrid=           0.
 Petite list used in FoFCou.
 Initial guess orbital symmetries:
       Occupied  (A) (A) (A) (A) (A) (A) (A) (A) (A) (A) (A) (A)
                 (A) (A) (A) (A) (A) (A) (A) (A) (A) (A) (A) (A)
                 (A) (A) (A) (A) (A) (A) (A) (A) (A) (A) (A) (A)
                 (A) (A) (A)
       Virtual   (A) (A) (A) (A) (A) (A) (A) (A) (A) (A) (A) (A)
                 (A) (A) (A) (A) (A) (A) (A) (A) (A) (A) (A) (A)
                 (A) (A) (A) (A) (A) (A) (A) (A) (A) (A) (A) (A)
                 (A) (A) (A) (A) (A) (A) (A) (A) (A) (A) (A) (A)
                 (A) (A) (A) (A) (A) (A) (A) (A) (A) (A) (A) (A)
                 (A) (A) (A) (A) (A) (A) (A) (A) (A) (A) (A) (A)
                 (A) (A) (A) (A) (A) (A) (A) (A) (A) (A) (A) (A)
                 (A) (A) (A) (A) (A) (A) (A) (A) (A) (A) (A) (A)
                 (A) (A) (A) (A) (A) (A) (A) (A) (A) (A) (A) (A)
                 (A) (A) (A) (A) (A) (A) (A) (A) (A) (A) (A) (A)
                 (A) (A) (A) (A) (A) (A) (A) (A) (A) (A) (A) (A)
                 (A) (A) (A) (A) (A) (A) (A) (A) (A) (A) (A) (A)
                 (A) (A) (A) (A) (A) (A) (A) (A) (A) (A) (A) (A)
                 (A) (A) (A) (A) (A) (A) (A) (A) (A) (A) (A) (A)
                 (A) (A) (A) (A) (A) (A) (A) (A) (A) (A) (A) (A)
                 (A) (A) (A) (A) (A) (A) (A) (A) (A) (A) (A) (A)
                 (A) (A) (A) (A) (A) (A) (A) (A) (A) (A) (A) (A)
                 (A) (A) (A) (A) (A) (A) (A) (A) (A) (A) (A) (A)
                 (A) (A) (A) (A) (A) (A) (A) (A) (A) (A) (A) (A)
                 (A) (A) (A) (A) (A) (A) (A) (A) (A) (A) (A) (A)
                 (A) (A) (A) (A) (A) (A) (A) (A) (A) (A) (A) (A)
                 (A) (A) (A) (A) (A) (A) (A) (A) (A) (A) (A) (A)
                 (A) (A) (A) (A) (A) (A) (A) (A) (A) (A) (A) (A)
                 (A) (A) (A) (A) (A) (A) (A) (A) (A) (A) (A) (A)
                 (A) (A) (A) (A) (A) (A) (A) (A) (A) (A) (A)
 The electronic state of the initial guess is 1-A.
 Requested convergence on RMS density matrix=1.00D-08 within 128 cycles.
 Requested convergence on MAX density matrix=1.00D-06.
 Requested convergence on             energy=1.00D-06.
 No special actions if energy rises.
 Initial convergence to 1.0D-05 achieved.  Increase integral accuracy.
 SCF Done:  E(RHF) =  -492.910891887     A.U. after   15 cycles
             Convg  =    0.4389D-08             -V/T =  2.0018
 ExpMin= 2.97D-02 ExpMax= 1.17D+04 ExpMxC= 4.01D+02 IAcc=3 IRadAn=         5 AccDes= 0.00D+00
 HarFok:  IExCor=  205 AccDes= 0.00D+00 IRadAn=         5 IDoV=-2
 ScaDFX=  1.000000  1.000000  1.000000  1.000000
 Range of M.O.s used for correlation:    11   338
 NBasis=   338 NAE=    39 NBE=    39 NFC=    10 NFV=     0
 NROrb=    328 NOA=    29 NOB=    29 NVA=   299 NVB=   299

 **** Warning!!: The largest alpha MO coefficient is  0.89878385D+02

 Disk-based method using OVN memory for 29 occupieds at a time.
 Estimated scratch disk usage=  1387501170 words.
 Actual    scratch disk usage=  1374245538 words.
 JobTyp=1 Pass  1:  I=   1 to  29 NPSUse=  8 ParTrn=T ParDer=T DoDerP=F.
 Spin components of T(2) and E(2):
     alpha-alpha T2 =       0.6816050241D-01 E2=     -0.2061229001D+00
     alpha-beta  T2 =       0.3779582999D+00 E2=     -0.1192491066D+01
     beta-beta   T2 =       0.6816050241D-01 E2=     -0.2061229001D+00
 ANorm=    0.1230560565D+01
 E2 =    -0.1604736866D+01 EUMP2 =    -0.49451562875363D+03

 **********************************************************************

            Population analysis using the SCF density.

 **********************************************************************

 Orbital symmetries:
       Occupied  (A) (A) (A) (A) (A) (A) (A) (A) (A) (A) (A) (A)
                 (A) (A) (A) (A) (A) (A) (A) (A) (A) (A) (A) (A)
                 (A) (A) (A) (A) (A) (A) (A) (A) (A) (A) (A) (A)
                 (A) (A) (A)
       Virtual   (A) (A) (A) (A) (A) (A) (A) (A) (A) (A) (A) (A)
                 (A) (A) (A) (A) (A) (A) (A) (A) (A) (A) (A) (A)
                 (A) (A) (A) (A) (A) (A) (A) (A) (A) (A) (A) (A)
                 (A) (A) (A) (A) (A) (A) (A) (A) (A) (A) (A) (A)
                 (A) (A) (A) (A) (A) (A) (A) (A) (A) (A) (A) (A)
                 (A) (A) (A) (A) (A) (A) (A) (A) (A) (A) (A) (A)
                 (A) (A) (A) (A) (A) (A) (A) (A) (A) (A) (A) (A)
                 (A) (A) (A) (A) (A) (A) (A) (A) (A) (A) (A) (A)
                 (A) (A) (A) (A) (A) (A) (A) (A) (A) (A) (A) (A)
                 (A) (A) (A) (A) (A) (A) (A) (A) (A) (A) (A) (A)
                 (A) (A) (A) (A) (A) (A) (A) (A) (A) (A) (A) (A)
                 (A) (A) (A) (A) (A) (A) (A) (A) (A) (A) (A) (A)
                 (A) (A) (A) (A) (A) (A) (A) (A) (A) (A) (A) (A)
                 (A) (A) (A) (A) (A) (A) (A) (A) (A) (A) (A) (A)
                 (A) (A) (A) (A) (A) (A) (A) (A) (A) (A) (A) (A)
                 (A) (A) (A) (A) (A) (A) (A) (A) (A) (A) (A) (A)
                 (A) (A) (A) (A) (A) (A) (A) (A) (A) (A) (A) (A)
                 (A) (A) (A) (A) (A) (A) (A) (A) (A) (A) (A) (A)
                 (A) (A) (A) (A) (A) (A) (A) (A) (A) (A) (A) (A)
                 (A) (A) (A) (A) (A) (A) (A) (A) (A) (A) (A) (A)
                 (A) (A) (A) (A) (A) (A) (A) (A) (A) (A) (A) (A)
                 (A) (A) (A) (A) (A) (A) (A) (A) (A) (A) (A) (A)
                 (A) (A) (A) (A) (A) (A) (A) (A) (A) (A) (A) (A)
                 (A) (A) (A) (A) (A) (A) (A) (A) (A) (A) (A) (A)
                 (A) (A) (A) (A) (A) (A) (A) (A) (A) (A) (A)
 The electronic state is 1-A.
 Alpha  occ. eigenvalues --  -20.52609 -20.52579 -15.59345 -15.59155 -11.35738
 Alpha  occ. eigenvalues --  -11.35633 -11.29866 -11.26387 -11.24884 -11.24119
 Alpha  occ. eigenvalues --   -1.38839  -1.37249  -1.23519  -1.22732  -1.05599
 Alpha  occ. eigenvalues --   -0.98882  -0.95533  -0.87584  -0.80009  -0.77379
 Alpha  occ. eigenvalues --   -0.70143  -0.68214  -0.66719  -0.63294  -0.62372
 Alpha  occ. eigenvalues --   -0.61122  -0.59332  -0.57782  -0.57359  -0.55282
 Alpha  occ. eigenvalues --   -0.54493  -0.54392  -0.53403  -0.52013  -0.48629
 Alpha  occ. eigenvalues --   -0.42921  -0.41767  -0.39465  -0.38827
 Alpha virt. eigenvalues --    0.02792   0.03553   0.04435   0.04614   0.05717
 Alpha virt. eigenvalues --    0.06052   0.06339   0.06890   0.07388   0.08109
 Alpha virt. eigenvalues --    0.08933   0.09334   0.11004   0.11922   0.12636
 Alpha virt. eigenvalues --    0.13193   0.14201   0.14657   0.14985   0.15599
 Alpha virt. eigenvalues --    0.15776   0.16237   0.16794   0.16925   0.17559
 Alpha virt. eigenvalues --    0.18085   0.18127   0.18677   0.18961   0.19315
 Alpha virt. eigenvalues --    0.19589   0.20107   0.20999   0.21644   0.22504
 Alpha virt. eigenvalues --    0.23890   0.24510   0.24843   0.25804   0.26246
 Alpha virt. eigenvalues --    0.26907   0.27567   0.28509   0.28987   0.30909
 Alpha virt. eigenvalues --    0.31474   0.32247   0.32604   0.33466   0.33986
 Alpha virt. eigenvalues --    0.35045   0.36118   0.36812   0.37147   0.37691
 Alpha virt. eigenvalues --    0.38289   0.38683   0.38839   0.39879   0.40421
 Alpha virt. eigenvalues --    0.40982   0.41528   0.41891   0.42353   0.43548
 Alpha virt. eigenvalues --    0.43723   0.44571   0.45309   0.45522   0.45956
 Alpha virt. eigenvalues --    0.46815   0.47839   0.48470   0.48895   0.49109
 Alpha virt. eigenvalues --    0.50149   0.50578   0.50698   0.52479   0.52804
 Alpha virt. eigenvalues --    0.53937   0.54158   0.55087   0.55486   0.55890
 Alpha virt. eigenvalues --    0.56490   0.57175   0.58169   0.58372   0.59281
 Alpha virt. eigenvalues --    0.59906   0.60661   0.61031   0.61370   0.62067
 Alpha virt. eigenvalues --    0.62181   0.63047   0.64138   0.64748   0.65085
 Alpha virt. eigenvalues --    0.65240   0.66225   0.67233   0.67926   0.68475
 Alpha virt. eigenvalues --    0.69214   0.70221   0.70765   0.71258   0.71522
 Alpha virt. eigenvalues --    0.71906   0.72795   0.73588   0.73813   0.74792
 Alpha virt. eigenvalues --    0.76339   0.76825   0.78135   0.78702   0.79479
 Alpha virt. eigenvalues --    0.80437   0.80651   0.81058   0.82072   0.83623
 Alpha virt. eigenvalues --    0.84125   0.85389   0.86207   0.87457   0.88708
 Alpha virt. eigenvalues --    0.89091   0.89724   0.91979   0.93039   0.93346
 Alpha virt. eigenvalues --    0.94863   0.95590   0.97120   0.97880   0.99288
 Alpha virt. eigenvalues --    1.00829   1.01224   1.01808   1.03390   1.05388
 Alpha virt. eigenvalues --    1.06537   1.07539   1.08320   1.10199   1.12328
 Alpha virt. eigenvalues --    1.12794   1.14427   1.15149   1.16309   1.16578
 Alpha virt. eigenvalues --    1.18079   1.20091   1.20666   1.21020   1.23605
 Alpha virt. eigenvalues --    1.24455   1.24843   1.27625   1.28855   1.29492
 Alpha virt. eigenvalues --    1.32562   1.34156   1.35558   1.36459   1.39835
 Alpha virt. eigenvalues --    1.40197   1.42786   1.45276   1.45876   1.48287
 Alpha virt. eigenvalues --    1.50458   1.52021   1.52530   1.54458   1.58294
 Alpha virt. eigenvalues --    1.59006   1.59693   1.61280   1.61680   1.65314
 Alpha virt. eigenvalues --    1.67943   1.69034   1.70996   1.71394   1.72291
 Alpha virt. eigenvalues --    1.74729   1.75425   1.77744   1.78398   1.80352
 Alpha virt. eigenvalues --    1.81149   1.82734   1.86303   1.86475   1.88049
 Alpha virt. eigenvalues --    1.89476   1.90838   1.91523   1.91972   1.93574
 Alpha virt. eigenvalues --    1.94081   1.97048   1.99412   1.99890   2.02551
 Alpha virt. eigenvalues --    2.03740   2.05687   2.06625   2.09798   2.10074
 Alpha virt. eigenvalues --    2.10918   2.13794   2.14748   2.15592   2.17556
 Alpha virt. eigenvalues --    2.19575   2.20202   2.21502   2.22494   2.24428
 Alpha virt. eigenvalues --    2.25587   2.26844   2.27526   2.29160   2.30380
 Alpha virt. eigenvalues --    2.32274   2.35424   2.36036   2.37901   2.38022
 Alpha virt. eigenvalues --    2.39086   2.41108   2.42972   2.44901   2.46089
 Alpha virt. eigenvalues --    2.46989   2.49007   2.49812   2.51989   2.53669
 Alpha virt. eigenvalues --    2.54831   2.55745   2.57920   2.59217   2.62799
 Alpha virt. eigenvalues --    2.64793   2.65360   2.66622   2.69151   2.69754
 Alpha virt. eigenvalues --    2.72126   2.73665   2.74636   2.76719   2.79271
 Alpha virt. eigenvalues --    2.81015   2.83948   2.86128   2.87048   2.89109
 Alpha virt. eigenvalues --    2.89859   2.92771   2.93938   2.96534   2.98441
 Alpha virt. eigenvalues --    3.02492   3.04438   3.04790   3.06115   3.08773
 Alpha virt. eigenvalues --    3.13295   3.15740   3.16231   3.21337   3.26218
 Alpha virt. eigenvalues --    3.30336   3.31131   3.37516   3.45491   3.50234
 Alpha virt. eigenvalues --    3.60384   3.64871   3.83274   3.85043   3.85532
 Alpha virt. eigenvalues --    3.87401   3.91376   3.95830   3.99533   4.03924
 Alpha virt. eigenvalues --    4.07893   4.13711   4.21293   4.27518
          Condensed to atoms (all electrons):
              1          2          3          4          5          6
     1  H    0.719931   0.343655  -0.064572  -0.066753  -0.048078   0.014803
     2  C    0.343655   4.623388   0.316915   0.390562   0.105106  -0.034646
     3  H   -0.064572   0.316915   0.949602  -0.109544   0.072978  -0.003649
     4  H   -0.066753   0.390562  -0.109544   0.844228  -0.058744   0.025508
     5  C   -0.048078   0.105106   0.072978  -0.058744   5.259515   0.169151
     6  O    0.014803  -0.034646  -0.003649   0.025508   0.169151   8.725306
     7  N    0.012571   0.035270  -0.116815   0.036369   0.040108  -0.157806
     8  H   -0.007629  -0.066615   0.014987  -0.003983  -0.033095   0.001855
     9  C    0.030415  -0.004233  -0.013989  -0.016786  -0.194353   0.112170
    10  H   -0.000027   0.005594   0.003871  -0.002993   0.000853   0.017660
    11  C   -0.008050  -0.044466  -0.007422   0.003667   0.040282  -0.006311
    12  H   -0.001180  -0.012326   0.000005  -0.000627   0.003402   0.001752
    13  H    0.000087   0.002957   0.000412   0.000073  -0.009323   0.000672
    14  H   -0.000090  -0.000320  -0.001242   0.000582   0.006276  -0.002033
    15  C    0.001761   0.048273  -0.011749   0.000193  -0.095352  -0.053628
    16  O    0.001445  -0.013607   0.000864   0.000975   0.024045   0.003878
    17  N   -0.002094  -0.004037   0.000802  -0.000476  -0.000006   0.009452
    18  H    0.000115  -0.000468  -0.000234   0.000040   0.002188  -0.000374
    19  C   -0.000607   0.003675   0.000010   0.000206   0.004460   0.010452
    20  H   -0.000053   0.000066  -0.000021   0.000009  -0.002818   0.000440
    21  H   -0.000113  -0.000430  -0.000037  -0.000069  -0.006974   0.001125
    22  H    0.000048   0.000183   0.000009   0.000031   0.006210   0.000130
              7          8          9         10         11         12
     1  H    0.012571  -0.007629   0.030415  -0.000027  -0.008050  -0.001180
     2  C    0.035270  -0.066615  -0.004233   0.005594  -0.044466  -0.012326
     3  H   -0.116815   0.014987  -0.013989   0.003871  -0.007422   0.000005
     4  H    0.036369  -0.003983  -0.016786  -0.002993   0.003667  -0.000627
     5  C    0.040108  -0.033095  -0.194353   0.000853   0.040282   0.003402
     6  O   -0.157806   0.001855   0.112170   0.017660  -0.006311   0.001752
     7  N    7.570314   0.385685  -0.479636  -0.111865   0.017617  -0.055416
     8  H    0.385685   0.887100  -0.240683   0.012405   0.015218   0.009846
     9  C   -0.479636  -0.240683   8.667294  -0.224298  -0.126952   0.029579
    10  H   -0.111865   0.012405  -0.224298   1.479625   0.050424   0.075725
    11  C    0.017617   0.015218  -0.126952   0.050424   4.528231   0.363473
    12  H   -0.055416   0.009846   0.029579   0.075725   0.363473   1.021927
    13  H   -0.022079   0.002383   0.137933  -0.061731   0.242235  -0.135348
    14  H    0.055254  -0.000782  -0.142531  -0.038579   0.295332  -0.229799
    15  C    0.393401  -0.004204  -1.407860   0.030481  -0.070821  -0.131953
    16  O   -0.061605  -0.000076   0.145584  -0.005421  -0.008236   0.032107
    17  N    0.010871  -0.003138  -0.058107   0.012108   0.104748   0.006613
    18  H    0.008898  -0.000334  -0.092470   0.015557   0.004311   0.000574
    19  C    0.016161  -0.000600  -0.124477   0.010076  -0.003956  -0.008393
    20  H    0.001026  -0.000044   0.010061   0.002706  -0.007931  -0.002194
    21  H    0.000665   0.000022   0.014414  -0.002419   0.005600  -0.000090
    22  H    0.001392   0.000132  -0.027398   0.001566  -0.003642  -0.000238
             13         14         15         16         17         18
     1  H    0.000087  -0.000090   0.001761   0.001445  -0.002094   0.000115
     2  C    0.002957  -0.000320   0.048273  -0.013607  -0.004037  -0.000468
     3  H    0.000412  -0.001242  -0.011749   0.000864   0.000802  -0.000234
     4  H    0.000073   0.000582   0.000193   0.000975  -0.000476   0.000040
     5  C   -0.009323   0.006276  -0.095352   0.024045  -0.000006   0.002188
     6  O    0.000672  -0.002033  -0.053628   0.003878   0.009452  -0.000374
     7  N   -0.022079   0.055254   0.393401  -0.061605   0.010871   0.008898
     8  H    0.002383  -0.000782  -0.004204  -0.000076  -0.003138  -0.000334
     9  C    0.137933  -0.142531  -1.407860   0.145584  -0.058107  -0.092470
    10  H   -0.061731  -0.038579   0.030481  -0.005421   0.012108   0.015557
    11  C    0.242235   0.295332  -0.070821  -0.008236   0.104748   0.004311
    12  H   -0.135348  -0.229799  -0.131953   0.032107   0.006613   0.000574
    13  H    1.222647  -0.212284  -0.012119  -0.007380  -0.049368  -0.000548
    14  H   -0.212284   1.187417   0.100971  -0.003377   0.025330  -0.001945
    15  C   -0.012119   0.100971   5.879751   0.082247   0.077955  -0.036712
    16  O   -0.007380  -0.003377   0.082247   8.829591  -0.179477   0.014319
    17  N   -0.049368   0.025330   0.077955  -0.179477   7.224911   0.298171
    18  H   -0.000548  -0.001945  -0.036712   0.014319   0.298171   0.972318
    19  C   -0.010366   0.006681  -0.047582   0.033094   0.179160  -0.088170
    20  H   -0.001030   0.000995   0.033847  -0.007199  -0.025742   0.000920
    21  H   -0.000354   0.000372  -0.063938   0.000279   0.098383  -0.014924
    22  H   -0.001446  -0.000185   0.020761   0.018485  -0.195726   0.020813
             19         20         21         22
     1  H   -0.000607  -0.000053  -0.000113   0.000048
     2  C    0.003675   0.000066  -0.000430   0.000183
     3  H    0.000010  -0.000021  -0.000037   0.000009
     4  H    0.000206   0.000009  -0.000069   0.000031
     5  C    0.004460  -0.002818  -0.006974   0.006210
     6  O    0.010452   0.000440   0.001125   0.000130
     7  N    0.016161   0.001026   0.000665   0.001392
     8  H   -0.000600  -0.000044   0.000022   0.000132
     9  C   -0.124477   0.010061   0.014414  -0.027398
    10  H    0.010076   0.002706  -0.002419   0.001566
    11  C   -0.003956  -0.007931   0.005600  -0.003642
    12  H   -0.008393  -0.002194  -0.000090  -0.000238
    13  H   -0.010366  -0.001030  -0.000354  -0.001446
    14  H    0.006681   0.000995   0.000372  -0.000185
    15  C   -0.047582   0.033847  -0.063938   0.020761
    16  O    0.033094  -0.007199   0.000279   0.018485
    17  N    0.179160  -0.025742   0.098383  -0.195726
    18  H   -0.088170   0.000920  -0.014924   0.020813
    19  C    4.132507   0.418381   0.317689   0.424312
    20  H    0.418381   0.928767  -0.073441  -0.167366
    21  H    0.317689  -0.073441   0.960928  -0.181281
    22  H    0.424312  -0.167366  -0.181281   1.266920
 Mulliken atomic charges:
              1
     1  H    0.074414
     2  C    0.305503
     3  H   -0.031181
     4  H   -0.042466
     5  C    0.714167
     6  O   -0.835907
     7  N   -0.580381
     8  H    0.031547
     9  C    0.006322
    10  H   -0.271317
    11  C    0.616651
    12  H    0.032559
    13  H   -0.086025
    14  H   -0.046043
    15  C    1.266277
    16  O   -0.900536
    17  N   -0.530333
    18  H   -0.102044
    19  C    0.727288
    20  H   -0.109379
    21  H   -0.055406
    22  H   -0.183710
 Sum of Mulliken atomic charges =   0.00000
 Mulliken charges with hydrogens summed into heavy atoms:
              1
     2  C    0.306270
     5  C    0.714167
     6  O   -0.835907
     7  N   -0.548834
     9  C   -0.264995
    11  C    0.517142
    15  C    1.266277
    16  O   -0.900536
    17  N   -0.632377
    19  C    0.378794
 Sum of Mulliken charges with hydrogens summed into heavy atoms =   0.00000
 Electronic spatial extent (au):  <R**2>=           1698.3896
 Charge=              0.0000 electrons
 Dipole moment (field-independent basis, Debye):
    X=              0.5734    Y=              4.4242    Z=             -1.1162  Tot=              4.5987
 Quadrupole moment (field-independent basis, Debye-Ang):
   XX=            -47.0533   YY=            -63.0810   ZZ=            -63.6409
   XY=             -3.9682   XZ=             -6.9506   YZ=             -0.7628
 Traceless Quadrupole moment (field-independent basis, Debye-Ang):
   XX=             10.8718   YY=             -5.1559   ZZ=             -5.7158
   XY=             -3.9682   XZ=             -6.9506   YZ=             -0.7628
 Octapole moment (field-independent basis, Debye-Ang**2):
  XXX=             -1.2171  YYY=              9.8539  ZZZ=             -4.0652  XYY=              3.6909
  XXY=             -6.8335  XXZ=              0.1106  XZZ=              5.5267  YZZ=              2.3603
  YYZ=              3.3884  XYZ=              1.5111
 Hexadecapole moment (field-independent basis, Debye-Ang**3):
 XXXX=          -1331.5039 YYYY=           -587.3266 ZZZZ=           -192.9871 XXXY=            -11.1149
 XXXZ=            -18.3189 YYYX=            -18.7361 YYYZ=             -5.5561 ZZZX=            -15.1030
 ZZZY=             -1.0249 XXYY=           -329.4975 XXZZ=           -271.4839 YYZZ=           -135.8460
 XXYZ=             -6.2376 YYXZ=             -6.3475 ZZXY=              3.6936
 N-N= 5.639578337694D+02 E-N=-2.283481833963D+03  KE= 4.920477170552D+02
 1\1\GINC-NODE007\SP\RMP2-FC\Aug-CC-pVDZ\C6H12N2O2\MANAGER\13-Feb-2017\
 0\\#SP MP2/aug-cc-pVDZ\\Single Point calculation at MP2\\0,1\H,0,-3.02
 41,-0.5692,1.529\C,0,-3.1889,-0.5897,0.4448\H,0,-3.8401,0.2516,0.1816\
 H,0,-3.6845,-1.5275,0.1887\C,0,-1.8436,-0.5334,-0.262\O,0,-1.2659,-1.5
 284,-0.6637\N,0,-1.3547,0.7496,-0.4786\H,0,-1.9031,1.4657,-0.0158\C,0,
 0.0753,1.0721,-0.4865\H,0,0.3937,1.2453,-1.5254\C,0,0.3112,2.3603,0.31
 54\H,0,0.0649,2.1932,1.3692\H,0,1.3594,2.6658,0.2493\H,0,-0.3075,3.177
 4,-0.0744\C,0,0.9613,-0.0391,0.1208\O,0,0.6597,-0.612,1.1569\N,0,2.218
 ,-0.0963,-0.4232\H,0,2.3284,0.2253,-1.3758\C,0,3.1976,-1.0531,0.0701\H
 ,0,3.0533,-1.1591,1.1461\H,0,3.0823,-2.0422,-0.3919\H,0,4.2059,-0.6788
 ,-0.1293\\Version=EM64L-G09RevA.02\State=1-A\HF=-492.9108919\MP2=-494.
 5156288\RMSD=4.389e-09\PG=C01 [X(C6H12N2O2)]\\@


 LIFE IS SO UNCERTAIN - EAT DESSERT FIRST.
 Job cpu time:  0 days 15 hours 11 minutes 16.4 seconds.
 File lengths (MBytes):  RWF=  10601 Int=      0 D2E=      0 Chk=      7 Scr=      2
 Normal termination of Gaussian 09 at Mon Feb 13 22:24:49 2017.
