 Entering Gaussian System, Link 0=g09
 Initial command:
 /home/steboss/Software/g09/l1.exe /home/steboss/projects/phi_psi_scan/alanine/MP2/75/5687/Gau-20509.inp -scrdir=/home/steboss/projects/phi_psi_scan/alanine/MP2/75/5687/
 Entering Link 1 = /home/steboss/Software/g09/l1.exe PID=     20512.
  
 Copyright (c) 1988,1990,1992,1993,1995,1998,2003,2009, Gaussian, Inc.
                  All Rights Reserved.
  
 This is part of the Gaussian(R) 09 program.  It is based on
 the Gaussian(R) 03 system (copyright 2003, Gaussian, Inc.),
 the Gaussian(R) 98 system (copyright 1998, Gaussian, Inc.),
 the Gaussian(R) 94 system (copyright 1995, Gaussian, Inc.),
 the Gaussian 92(TM) system (copyright 1992, Gaussian, Inc.),
 the Gaussian 90(TM) system (copyright 1990, Gaussian, Inc.),
 the Gaussian 88(TM) system (copyright 1988, Gaussian, Inc.),
 the Gaussian 86(TM) system (copyright 1986, Carnegie Mellon
 University), and the Gaussian 82(TM) system (copyright 1983,
 Carnegie Mellon University). Gaussian is a federally registered
 trademark of Gaussian, Inc.
  
 This software contains proprietary and confidential information,
 including trade secrets, belonging to Gaussian, Inc.
  
 This software is provided under written license and may be
 used, copied, transmitted, or stored only in accord with that
 written license.
  
 The following legend is applicable only to US Government
 contracts under FAR:
  
                    RESTRICTED RIGHTS LEGEND
  
 Use, reproduction and disclosure by the US Government is
 subject to restrictions as set forth in subparagraphs (a)
 and (c) of the Commercial Computer Software - Restricted
 Rights clause in FAR 52.227-19.
  
 Gaussian, Inc.
 340 Quinnipiac St., Bldg. 40, Wallingford CT 06492
  
  
 ---------------------------------------------------------------
 Warning -- This program may not be used in any manner that
 competes with the business of Gaussian, Inc. or will provide
 assistance to any competitor of Gaussian, Inc.  The licensee
 of this program is prohibited from giving any competitor of
 Gaussian, Inc. access to this program.  By using this program,
 the user acknowledges that Gaussian, Inc. is engaged in the
 business of creating and licensing software in the field of
 computational chemistry and represents and warrants to the
 licensee that it is not a competitor of Gaussian, Inc. and that
 it will not use this program in any manner prohibited above.
 ---------------------------------------------------------------
  

 Cite this work as:
 Gaussian 09, Revision A.02,
 M. J. Frisch, G. W. Trucks, H. B. Schlegel, G. E. Scuseria, 
 M. A. Robb, J. R. Cheeseman, G. Scalmani, V. Barone, B. Mennucci, 
 G. A. Petersson, H. Nakatsuji, M. Caricato, X. Li, H. P. Hratchian, 
 A. F. Izmaylov, J. Bloino, G. Zheng, J. L. Sonnenberg, M. Hada, 
 M. Ehara, K. Toyota, R. Fukuda, J. Hasegawa, M. Ishida, T. Nakajima, 
 Y. Honda, O. Kitao, H. Nakai, T. Vreven, J. A. Montgomery, Jr., 
 J. E. Peralta, F. Ogliaro, M. Bearpark, J. J. Heyd, E. Brothers, 
 K. N. Kudin, V. N. Staroverov, R. Kobayashi, J. Normand, 
 K. Raghavachari, A. Rendell, J. C. Burant, S. S. Iyengar, J. Tomasi, 
 M. Cossi, N. Rega, J. M. Millam, M. Klene, J. E. Knox, J. B. Cross, 
 V. Bakken, C. Adamo, J. Jaramillo, R. Gomperts, R. E. Stratmann, 
 O. Yazyev, A. J. Austin, R. Cammi, C. Pomelli, J. W. Ochterski, 
 R. L. Martin, K. Morokuma, V. G. Zakrzewski, G. A. Voth, 
 P. Salvador, J. J. Dannenberg, S. Dapprich, A. D. Daniels, 
 O. Farkas, J. B. Foresman, J. V. Ortiz, J. Cioslowski, 
 and D. J. Fox, Gaussian, Inc., Wallingford CT, 2009.
 
 ******************************************
 Gaussian 09:  EM64L-G09RevA.02 11-Jun-2009
                14-Feb-2017 
 ******************************************
 %chk=structure_150.chk
 %NProcShared=8
 Will use up to    8 processors via shared memory.
 -------------------
 #SP MP2/aug-cc-pVDZ
 -------------------
 1/38=1/1;
 2/12=2,17=6,18=5,40=1/2;
 3/5=16,7=10,11=9,16=1,25=1,30=1/1,2,3;
 4//1;
 5/5=2,38=5/2;
 8/10=1/1;
 9/16=-3/6;
 6/7=2,8=2,9=2,10=2/1;
 99/5=1,9=1/99;
 -------------------------------
 Single Point calculation at MP2
 -------------------------------
 Symbolic Z-matrix:
 Charge =  0 Multiplicity = 1
 H                     3.9743   -1.1065   -0.2532 
 C                     3.064    -1.2109    0.3395 
 H                     3.3129   -1.1589    1.4053 
 H                     2.6291   -2.1968    0.1353 
 C                     2.0724   -0.1368   -0.0894 
 O                     2.1227    0.3894   -1.1889 
 N                     1.1525    0.1975    0.8908 
 H                     1.1266   -0.4514    1.6678 
 C                    -0.1379    0.8228    0.6235 
 H                    -0.5242    1.1269    1.6065 
 C                    -0.0548    2.0849   -0.2515 
 H                     0.2573    1.8388   -1.2651 
 H                    -1.0328    2.5794   -0.2773 
 H                     0.6735    2.7823    0.1732 
 C                    -1.128    -0.2153    0.0356 
 O                    -0.7565   -1.19     -0.6021 
 N                    -2.4396    0.028     0.3412 
 H                    -2.6702    0.8875    0.82 
 C                    -3.5279   -0.7666   -0.2031 
 H                    -3.0883   -1.6665   -0.635 
 H                    -4.2312   -1.0497    0.5875 
 H                    -4.0741   -0.2278   -0.9879 
 
                          Input orientation:                          
 ---------------------------------------------------------------------
 Center     Atomic      Atomic             Coordinates (Angstroms)
 Number     Number       Type             X           Y           Z
 ---------------------------------------------------------------------
      1          1           0        3.974300   -1.106500   -0.253200
      2          6           0        3.064000   -1.210900    0.339500
      3          1           0        3.312900   -1.158900    1.405300
      4          1           0        2.629100   -2.196800    0.135300
      5          6           0        2.072400   -0.136800   -0.089400
      6          8           0        2.122700    0.389400   -1.188900
      7          7           0        1.152500    0.197500    0.890800
      8          1           0        1.126600   -0.451400    1.667800
      9          6           0       -0.137900    0.822800    0.623500
     10          1           0       -0.524200    1.126900    1.606500
     11          6           0       -0.054800    2.084900   -0.251500
     12          1           0        0.257300    1.838800   -1.265100
     13          1           0       -1.032800    2.579400   -0.277300
     14          1           0        0.673500    2.782300    0.173200
     15          6           0       -1.128000   -0.215300    0.035600
     16          8           0       -0.756500   -1.190000   -0.602100
     17          7           0       -2.439600    0.028000    0.341200
     18          1           0       -2.670200    0.887500    0.820000
     19          6           0       -3.527900   -0.766600   -0.203100
     20          1           0       -3.088300   -1.666500   -0.635000
     21          1           0       -4.231200   -1.049700    0.587500
     22          1           0       -4.074100   -0.227800   -0.987900
 ---------------------------------------------------------------------
                    Distance matrix (angstroms):
                    1          2          3          4          5
     1  H    0.000000
     2  C    1.091256   0.000000
     3  H    1.786286   1.095712   0.000000
     4  H    1.774612   1.096738   1.776997   0.000000
     5  C    2.141115   1.523455   2.194916   2.145695   0.000000
     6  O    2.557670   2.404789   3.247104   2.949301   1.219966
     7  N    3.312357   2.437489   2.602280   2.912696   1.385195
     8  H    3.496969   2.468753   2.312871   2.766312   2.020214
     9  C    4.626120   3.803782   4.055412   4.124635   2.512864
    10  H    5.355657   4.466070   4.470872   4.811934   3.348932
    11  C    5.139911   4.575860   4.960708   5.068125   3.080131
    12  H    4.849208   4.444432   5.045189   4.885962   2.929139
    13  H    6.217515   5.615210   5.974206   6.032565   4.129808
    14  H    5.118580   4.657015   4.900771   5.349509   3.247618
    15  C    5.187592   4.319310   4.742157   4.248774   3.203802
    16  O    4.744383   3.934878   4.537691   3.608281   3.061824
    17  N    6.540529   5.641320   5.969279   5.539300   4.535495
    18  H    7.019770   6.124966   6.350418   6.169627   4.936441
    19  C    7.510063   6.629100   7.038281   6.329979   5.636749
    20  H    7.095047   6.245640   6.737644   5.793379   5.410221
    21  H    8.248650   7.301194   7.589082   6.970225   6.405229
    22  H    8.129492   7.326728   7.820622   7.076117   6.212491
                    6          7          8          9         10
     6  O    0.000000
     7  N    2.302882   0.000000
     8  H    3.140047   1.012655   0.000000
     9  C    2.929666   1.458623   2.076802   0.000000
    10  H    3.919725   2.046298   2.284716   1.099088   0.000000
    11  C    2.914609   2.514896   3.392969   1.537994   2.142490
    12  H    2.363532   2.853621   3.821335   2.180653   3.060005
    13  H    3.947695   3.437069   4.199068   2.167471   2.432516
    14  H    3.111506   2.724992   3.591092   2.168128   2.495833
    15  C    3.525920   2.470314   2.793392   1.550347   2.152627
    16  O    3.335960   2.792524   3.040402   2.436416   3.209346
    17  N    4.825598   3.637853   3.835033   2.451372   2.545058
    18  H    5.220697   3.885119   4.114257   2.540736   2.298088
    19  C    5.851275   4.902270   5.026329   3.834261   3.985249
    20  H    5.629214   4.877186   4.954265   4.060209   4.404772
    21  H    6.752677   5.534593   5.498275   4.501406   4.417895
    22  H    6.230704   5.570255   5.843802   4.381100   4.600860
                   11         12         13         14         15
    11  C    0.000000
    12  H    1.088741   0.000000
    13  H    1.096212   1.785664   0.000000
    14  H    1.094147   1.769780   1.776395   0.000000
    15  C    2.554428   2.798250   2.813773   3.499992   0.000000
    16  O    3.367532   3.262053   3.793443   4.292454   1.222585
    17  N    3.204591   3.623874   2.978468   4.160022   1.368532
    18  H    3.069560   3.717912   2.597628   3.897300   2.051788
    19  C    4.493976   4.716322   4.174535   5.512536   2.473950
    20  H    4.839648   4.886430   4.730824   5.881849   2.529518
    21  H    5.288852   5.649973   4.914062   6.237944   3.260470
    22  H    4.695278   4.807151   4.199384   5.740084   3.118848
                   16         17         18         19         20
    16  O    0.000000
    17  N    2.281702   0.000000
    18  H    3.162376   1.010528   0.000000
    19  C    2.831806   1.453289   2.125660   0.000000
    20  H    2.380216   2.060366   2.968964   1.090691   0.000000
    21  H    3.675374   2.105215   2.498704   1.095365   1.783583
    22  H    3.475793   2.122152   2.546239   1.097520   1.779381
                   21         22
    21  H    0.000000
    22  H    1.783840   0.000000
 Stoichiometry    C6H12N2O2
 Framework group  C1[X(C6H12N2O2)]
 Deg. of freedom    60
 Full point group                 C1      NOp   1
 Largest Abelian subgroup         C1      NOp   1
 Largest concise Abelian subgroup C1      NOp   1
                         Standard orientation:                         
 ---------------------------------------------------------------------
 Center     Atomic      Atomic             Coordinates (Angstroms)
 Number     Number       Type             X           Y           Z
 ---------------------------------------------------------------------
      1          1           0        3.974293   -1.106540   -0.253209
      2          6           0        3.063991   -1.210930    0.339491
      3          1           0        3.312892   -1.158932    1.405291
      4          1           0        2.629080   -2.196825    0.135291
      5          6           0        2.072404   -0.136818   -0.089409
      6          8           0        2.122710    0.389381   -1.188909
      7          7           0        1.152507    0.197492    0.890791
      8          1           0        1.126600   -0.451408    1.667791
      9          6           0       -0.137886    0.822807    0.623491
     10          1           0       -0.524182    1.126911    1.606491
     11          6           0       -0.054771    2.084906   -0.251509
     12          1           0        0.257326    1.838802   -1.265109
     13          1           0       -1.032766    2.579417   -0.277309
     14          1           0        0.673537    2.782297    0.173191
     15          6           0       -1.127997   -0.215282    0.035591
     16          8           0       -0.756508   -1.189986   -0.602109
     17          7           0       -2.439595    0.028033    0.341191
     18          1           0       -2.670185    0.887535    0.819991
     19          6           0       -3.527904   -0.766555   -0.203109
     20          1           0       -3.088314   -1.666460   -0.635009
     21          1           0       -4.231207   -1.049647    0.587491
     22          1           0       -4.074097   -0.227749   -0.987909
 ---------------------------------------------------------------------
 Rotational constants (GHZ):      2.4911493      0.7645460      0.6793823
 Standard basis: Aug-CC-pVDZ (5D, 7F)
 There are   338 symmetry adapted basis functions of A   symmetry.
 Integral buffers will be    131072 words long.
 Raffenetti 1 integral format.
 Two-electron integral symmetry is turned on.
   338 basis functions,   562 primitive gaussians,   358 cartesian basis functions
    39 alpha electrons       39 beta electrons
       nuclear repulsion energy       558.1696558050 Hartrees.
 NAtoms=   22 NActive=   22 NUniq=   22 SFac= 7.50D-01 NAtFMM=   80 NAOKFM=F Big=F
 One-electron integrals computed using PRISM.
 NBasis=   338 RedAO= T  NBF=   338
 NBsUse=   338 1.00D-06 NBFU=   338
 Harris functional with IExCor=  205 diagonalized for initial guess.
 ExpMin= 2.97D-02 ExpMax= 1.17D+04 ExpMxC= 4.01D+02 IAcc=3 IRadAn=         0 AccDes= 0.00D+00
 HarFok:  IExCor=  205 AccDes= 0.00D+00 IRadAn=         0 IDoV= 1
 ScaDFX=  1.000000  1.000000  1.000000  1.000000
 FoFCou: FMM=F IPFlag=           0 FMFlag=      100000 FMFlg1=           0
         NFxFlg=           0 DoJE=T BraDBF=F KetDBF=T FulRan=T
         Omega=  0.000000  0.000000  1.000000  0.000000  0.000000 ICntrl=     500 IOpCl=  0
         NMat0=    1 NMatS0=    1 NMatT0=    0 NMatD0=    1 NMtDS0=    0 NMtDT0=    0
         I1Cent=           4 NGrid=           0.
 Petite list used in FoFCou.
 Initial guess orbital symmetries:
       Occupied  (A) (A) (A) (A) (A) (A) (A) (A) (A) (A) (A) (A)
                 (A) (A) (A) (A) (A) (A) (A) (A) (A) (A) (A) (A)
                 (A) (A) (A) (A) (A) (A) (A) (A) (A) (A) (A) (A)
                 (A) (A) (A)
       Virtual   (A) (A) (A) (A) (A) (A) (A) (A) (A) (A) (A) (A)
                 (A) (A) (A) (A) (A) (A) (A) (A) (A) (A) (A) (A)
                 (A) (A) (A) (A) (A) (A) (A) (A) (A) (A) (A) (A)
                 (A) (A) (A) (A) (A) (A) (A) (A) (A) (A) (A) (A)
                 (A) (A) (A) (A) (A) (A) (A) (A) (A) (A) (A) (A)
                 (A) (A) (A) (A) (A) (A) (A) (A) (A) (A) (A) (A)
                 (A) (A) (A) (A) (A) (A) (A) (A) (A) (A) (A) (A)
                 (A) (A) (A) (A) (A) (A) (A) (A) (A) (A) (A) (A)
                 (A) (A) (A) (A) (A) (A) (A) (A) (A) (A) (A) (A)
                 (A) (A) (A) (A) (A) (A) (A) (A) (A) (A) (A) (A)
                 (A) (A) (A) (A) (A) (A) (A) (A) (A) (A) (A) (A)
                 (A) (A) (A) (A) (A) (A) (A) (A) (A) (A) (A) (A)
                 (A) (A) (A) (A) (A) (A) (A) (A) (A) (A) (A) (A)
                 (A) (A) (A) (A) (A) (A) (A) (A) (A) (A) (A) (A)
                 (A) (A) (A) (A) (A) (A) (A) (A) (A) (A) (A) (A)
                 (A) (A) (A) (A) (A) (A) (A) (A) (A) (A) (A) (A)
                 (A) (A) (A) (A) (A) (A) (A) (A) (A) (A) (A) (A)
                 (A) (A) (A) (A) (A) (A) (A) (A) (A) (A) (A) (A)
                 (A) (A) (A) (A) (A) (A) (A) (A) (A) (A) (A) (A)
                 (A) (A) (A) (A) (A) (A) (A) (A) (A) (A) (A) (A)
                 (A) (A) (A) (A) (A) (A) (A) (A) (A) (A) (A) (A)
                 (A) (A) (A) (A) (A) (A) (A) (A) (A) (A) (A) (A)
                 (A) (A) (A) (A) (A) (A) (A) (A) (A) (A) (A) (A)
                 (A) (A) (A) (A) (A) (A) (A) (A) (A) (A) (A) (A)
                 (A) (A) (A) (A) (A) (A) (A) (A) (A) (A) (A)
 The electronic state of the initial guess is 1-A.
 Requested convergence on RMS density matrix=1.00D-08 within 128 cycles.
 Requested convergence on MAX density matrix=1.00D-06.
 Requested convergence on             energy=1.00D-06.
 No special actions if energy rises.
 Initial convergence to 1.0D-05 achieved.  Increase integral accuracy.
 SCF Done:  E(RHF) =  -492.916235422     A.U. after   14 cycles
             Convg  =    0.8263D-08             -V/T =  2.0017
 ExpMin= 2.97D-02 ExpMax= 1.17D+04 ExpMxC= 4.01D+02 IAcc=3 IRadAn=         5 AccDes= 0.00D+00
 HarFok:  IExCor=  205 AccDes= 0.00D+00 IRadAn=         5 IDoV=-2
 ScaDFX=  1.000000  1.000000  1.000000  1.000000
 Range of M.O.s used for correlation:    11   338
 NBasis=   338 NAE=    39 NBE=    39 NFC=    10 NFV=     0
 NROrb=    328 NOA=    29 NOB=    29 NVA=   299 NVB=   299

 **** Warning!!: The largest alpha MO coefficient is  0.88771948D+02

 Disk-based method using OVN memory for 29 occupieds at a time.
 Estimated scratch disk usage=  1382131045 words.
 Actual    scratch disk usage=  1368818330 words.
 JobTyp=1 Pass  1:  I=   1 to  29 NPSUse=  8 ParTrn=T ParDer=T DoDerP=F.
 Spin components of T(2) and E(2):
     alpha-alpha T2 =       0.6784062397D-01 E2=     -0.2055373621D+00
     alpha-beta  T2 =       0.3764970350D+00 E2=     -0.1189969429D+01
     beta-beta   T2 =       0.6784062397D-01 E2=     -0.2055373621D+00
 ANorm=    0.1229706584D+01
 E2 =    -0.1601044154D+01 EUMP2 =    -0.49451727957525D+03

 **********************************************************************

            Population analysis using the SCF density.

 **********************************************************************

 Orbital symmetries:
       Occupied  (A) (A) (A) (A) (A) (A) (A) (A) (A) (A) (A) (A)
                 (A) (A) (A) (A) (A) (A) (A) (A) (A) (A) (A) (A)
                 (A) (A) (A) (A) (A) (A) (A) (A) (A) (A) (A) (A)
                 (A) (A) (A)
       Virtual   (A) (A) (A) (A) (A) (A) (A) (A) (A) (A) (A) (A)
                 (A) (A) (A) (A) (A) (A) (A) (A) (A) (A) (A) (A)
                 (A) (A) (A) (A) (A) (A) (A) (A) (A) (A) (A) (A)
                 (A) (A) (A) (A) (A) (A) (A) (A) (A) (A) (A) (A)
                 (A) (A) (A) (A) (A) (A) (A) (A) (A) (A) (A) (A)
                 (A) (A) (A) (A) (A) (A) (A) (A) (A) (A) (A) (A)
                 (A) (A) (A) (A) (A) (A) (A) (A) (A) (A) (A) (A)
                 (A) (A) (A) (A) (A) (A) (A) (A) (A) (A) (A) (A)
                 (A) (A) (A) (A) (A) (A) (A) (A) (A) (A) (A) (A)
                 (A) (A) (A) (A) (A) (A) (A) (A) (A) (A) (A) (A)
                 (A) (A) (A) (A) (A) (A) (A) (A) (A) (A) (A) (A)
                 (A) (A) (A) (A) (A) (A) (A) (A) (A) (A) (A) (A)
                 (A) (A) (A) (A) (A) (A) (A) (A) (A) (A) (A) (A)
                 (A) (A) (A) (A) (A) (A) (A) (A) (A) (A) (A) (A)
                 (A) (A) (A) (A) (A) (A) (A) (A) (A) (A) (A) (A)
                 (A) (A) (A) (A) (A) (A) (A) (A) (A) (A) (A) (A)
                 (A) (A) (A) (A) (A) (A) (A) (A) (A) (A) (A) (A)
                 (A) (A) (A) (A) (A) (A) (A) (A) (A) (A) (A) (A)
                 (A) (A) (A) (A) (A) (A) (A) (A) (A) (A) (A) (A)
                 (A) (A) (A) (A) (A) (A) (A) (A) (A) (A) (A) (A)
                 (A) (A) (A) (A) (A) (A) (A) (A) (A) (A) (A) (A)
                 (A) (A) (A) (A) (A) (A) (A) (A) (A) (A) (A) (A)
                 (A) (A) (A) (A) (A) (A) (A) (A) (A) (A) (A) (A)
                 (A) (A) (A) (A) (A) (A) (A) (A) (A) (A) (A) (A)
                 (A) (A) (A) (A) (A) (A) (A) (A) (A) (A) (A)
 The electronic state is 1-A.
 Alpha  occ. eigenvalues --  -20.53346 -20.52357 -15.60025 -15.59091 -11.36058
 Alpha  occ. eigenvalues --  -11.35590 -11.29816 -11.27151 -11.23775 -11.23175
 Alpha  occ. eigenvalues --   -1.38948  -1.37525  -1.23775  -1.23191  -1.05295
 Alpha  occ. eigenvalues --   -0.98515  -0.95743  -0.87971  -0.79961  -0.76812
 Alpha  occ. eigenvalues --   -0.71546  -0.69625  -0.65548  -0.62772  -0.62460
 Alpha  occ. eigenvalues --   -0.61883  -0.59207  -0.58429  -0.56326  -0.55671
 Alpha  occ. eigenvalues --   -0.55001  -0.53255  -0.53048  -0.50435  -0.50360
 Alpha  occ. eigenvalues --   -0.43875  -0.41335  -0.39621  -0.38747
 Alpha virt. eigenvalues --    0.02364   0.03686   0.04199   0.04577   0.05758
 Alpha virt. eigenvalues --    0.05917   0.06207   0.06925   0.07691   0.08183
 Alpha virt. eigenvalues --    0.08628   0.09065   0.11217   0.11498   0.13023
 Alpha virt. eigenvalues --    0.13365   0.13917   0.14337   0.14479   0.15028
 Alpha virt. eigenvalues --    0.15656   0.15935   0.16216   0.16833   0.17209
 Alpha virt. eigenvalues --    0.17813   0.18362   0.18616   0.18924   0.19691
 Alpha virt. eigenvalues --    0.20233   0.20551   0.21439   0.21619   0.22076
 Alpha virt. eigenvalues --    0.23630   0.23694   0.24656   0.25974   0.26384
 Alpha virt. eigenvalues --    0.27200   0.28790   0.29152   0.30128   0.30683
 Alpha virt. eigenvalues --    0.31161   0.31758   0.32531   0.32972   0.34381
 Alpha virt. eigenvalues --    0.34853   0.35151   0.35812   0.36247   0.36777
 Alpha virt. eigenvalues --    0.37352   0.38619   0.39211   0.39417   0.40516
 Alpha virt. eigenvalues --    0.41175   0.41210   0.42004   0.42554   0.43288
 Alpha virt. eigenvalues --    0.43389   0.44000   0.44833   0.44977   0.45764
 Alpha virt. eigenvalues --    0.46685   0.47361   0.47517   0.48480   0.49262
 Alpha virt. eigenvalues --    0.50139   0.51150   0.51603   0.51741   0.52626
 Alpha virt. eigenvalues --    0.53845   0.54132   0.54882   0.55284   0.55770
 Alpha virt. eigenvalues --    0.56380   0.57182   0.57937   0.58485   0.58986
 Alpha virt. eigenvalues --    0.59458   0.60546   0.60664   0.61636   0.62497
 Alpha virt. eigenvalues --    0.63283   0.63988   0.64397   0.64719   0.65588
 Alpha virt. eigenvalues --    0.65864   0.66515   0.67028   0.67546   0.67759
 Alpha virt. eigenvalues --    0.69097   0.69252   0.69886   0.70957   0.71178
 Alpha virt. eigenvalues --    0.71940   0.72298   0.73303   0.74212   0.74447
 Alpha virt. eigenvalues --    0.75047   0.76227   0.77379   0.78852   0.79290
 Alpha virt. eigenvalues --    0.80313   0.81510   0.81996   0.82513   0.83209
 Alpha virt. eigenvalues --    0.84253   0.84584   0.86065   0.86947   0.88942
 Alpha virt. eigenvalues --    0.90290   0.90771   0.92288   0.92822   0.93631
 Alpha virt. eigenvalues --    0.94085   0.95123   0.95598   0.98239   0.99246
 Alpha virt. eigenvalues --    1.00506   1.01443   1.03115   1.03732   1.05167
 Alpha virt. eigenvalues --    1.06602   1.08062   1.08238   1.10314   1.11413
 Alpha virt. eigenvalues --    1.11939   1.13324   1.14012   1.14818   1.16507
 Alpha virt. eigenvalues --    1.17087   1.18266   1.18926   1.19942   1.20482
 Alpha virt. eigenvalues --    1.22501   1.24034   1.24991   1.26837   1.30555
 Alpha virt. eigenvalues --    1.31352   1.33605   1.34723   1.36733   1.37234
 Alpha virt. eigenvalues --    1.37624   1.41448   1.43553   1.45254   1.46798
 Alpha virt. eigenvalues --    1.48653   1.51952   1.53401   1.55209   1.57381
 Alpha virt. eigenvalues --    1.57733   1.58566   1.59769   1.61945   1.63559
 Alpha virt. eigenvalues --    1.66613   1.68465   1.70616   1.71102   1.73784
 Alpha virt. eigenvalues --    1.74053   1.74956   1.78362   1.79456   1.80695
 Alpha virt. eigenvalues --    1.82333   1.83529   1.85061   1.87394   1.88637
 Alpha virt. eigenvalues --    1.89870   1.90616   1.91211   1.92691   1.94096
 Alpha virt. eigenvalues --    1.95742   1.96571   1.97609   1.99786   2.02083
 Alpha virt. eigenvalues --    2.02869   2.05940   2.06679   2.08367   2.09070
 Alpha virt. eigenvalues --    2.09922   2.11829   2.14503   2.14667   2.17638
 Alpha virt. eigenvalues --    2.18843   2.19643   2.20543   2.22388   2.23367
 Alpha virt. eigenvalues --    2.24263   2.27590   2.27787   2.28571   2.30900
 Alpha virt. eigenvalues --    2.31586   2.33402   2.34740   2.37377   2.38018
 Alpha virt. eigenvalues --    2.38690   2.40117   2.42129   2.43069   2.44876
 Alpha virt. eigenvalues --    2.46554   2.47968   2.49788   2.50831   2.52459
 Alpha virt. eigenvalues --    2.53451   2.56316   2.58197   2.58821   2.61237
 Alpha virt. eigenvalues --    2.61741   2.63841   2.66166   2.67635   2.70573
 Alpha virt. eigenvalues --    2.70987   2.71718   2.75413   2.77563   2.78567
 Alpha virt. eigenvalues --    2.82408   2.85097   2.86206   2.87951   2.88145
 Alpha virt. eigenvalues --    2.90552   2.92001   2.93200   2.95859   2.98387
 Alpha virt. eigenvalues --    2.99425   3.00838   3.04565   3.05984   3.09421
 Alpha virt. eigenvalues --    3.09837   3.13413   3.19997   3.22608   3.27313
 Alpha virt. eigenvalues --    3.28165   3.31150   3.41820   3.44547   3.56018
 Alpha virt. eigenvalues --    3.61819   3.64740   3.74107   3.84178   3.84970
 Alpha virt. eigenvalues --    3.86571   3.88093   3.93141   3.97939   4.03578
 Alpha virt. eigenvalues --    4.06569   4.12048   4.24156   4.25321
          Condensed to atoms (all electrons):
              1          2          3          4          5          6
     1  H    0.820451   0.377943  -0.095954  -0.058938  -0.056955   0.027399
     2  C    0.377943   4.543109   0.326819   0.334437   0.215877  -0.049574
     3  H   -0.095954   0.326819   0.963087  -0.078332   0.089148  -0.010404
     4  H   -0.058938   0.334437  -0.078332   0.719194  -0.036140   0.011543
     5  C   -0.056955   0.215877   0.089148  -0.036140   5.178819   0.191670
     6  O    0.027399  -0.049574  -0.010404   0.011543   0.191670   8.712911
     7  N    0.029319  -0.023209  -0.132723   0.018532   0.202530  -0.087163
     8  H   -0.005971  -0.055331   0.012018  -0.000566  -0.109441   0.001190
     9  C    0.010440   0.029336  -0.030324   0.018396  -0.455591   0.018833
    10  H   -0.000195   0.002084   0.003813   0.000240   0.021386   0.000326
    11  C    0.002375   0.001610  -0.004100  -0.003724   0.019311  -0.016363
    12  H    0.000653   0.009151   0.001164   0.000371   0.042500  -0.057286
    13  H   -0.000171  -0.001252  -0.000542  -0.000017  -0.033406   0.009705
    14  H    0.000004  -0.007490  -0.000426  -0.000582   0.012922   0.014955
    15  C   -0.013866  -0.025891  -0.003487   0.007039  -0.004334   0.049568
    16  O    0.000838   0.006872  -0.000596  -0.001030  -0.011866  -0.008617
    17  N   -0.000196  -0.003056   0.000219  -0.000166   0.009800  -0.002366
    18  H    0.000038   0.000287  -0.000283   0.000162   0.000289   0.000449
    19  C   -0.000123  -0.001665  -0.000068  -0.000260   0.004027   0.000758
    20  H   -0.000025  -0.000470   0.000064  -0.000087   0.001454  -0.000060
    21  H    0.000014   0.000056   0.000002  -0.000060   0.000820   0.000125
    22  H   -0.000015   0.000012  -0.000014   0.000026   0.000708  -0.000037
              7          8          9         10         11         12
     1  H    0.029319  -0.005971   0.010440  -0.000195   0.002375   0.000653
     2  C   -0.023209  -0.055331   0.029336   0.002084   0.001610   0.009151
     3  H   -0.132723   0.012018  -0.030324   0.003813  -0.004100   0.001164
     4  H    0.018532  -0.000566   0.018396   0.000240  -0.003724   0.000371
     5  C    0.202530  -0.109441  -0.455591   0.021386   0.019311   0.042500
     6  O   -0.087163   0.001190   0.018833   0.000326  -0.016363  -0.057286
     7  N    7.763139   0.216803  -0.848790  -0.129636   0.054588  -0.078227
     8  H    0.216803   0.942913   0.155869   0.004338  -0.028218  -0.003943
     9  C   -0.848790   0.155869   9.448080  -0.216388  -0.069796   0.122517
    10  H   -0.129636   0.004338  -0.216388   1.545981   0.038673   0.082560
    11  C    0.054588  -0.028218  -0.069796   0.038673   4.354368   0.380353
    12  H   -0.078227  -0.003943   0.122517   0.082560   0.380353   0.970963
    13  H    0.104161  -0.001051  -0.206838  -0.070470   0.237588  -0.212551
    14  H    0.033476  -0.000454  -0.122097  -0.050836   0.292395  -0.177776
    15  C    0.425931  -0.086809  -1.769162  -0.008478   0.055435  -0.161478
    16  O   -0.068533   0.021432   0.128117  -0.015259   0.005446   0.021737
    17  N   -0.057513   0.010802   0.262847  -0.015867  -0.010354   0.013724
    18  H   -0.004602   0.001454  -0.059338   0.031699  -0.018438   0.001475
    19  C    0.011332  -0.001562  -0.076114   0.002313  -0.009437  -0.005859
    20  H    0.001843   0.000089   0.019256   0.003515  -0.015160  -0.002323
    21  H    0.001083  -0.001092  -0.028102  -0.002936   0.006172   0.000559
    22  H    0.002682   0.000505  -0.011401  -0.002155   0.005586  -0.001223
             13         14         15         16         17         18
     1  H   -0.000171   0.000004  -0.013866   0.000838  -0.000196   0.000038
     2  C   -0.001252  -0.007490  -0.025891   0.006872  -0.003056   0.000287
     3  H   -0.000542  -0.000426  -0.003487  -0.000596   0.000219  -0.000283
     4  H   -0.000017  -0.000582   0.007039  -0.001030  -0.000166   0.000162
     5  C   -0.033406   0.012922  -0.004334  -0.011866   0.009800   0.000289
     6  O    0.009705   0.014955   0.049568  -0.008617  -0.002366   0.000449
     7  N    0.104161   0.033476   0.425931  -0.068533  -0.057513  -0.004602
     8  H   -0.001051  -0.000454  -0.086809   0.021432   0.010802   0.001454
     9  C   -0.206838  -0.122097  -1.769162   0.128117   0.262847  -0.059338
    10  H   -0.070470  -0.050836  -0.008478  -0.015259  -0.015867   0.031699
    11  C    0.237588   0.292395   0.055435   0.005446  -0.010354  -0.018438
    12  H   -0.212551  -0.177776  -0.161478   0.021737   0.013724   0.001475
    13  H    1.317617  -0.146944   0.167651  -0.016066  -0.050465  -0.001723
    14  H   -0.146944   1.077785   0.075919  -0.000386   0.013453  -0.003745
    15  C    0.167651   0.075919   5.938870   0.223868  -0.044863   0.009501
    16  O   -0.016066  -0.000386   0.223868   8.716021  -0.204464   0.011201
    17  N   -0.050465   0.013453  -0.044863  -0.204464   7.268385   0.229178
    18  H   -0.001723  -0.003745   0.009501   0.011201   0.229178   1.027025
    19  C    0.002487   0.005484  -0.050572   0.007894   0.213683  -0.116694
    20  H    0.001619   0.000217  -0.021637   0.004438  -0.038032   0.000919
    21  H   -0.001352   0.000440   0.025651   0.016417  -0.150270   0.021353
    22  H    0.002147   0.000600  -0.019867   0.003269   0.030753  -0.008001
             19         20         21         22
     1  H   -0.000123  -0.000025   0.000014  -0.000015
     2  C   -0.001665  -0.000470   0.000056   0.000012
     3  H   -0.000068   0.000064   0.000002  -0.000014
     4  H   -0.000260  -0.000087  -0.000060   0.000026
     5  C    0.004027   0.001454   0.000820   0.000708
     6  O    0.000758  -0.000060   0.000125  -0.000037
     7  N    0.011332   0.001843   0.001083   0.002682
     8  H   -0.001562   0.000089  -0.001092   0.000505
     9  C   -0.076114   0.019256  -0.028102  -0.011401
    10  H    0.002313   0.003515  -0.002936  -0.002155
    11  C   -0.009437  -0.015160   0.006172   0.005586
    12  H   -0.005859  -0.002323   0.000559  -0.001223
    13  H    0.002487   0.001619  -0.001352   0.002147
    14  H    0.005484   0.000217   0.000440   0.000600
    15  C   -0.050572  -0.021637   0.025651  -0.019867
    16  O    0.007894   0.004438   0.016417   0.003269
    17  N    0.213683  -0.038032  -0.150270   0.030753
    18  H   -0.116694   0.000919   0.021353  -0.008001
    19  C    4.107563   0.475512   0.385174   0.305835
    20  H    0.475512   0.943816  -0.143167  -0.093004
    21  H    0.385174  -0.143167   1.152459  -0.152945
    22  H    0.305835  -0.093004  -0.152945   1.028701
 Mulliken atomic charges:
              1
     1  H   -0.037067
     2  C    0.320344
     3  H   -0.039081
     4  H    0.069963
     5  C    0.716474
     6  O   -0.807561
     7  N   -0.435024
     8  H   -0.072974
     9  C   -0.319751
    10  H   -0.224710
    11  C    0.721690
    12  H    0.052941
    13  H   -0.100128
    14  H   -0.016915
    15  C    1.231011
    16  O   -0.840731
    17  N   -0.475232
    18  H   -0.122206
    19  C    0.740292
    20  H   -0.138775
    21  H   -0.130404
    22  H   -0.092160
 Sum of Mulliken atomic charges =   0.00000
 Mulliken charges with hydrogens summed into heavy atoms:
              1
     2  C    0.314160
     5  C    0.716474
     6  O   -0.807561
     7  N   -0.507998
     9  C   -0.544461
    11  C    0.657589
    15  C    1.231011
    16  O   -0.840731
    17  N   -0.597438
    19  C    0.378954
 Sum of Mulliken charges with hydrogens summed into heavy atoms =   0.00000
 Electronic spatial extent (au):  <R**2>=           1798.7373
 Charge=              0.0000 electrons
 Dipole moment (field-independent basis, Debye):
    X=             -2.9479    Y=              1.0055    Z=              4.6963  Tot=              5.6352
 Quadrupole moment (field-independent basis, Debye-Ang):
   XX=            -52.2418   YY=            -61.0247   ZZ=            -63.2225
   XY=             -7.0658   XZ=              4.5265   YZ=             -0.8281
 Traceless Quadrupole moment (field-independent basis, Debye-Ang):
   XX=              6.5879   YY=             -2.1950   ZZ=             -4.3929
   XY=             -7.0658   XZ=              4.5265   YZ=             -0.8281
 Octapole moment (field-independent basis, Debye-Ang**2):
  XXX=            -27.5754  YYY=              1.4290  ZZZ=              7.8288  XYY=              0.1871
  XXY=            -12.7862  XXZ=             13.1853  XZZ=             -7.6860  YZZ=             -1.8479
  YYZ=              2.2576  XYZ=             -1.4675
 Hexadecapole moment (field-independent basis, Debye-Ang**3):
 XXXX=          -1543.3183 YYYY=           -472.8197 ZZZZ=           -213.8397 XXXY=            -22.2659
 XXXZ=             13.5223 YYYX=             -1.4429 YYYZ=              2.6608 ZZZX=              9.5867
 ZZZY=             -3.5132 XXYY=           -344.0989 XXZZ=           -329.1167 YYZZ=           -116.2197
 XXYZ=             11.0775 YYXZ=             -5.4073 ZZXY=             -9.4351
 N-N= 5.581696558050D+02 E-N=-2.271891432323D+03  KE= 4.920648845937D+02
 1\1\GINC-NODE011\SP\RMP2-FC\Aug-CC-pVDZ\C6H12N2O2\MANAGER\14-Feb-2017\
 0\\#SP MP2/aug-cc-pVDZ\\Single Point calculation at MP2\\0,1\H,0,3.974
 3,-1.1065,-0.2532\C,0,3.064,-1.2109,0.3395\H,0,3.3129,-1.1589,1.4053\H
 ,0,2.6291,-2.1968,0.1353\C,0,2.0724,-0.1368,-0.0894\O,0,2.1227,0.3894,
 -1.1889\N,0,1.1525,0.1975,0.8908\H,0,1.1266,-0.4514,1.6678\C,0,-0.1379
 ,0.8228,0.6235\H,0,-0.5242,1.1269,1.6065\C,0,-0.0548,2.0849,-0.2515\H,
 0,0.2573,1.8388,-1.2651\H,0,-1.0328,2.5794,-0.2773\H,0,0.6735,2.7823,0
 .1732\C,0,-1.128,-0.2153,0.0356\O,0,-0.7565,-1.19,-0.6021\N,0,-2.4396,
 0.028,0.3412\H,0,-2.6702,0.8875,0.82\C,0,-3.5279,-0.7666,-0.2031\H,0,-
 3.0883,-1.6665,-0.635\H,0,-4.2312,-1.0497,0.5875\H,0,-4.0741,-0.2278,-
 0.9879\\Version=EM64L-G09RevA.02\State=1-A\HF=-492.9162354\MP2=-494.51
 72796\RMSD=8.263e-09\PG=C01 [X(C6H12N2O2)]\\@


 NOTHING MAKES A PERSON MORE PRODUCTIVE THAN THE LAST MINUTE.
 Job cpu time:  0 days 11 hours 59 minutes 32.5 seconds.
 File lengths (MBytes):  RWF=  10560 Int=      0 D2E=      0 Chk=      7 Scr=      2
 Normal termination of Gaussian 09 at Tue Feb 14 03:06:31 2017.
