 Entering Gaussian System, Link 0=g09
 Initial command:
 /home/steboss/Software/g09/l1.exe /tmp/Gau-6387.inp -scrdir=/tmp/
 Entering Link 1 = /home/steboss/Software/g09/l1.exe PID=      6389.
  
 Copyright (c) 1988,1990,1992,1993,1995,1998,2003,2009, Gaussian, Inc.
                  All Rights Reserved.
  
 This is part of the Gaussian(R) 09 program.  It is based on
 the Gaussian(R) 03 system (copyright 2003, Gaussian, Inc.),
 the Gaussian(R) 98 system (copyright 1998, Gaussian, Inc.),
 the Gaussian(R) 94 system (copyright 1995, Gaussian, Inc.),
 the Gaussian 92(TM) system (copyright 1992, Gaussian, Inc.),
 the Gaussian 90(TM) system (copyright 1990, Gaussian, Inc.),
 the Gaussian 88(TM) system (copyright 1988, Gaussian, Inc.),
 the Gaussian 86(TM) system (copyright 1986, Carnegie Mellon
 University), and the Gaussian 82(TM) system (copyright 1983,
 Carnegie Mellon University). Gaussian is a federally registered
 trademark of Gaussian, Inc.
  
 This software contains proprietary and confidential information,
 including trade secrets, belonging to Gaussian, Inc.
  
 This software is provided under written license and may be
 used, copied, transmitted, or stored only in accord with that
 written license.
  
 The following legend is applicable only to US Government
 contracts under FAR:
  
                    RESTRICTED RIGHTS LEGEND
  
 Use, reproduction and disclosure by the US Government is
 subject to restrictions as set forth in subparagraphs (a)
 and (c) of the Commercial Computer Software - Restricted
 Rights clause in FAR 52.227-19.
  
 Gaussian, Inc.
 340 Quinnipiac St., Bldg. 40, Wallingford CT 06492
  
  
 ---------------------------------------------------------------
 Warning -- This program may not be used in any manner that
 competes with the business of Gaussian, Inc. or will provide
 assistance to any competitor of Gaussian, Inc.  The licensee
 of this program is prohibited from giving any competitor of
 Gaussian, Inc. access to this program.  By using this program,
 the user acknowledges that Gaussian, Inc. is engaged in the
 business of creating and licensing software in the field of
 computational chemistry and represents and warrants to the
 licensee that it is not a competitor of Gaussian, Inc. and that
 it will not use this program in any manner prohibited above.
 ---------------------------------------------------------------
  

 Cite this work as:
 Gaussian 09, Revision A.02,
 M. J. Frisch, G. W. Trucks, H. B. Schlegel, G. E. Scuseria, 
 M. A. Robb, J. R. Cheeseman, G. Scalmani, V. Barone, B. Mennucci, 
 G. A. Petersson, H. Nakatsuji, M. Caricato, X. Li, H. P. Hratchian, 
 A. F. Izmaylov, J. Bloino, G. Zheng, J. L. Sonnenberg, M. Hada, 
 M. Ehara, K. Toyota, R. Fukuda, J. Hasegawa, M. Ishida, T. Nakajima, 
 Y. Honda, O. Kitao, H. Nakai, T. Vreven, J. A. Montgomery, Jr., 
 J. E. Peralta, F. Ogliaro, M. Bearpark, J. J. Heyd, E. Brothers, 
 K. N. Kudin, V. N. Staroverov, R. Kobayashi, J. Normand, 
 K. Raghavachari, A. Rendell, J. C. Burant, S. S. Iyengar, J. Tomasi, 
 M. Cossi, N. Rega, J. M. Millam, M. Klene, J. E. Knox, J. B. Cross, 
 V. Bakken, C. Adamo, J. Jaramillo, R. Gomperts, R. E. Stratmann, 
 O. Yazyev, A. J. Austin, R. Cammi, C. Pomelli, J. W. Ochterski, 
 R. L. Martin, K. Morokuma, V. G. Zakrzewski, G. A. Voth, 
 P. Salvador, J. J. Dannenberg, S. Dapprich, A. D. Daniels, 
 O. Farkas, J. B. Foresman, J. V. Ortiz, J. Cioslowski, 
 and D. J. Fox, Gaussian, Inc., Wallingford CT, 2009.
 
 ******************************************
 Gaussian 09:  EM64L-G09RevA.02 11-Jun-2009
                27-Dec-2016 
 ******************************************
 %chk=structure_90.chk
 -------------------------------------------------------------------
 # HF/6-31G* Opt=(ModRedundant, maxcycles=1000, calcfc) geom=nocrowd
 -------------------------------------------------------------------
 1/6=1000,10=4,18=120,19=15,38=1/1,3;
 2/9=110,12=1,17=6,18=5,40=1/2;
 3/5=1,6=6,7=1,11=9,16=1,25=1,30=1,71=2/1,2,3;
 4//1;
 5/5=2,38=5/2;
 8/6=4,10=90,11=11/1;
 11/6=1,8=1,9=11,15=111,16=1/1,2,10;
 10/6=1,7=6,13=1/2;
 6/7=2,8=2,9=2,10=2,28=1/1;
 7/10=1,18=20,25=1/1,2,3,16;
 1/6=1000,10=4,18=20,19=15/3(2);
 2/9=110,12=1/2;
 99//99;
 2/9=110,12=1/2;
 3/5=1,6=6,7=1,11=9,16=1,25=1,30=1,71=1/1,2,3;
 4/5=5,16=3/1;
 5/5=2,38=5/2;
 7//1,2,3,16;
 1/6=1000,18=20,19=15/3(-5);
 2/9=110,12=1/2;
 6/7=2,8=2,9=2,10=2,19=2,28=1/1;
 99/9=1/99;
 ------------------
 Phi Psi fixed scan
 ------------------
 Symbolic Z-matrix:
 Charge =  0 Multiplicity = 1
 H                     5.8461    1.        3.846 
 C                     5.8461    2.09      3.846 
 H                     6.7359    2.4538    4.3598 
 H                     4.9562    2.4538    4.3598 
 C                     5.846     2.6408    2.4186 
 O                     5.846     1.8774    1.4555 
 N                     5.846     3.9696    2.2907 
 H                     5.846     4.5561    3.1129 
 C                     5.846     4.6139    0.9928 
 H                     6.7359    4.3155    0.4385 
 C                     4.6139    4.2208    0.1847 
 H                     3.7149    4.5214    0.7228 
 H                     4.6403    4.7189   -0.7844 
 H                     4.6047    3.1409    0.0375 
 C                     5.846     6.1294    1.1334 
 O                     5.8461    6.6527    2.2454 
 N                     5.846     6.8349    0. 
 H                     5.846     6.3592   -0.8909 
 C                     5.8461    8.2839    0. 
 H                     5.3323    8.6477   -0.8898 
 C                     5.1347    8.8329    1.2322 
 H                     5.6431    8.4846    2.1312 
 H                     5.1499    9.9224    1.2058 
 H                     4.1019    8.4846    1.2414 
 C                     7.266     8.8318    0. 
 O                     7.848     9.0564    1.0589 
 N                     7.8237    9.047    -1.1937 
 H                     7.305     8.8468   -2.0369 
 C                     9.1698    9.5664   -1.3276 
 H                     9.2317    10.5441  -0.8496 
 C                     10.1846   8.6373   -0.6699 
 H                     10.1409   7.6568   -1.144 
 H                     11.186    9.052    -0.7857 
 H                     9.9534    8.5382    0.3906 
 C                     9.5564    9.7156   -2.792 
 O                     8.7642    9.4099   -3.6806 
 N                     10.7798   10.1877  -3.0422 
 H                     11.3955   10.4253  -2.2776 
 C                     11.2665   10.3755  -4.3941 
 H                     10.4943   10.0775  -5.1034 
 H                     11.5155   11.4253  -4.5486 
 H                     12.1562   9.765    -4.5486 
 
 The following ModRedundant input section has been read:
 D   15   17   19   25 F                                                       
 D   17   19   25   27 F                                                       

 GradGradGradGradGradGradGradGradGradGradGradGradGradGradGradGradGradGrad
 Berny optimization.
 Initialization pass.
                           ----------------------------
                           !    Initial Parameters    !
                           ! (Angstroms and Degrees)  !
 --------------------------                            --------------------------
 ! Name  Definition              Value          Derivative Info.                !
 --------------------------------------------------------------------------------
 ! R1    R(1,2)                  1.09           calculate D2E/DX2 analytically  !
 ! R2    R(2,3)                  1.09           calculate D2E/DX2 analytically  !
 ! R3    R(2,4)                  1.0901         calculate D2E/DX2 analytically  !
 ! R4    R(2,5)                  1.53           calculate D2E/DX2 analytically  !
 ! R5    R(5,6)                  1.229          calculate D2E/DX2 analytically  !
 ! R6    R(5,7)                  1.3349         calculate D2E/DX2 analytically  !
 ! R7    R(7,8)                  1.0099         calculate D2E/DX2 analytically  !
 ! R8    R(7,9)                  1.449          calculate D2E/DX2 analytically  !
 ! R9    R(9,10)                 1.0901         calculate D2E/DX2 analytically  !
 ! R10   R(9,11)                 1.525          calculate D2E/DX2 analytically  !
 ! R11   R(9,15)                 1.522          calculate D2E/DX2 analytically  !
 ! R12   R(11,12)                1.09           calculate D2E/DX2 analytically  !
 ! R13   R(11,13)                1.0899         calculate D2E/DX2 analytically  !
 ! R14   R(11,14)                1.0899         calculate D2E/DX2 analytically  !
 ! R15   R(15,16)                1.229          calculate D2E/DX2 analytically  !
 ! R16   R(15,17)                1.335          calculate D2E/DX2 analytically  !
 ! R17   R(17,18)                1.0099         calculate D2E/DX2 analytically  !
 ! R18   R(17,19)                1.449          calculate D2E/DX2 analytically  !
 ! R19   R(19,20)                1.09           calculate D2E/DX2 analytically  !
 ! R20   R(19,21)                1.5251         calculate D2E/DX2 analytically  !
 ! R21   R(19,25)                1.5219         calculate D2E/DX2 analytically  !
 ! R22   R(21,22)                1.0899         calculate D2E/DX2 analytically  !
 ! R23   R(21,23)                1.0899         calculate D2E/DX2 analytically  !
 ! R24   R(21,24)                1.09           calculate D2E/DX2 analytically  !
 ! R25   R(25,26)                1.229          calculate D2E/DX2 analytically  !
 ! R26   R(25,27)                1.335          calculate D2E/DX2 analytically  !
 ! R27   R(27,28)                1.01           calculate D2E/DX2 analytically  !
 ! R28   R(27,29)                1.449          calculate D2E/DX2 analytically  !
 ! R29   R(29,30)                1.0901         calculate D2E/DX2 analytically  !
 ! R30   R(29,31)                1.525          calculate D2E/DX2 analytically  !
 ! R31   R(29,35)                1.5219         calculate D2E/DX2 analytically  !
 ! R32   R(31,32)                1.09           calculate D2E/DX2 analytically  !
 ! R33   R(31,33)                1.09           calculate D2E/DX2 analytically  !
 ! R34   R(31,34)                1.0899         calculate D2E/DX2 analytically  !
 ! R35   R(35,36)                1.2291         calculate D2E/DX2 analytically  !
 ! R36   R(35,37)                1.335          calculate D2E/DX2 analytically  !
 ! R37   R(37,38)                1.01           calculate D2E/DX2 analytically  !
 ! R38   R(37,39)                1.4491         calculate D2E/DX2 analytically  !
 ! R39   R(39,40)                1.09           calculate D2E/DX2 analytically  !
 ! R40   R(39,41)                1.0899         calculate D2E/DX2 analytically  !
 ! R41   R(39,42)                1.09           calculate D2E/DX2 analytically  !
 ! A1    A(1,2,3)              109.4974         calculate D2E/DX2 analytically  !
 ! A2    A(1,2,4)              109.4959         calculate D2E/DX2 analytically  !
 ! A3    A(1,2,5)              111.1004         calculate D2E/DX2 analytically  !
 ! A4    A(3,2,4)              109.4423         calculate D2E/DX2 analytically  !
 ! A5    A(3,2,5)              108.643          calculate D2E/DX2 analytically  !
 ! A6    A(4,2,5)              108.6351         calculate D2E/DX2 analytically  !
 ! A7    A(2,5,6)              120.4975         calculate D2E/DX2 analytically  !
 ! A8    A(2,5,7)              116.5983         calculate D2E/DX2 analytically  !
 ! A9    A(6,5,7)              122.9041         calculate D2E/DX2 analytically  !
 ! A10   A(5,7,8)              120.0035         calculate D2E/DX2 analytically  !
 ! A11   A(5,7,9)              121.8985         calculate D2E/DX2 analytically  !
 ! A12   A(8,7,9)              118.098          calculate D2E/DX2 analytically  !
 ! A13   A(7,9,10)             109.4968         calculate D2E/DX2 analytically  !
 ! A14   A(7,9,11)             111.1015         calculate D2E/DX2 analytically  !
 ! A15   A(7,9,15)             111.1002         calculate D2E/DX2 analytically  !
 ! A16   A(10,9,11)            108.6364         calculate D2E/DX2 analytically  !
 ! A17   A(10,9,15)            108.6359         calculate D2E/DX2 analytically  !
 ! A18   A(11,9,15)            107.7954         calculate D2E/DX2 analytically  !
 ! A19   A(9,11,12)            109.492          calculate D2E/DX2 analytically  !
 ! A20   A(9,11,13)            109.4986         calculate D2E/DX2 analytically  !
 ! A21   A(9,11,14)            109.4987         calculate D2E/DX2 analytically  !
 ! A22   A(12,11,13)           109.4439         calculate D2E/DX2 analytically  !
 ! A23   A(12,11,14)           109.4481         calculate D2E/DX2 analytically  !
 ! A24   A(13,11,14)           109.446          calculate D2E/DX2 analytically  !
 ! A25   A(9,15,16)            120.5018         calculate D2E/DX2 analytically  !
 ! A26   A(9,15,17)            116.6003         calculate D2E/DX2 analytically  !
 ! A27   A(16,15,17)           122.8979         calculate D2E/DX2 analytically  !
 ! A28   A(15,17,18)           119.9991         calculate D2E/DX2 analytically  !
 ! A29   A(15,17,19)           121.9008         calculate D2E/DX2 analytically  !
 ! A30   A(18,17,19)           118.1002         calculate D2E/DX2 analytically  !
 ! A31   A(17,19,20)           109.4954         calculate D2E/DX2 analytically  !
 ! A32   A(17,19,21)           111.0974         calculate D2E/DX2 analytically  !
 ! A33   A(17,19,25)           111.1042         calculate D2E/DX2 analytically  !
 ! A34   A(20,19,21)           108.6349         calculate D2E/DX2 analytically  !
 ! A35   A(20,19,25)           108.6399         calculate D2E/DX2 analytically  !
 ! A36   A(21,19,25)           107.7944         calculate D2E/DX2 analytically  !
 ! A37   A(19,21,22)           109.4996         calculate D2E/DX2 analytically  !
 ! A38   A(19,21,23)           109.4977         calculate D2E/DX2 analytically  !
 ! A39   A(19,21,24)           109.4988         calculate D2E/DX2 analytically  !
 ! A40   A(22,21,23)           109.4452         calculate D2E/DX2 analytically  !
 ! A41   A(22,21,24)           109.4447         calculate D2E/DX2 analytically  !
 ! A42   A(23,21,24)           109.4412         calculate D2E/DX2 analytically  !
 ! A43   A(19,25,26)           120.5038         calculate D2E/DX2 analytically  !
 ! A44   A(19,25,27)           116.6007         calculate D2E/DX2 analytically  !
 ! A45   A(26,25,27)           122.8955         calculate D2E/DX2 analytically  !
 ! A46   A(25,27,28)           119.999          calculate D2E/DX2 analytically  !
 ! A47   A(25,27,29)           121.9028         calculate D2E/DX2 analytically  !
 ! A48   A(28,27,29)           118.0982         calculate D2E/DX2 analytically  !
 ! A49   A(27,29,30)           109.4955         calculate D2E/DX2 analytically  !
 ! A50   A(27,29,31)           111.0965         calculate D2E/DX2 analytically  !
 ! A51   A(27,29,35)           111.1024         calculate D2E/DX2 analytically  !
 ! A52   A(30,29,31)           108.6353         calculate D2E/DX2 analytically  !
 ! A53   A(30,29,35)           108.638          calculate D2E/DX2 analytically  !
 ! A54   A(31,29,35)           107.7987         calculate D2E/DX2 analytically  !
 ! A55   A(29,31,32)           109.4985         calculate D2E/DX2 analytically  !
 ! A56   A(29,31,33)           109.4953         calculate D2E/DX2 analytically  !
 ! A57   A(29,31,34)           109.5041         calculate D2E/DX2 analytically  !
 ! A58   A(32,31,33)           109.4422         calculate D2E/DX2 analytically  !
 ! A59   A(32,31,34)           109.4463         calculate D2E/DX2 analytically  !
 ! A60   A(33,31,34)           109.4408         calculate D2E/DX2 analytically  !
 ! A61   A(29,35,36)           120.5006         calculate D2E/DX2 analytically  !
 ! A62   A(29,35,37)           116.6024         calculate D2E/DX2 analytically  !
 ! A63   A(36,35,37)           122.8969         calculate D2E/DX2 analytically  !
 ! A64   A(35,37,38)           119.9966         calculate D2E/DX2 analytically  !
 ! A65   A(35,37,39)           121.9029         calculate D2E/DX2 analytically  !
 ! A66   A(38,37,39)           118.1005         calculate D2E/DX2 analytically  !
 ! A67   A(37,39,40)           109.494          calculate D2E/DX2 analytically  !
 ! A68   A(37,39,41)           109.5001         calculate D2E/DX2 analytically  !
 ! A69   A(37,39,42)           109.4993         calculate D2E/DX2 analytically  !
 ! A70   A(40,39,41)           109.4459         calculate D2E/DX2 analytically  !
 ! A71   A(40,39,42)           109.4432         calculate D2E/DX2 analytically  !
 ! A72   A(41,39,42)           109.4447         calculate D2E/DX2 analytically  !
 ! D1    D(1,2,5,6)             -0.0037         calculate D2E/DX2 analytically  !
 ! D2    D(1,2,5,7)           -179.9996         calculate D2E/DX2 analytically  !
 ! D3    D(3,2,5,6)            120.5102         calculate D2E/DX2 analytically  !
 ! D4    D(3,2,5,7)            -59.4858         calculate D2E/DX2 analytically  !
 ! D5    D(4,2,5,6)           -120.5105         calculate D2E/DX2 analytically  !
 ! D6    D(4,2,5,7)             59.4936         calculate D2E/DX2 analytically  !
 ! D7    D(2,5,7,8)             -0.0042         calculate D2E/DX2 analytically  !
 ! D8    D(2,5,7,9)            179.9958         calculate D2E/DX2 analytically  !
 ! D9    D(6,5,7,8)            180.0            calculate D2E/DX2 analytically  !
 ! D10   D(6,5,7,9)              0.0            calculate D2E/DX2 analytically  !
 ! D11   D(5,7,9,10)           -60.0019         calculate D2E/DX2 analytically  !
 ! D12   D(5,7,9,11)            59.9977         calculate D2E/DX2 analytically  !
 ! D13   D(5,7,9,15)           180.0            calculate D2E/DX2 analytically  !
 ! D14   D(8,7,9,10)           119.9981         calculate D2E/DX2 analytically  !
 ! D15   D(8,7,9,11)          -120.0023         calculate D2E/DX2 analytically  !
 ! D16   D(8,7,9,15)             0.0            calculate D2E/DX2 analytically  !
 ! D17   D(7,9,11,12)           60.0038         calculate D2E/DX2 analytically  !
 ! D18   D(7,9,11,13)          179.9998         calculate D2E/DX2 analytically  !
 ! D19   D(7,9,11,14)          -59.9974         calculate D2E/DX2 analytically  !
 ! D20   D(10,9,11,12)        -179.4868         calculate D2E/DX2 analytically  !
 ! D21   D(10,9,11,13)         -59.4908         calculate D2E/DX2 analytically  !
 ! D22   D(10,9,11,14)          60.512          calculate D2E/DX2 analytically  !
 ! D23   D(15,9,11,12)         -61.9429         calculate D2E/DX2 analytically  !
 ! D24   D(15,9,11,13)          58.0532         calculate D2E/DX2 analytically  !
 ! D25   D(15,9,11,14)         178.056          calculate D2E/DX2 analytically  !
 ! D26   D(7,9,15,16)            0.0054         calculate D2E/DX2 analytically  !
 ! D27   D(7,9,15,17)          180.0            calculate D2E/DX2 analytically  !
 ! D28   D(10,9,15,16)        -120.5029         calculate D2E/DX2 analytically  !
 ! D29   D(10,9,15,17)          59.4917         calculate D2E/DX2 analytically  !
 ! D30   D(11,9,15,16)         121.9528         calculate D2E/DX2 analytically  !
 ! D31   D(11,9,15,17)         -58.0526         calculate D2E/DX2 analytically  !
 ! D32   D(9,15,17,18)           0.0            calculate D2E/DX2 analytically  !
 ! D33   D(9,15,17,19)        -179.9953         calculate D2E/DX2 analytically  !
 ! D34   D(16,15,17,18)        179.9944         calculate D2E/DX2 analytically  !
 ! D35   D(16,15,17,19)         -0.0009         calculate D2E/DX2 analytically  !
 ! D36   D(15,17,19,20)       -149.9977         calculate D2E/DX2 analytically  !
 ! D37   D(15,17,19,21)        -30.0034         calculate D2E/DX2 analytically  !
 ! D38   D(15,17,19,25)         89.9975         frozen, calculate D2E/DX2 analyt!
 ! D39   D(18,17,19,20)         30.0069         calculate D2E/DX2 analytically  !
 ! D40   D(18,17,19,21)        150.0012         calculate D2E/DX2 analytically  !
 ! D41   D(18,17,19,25)        -89.9979         calculate D2E/DX2 analytically  !
 ! D42   D(17,19,21,22)         60.0039         calculate D2E/DX2 analytically  !
 ! D43   D(17,19,21,23)       -179.9943         calculate D2E/DX2 analytically  !
 ! D44   D(17,19,21,24)        -59.998          calculate D2E/DX2 analytically  !
 ! D45   D(20,19,21,22)       -179.4919         calculate D2E/DX2 analytically  !
 ! D46   D(20,19,21,23)        -59.4901         calculate D2E/DX2 analytically  !
 ! D47   D(20,19,21,24)         60.5062         calculate D2E/DX2 analytically  !
 ! D48   D(25,19,21,22)        -61.9445         calculate D2E/DX2 analytically  !
 ! D49   D(25,19,21,23)         58.0573         calculate D2E/DX2 analytically  !
 ! D50   D(25,19,21,24)        178.0536         calculate D2E/DX2 analytically  !
 ! D51   D(17,19,25,26)        -90.0011         calculate D2E/DX2 analytically  !
 ! D52   D(17,19,25,27)         90.0            frozen, calculate D2E/DX2 analyt!
 ! D53   D(20,19,25,26)        149.4872         calculate D2E/DX2 analytically  !
 ! D54   D(20,19,25,27)        -30.5117         calculate D2E/DX2 analytically  !
 ! D55   D(21,19,25,26)         31.943          calculate D2E/DX2 analytically  !
 ! D56   D(21,19,25,27)       -148.0559         calculate D2E/DX2 analytically  !
 ! D57   D(19,25,27,28)         -0.0029         calculate D2E/DX2 analytically  !
 ! D58   D(19,25,27,29)       -179.999          calculate D2E/DX2 analytically  !
 ! D59   D(26,25,27,28)        179.9982         calculate D2E/DX2 analytically  !
 ! D60   D(26,25,27,29)          0.0021         calculate D2E/DX2 analytically  !
 ! D61   D(25,27,29,30)        -59.9981         calculate D2E/DX2 analytically  !
 ! D62   D(25,27,29,31)         59.9962         calculate D2E/DX2 analytically  !
 ! D63   D(25,27,29,35)       -179.9993         calculate D2E/DX2 analytically  !
 ! D64   D(28,27,29,30)        120.0057         calculate D2E/DX2 analytically  !
 ! D65   D(28,27,29,31)       -120.0            calculate D2E/DX2 analytically  !
 ! D66   D(28,27,29,35)          0.0045         calculate D2E/DX2 analytically  !
 ! D67   D(27,29,31,32)         60.0075         calculate D2E/DX2 analytically  !
 ! D68   D(27,29,31,33)       -179.9966         calculate D2E/DX2 analytically  !
 ! D69   D(27,29,31,34)        -59.9989         calculate D2E/DX2 analytically  !
 ! D70   D(30,29,31,32)       -179.4885         calculate D2E/DX2 analytically  !
 ! D71   D(30,29,31,33)        -59.4926         calculate D2E/DX2 analytically  !
 ! D72   D(30,29,31,34)         60.5051         calculate D2E/DX2 analytically  !
 ! D73   D(35,29,31,32)        -61.9409         calculate D2E/DX2 analytically  !
 ! D74   D(35,29,31,33)         58.055          calculate D2E/DX2 analytically  !
 ! D75   D(35,29,31,34)        178.0527         calculate D2E/DX2 analytically  !
 ! D76   D(27,29,35,36)         -0.0022         calculate D2E/DX2 analytically  !
 ! D77   D(27,29,35,37)        179.9981         calculate D2E/DX2 analytically  !
 ! D78   D(30,29,35,36)       -120.5116         calculate D2E/DX2 analytically  !
 ! D79   D(30,29,35,37)         59.4887         calculate D2E/DX2 analytically  !
 ! D80   D(31,29,35,36)        121.9425         calculate D2E/DX2 analytically  !
 ! D81   D(31,29,35,37)        -58.0572         calculate D2E/DX2 analytically  !
 ! D82   D(29,35,37,38)         -0.001          calculate D2E/DX2 analytically  !
 ! D83   D(29,35,37,39)        179.9989         calculate D2E/DX2 analytically  !
 ! D84   D(36,35,37,38)        179.9994         calculate D2E/DX2 analytically  !
 ! D85   D(36,35,37,39)         -0.0008         calculate D2E/DX2 analytically  !
 ! D86   D(35,37,39,40)         -0.0003         calculate D2E/DX2 analytically  !
 ! D87   D(35,37,39,41)        120.0004         calculate D2E/DX2 analytically  !
 ! D88   D(35,37,39,42)       -119.9972         calculate D2E/DX2 analytically  !
 ! D89   D(38,37,39,40)        179.9995         calculate D2E/DX2 analytically  !
 ! D90   D(38,37,39,41)        -59.9998         calculate D2E/DX2 analytically  !
 ! D91   D(38,37,39,42)         60.0026         calculate D2E/DX2 analytically  !
 --------------------------------------------------------------------------------
 Trust Radius=3.00D-01 FncErr=1.00D-07 GrdErr=1.00D-07
 Number of steps in this run= 252 maximum allowed number of steps= 252.
 GradGradGradGradGradGradGradGradGradGradGradGradGradGradGradGradGradGrad

                          Input orientation:                          
 ---------------------------------------------------------------------
 Center     Atomic      Atomic             Coordinates (Angstroms)
 Number     Number       Type             X           Y           Z
 ---------------------------------------------------------------------
      1          1           0        5.846100    1.000000    3.846000
      2          6           0        5.846100    2.090000    3.846000
      3          1           0        6.735900    2.453800    4.359800
      4          1           0        4.956200    2.453800    4.359800
      5          6           0        5.846000    2.640800    2.418600
      6          8           0        5.846000    1.877400    1.455500
      7          7           0        5.846000    3.969600    2.290700
      8          1           0        5.846000    4.556100    3.112900
      9          6           0        5.846000    4.613900    0.992800
     10          1           0        6.735900    4.315500    0.438500
     11          6           0        4.613900    4.220800    0.184700
     12          1           0        3.714900    4.521400    0.722800
     13          1           0        4.640300    4.718900   -0.784400
     14          1           0        4.604700    3.140900    0.037500
     15          6           0        5.846000    6.129400    1.133400
     16          8           0        5.846100    6.652700    2.245400
     17          7           0        5.846000    6.834900    0.000000
     18          1           0        5.846000    6.359200   -0.890900
     19          6           0        5.846100    8.283900    0.000000
     20          1           0        5.332300    8.647700   -0.889800
     21          6           0        5.134700    8.832900    1.232200
     22          1           0        5.643100    8.484600    2.131200
     23          1           0        5.149900    9.922400    1.205800
     24          1           0        4.101900    8.484600    1.241400
     25          6           0        7.266000    8.831800    0.000000
     26          8           0        7.848000    9.056400    1.058900
     27          7           0        7.823700    9.047000   -1.193700
     28          1           0        7.305000    8.846800   -2.036900
     29          6           0        9.169800    9.566400   -1.327600
     30          1           0        9.231700   10.544100   -0.849600
     31          6           0       10.184600    8.637300   -0.669900
     32          1           0       10.140900    7.656800   -1.144000
     33          1           0       11.186000    9.052000   -0.785700
     34          1           0        9.953400    8.538200    0.390600
     35          6           0        9.556400    9.715600   -2.792000
     36          8           0        8.764200    9.409900   -3.680600
     37          7           0       10.779800   10.187700   -3.042200
     38          1           0       11.395500   10.425300   -2.277600
     39          6           0       11.266500   10.375500   -4.394100
     40          1           0       10.494300   10.077500   -5.103400
     41          1           0       11.515500   11.425300   -4.548600
     42          1           0       12.156200    9.765000   -4.548600
 ---------------------------------------------------------------------
                    Distance matrix (angstroms):
                    1          2          3          4          5
     1  H    0.000000
     2  C    1.090000   0.000000
     3  H    1.780244   1.089993   0.000000
     4  H    1.780294   1.090075   1.779700   0.000000
     5  C    2.174786   1.529984   2.143630   2.143588   0.000000
     6  O    2.546433   2.399935   3.091782   3.091753   1.228959
     7  N    3.352235   2.439642   2.714912   2.714879   1.334941
     8  H    3.630879   2.572758   2.601220   2.601186   2.037260
     9  C    4.604457   3.809307   4.098127   4.098105   2.434344
    10  H    4.836873   4.166011   4.340797   4.691466   2.741776
    11  C    5.029611   4.411773   5.005660   4.546528   3.000796
    12  H    5.166880   4.495342   5.160347   4.363893   3.309680
    13  H    6.060097   5.459457   5.998751   5.629677   4.003926
    14  H    4.541938   4.141272   4.867895   4.390665   2.731403
    15  C    5.802495   4.865691   4.971078   4.971060   3.717804
    16  O    5.874942   4.835303   4.784683   4.784702   4.015637
    17  N    6.988403   6.107847   6.244503   6.244489   4.841498
    18  H    7.152569   6.376856   6.604084   6.604070   4.977880
    19  C    8.236924   7.290824   7.334144   7.334156   6.139561
    20  H    9.009945   8.105259   8.239708   8.127986   6.876936
    21  C    8.288086   7.266687   7.282763   7.106804   6.344730
    22  H    7.681210   6.623644   6.521612   6.465991   5.854380
    23  H    9.330840   8.294687   8.260938   8.109576   7.414657
    24  H    8.114519   7.121593   7.282371   6.842865   6.211094
    25  C    8.839962   7.890482   7.743884   8.063617   6.796654
    26  O    8.756775   7.765710   7.465054   7.927974   6.856873
    27  N    9.698644   8.815289   8.688783   9.084834   7.615734
    28  H    9.915098   9.076962   9.061572   9.343719   7.777827
    29  C   10.544967   9.680376   9.426530  10.034442   8.546672
    30  H   11.162472  10.246109   9.940816  10.529516   9.198165
    31  C    9.876451   9.059971   8.684877   9.532561   8.019993
    32  H    9.362606   8.621756   8.304038   9.178461   7.503235
    33  H   10.714564   9.921523   9.477120  10.431818   8.937932
    34  H    9.253873   8.389814   7.945236   8.817396   7.467452
    35  C   11.566808  10.769361  10.575311  11.182300   9.537831
    36  O   11.657248  10.897062  10.823556  11.293194   9.567489
    37  N   12.498101  11.720130  11.443598  12.186760  10.541272
    38  H   12.535174  11.737612  11.371533  12.209196  10.651276
    39  C   13.608085  12.881362  12.645570  13.386709  11.645612
    40  H   13.568291  12.864590  12.720005  13.354531  11.553860
    41  H   14.536103  13.775312  13.516360  14.243308  12.563938
    42  H   13.678885  13.007394  12.735497  13.588717  11.794691
                    6          7          8          9         10
     6  O    0.000000
     7  N    2.252745   0.000000
     8  H    3.149985   1.009948   0.000000
     9  C    2.775342   1.449023   2.120888   0.000000
    10  H    2.787569   2.083798   2.828821   1.090052   0.000000
    11  C    2.936754   2.452837   3.194503   1.525000   2.139221
    12  H    3.474071   2.702662   3.202401   2.150126   3.041326
    13  H    3.813789   3.386946   4.082789   2.150158   2.459625
    14  H    2.268916   2.702680   3.605787   2.150152   2.466272
    15  C    4.264183   2.450322   2.528575   1.522008   2.136596
    16  O    4.840189   2.683482   2.268984   2.392846   3.085310
    17  N    5.166748   3.668413   3.857859   2.432795   2.707689
    18  H    5.058866   3.979041   4.391080   2.567956   2.595368
    19  C    6.569758   4.884720   4.856608   3.801914   4.090504
    20  H    7.183403   5.680149   5.746885   4.481028   4.743673
    21  C    6.995341   5.027729   4.725886   4.285233   4.858056
    22  H    6.644760   4.522370   4.054382   4.039733   4.630425
    23  H    8.078919   6.090763   5.737487   5.358180   5.877199
    24  H    6.836872   4.952589   4.688018   4.252764   4.996399
    25  C    7.245589   5.559199   5.476144   4.559905   4.568397
    26  O    7.463467   5.603648   5.336630   4.873210   4.908951
    27  N    7.895107   6.467792   6.528881   5.323951   5.121960
    28  H    7.930831   6.681608   6.859973   5.406034   5.194628
    29  C    8.826891   7.447410   7.474543   6.399934   6.051027
    30  H    9.585830   8.034208   7.938546   7.072812   6.832545
    31  C    8.308852   7.026808   7.056148   6.146200   5.639152
    32  H    7.655392   6.621086   6.795712   5.680785   5.026193
    33  H    9.220275   7.988155   7.995486   7.167663   6.613357
    34  H    7.897531   6.430647   6.335517   5.712575   5.309030
    35  C    9.656381   8.521586   8.674984   7.356570   6.895827
    36  O    9.572563   8.588899   8.844598   7.304668   6.858126
    37  N   10.659867   9.562791   9.692397   8.467045   7.934175
    38  H   10.853552   9.661386   9.710919   8.675531   8.149769
    39  C   11.654070  10.728650  10.936283   9.570608   8.977971
    40  H   11.483358  10.657666  10.936185   9.413887   8.833961
    41  H   12.623583  11.597703  11.748520  10.452058   9.912870
    42  H   11.750833  10.962724  11.209364   9.851882   9.162307
                   11         12         13         14         15
    11  C    0.000000
    12  H    1.090006   0.000000
    13  H    1.089934   1.779613   0.000000
    14  H    1.089925   1.779652   1.779570   0.000000
    15  C    2.461881   2.701082   2.668554   3.416571   0.000000
    16  O    3.417446   3.376798   3.791204   4.329969   1.228978
    17  N    2.895808   3.227431   2.558603   3.897162   1.335038
    18  H    2.692163   3.243936   2.038538   3.572143   2.037302
    19  C    4.249849   4.384160   3.844277   5.290834   2.434433
    20  H    4.611734   4.716229   3.990669   5.631530   3.270942
    21  C    4.758146   4.567751   4.608265   5.840126   2.797252
    22  H    4.798761   4.626932   4.866912   5.832408   2.565880
    23  H    5.817060   5.609217   5.594372   6.902964   3.857026
    24  H    4.422527   4.015678   4.309784   5.500665   2.932664
    25  C    5.322506   5.631367   4.942219   6.282537   3.256372
    26  O    5.882742   6.145055   5.700965   6.823151   3.546954
    27  N    5.957769   6.405955   5.388322   6.838116   4.223634
    28  H    5.794601   6.262096   5.070398   6.644701   4.423092
    29  C    7.184617   7.707924   6.656553   7.999418   5.377466
    30  H    7.897973   8.317478   7.417423   8.775161   5.906338
    31  C    7.160203   7.793412   6.790157   7.864230   5.325871
    32  H    6.642234   7.389800   6.246372   7.241464   5.095652
    33  H    8.214297   8.866749   7.849965   8.884384   6.382800
    34  H    6.869687   7.427242   6.648061   7.606847   4.819212
    35  C    7.967551   8.570686   7.291468   8.703567   6.483569
    36  O    7.687151   8.293539   6.884766   8.392024   6.515533
    37  N    9.167066   9.807905   8.526365   9.862748   7.632026
    38  H    9.515715  10.141501   8.968020  10.224340   7.802988
    39  C   10.153956  10.838811   9.430460  10.786941   8.829748
    40  H    9.840937  10.524976   9.035357  10.451443   8.723065
    41  H   11.042691  11.674796  10.315686  11.722745   9.616388
    42  H   10.489451  11.248935   9.804136  11.042471   9.236955
                   16         17         18         19         20
    16  O    0.000000
    17  N    2.252780   0.000000
    18  H    3.150003   1.009947   0.000000
    19  C    2.775362   1.449000   2.120890   0.000000
    20  H    3.751466   2.083717   2.345447   1.089993   0.000000
    21  C    2.507177   2.452808   3.336569   1.525060   2.139212
    22  H    1.846648   2.702719   3.700214   2.150233   3.041322
    23  H    3.500914   3.386911   4.192505   2.150193   2.459608
    24  H    2.721416   2.702678   3.479355   2.150253   2.466272
    25  C    3.436046   2.450308   2.987282   1.521943   2.136547
    26  O    3.345618   3.172434   3.883891   2.392829   3.208304
    27  N    4.633679   3.198375   3.350709   2.432723   2.541431
    28  H    5.027977   3.213314   3.103248   2.567919   2.290638
    29  C    5.683569   4.502362   4.639449   3.801882   3.970149
    30  H    6.015339   5.093422   5.383127   4.158439   4.336274
    31  C    5.591082   4.745615   4.905306   4.404116   4.857291
    32  H    5.562513   4.520002   4.493773   4.488574   4.916211
    33  H    6.592324   5.835106   5.981458   5.451773   5.868569
    34  H    4.885213   4.463691   4.822968   4.133661   4.796455
    35  C    6.965851   5.464500   5.352258   4.859152   4.754135
    36  O    7.157858   5.356616   5.060147   4.830114   4.488591
    37  N    8.049617   6.696165   6.605141   6.100888   6.056375
    38  H    8.092335   6.991093   7.018052   6.369372   6.469022
    39  C    9.344674   7.824691   7.601638   7.284479   7.104938
    40  H    9.345581   7.626653   7.292298   7.132142   6.815057
    41  H   10.053768   8.596788   8.437261   7.918349   7.702846
    42  H    9.780706   8.312272   8.049650   7.918382   7.823093
                   21         22         23         24         25
    21  C    0.000000
    22  H    1.089947   0.000000
    23  H    1.089926   1.779573   0.000000
    24  H    1.089988   1.779618   1.779562   0.000000
    25  C    2.461861   2.701179   2.668565   3.416599   0.000000
    26  O    2.728000   2.517611   2.837478   3.793880   1.228999
    27  N    3.627885   4.015753   3.697720   4.483057   1.335013
    28  H    3.923953   4.501795   4.039366   4.597640   2.037329
    29  C    4.834525   5.056798   4.764918   5.783914   2.434464
    30  H    4.903826   5.099486   4.612187   5.910048   2.741855
    31  C    5.399790   5.338043   5.524304   6.377744   3.000804
    32  H    5.664943   5.625157   5.963605   6.545602   3.309745
    33  H    6.382645   6.289196   6.415463   7.390233   4.004025
    34  H    4.900511   4.648790   5.064995   5.913272   2.731463
    35  C    6.043573   6.408368   5.953353   6.894581   3.717835
    36  O    6.135292   6.661416   6.099404   6.842463   4.015672
    37  N    7.209239   7.486675   7.057738   8.114439   4.841512
    38  H    7.352010   7.502929   7.168996   8.327441   4.977899
    39  C    8.463678   8.819165   8.305238   9.309450   6.139636
    40  H    8.391315   8.854993   8.269986   9.146398   6.165905
    41  H    8.991818   9.367632   8.711641   9.855622   6.743460
    42  H    9.142643   9.416986   9.067863  10.001763   6.743492
                   26         27         28         29         30
    26  O    0.000000
    27  N    2.252751   0.000000
    28  H    3.150041   1.010008   0.000000
    29  C    2.775363   1.449031   2.120945   0.000000
    30  H    2.787517   2.083789   2.828901   1.090052   0.000000
    31  C    2.936681   2.452768   3.194476   1.524997   2.139205
    32  H    3.474052   2.702692   3.202452   2.150190   3.041351
    33  H    3.813766   3.386968   4.082863   2.150192   2.459621
    34  H    2.268891   2.702685   3.605830   2.150218   2.466289
    35  C    4.264107   2.450273   2.528595   1.521903   2.136530
    36  O    4.840170   2.683451   2.268942   2.392825   3.085373
    37  N    5.166654   3.668334   3.857833   2.432687   2.707606
    38  H    5.058743   3.978983   4.391103   2.567869   2.595251
    39  C    6.569732   4.884705   4.856624   3.801870   4.090516
    40  H    6.783767   4.845595   4.592350   4.033880   4.461691
    41  H    7.106778   5.526396   5.539459   4.396892   4.435635
    42  H    7.106811   5.526431   5.539483   4.396916   4.779362
                   31         32         33         34         35
    31  C    0.000000
    32  H    1.089982   0.000000
    33  H    1.090040   1.779662   0.000000
    34  H    1.089924   1.779612   1.779600   0.000000
    35  C    2.461844   2.701148   2.668558   3.416551   0.000000
    36  O    3.417420   3.376833   3.791260   4.329980   1.229082
    37  N    2.895826   3.227509   2.558633   3.897166   1.334985
    38  H    2.692197   3.244019   2.038531   3.572127   2.037295
    39  C    4.249884   4.384228   3.844305   5.290865   2.434468
    40  H    4.671832   4.654195   4.491395   5.731148   2.520555
    41  H    4.958685   5.261408   4.461002   5.930531   3.137960
    42  H    4.494800   4.482995   3.950832   5.545544   3.138000
                   36         37         38         39         40
    36  O    0.000000
    37  N    2.252814   0.000000
    38  H    3.150109   1.010026   0.000000
    39  C    2.775423   1.449062   2.121012   0.000000
    40  H    2.337369   2.083795   2.986348   1.090047   0.000000
    41  H    3.519220   2.083782   2.484319   1.089932   1.779668
    42  H    3.519259   2.083841   2.484371   1.090021   1.779711
                   41         42
    41  H    0.000000
    42  H    1.779633   0.000000
 Stoichiometry    C12H22N4O4
 Framework group  C1[X(C12H22N4O4)]
 Deg. of freedom   120
 Full point group                 C1      NOp   1
 Largest Abelian subgroup         C1      NOp   1
 Largest concise Abelian subgroup C1      NOp   1
                         Standard orientation:                         
 ---------------------------------------------------------------------
 Center     Atomic      Atomic             Coordinates (Angstroms)
 Number     Number       Type             X           Y           Z
 ---------------------------------------------------------------------
      1          1           0        6.972108   -1.888147   -1.172512
      2          6           0        6.209667   -1.122732   -1.317167
      3          1           0        5.807589   -1.196139   -2.327627
      4          1           0        6.652007   -0.136867   -1.173403
      5          6           0        5.061620   -1.293556   -0.320343
      6          8           0        5.080917   -2.205895    0.502825
      7          7           0        4.063791   -0.410421   -0.400827
      8          1           0        4.092934    0.322649   -1.094912
      9          6           0        2.919500   -0.465053    0.486462
     10          1           0        2.409770   -1.420816    0.364374
     11          6           0        3.347207   -0.323464    1.943391
     12          1           0        3.851058    0.632932    2.083231
     13          1           0        2.468370   -0.368016    2.586520
     14          1           0        4.028283   -1.133819    2.203000
     15          6           0        1.934566    0.654084    0.179957
     16          8           0        2.162741    1.455935   -0.723015
     17          7           0        0.835377    0.706695    0.935828
     18          1           0        0.692016    0.024591    1.666701
     19          6           0       -0.178227    1.724146    0.743465
     20          1           0       -0.664435    1.937793    1.695327
     21          6           0        0.433795    3.014486    0.208435
     22          1           0        0.916640    2.818532   -0.748878
     23          1           0       -0.349616    3.760189    0.073775
     24          1           0        1.172377    3.388218    0.917585
     25          6           0       -1.235178    1.263769   -0.250123
     26          8           0       -1.102538    1.488778   -1.451046
     27          7           0       -2.288247    0.616584    0.254316
     28          1           0       -2.352716    0.455304    1.249277
     29          6           0       -3.361805    0.127807   -0.587267
     30          1           0       -3.819614    0.964268   -1.115431
     31          6           0       -2.841924   -0.871673   -1.615069
     32          1           0       -2.388706   -1.719409   -1.101260
     33          1           0       -3.669022   -1.221736   -2.232769
     34          1           0       -2.096164   -0.389332   -2.246832
     35          6           0       -4.432190   -0.569644    0.239791
     36          8           0       -4.317357   -0.659958    1.460160
     37          7           0       -5.476596   -1.064041   -0.428770
     38          1           0       -5.526316   -0.964940   -1.432692
     39          6           0       -6.561355   -1.750014    0.243926
     40          1           0       -6.365578   -1.776775    1.315914
     41          1           0       -7.496386   -1.221393    0.058917
     42          1           0       -6.639022   -2.768624   -0.136269
 ---------------------------------------------------------------------
 Rotational constants (GHZ):      0.6542259      0.1183852      0.1119581
 Standard basis: 6-31G(d) (6D, 7F)
 There are   344 symmetry adapted basis functions of A   symmetry.
 Integral buffers will be    131072 words long.
 Raffenetti 1 integral format.
 Two-electron integral symmetry is turned on.
   344 basis functions,   648 primitive gaussians,   344 cartesian basis functions
    77 alpha electrons       77 beta electrons
       nuclear repulsion energy      1610.8681076996 Hartrees.
 NAtoms=   42 NActive=   42 NUniq=   42 SFac= 7.50D-01 NAtFMM=   80 NAOKFM=F Big=F
 One-electron integrals computed using PRISM.
 NBasis=   344 RedAO= T  NBF=   344
 NBsUse=   344 1.00D-06 NBFU=   344
 Harris functional with IExCor=  205 diagonalized for initial guess.
 ExpMin= 1.61D-01 ExpMax= 5.48D+03 ExpMxC= 8.25D+02 IAcc=1 IRadAn=         1 AccDes= 0.00D+00
 HarFok:  IExCor=  205 AccDes= 0.00D+00 IRadAn=         1 IDoV= 1
 ScaDFX=  1.000000  1.000000  1.000000  1.000000
 FoFCou: FMM=F IPFlag=           0 FMFlag=      100000 FMFlg1=           0
         NFxFlg=           0 DoJE=T BraDBF=F KetDBF=T FulRan=T
         Omega=  0.000000  0.000000  1.000000  0.000000  0.000000 ICntrl=     500 IOpCl=  0
         NMat0=    1 NMatS0=    1 NMatT0=    0 NMatD0=    1 NMtDS0=    0 NMtDT0=    0
         I1Cent=           4 NGrid=           0.
 Petite list used in FoFCou.
 Initial guess orbital symmetries:
       Occupied  (A) (A) (A) (A) (A) (A) (A) (A) (A) (A) (A) (A)
                 (A) (A) (A) (A) (A) (A) (A) (A) (A) (A) (A) (A)
                 (A) (A) (A) (A) (A) (A) (A) (A) (A) (A) (A) (A)
                 (A) (A) (A) (A) (A) (A) (A) (A) (A) (A) (A) (A)
                 (A) (A) (A) (A) (A) (A) (A) (A) (A) (A) (A) (A)
                 (A) (A) (A) (A) (A) (A) (A) (A) (A) (A) (A) (A)
                 (A) (A) (A) (A) (A)
       Virtual   (A) (A) (A) (A) (A) (A) (A) (A) (A) (A) (A) (A)
                 (A) (A) (A) (A) (A) (A) (A) (A) (A) (A) (A) (A)
                 (A) (A) (A) (A) (A) (A) (A) (A) (A) (A) (A) (A)
                 (A) (A) (A) (A) (A) (A) (A) (A) (A) (A) (A) (A)
                 (A) (A) (A) (A) (A) (A) (A) (A) (A) (A) (A) (A)
                 (A) (A) (A) (A) (A) (A) (A) (A) (A) (A) (A) (A)
                 (A) (A) (A) (A) (A) (A) (A) (A) (A) (A) (A) (A)
                 (A) (A) (A) (A) (A) (A) (A) (A) (A) (A) (A) (A)
                 (A) (A) (A) (A) (A) (A) (A) (A) (A) (A) (A) (A)
                 (A) (A) (A) (A) (A) (A) (A) (A) (A) (A) (A) (A)
                 (A) (A) (A) (A) (A) (A) (A) (A) (A) (A) (A) (A)
                 (A) (A) (A) (A) (A) (A) (A) (A) (A) (A) (A) (A)
                 (A) (A) (A) (A) (A) (A) (A) (A) (A) (A) (A) (A)
                 (A) (A) (A) (A) (A) (A) (A) (A) (A) (A) (A) (A)
                 (A) (A) (A) (A) (A) (A) (A) (A) (A) (A) (A) (A)
                 (A) (A) (A) (A) (A) (A) (A) (A) (A) (A) (A) (A)
                 (A) (A) (A) (A) (A) (A) (A) (A) (A) (A) (A) (A)
                 (A) (A) (A) (A) (A) (A) (A) (A) (A) (A) (A) (A)
                 (A) (A) (A) (A) (A) (A) (A) (A) (A) (A) (A) (A)
                 (A) (A) (A) (A) (A) (A) (A) (A) (A) (A) (A) (A)
                 (A) (A) (A) (A) (A) (A) (A) (A) (A) (A) (A) (A)
                 (A) (A) (A) (A) (A) (A) (A) (A) (A) (A) (A) (A)
                 (A) (A) (A)
 The electronic state of the initial guess is 1-A.
 Requested convergence on RMS density matrix=1.00D-08 within 128 cycles.
 Requested convergence on MAX density matrix=1.00D-06.
 Requested convergence on             energy=1.00D-06.
 No special actions if energy rises.
 Integral accuracy reduced to 1.0D-05 until final iterations.
 Initial convergence to 1.0D-05 achieved.  Increase integral accuracy.
 SCF Done:  E(RHF) =  -984.518217124     A.U. after   15 cycles
             Convg  =    0.4113D-08             -V/T =  2.0018
 Range of M.O.s used for correlation:     1   344
 NBasis=   344 NAE=    77 NBE=    77 NFC=     0 NFV=     0
 NROrb=    344 NOA=    77 NOB=    77 NVA=   267 NVB=   267
 Symmetrizing basis deriv contribution to polar:
 IMax=3 JMax=2 DiffMx= 0.00D+00
 G2DrvN: will do    43 centers at a time, making    1 passes doing MaxLOS=2.
 Calling FoFCou, ICntrl=  3107 FMM=F I1Cent=   0 AccDes= 0.00D+00.
 FoFDir/FoFCou used for L=0 through L=2.
 End of G2Drv Frequency-dependent properties file   721 does not exist.
 End of G2Drv Frequency-dependent properties file   722 does not exist.
          IDoAtm=111111111111111111111111111111111111111111
          Differentiating once with respect to nuclear coordinates.
          There are   129 degrees of freedom in the 1st order CPHF.  IDoFFX=5.
    123 vectors produced by pass  0 Test12= 2.06D-10 1.00D-07 XBig12= 9.27D-02 4.78D-02.
 AX will form   123 AO Fock derivatives at one time.
    123 vectors produced by pass  1 Test12= 2.06D-10 1.00D-07 XBig12= 6.99D-03 2.31D-02.
    123 vectors produced by pass  2 Test12= 2.06D-10 1.00D-07 XBig12= 6.65D-05 1.39D-03.
    123 vectors produced by pass  3 Test12= 2.06D-10 1.00D-07 XBig12= 8.19D-07 1.31D-04.
    123 vectors produced by pass  4 Test12= 2.06D-10 1.00D-07 XBig12= 4.76D-09 6.79D-06.
     35 vectors produced by pass  5 Test12= 2.06D-10 1.00D-07 XBig12= 2.44D-11 5.77D-07.
 Inverted reduced A of dimension   650 with in-core refinement.
 End of Minotr Frequency-dependent properties file   721 does not exist.
 End of Minotr Frequency-dependent properties file   722 does not exist.

 **********************************************************************

            Population analysis using the SCF density.

 **********************************************************************

 Orbital symmetries:
       Occupied  (A) (A) (A) (A) (A) (A) (A) (A) (A) (A) (A) (A)
                 (A) (A) (A) (A) (A) (A) (A) (A) (A) (A) (A) (A)
                 (A) (A) (A) (A) (A) (A) (A) (A) (A) (A) (A) (A)
                 (A) (A) (A) (A) (A) (A) (A) (A) (A) (A) (A) (A)
                 (A) (A) (A) (A) (A) (A) (A) (A) (A) (A) (A) (A)
                 (A) (A) (A) (A) (A) (A) (A) (A) (A) (A) (A) (A)
                 (A) (A) (A) (A) (A)
       Virtual   (A) (A) (A) (A) (A) (A) (A) (A) (A) (A) (A) (A)
                 (A) (A) (A) (A) (A) (A) (A) (A) (A) (A) (A) (A)
                 (A) (A) (A) (A) (A) (A) (A) (A) (A) (A) (A) (A)
                 (A) (A) (A) (A) (A) (A) (A) (A) (A) (A) (A) (A)
                 (A) (A) (A) (A) (A) (A) (A) (A) (A) (A) (A) (A)
                 (A) (A) (A) (A) (A) (A) (A) (A) (A) (A) (A) (A)
                 (A) (A) (A) (A) (A) (A) (A) (A) (A) (A) (A) (A)
                 (A) (A) (A) (A) (A) (A) (A) (A) (A) (A) (A) (A)
                 (A) (A) (A) (A) (A) (A) (A) (A) (A) (A) (A) (A)
                 (A) (A) (A) (A) (A) (A) (A) (A) (A) (A) (A) (A)
                 (A) (A) (A) (A) (A) (A) (A) (A) (A) (A) (A) (A)
                 (A) (A) (A) (A) (A) (A) (A) (A) (A) (A) (A) (A)
                 (A) (A) (A) (A) (A) (A) (A) (A) (A) (A) (A) (A)
                 (A) (A) (A) (A) (A) (A) (A) (A) (A) (A) (A) (A)
                 (A) (A) (A) (A) (A) (A) (A) (A) (A) (A) (A) (A)
                 (A) (A) (A) (A) (A) (A) (A) (A) (A) (A) (A) (A)
                 (A) (A) (A) (A) (A) (A) (A) (A) (A) (A) (A) (A)
                 (A) (A) (A) (A) (A) (A) (A) (A) (A) (A) (A) (A)
                 (A) (A) (A) (A) (A) (A) (A) (A) (A) (A) (A) (A)
                 (A) (A) (A) (A) (A) (A) (A) (A) (A) (A) (A) (A)
                 (A) (A) (A) (A) (A) (A) (A) (A) (A) (A) (A) (A)
                 (A) (A) (A) (A) (A) (A) (A) (A) (A) (A) (A) (A)
                 (A) (A) (A)
 The electronic state is 1-A.
 Alpha  occ. eigenvalues --  -20.53674 -20.53046 -20.52123 -20.51264 -15.61063
 Alpha  occ. eigenvalues --  -15.60771 -15.59723 -15.58614 -11.36530 -11.36444
 Alpha  occ. eigenvalues --  -11.34843 -11.34583 -11.29192 -11.28828 -11.28691
 Alpha  occ. eigenvalues --  -11.27184 -11.23184 -11.22722 -11.22282 -11.19648
 Alpha  occ. eigenvalues --   -1.39843  -1.39532  -1.37801  -1.36924  -1.25872
 Alpha  occ. eigenvalues --   -1.25098  -1.24314  -1.23538  -1.08077  -1.05964
 Alpha  occ. eigenvalues --   -1.02430  -0.98269  -0.96648  -0.91270  -0.89947
 Alpha  occ. eigenvalues --   -0.87005  -0.81966  -0.80083  -0.78559  -0.77974
 Alpha  occ. eigenvalues --   -0.75795  -0.73347  -0.69437  -0.68565  -0.67182
 Alpha  occ. eigenvalues --   -0.66458  -0.65028  -0.64221  -0.63389  -0.62551
 Alpha  occ. eigenvalues --   -0.61803  -0.61010  -0.60571  -0.58194  -0.57738
 Alpha  occ. eigenvalues --   -0.57656  -0.56909  -0.56099  -0.55794  -0.55295
 Alpha  occ. eigenvalues --   -0.53858  -0.53686  -0.53296  -0.52990  -0.52432
 Alpha  occ. eigenvalues --   -0.51866  -0.51011  -0.49886  -0.49092  -0.44396
 Alpha  occ. eigenvalues --   -0.43124  -0.40761  -0.40708  -0.40396  -0.39199
 Alpha  occ. eigenvalues --   -0.39073  -0.38137
 Alpha virt. eigenvalues --    0.16835   0.18436   0.19503   0.19800   0.20559
 Alpha virt. eigenvalues --    0.21541   0.23985   0.24742   0.25679   0.27449
 Alpha virt. eigenvalues --    0.28252   0.28433   0.29064   0.29539   0.30309
 Alpha virt. eigenvalues --    0.30726   0.31340   0.31524   0.32417   0.33050
 Alpha virt. eigenvalues --    0.33233   0.33659   0.34653   0.35024   0.35274
 Alpha virt. eigenvalues --    0.36118   0.37065   0.37171   0.38891   0.39876
 Alpha virt. eigenvalues --    0.41344   0.41648   0.43292   0.43687   0.44402
 Alpha virt. eigenvalues --    0.47022   0.49151   0.52333   0.52866   0.53367
 Alpha virt. eigenvalues --    0.55331   0.58970   0.60826   0.61501   0.64791
 Alpha virt. eigenvalues --    0.70447   0.71375   0.71814   0.72532   0.72843
 Alpha virt. eigenvalues --    0.74430   0.75058   0.75737   0.76356   0.76874
 Alpha virt. eigenvalues --    0.77184   0.78512   0.78786   0.80289   0.81536
 Alpha virt. eigenvalues --    0.82961   0.83284   0.85265   0.87059   0.87526
 Alpha virt. eigenvalues --    0.89140   0.89734   0.90865   0.91950   0.92397
 Alpha virt. eigenvalues --    0.93369   0.93450   0.95783   0.96286   0.97420
 Alpha virt. eigenvalues --    0.98205   0.99041   0.99475   1.00256   1.01626
 Alpha virt. eigenvalues --    1.03069   1.04354   1.05039   1.06380   1.08806
 Alpha virt. eigenvalues --    1.09155   1.09694   1.10629   1.10936   1.11963
 Alpha virt. eigenvalues --    1.12588   1.13601   1.14348   1.14388   1.14796
 Alpha virt. eigenvalues --    1.15677   1.15778   1.16419   1.16540   1.17385
 Alpha virt. eigenvalues --    1.17969   1.18804   1.19166   1.19652   1.20147
 Alpha virt. eigenvalues --    1.20625   1.20663   1.21253   1.22067   1.22380
 Alpha virt. eigenvalues --    1.24330   1.25133   1.26289   1.27719   1.28503
 Alpha virt. eigenvalues --    1.29008   1.32871   1.33822   1.34120   1.35584
 Alpha virt. eigenvalues --    1.37867   1.39798   1.41260   1.43041   1.44073
 Alpha virt. eigenvalues --    1.45005   1.48516   1.51140   1.52033   1.53536
 Alpha virt. eigenvalues --    1.54137   1.55505   1.57249   1.58636   1.61467
 Alpha virt. eigenvalues --    1.62185   1.63071   1.64100   1.65638   1.67155
 Alpha virt. eigenvalues --    1.69270   1.71104   1.73077   1.73856   1.74402
 Alpha virt. eigenvalues --    1.75401   1.78533   1.79471   1.82988   1.87247
 Alpha virt. eigenvalues --    1.90258   1.92185   1.93543   1.96731   1.98867
 Alpha virt. eigenvalues --    1.99734   2.01849   2.02245   2.04992   2.05429
 Alpha virt. eigenvalues --    2.07363   2.08335   2.08980   2.10799   2.13067
 Alpha virt. eigenvalues --    2.13341   2.13596   2.14186   2.14321   2.14636
 Alpha virt. eigenvalues --    2.14894   2.17109   2.17897   2.19722   2.20491
 Alpha virt. eigenvalues --    2.21977   2.22311   2.23944   2.24672   2.24933
 Alpha virt. eigenvalues --    2.27028   2.28634   2.30480   2.30842   2.32813
 Alpha virt. eigenvalues --    2.35407   2.36518   2.36774   2.37576   2.39226
 Alpha virt. eigenvalues --    2.39387   2.42897   2.46082   2.46715   2.47195
 Alpha virt. eigenvalues --    2.49092   2.51863   2.53207   2.53915   2.57146
 Alpha virt. eigenvalues --    2.58301   2.60372   2.60919   2.61288   2.62818
 Alpha virt. eigenvalues --    2.63290   2.63886   2.65197   2.65797   2.67073
 Alpha virt. eigenvalues --    2.69515   2.71989   2.72867   2.74835   2.77123
 Alpha virt. eigenvalues --    2.78004   2.79057   2.79683   2.81139   2.84715
 Alpha virt. eigenvalues --    2.86289   2.90385   2.91935   2.95110   2.95799
 Alpha virt. eigenvalues --    2.97789   2.98575   3.00767   3.03726   3.05266
 Alpha virt. eigenvalues --    3.07733   3.10685   3.14297   3.16246   3.19549
 Alpha virt. eigenvalues --    3.24480   3.26021   3.30618   3.32005   3.35529
 Alpha virt. eigenvalues --    3.35742   3.40298   3.41359   3.52853   3.54527
 Alpha virt. eigenvalues --    3.60855   3.61759   4.39020   4.43745   4.44265
 Alpha virt. eigenvalues --    4.46585   4.49497   4.50261   4.53882   4.61619
 Alpha virt. eigenvalues --    4.63069   4.65432   4.70541   4.71646   4.75934
 Alpha virt. eigenvalues --    4.81412   4.85234   4.87488   4.93552   5.01524
 Alpha virt. eigenvalues --    5.06200   5.09461
          Condensed to atoms (all electrons):
              1          2          3          4          5          6
     1  H    0.459285   0.385632  -0.018781  -0.018848  -0.030854   0.003513
     2  C    0.385632   5.244522   0.374830   0.374845   0.378166  -0.067293
     3  H   -0.018781   0.374830   0.509088  -0.023509  -0.034403   0.001266
     4  H   -0.018848   0.374845  -0.023509   0.511963  -0.035367   0.001190
     5  C   -0.030854   0.378166  -0.034403  -0.035367   4.186606   0.586696
     6  O    0.003513  -0.067293   0.001266   0.001190   0.586696   8.212324
     7  N    0.003865  -0.119785   0.003451   0.003673   0.247479  -0.107699
     8  H   -0.000017  -0.001186   0.000635   0.000479  -0.017296   0.001997
     9  C   -0.000077   0.004589  -0.000242  -0.000092  -0.030014   0.014578
    10  H    0.000002  -0.000007  -0.000004  -0.000002  -0.001677   0.002960
    11  C    0.000006  -0.000507   0.000008   0.000030  -0.003943  -0.015927
    12  H    0.000000  -0.000042   0.000000   0.000002   0.000036  -0.000023
    13  H    0.000000   0.000007   0.000000  -0.000001   0.000283   0.000273
    14  H    0.000001   0.000302  -0.000005  -0.000026   0.000413   0.011311
    15  C    0.000000   0.000009  -0.000010  -0.000006   0.003996   0.000555
    16  O    0.000000  -0.000039  -0.000001  -0.000001   0.000297  -0.000003
    17  N    0.000000   0.000000   0.000000   0.000000  -0.000082  -0.000002
    18  H    0.000000   0.000000   0.000000   0.000000   0.000000   0.000001
    19  C    0.000000   0.000000   0.000000   0.000000   0.000001   0.000000
    20  H    0.000000   0.000000   0.000000   0.000000   0.000000   0.000000
    21  C    0.000000   0.000000   0.000000   0.000000   0.000000   0.000000
    22  H    0.000000   0.000000   0.000000   0.000000   0.000000   0.000000
    23  H    0.000000   0.000000   0.000000   0.000000   0.000000   0.000000
    24  H    0.000000   0.000000   0.000000   0.000000   0.000000   0.000000
    25  C    0.000000   0.000000   0.000000   0.000000   0.000000   0.000000
    26  O    0.000000   0.000000   0.000000   0.000000   0.000000   0.000000
    27  N    0.000000   0.000000   0.000000   0.000000   0.000000   0.000000
    28  H    0.000000   0.000000   0.000000   0.000000   0.000000   0.000000
    29  C    0.000000   0.000000   0.000000   0.000000   0.000000   0.000000
    30  H    0.000000   0.000000   0.000000   0.000000   0.000000   0.000000
    31  C    0.000000   0.000000   0.000000   0.000000   0.000000   0.000000
    32  H    0.000000   0.000000   0.000000   0.000000   0.000000   0.000000
    33  H    0.000000   0.000000   0.000000   0.000000   0.000000   0.000000
    34  H    0.000000   0.000000   0.000000   0.000000   0.000000   0.000000
    35  C    0.000000   0.000000   0.000000   0.000000   0.000000   0.000000
    36  O    0.000000   0.000000   0.000000   0.000000   0.000000   0.000000
    37  N    0.000000   0.000000   0.000000   0.000000   0.000000   0.000000
    38  H    0.000000   0.000000   0.000000   0.000000   0.000000   0.000000
    39  C    0.000000   0.000000   0.000000   0.000000   0.000000   0.000000
    40  H    0.000000   0.000000   0.000000   0.000000   0.000000   0.000000
    41  H    0.000000   0.000000   0.000000   0.000000   0.000000   0.000000
    42  H    0.000000   0.000000   0.000000   0.000000   0.000000   0.000000
              7          8          9         10         11         12
     1  H    0.003865  -0.000017  -0.000077   0.000002   0.000006   0.000000
     2  C   -0.119785  -0.001186   0.004589  -0.000007  -0.000507  -0.000042
     3  H    0.003451   0.000635  -0.000242  -0.000004   0.000008   0.000000
     4  H    0.003673   0.000479  -0.000092  -0.000002   0.000030   0.000002
     5  C    0.247479  -0.017296  -0.030014  -0.001677  -0.003943   0.000036
     6  O   -0.107699   0.001997   0.014578   0.002960  -0.015927  -0.000023
     7  N    7.415202   0.311195   0.199810  -0.040959  -0.063382   0.001708
     8  H    0.311195   0.286331  -0.026817   0.002333   0.003044   0.000238
     9  C    0.199810  -0.026817   5.011332   0.406643   0.334720  -0.042216
    10  H   -0.040959   0.002333   0.406643   0.498555  -0.046306   0.004478
    11  C   -0.063382   0.003044   0.334720  -0.046306   5.213567   0.385435
    12  H    0.001708   0.000238  -0.042216   0.004478   0.385435   0.523283
    13  H    0.004933  -0.000077  -0.042238   0.000290   0.377415  -0.024297
    14  H   -0.005672  -0.000199  -0.026369  -0.003899   0.386995  -0.020025
    15  C   -0.037543  -0.005438   0.385522  -0.039296  -0.066548  -0.002928
    16  O   -0.006488   0.020150  -0.069479   0.000730  -0.000120   0.000561
    17  N    0.002716   0.000733  -0.114358   0.002319   0.003210   0.000216
    18  H    0.000030  -0.000020   0.000349   0.000476   0.000233  -0.000005
    19  C   -0.000037  -0.000014   0.002194  -0.000258   0.000258  -0.000044
    20  H    0.000000   0.000000  -0.000006   0.000001   0.000014   0.000001
    21  C    0.000000   0.000029  -0.000564   0.000005  -0.000055   0.000005
    22  H   -0.000009   0.000027   0.000125  -0.000010  -0.000002  -0.000005
    23  H    0.000000   0.000000   0.000018   0.000000  -0.000001   0.000000
    24  H    0.000001   0.000000  -0.000175   0.000000   0.000049   0.000027
    25  C   -0.000001   0.000001  -0.000219   0.000042   0.000003   0.000002
    26  O    0.000000   0.000000   0.000027   0.000003   0.000000   0.000000
    27  N    0.000000   0.000000  -0.000002  -0.000001   0.000000   0.000000
    28  H    0.000000   0.000000  -0.000001   0.000000   0.000000   0.000000
    29  C    0.000000   0.000000   0.000000   0.000000   0.000000   0.000000
    30  H    0.000000   0.000000   0.000000   0.000000   0.000000   0.000000
    31  C    0.000000   0.000000   0.000000   0.000000   0.000000   0.000000
    32  H    0.000000   0.000000   0.000000   0.000000   0.000000   0.000000
    33  H    0.000000   0.000000   0.000000   0.000000   0.000000   0.000000
    34  H    0.000000   0.000000   0.000000   0.000000   0.000000   0.000000
    35  C    0.000000   0.000000   0.000000   0.000000   0.000000   0.000000
    36  O    0.000000   0.000000   0.000000   0.000000   0.000000   0.000000
    37  N    0.000000   0.000000   0.000000   0.000000   0.000000   0.000000
    38  H    0.000000   0.000000   0.000000   0.000000   0.000000   0.000000
    39  C    0.000000   0.000000   0.000000   0.000000   0.000000   0.000000
    40  H    0.000000   0.000000   0.000000   0.000000   0.000000   0.000000
    41  H    0.000000   0.000000   0.000000   0.000000   0.000000   0.000000
    42  H    0.000000   0.000000   0.000000   0.000000   0.000000   0.000000
             13         14         15         16         17         18
     1  H    0.000000   0.000001   0.000000   0.000000   0.000000   0.000000
     2  C    0.000007   0.000302   0.000009  -0.000039   0.000000   0.000000
     3  H    0.000000  -0.000005  -0.000010  -0.000001   0.000000   0.000000
     4  H   -0.000001  -0.000026  -0.000006  -0.000001   0.000000   0.000000
     5  C    0.000283   0.000413   0.003996   0.000297  -0.000082   0.000000
     6  O    0.000273   0.011311   0.000555  -0.000003  -0.000002   0.000001
     7  N    0.004933  -0.005672  -0.037543  -0.006488   0.002716   0.000030
     8  H   -0.000077  -0.000199  -0.005438   0.020150   0.000733  -0.000020
     9  C   -0.042238  -0.026369   0.385522  -0.069479  -0.114358   0.000349
    10  H    0.000290  -0.003899  -0.039296   0.000730   0.002319   0.000476
    11  C    0.377415   0.386995  -0.066548  -0.000120   0.003210   0.000233
    12  H   -0.024297  -0.020025  -0.002928   0.000561   0.000216  -0.000005
    13  H    0.570541  -0.020058  -0.007333   0.000020   0.000477   0.002783
    14  H   -0.020058   0.423934   0.004236  -0.000057   0.000045  -0.000096
    15  C   -0.007333   0.004236   4.172237   0.565160   0.267576  -0.018610
    16  O    0.000020  -0.000057   0.565160   8.293330  -0.098451   0.002469
    17  N    0.000477   0.000045   0.267576  -0.098451   7.406538   0.321731
    18  H    0.002783  -0.000096  -0.018610   0.002469   0.321731   0.311518
    19  C    0.000206   0.000000  -0.031346   0.006948   0.180294  -0.021505
    20  H   -0.000010  -0.000001   0.002893  -0.000067  -0.043277  -0.002821
    21  C   -0.000019   0.000000  -0.006657  -0.051461  -0.045958   0.002939
    22  H    0.000000   0.000000  -0.002442  -0.010300  -0.001236  -0.000159
    23  H    0.000000   0.000000   0.000523   0.001967   0.003872  -0.000081
    24  H    0.000007   0.000000  -0.000141  -0.001260  -0.000600  -0.000116
    25  C    0.000006   0.000000  -0.001923  -0.000354  -0.065495   0.000006
    26  O    0.000000   0.000000   0.003744  -0.000899  -0.000571  -0.000072
    27  N   -0.000002   0.000000   0.000191   0.000003   0.004021   0.000948
    28  H   -0.000001   0.000000   0.000001  -0.000001   0.000572   0.000146
    29  C    0.000000   0.000000  -0.000012   0.000001  -0.000162  -0.000012
    30  H    0.000000   0.000000   0.000000   0.000000  -0.000006   0.000001
    31  C    0.000000   0.000000   0.000010  -0.000001   0.000050  -0.000002
    32  H    0.000000   0.000000   0.000001   0.000000   0.000014   0.000007
    33  H    0.000000   0.000000   0.000000   0.000000  -0.000001   0.000000
    34  H    0.000000   0.000000  -0.000001   0.000000  -0.000037   0.000000
    35  C    0.000000   0.000000   0.000000   0.000000  -0.000004   0.000000
    36  O    0.000000   0.000000   0.000000   0.000000   0.000000  -0.000001
    37  N    0.000000   0.000000   0.000000   0.000000   0.000000   0.000000
    38  H    0.000000   0.000000   0.000000   0.000000   0.000000   0.000000
    39  C    0.000000   0.000000   0.000000   0.000000   0.000000   0.000000
    40  H    0.000000   0.000000   0.000000   0.000000   0.000000   0.000000
    41  H    0.000000   0.000000   0.000000   0.000000   0.000000   0.000000
    42  H    0.000000   0.000000   0.000000   0.000000   0.000000   0.000000
             19         20         21         22         23         24
     1  H    0.000000   0.000000   0.000000   0.000000   0.000000   0.000000
     2  C    0.000000   0.000000   0.000000   0.000000   0.000000   0.000000
     3  H    0.000000   0.000000   0.000000   0.000000   0.000000   0.000000
     4  H    0.000000   0.000000   0.000000   0.000000   0.000000   0.000000
     5  C    0.000001   0.000000   0.000000   0.000000   0.000000   0.000000
     6  O    0.000000   0.000000   0.000000   0.000000   0.000000   0.000000
     7  N   -0.000037   0.000000   0.000000  -0.000009   0.000000   0.000001
     8  H   -0.000014   0.000000   0.000029   0.000027   0.000000   0.000000
     9  C    0.002194  -0.000006  -0.000564   0.000125   0.000018  -0.000175
    10  H   -0.000258   0.000001   0.000005  -0.000010   0.000000   0.000000
    11  C    0.000258   0.000014  -0.000055  -0.000002  -0.000001   0.000049
    12  H   -0.000044   0.000001   0.000005  -0.000005   0.000000   0.000027
    13  H    0.000206  -0.000010  -0.000019   0.000000   0.000000   0.000007
    14  H    0.000000  -0.000001   0.000000   0.000000   0.000000   0.000000
    15  C   -0.031346   0.002893  -0.006657  -0.002442   0.000523  -0.000141
    16  O    0.006948  -0.000067  -0.051461  -0.010300   0.001967  -0.001260
    17  N    0.180294  -0.043277  -0.045958  -0.001236   0.003872  -0.000600
    18  H   -0.021505  -0.002821   0.002939  -0.000159  -0.000081  -0.000116
    19  C    5.088274   0.417288   0.358716  -0.026804  -0.036725  -0.045116
    20  H    0.417288   0.515889  -0.033011   0.003105  -0.002584  -0.003771
    21  C    0.358716  -0.033011   5.170593   0.394624   0.378374   0.389836
    22  H   -0.026804   0.003105   0.394624   0.391231  -0.019955  -0.019453
    23  H   -0.036725  -0.002584   0.378374  -0.019955   0.547962  -0.025499
    24  H   -0.045116  -0.003771   0.389836  -0.019453  -0.025499   0.546611
    25  C    0.343388  -0.059289  -0.060322  -0.005857  -0.002136   0.006377
    26  O   -0.076422   0.002314  -0.001180   0.005264  -0.000398   0.000380
    27  N   -0.103506   0.006138   0.002518   0.000231   0.000134  -0.000077
    28  H   -0.000866   0.002051   0.000032  -0.000003  -0.000014  -0.000009
    29  C    0.005168  -0.000099  -0.000139  -0.000006  -0.000010   0.000002
    30  H   -0.000142  -0.000020   0.000025  -0.000001  -0.000002   0.000000
    31  C   -0.000606   0.000016  -0.000003   0.000001   0.000001   0.000000
    32  H   -0.000048  -0.000001   0.000001   0.000000   0.000000   0.000000
    33  H    0.000008   0.000000   0.000000   0.000000   0.000000   0.000000
    34  H    0.000310  -0.000009  -0.000005  -0.000001   0.000000   0.000000
    35  C    0.000008  -0.000037  -0.000001   0.000000   0.000000   0.000000
    36  O   -0.000056  -0.000013   0.000000   0.000000   0.000000   0.000000
    37  N    0.000000   0.000000   0.000000   0.000000   0.000000   0.000000
    38  H    0.000000   0.000000   0.000000   0.000000   0.000000   0.000000
    39  C    0.000000   0.000000   0.000000   0.000000   0.000000   0.000000
    40  H    0.000000   0.000000   0.000000   0.000000   0.000000   0.000000
    41  H    0.000000   0.000000   0.000000   0.000000   0.000000   0.000000
    42  H    0.000000   0.000000   0.000000   0.000000   0.000000   0.000000
             25         26         27         28         29         30
     1  H    0.000000   0.000000   0.000000   0.000000   0.000000   0.000000
     2  C    0.000000   0.000000   0.000000   0.000000   0.000000   0.000000
     3  H    0.000000   0.000000   0.000000   0.000000   0.000000   0.000000
     4  H    0.000000   0.000000   0.000000   0.000000   0.000000   0.000000
     5  C    0.000000   0.000000   0.000000   0.000000   0.000000   0.000000
     6  O    0.000000   0.000000   0.000000   0.000000   0.000000   0.000000
     7  N   -0.000001   0.000000   0.000000   0.000000   0.000000   0.000000
     8  H    0.000001   0.000000   0.000000   0.000000   0.000000   0.000000
     9  C   -0.000219   0.000027  -0.000002  -0.000001   0.000000   0.000000
    10  H    0.000042   0.000003  -0.000001   0.000000   0.000000   0.000000
    11  C    0.000003   0.000000   0.000000   0.000000   0.000000   0.000000
    12  H    0.000002   0.000000   0.000000   0.000000   0.000000   0.000000
    13  H    0.000006   0.000000  -0.000002  -0.000001   0.000000   0.000000
    14  H    0.000000   0.000000   0.000000   0.000000   0.000000   0.000000
    15  C   -0.001923   0.003744   0.000191   0.000001  -0.000012   0.000000
    16  O   -0.000354  -0.000899   0.000003  -0.000001   0.000001   0.000000
    17  N   -0.065495  -0.000571   0.004021   0.000572  -0.000162  -0.000006
    18  H    0.000006  -0.000072   0.000948   0.000146  -0.000012   0.000001
    19  C    0.343388  -0.076422  -0.103506  -0.000866   0.005168  -0.000142
    20  H   -0.059289   0.002314   0.006138   0.002051  -0.000099  -0.000020
    21  C   -0.060322  -0.001180   0.002518   0.000032  -0.000139   0.000025
    22  H   -0.005857   0.005264   0.000231  -0.000003  -0.000006  -0.000001
    23  H   -0.002136  -0.000398   0.000134  -0.000014  -0.000010  -0.000002
    24  H    0.006377   0.000380  -0.000077  -0.000009   0.000002   0.000000
    25  C    4.237264   0.567198   0.270590  -0.018737  -0.032908  -0.001950
    26  O    0.567198   8.227934  -0.102350   0.001985   0.013940   0.002997
    27  N    0.270590  -0.102350   7.405744   0.310239   0.192730  -0.040555
    28  H   -0.018737   0.001985   0.310239   0.290851  -0.027252   0.002440
    29  C   -0.032908   0.013940   0.192730  -0.027252   5.046446   0.404087
    30  H   -0.001950   0.002997  -0.040555   0.002440   0.404087   0.495266
    31  C   -0.003101  -0.015392  -0.063407   0.003018   0.335635  -0.044860
    32  H   -0.000107   0.000003   0.001553   0.000274  -0.042858   0.004467
    33  H    0.000238   0.000254   0.004923  -0.000076  -0.042171   0.000205
    34  H    0.000437   0.010448  -0.005402  -0.000206  -0.026738  -0.003940
    35  C    0.003801   0.000449  -0.036539  -0.005766   0.376573  -0.036432
    36  O    0.000416  -0.000003  -0.006201   0.021982  -0.079117   0.001005
    37  N   -0.000087  -0.000001   0.002838   0.000737  -0.116544   0.002070
    38  H    0.000002   0.000001   0.000017  -0.000022   0.001127   0.000474
    39  C    0.000001   0.000000  -0.000050  -0.000010   0.003626  -0.000214
    40  H    0.000000   0.000000  -0.000004  -0.000010   0.000583  -0.000017
    41  H    0.000000   0.000000   0.000000   0.000000  -0.000110   0.000010
    42  H    0.000000   0.000000   0.000001   0.000000  -0.000004  -0.000001
             31         32         33         34         35         36
     1  H    0.000000   0.000000   0.000000   0.000000   0.000000   0.000000
     2  C    0.000000   0.000000   0.000000   0.000000   0.000000   0.000000
     3  H    0.000000   0.000000   0.000000   0.000000   0.000000   0.000000
     4  H    0.000000   0.000000   0.000000   0.000000   0.000000   0.000000
     5  C    0.000000   0.000000   0.000000   0.000000   0.000000   0.000000
     6  O    0.000000   0.000000   0.000000   0.000000   0.000000   0.000000
     7  N    0.000000   0.000000   0.000000   0.000000   0.000000   0.000000
     8  H    0.000000   0.000000   0.000000   0.000000   0.000000   0.000000
     9  C    0.000000   0.000000   0.000000   0.000000   0.000000   0.000000
    10  H    0.000000   0.000000   0.000000   0.000000   0.000000   0.000000
    11  C    0.000000   0.000000   0.000000   0.000000   0.000000   0.000000
    12  H    0.000000   0.000000   0.000000   0.000000   0.000000   0.000000
    13  H    0.000000   0.000000   0.000000   0.000000   0.000000   0.000000
    14  H    0.000000   0.000000   0.000000   0.000000   0.000000   0.000000
    15  C    0.000010   0.000001   0.000000  -0.000001   0.000000   0.000000
    16  O   -0.000001   0.000000   0.000000   0.000000   0.000000   0.000000
    17  N    0.000050   0.000014  -0.000001  -0.000037  -0.000004   0.000000
    18  H   -0.000002   0.000007   0.000000   0.000000   0.000000  -0.000001
    19  C   -0.000606  -0.000048   0.000008   0.000310   0.000008  -0.000056
    20  H    0.000016  -0.000001   0.000000  -0.000009  -0.000037  -0.000013
    21  C   -0.000003   0.000001   0.000000  -0.000005  -0.000001   0.000000
    22  H    0.000001   0.000000   0.000000  -0.000001   0.000000   0.000000
    23  H    0.000001   0.000000   0.000000   0.000000   0.000000   0.000000
    24  H    0.000000   0.000000   0.000000   0.000000   0.000000   0.000000
    25  C   -0.003101  -0.000107   0.000238   0.000437   0.003801   0.000416
    26  O   -0.015392   0.000003   0.000254   0.010448   0.000449  -0.000003
    27  N   -0.063407   0.001553   0.004923  -0.005402  -0.036539  -0.006201
    28  H    0.003018   0.000274  -0.000076  -0.000206  -0.005766   0.021982
    29  C    0.335635  -0.042858  -0.042171  -0.026738   0.376573  -0.079117
    30  H   -0.044860   0.004467   0.000205  -0.003940  -0.036432   0.001005
    31  C    5.205427   0.385694   0.379198   0.387623  -0.063540   0.000017
    32  H    0.385694   0.525418  -0.023986  -0.020386  -0.002717   0.000627
    33  H    0.379198  -0.023986   0.564482  -0.019994  -0.006921   0.000024
    34  H    0.387623  -0.020386  -0.019994   0.423801   0.003912  -0.000064
    35  C   -0.063540  -0.002717  -0.006921   0.003912   4.142830   0.594009
    36  O    0.000017   0.000627   0.000024  -0.000064   0.594009   8.218003
    37  N    0.002380   0.000157   0.000430   0.000091   0.290407  -0.099030
    38  H    0.000013  -0.000007   0.002660  -0.000080  -0.020630   0.002369
    39  C   -0.000074  -0.000042   0.000162   0.000003  -0.025626  -0.004856
    40  H   -0.000049  -0.000001  -0.000008   0.000000  -0.001976   0.009828
    41  H   -0.000004   0.000001   0.000002   0.000000   0.000791   0.000366
    42  H    0.000012   0.000002  -0.000002  -0.000001   0.000920   0.000373
             37         38         39         40         41         42
     1  H    0.000000   0.000000   0.000000   0.000000   0.000000   0.000000
     2  C    0.000000   0.000000   0.000000   0.000000   0.000000   0.000000
     3  H    0.000000   0.000000   0.000000   0.000000   0.000000   0.000000
     4  H    0.000000   0.000000   0.000000   0.000000   0.000000   0.000000
     5  C    0.000000   0.000000   0.000000   0.000000   0.000000   0.000000
     6  O    0.000000   0.000000   0.000000   0.000000   0.000000   0.000000
     7  N    0.000000   0.000000   0.000000   0.000000   0.000000   0.000000
     8  H    0.000000   0.000000   0.000000   0.000000   0.000000   0.000000
     9  C    0.000000   0.000000   0.000000   0.000000   0.000000   0.000000
    10  H    0.000000   0.000000   0.000000   0.000000   0.000000   0.000000
    11  C    0.000000   0.000000   0.000000   0.000000   0.000000   0.000000
    12  H    0.000000   0.000000   0.000000   0.000000   0.000000   0.000000
    13  H    0.000000   0.000000   0.000000   0.000000   0.000000   0.000000
    14  H    0.000000   0.000000   0.000000   0.000000   0.000000   0.000000
    15  C    0.000000   0.000000   0.000000   0.000000   0.000000   0.000000
    16  O    0.000000   0.000000   0.000000   0.000000   0.000000   0.000000
    17  N    0.000000   0.000000   0.000000   0.000000   0.000000   0.000000
    18  H    0.000000   0.000000   0.000000   0.000000   0.000000   0.000000
    19  C    0.000000   0.000000   0.000000   0.000000   0.000000   0.000000
    20  H    0.000000   0.000000   0.000000   0.000000   0.000000   0.000000
    21  C    0.000000   0.000000   0.000000   0.000000   0.000000   0.000000
    22  H    0.000000   0.000000   0.000000   0.000000   0.000000   0.000000
    23  H    0.000000   0.000000   0.000000   0.000000   0.000000   0.000000
    24  H    0.000000   0.000000   0.000000   0.000000   0.000000   0.000000
    25  C   -0.000087   0.000002   0.000001   0.000000   0.000000   0.000000
    26  O   -0.000001   0.000001   0.000000   0.000000   0.000000   0.000000
    27  N    0.002838   0.000017  -0.000050  -0.000004   0.000000   0.000001
    28  H    0.000737  -0.000022  -0.000010  -0.000010   0.000000   0.000000
    29  C   -0.116544   0.001127   0.003626   0.000583  -0.000110  -0.000004
    30  H    0.002070   0.000474  -0.000214  -0.000017   0.000010  -0.000001
    31  C    0.002380   0.000013  -0.000074  -0.000049  -0.000004   0.000012
    32  H    0.000157  -0.000007  -0.000042  -0.000001   0.000001   0.000002
    33  H    0.000430   0.002660   0.000162  -0.000008   0.000002  -0.000002
    34  H    0.000091  -0.000080   0.000003   0.000000   0.000000  -0.000001
    35  C    0.290407  -0.020630  -0.025626  -0.001976   0.000791   0.000920
    36  O   -0.099030   0.002369  -0.004856   0.009828   0.000366   0.000373
    37  N    7.330975   0.322394   0.185251  -0.031785  -0.046923  -0.047926
[...]
    30  H    0.000000   0.000000  -0.000001   0.000000  -0.000013   0.000002
    31  C    0.000000   0.000000   0.000007   0.000000   0.000095  -0.000004
    32  H    0.000000   0.000000   0.000000   0.000000  -0.000003   0.000011
    33  H    0.000000   0.000000   0.000000   0.000000   0.000000   0.000000
    34  H    0.000000   0.000000   0.000001   0.000000  -0.000023   0.000003
    35  C    0.000000   0.000000   0.000000   0.000000  -0.000003   0.000000
    36  O    0.000000   0.000000   0.000000   0.000000   0.000000  -0.000002
    37  N    0.000000   0.000000   0.000000   0.000000   0.000000   0.000000
    38  H    0.000000   0.000000   0.000000   0.000000   0.000000   0.000000
    39  C    0.000000   0.000000   0.000000   0.000000   0.000000   0.000000
    40  H    0.000000   0.000000   0.000000   0.000000   0.000000   0.000000
    41  H    0.000000   0.000000   0.000000   0.000000   0.000000   0.000000
    42  H    0.000000   0.000000   0.000000   0.000000   0.000000   0.000000
             19         20         21         22         23         24
     1  H    0.000000   0.000000   0.000000   0.000000   0.000000   0.000000
     2  C    0.000000   0.000000   0.000000   0.000000   0.000000   0.000000
     3  H    0.000000   0.000000   0.000000   0.000000   0.000000   0.000000
     4  H    0.000000   0.000000   0.000000   0.000000   0.000000   0.000000
     5  C    0.000001   0.000000   0.000000   0.000000   0.000000   0.000000
     6  O    0.000000   0.000000   0.000000   0.000000   0.000000   0.000000
     7  N   -0.000063   0.000000   0.000000  -0.000002   0.000000   0.000001
     8  H   -0.000013   0.000000  -0.000001   0.000000   0.000000   0.000001
     9  C    0.002721  -0.000059  -0.000086   0.000087   0.000010  -0.000142
    10  H   -0.000036  -0.000003  -0.000005  -0.000002   0.000000   0.000001
    11  C   -0.000215   0.000027  -0.000008  -0.000002  -0.000001   0.000028
    12  H    0.000010   0.000000  -0.000004  -0.000002   0.000000   0.000011
    13  H    0.000001  -0.000014  -0.000009   0.000000   0.000000   0.000012
    14  H    0.000002   0.000000   0.000000   0.000000   0.000000   0.000000
    15  C   -0.022180   0.002970  -0.003059   0.000930   0.000256  -0.000570
    16  O    0.005743  -0.000063  -0.004837   0.002627   0.000403  -0.000565
    17  N    0.182596  -0.049616  -0.041976  -0.001799   0.003650  -0.000695
    18  H   -0.024228  -0.004353   0.002938  -0.000111  -0.000089  -0.000025
    19  C    5.047612   0.421308   0.349936  -0.029354  -0.036394  -0.040405
    20  H    0.421308   0.528470  -0.034524   0.003502  -0.003165  -0.003165
    21  C    0.349936  -0.034524   5.096946   0.391470   0.382368   0.393949
    22  H   -0.029354   0.003502   0.391470   0.430689  -0.021442  -0.021352
    23  H   -0.036394  -0.003165   0.382368  -0.021442   0.542679  -0.026766
    24  H   -0.040405  -0.003165   0.393949  -0.021352  -0.026766   0.521738
    25  C    0.351806  -0.062107  -0.049424  -0.005336  -0.002970   0.005164
    26  O   -0.072648   0.002497   0.002149   0.005456  -0.000037   0.000095
    27  N   -0.105800   0.007001   0.002090   0.000296   0.000084  -0.000076
    28  H   -0.000931   0.002094  -0.000014  -0.000003  -0.000026  -0.000005
    29  C    0.005568  -0.000071  -0.000124  -0.000006  -0.000010   0.000002
    30  H    0.000159  -0.000034   0.000019  -0.000002  -0.000003   0.000000
    31  C   -0.000470   0.000017  -0.000001   0.000000   0.000000   0.000000
    32  H   -0.000005  -0.000001   0.000000   0.000000   0.000000   0.000000
    33  H    0.000005   0.000000   0.000000   0.000000   0.000000   0.000000
    34  H    0.000104  -0.000006  -0.000001  -0.000001   0.000000   0.000000
    35  C   -0.000011  -0.000050   0.000000   0.000000   0.000000   0.000000
    36  O   -0.000062  -0.000027   0.000000   0.000000   0.000000   0.000000
    37  N    0.000000   0.000000   0.000000   0.000000   0.000000   0.000000
    38  H    0.000000   0.000000   0.000000   0.000000   0.000000   0.000000
    39  C    0.000000   0.000000   0.000000   0.000000   0.000000   0.000000
    40  H    0.000000   0.000000   0.000000   0.000000   0.000000   0.000000
    41  H    0.000000   0.000000   0.000000   0.000000   0.000000   0.000000
    42  H    0.000000   0.000000   0.000000   0.000000   0.000000   0.000000
             25         26         27         28         29         30
     1  H    0.000000   0.000000   0.000000   0.000000   0.000000   0.000000
     2  C    0.000000   0.000000   0.000000   0.000000   0.000000   0.000000
     3  H    0.000000   0.000000   0.000000   0.000000   0.000000   0.000000
     4  H    0.000000   0.000000   0.000000   0.000000   0.000000   0.000000
     5  C    0.000000   0.000000   0.000000   0.000000   0.000000   0.000000
     6  O    0.000000   0.000000   0.000000   0.000000   0.000000   0.000000
     7  N    0.000003   0.000000   0.000000   0.000000   0.000000   0.000000
     8  H    0.000002   0.000000   0.000000   0.000000   0.000000   0.000000
     9  C   -0.000216   0.000021  -0.000009  -0.000001   0.000000   0.000000
    10  H    0.000026   0.000002  -0.000004   0.000000   0.000000   0.000000
    11  C   -0.000001   0.000000   0.000000   0.000000   0.000000   0.000000
    12  H    0.000000   0.000000   0.000000   0.000000   0.000000   0.000000
    13  H    0.000005   0.000000   0.000000   0.000000   0.000000   0.000000
    14  H    0.000000   0.000000   0.000000   0.000000   0.000000   0.000000
    15  C   -0.002658   0.003052   0.000197   0.000003  -0.000011  -0.000001
    16  O   -0.000400  -0.000565   0.000003   0.000000   0.000000   0.000000
    17  N   -0.066262  -0.000729   0.003050   0.000455  -0.000320  -0.000013
    18  H    0.000286  -0.000122   0.001697   0.000122  -0.000025   0.000002
    19  C    0.351806  -0.072648  -0.105800  -0.000931   0.005568   0.000159
    20  H   -0.062107   0.002497   0.007001   0.002094  -0.000071  -0.000034
    21  C   -0.049424   0.002149   0.002090  -0.000014  -0.000124   0.000019
    22  H   -0.005336   0.005456   0.000296  -0.000003  -0.000006  -0.000002
    23  H   -0.002970  -0.000037   0.000084  -0.000026  -0.000010  -0.000003
    24  H    0.005164   0.000095  -0.000076  -0.000005   0.000002   0.000000
    25  C    4.213953   0.590105   0.266927  -0.015080  -0.029347  -0.001247
    26  O    0.590105   8.169121  -0.105925   0.001937   0.010673   0.006290
    27  N    0.266927  -0.105925   7.431246   0.308019   0.193580  -0.043445
    28  H   -0.015080   0.001937   0.308019   0.288996  -0.028594   0.002812
    29  C   -0.029347   0.010673   0.193580  -0.028594   5.047065   0.411124
    30  H   -0.001247   0.006290  -0.043445   0.002812   0.411124   0.485058
    31  C   -0.001597  -0.004199  -0.064268   0.002722   0.337854  -0.040960
    32  H    0.000128  -0.000004   0.000362   0.000471  -0.038613   0.004010
    33  H    0.000011   0.000002   0.004685  -0.000065  -0.037659   0.000065
    34  H    0.002035   0.004651  -0.005606  -0.000180  -0.029218  -0.003614
    35  C    0.003500   0.000463  -0.040889  -0.008030   0.377220  -0.042356
    36  O    0.000469  -0.000004  -0.010642   0.025478  -0.075981   0.001683
    37  N   -0.000097  -0.000001   0.002543   0.001105  -0.116533   0.003622
    38  H   -0.000004   0.000000   0.000007  -0.000033   0.000536   0.001236
    39  C    0.000001   0.000000  -0.000078  -0.000033   0.004335  -0.000106
    40  H    0.000000   0.000000  -0.000003  -0.000004   0.000147  -0.000001
    41  H    0.000000   0.000000   0.000006   0.000001  -0.000168  -0.000002
    42  H    0.000000   0.000000   0.000000   0.000000   0.000005  -0.000010
             31         32         33         34         35         36
     1  H    0.000000   0.000000   0.000000   0.000000   0.000000   0.000000
     2  C    0.000000   0.000000   0.000000   0.000000   0.000000   0.000000
     3  H    0.000000   0.000000   0.000000   0.000000   0.000000   0.000000
     4  H    0.000000   0.000000   0.000000   0.000000   0.000000   0.000000
     5  C    0.000000   0.000000   0.000000   0.000000   0.000000   0.000000
     6  O    0.000000   0.000000   0.000000   0.000000   0.000000   0.000000
     7  N    0.000000   0.000000   0.000000   0.000000   0.000000   0.000000
     8  H    0.000000   0.000000   0.000000   0.000000   0.000000   0.000000
     9  C    0.000000   0.000000   0.000000   0.000000   0.000000   0.000000
    10  H    0.000000   0.000000   0.000000   0.000001   0.000000   0.000000
    11  C    0.000000   0.000000   0.000000   0.000000   0.000000   0.000000
    12  H    0.000000   0.000000   0.000000   0.000000   0.000000   0.000000
    13  H    0.000000   0.000000   0.000000   0.000000   0.000000   0.000000
    14  H    0.000000   0.000000   0.000000   0.000000   0.000000   0.000000
    15  C    0.000007   0.000000   0.000000   0.000001   0.000000   0.000000
    16  O    0.000000   0.000000   0.000000   0.000000   0.000000   0.000000
    17  N    0.000095  -0.000003   0.000000  -0.000023  -0.000003   0.000000
    18  H   -0.000004   0.000011   0.000000   0.000003   0.000000  -0.000002
    19  C   -0.000470  -0.000005   0.000005   0.000104  -0.000011  -0.000062
    20  H    0.000017  -0.000001   0.000000  -0.000006  -0.000050  -0.000027
    21  C   -0.000001   0.000000   0.000000  -0.000001   0.000000   0.000000
    22  H    0.000000   0.000000   0.000000  -0.000001   0.000000   0.000000
    23  H    0.000000   0.000000   0.000000   0.000000   0.000000   0.000000
    24  H    0.000000   0.000000   0.000000   0.000000   0.000000   0.000000
    25  C   -0.001597   0.000128   0.000011   0.002035   0.003500   0.000469
    26  O   -0.004199  -0.000004   0.000002   0.004651   0.000463  -0.000004
    27  N   -0.064268   0.000362   0.004685  -0.005606  -0.040889  -0.010642
    28  H    0.002722   0.000471  -0.000065  -0.000180  -0.008030   0.025478
    29  C    0.337854  -0.038613  -0.037659  -0.029218   0.377220  -0.075981
    30  H   -0.040960   0.004010   0.000065  -0.003614  -0.042356   0.001683
    31  C    5.144960   0.388472   0.382256   0.391798  -0.052952  -0.000818
    32  H    0.388472   0.517585  -0.024670  -0.023103  -0.004019   0.001381
    33  H    0.382256  -0.024670   0.538383  -0.022745  -0.003189   0.000020
    34  H    0.391798  -0.023103  -0.022745   0.467721   0.004129  -0.000071
    35  C   -0.052952  -0.004019  -0.003189   0.004129   4.160752   0.597108
    36  O   -0.000818   0.001381   0.000020  -0.000071   0.597108   8.183751
    37  N    0.002051   0.000398   0.002221  -0.000044   0.285114  -0.104307
    38  H    0.000363   0.000005   0.000634  -0.000038  -0.022279   0.002522
    39  C   -0.000255  -0.000010  -0.000004   0.000003  -0.028785   0.008486
    40  H   -0.000001   0.000003  -0.000011   0.000000  -0.003009   0.002998
    41  H   -0.000005   0.000000   0.000003   0.000000  -0.003793   0.001250
    42  H    0.000003  -0.000001  -0.000007   0.000000   0.004543   0.000356
             37         38         39         40         41         42
     1  H    0.000000   0.000000   0.000000   0.000000   0.000000   0.000000
     2  C    0.000000   0.000000   0.000000   0.000000   0.000000   0.000000
     3  H    0.000000   0.000000   0.000000   0.000000   0.000000   0.000000
     4  H    0.000000   0.000000   0.000000   0.000000   0.000000   0.000000
     5  C    0.000000   0.000000   0.000000   0.000000   0.000000   0.000000
     6  O    0.000000   0.000000   0.000000   0.000000   0.000000   0.000000
     7  N    0.000000   0.000000   0.000000   0.000000   0.000000   0.000000
     8  H    0.000000   0.000000   0.000000   0.000000   0.000000   0.000000
     9  C    0.000000   0.000000   0.000000   0.000000   0.000000   0.000000
    10  H    0.000000   0.000000   0.000000   0.000000   0.000000   0.000000
    11  C    0.000000   0.000000   0.000000   0.000000   0.000000   0.000000
    12  H    0.000000   0.000000   0.000000   0.000000   0.000000   0.000000
    13  H    0.000000   0.000000   0.000000   0.000000   0.000000   0.000000
    14  H    0.000000   0.000000   0.000000   0.000000   0.000000   0.000000
    15  C    0.000000   0.000000   0.000000   0.000000   0.000000   0.000000
    16  O    0.000000   0.000000   0.000000   0.000000   0.000000   0.000000
    17  N    0.000000   0.000000   0.000000   0.000000   0.000000   0.000000
    18  H    0.000000   0.000000   0.000000   0.000000   0.000000   0.000000
    19  C    0.000000   0.000000   0.000000   0.000000   0.000000   0.000000
    20  H    0.000000   0.000000   0.000000   0.000000   0.000000   0.000000
    21  C    0.000000   0.000000   0.000000   0.000000   0.000000   0.000000
    22  H    0.000000   0.000000   0.000000   0.000000   0.000000   0.000000
    23  H    0.000000   0.000000   0.000000   0.000000   0.000000   0.000000
    24  H    0.000000   0.000000   0.000000   0.000000   0.000000   0.000000
    25  C   -0.000097  -0.000004   0.000001   0.000000   0.000000   0.000000
    26  O   -0.000001   0.000000   0.000000   0.000000   0.000000   0.000000
    27  N    0.002543   0.000007  -0.000078  -0.000003   0.000006   0.000000
    28  H    0.001105  -0.000033  -0.000033  -0.000004   0.000001   0.000000
    29  C   -0.116533   0.000536   0.004335   0.000147  -0.000168   0.000005
    30  H    0.003622   0.001236  -0.000106  -0.000001  -0.000002  -0.000010
    31  C    0.002051   0.000363  -0.000255  -0.000001  -0.000005   0.000003
    32  H    0.000398   0.000005  -0.000010   0.000003   0.000000  -0.000001
    33  H    0.002221   0.000634  -0.000004  -0.000011   0.000003  -0.000007
    34  H   -0.000044  -0.000038   0.000003   0.000000   0.000000   0.000000
    35  C    0.285114  -0.022279  -0.028785  -0.003009  -0.003793   0.004543
    36  O   -0.104307   0.002522   0.008486   0.002998   0.001250   0.000356
    37  N    7.323468   0.328604   0.194021  -0.040843  -0.045304  -0.036900
    38  H    0.328604   0.319553  -0.022043   0.002463   0.001400  -0.004596
    39  C    0.194021  -0.022043   4.908975   0.404419   0.406287   0.397476
    40  H   -0.040843   0.002463   0.404419   0.488864  -0.032872  -0.024960
    41  H   -0.045304   0.001400   0.406287  -0.032872   0.517793  -0.030493
    42  H   -0.036900  -0.004596   0.397476  -0.024960  -0.030493   0.520958
 Mulliken atomic charges:
              1
     1  H    0.205936
     2  C   -0.574751
     3  H    0.203420
     4  H    0.173828
     5  C    0.756350
     6  O   -0.625017
     7  N   -0.822815
     8  H    0.421011
     9  C   -0.036307
    10  H    0.212564
    11  C   -0.484064
    12  H    0.178441
    13  H    0.156227
    14  H    0.211818
    15  C    0.802321
    16  O   -0.616309
    17  N   -0.837481
    18  H    0.389412
    19  C   -0.034754
    20  H    0.189373
    21  C   -0.487792
    22  H    0.244356
    23  H    0.161452
    24  H    0.172763
    25  C    0.802325
    26  O   -0.612279
    27  N   -0.845049
    28  H    0.418784
    29  C   -0.031430
    30  H    0.215713
    31  C   -0.485066
    32  H    0.177604
    33  H    0.160066
    34  H    0.214203
    35  C    0.776535
    36  O   -0.633586
    37  N   -0.799116
    38  H    0.391670
    39  C   -0.272688
    40  H    0.202809
    41  H    0.185896
    42  H    0.173625
 Sum of Mulliken atomic charges =   0.00000
 Mulliken charges with hydrogens summed into heavy atoms:
              1
     2  C    0.008434
     5  C    0.756350
     6  O   -0.625017
     7  N   -0.401805
     9  C    0.176257
    11  C    0.062421
    15  C    0.802321
    16  O   -0.616309
    17  N   -0.448069
    19  C    0.154618
    21  C    0.090779
    25  C    0.802325
    26  O   -0.612279
    27  N   -0.426265
    29  C    0.184284
    31  C    0.066807
    35  C    0.776535
    36  O   -0.633586
    37  N   -0.407445
    39  C    0.289643
 Sum of Mulliken charges with hydrogens summed into heavy atoms =   0.00000
 Electronic spatial extent (au):  <R**2>=           9447.2603
 Charge=              0.0000 electrons
 Dipole moment (field-independent basis, Debye):
    X=             -4.6237    Y=              0.0281    Z=             -0.1504  Tot=              4.6262
 Quadrupole moment (field-independent basis, Debye-Ang):
   XX=            -97.6481   YY=           -124.6878   ZZ=           -127.3146
   XY=             12.7646   XZ=              3.4239   YZ=             14.5015
 Traceless Quadrupole moment (field-independent basis, Debye-Ang):
   XX=             18.9021   YY=             -8.1377   ZZ=            -10.7645
   XY=             12.7646   XZ=              3.4239   YZ=             14.5015
 Octapole moment (field-independent basis, Debye-Ang**2):
  XXX=           -172.2887  YYY=             21.2321  ZZZ=              4.4319  XYY=            -49.7103
  XXY=            -18.6877  XXZ=           -117.8379  XZZ=              8.2324  YZZ=             -7.5120
  YYZ=            -11.5230  XYZ=             25.9948
 Hexadecapole moment (field-independent basis, Debye-Ang**3):
 XXXX=          -8250.8024 YYYY=          -1752.0260 ZZZZ=           -823.1399 XXXY=            401.2363
 XXXZ=            -28.1047 YYYX=             61.7407 YYYZ=             30.2444 ZZZX=             19.5542
 ZZZY=             12.9879 XXYY=          -1998.9557 XXZZ=          -1787.6617 YYZZ=           -431.9629
 XXYZ=            194.8604 YYXZ=            -71.9926 ZZXY=             24.7668
 N-N= 1.606098370136D+03 E-N=-5.520193867211D+03  KE= 9.830824067252D+02
 1\1\GINC-NODE005\FOpt\RHF\6-31G(d)\C12H22N4O4\MANAGER\27-Dec-2016\0\\#
  HF/6-31G* Opt=(ModRedundant, maxcycles=1000, calcfc) geom=nocrowd\\Ph
 i Psi fixed scan\\0,1\H,6.1466966293,1.3105311515,3.8468190189\C,6.549
 0694807,2.3069097571,3.7192311559\H,7.6274889829,2.2433367523,3.813982
 6871\H,6.1669145021,2.9545151622,4.4987343764\C,6.2168231195,2.7887472
 767,2.3237293946\O,6.384140419,2.0888158502,1.358343638\N,5.7435648955
 ,4.0475254184,2.2335425543\H,5.6466460864,4.6234575793,3.0395176418\C,
 5.4487733409,4.667702931,0.9657450687\H,6.2032757504,4.3568031646,0.25
 37743039\C,4.0664142401,4.2641174727,0.4347991309\H,3.2921493652,4.577
 1201065,1.1267582634\H,3.8662673714,4.7132688705,-0.5327234004\H,4.028
 3675202,3.188220847,0.3278683495\C,5.5180686103,6.1818816459,1.1709079
 399\O,5.3644686565,6.6637289947,2.2587794446\N,5.7111709318,6.88508498
 98,0.0306170035\H,5.907740279,6.3540871573,-0.7871409818\C,5.815714724
 5,8.3346738843,-0.1251300154\H,5.5030821726,8.5281022241,-1.1458571843
 \C,4.9208677205,9.1461566553,0.8041812353\H,5.259831349,9.0884187066,1
 .8241163667\H,4.9387432742,10.1826437119,0.4828032661\H,3.9002971628,8
 .7870727724,0.7463460953\C,7.288063181,8.745930121,0.0139643526\O,7.78
 59735548,9.0054650006,1.0751753608\N,7.983572528,8.756668713,-1.141535
 6772\H,7.5376952983,8.6202113614,-2.0213227907\C,9.3827709976,9.107586
 7837,-1.1941949283\H,9.554704761,9.9295654492,-0.5097411128\C,10.28614
 35138,7.9322588301,-0.79807785\H,10.1474568069,7.102525552,-1.48266309
 86\H,11.3329747319,8.2169622209,-0.8107961426\H,10.0316943704,7.609326
 8725,0.2026284533\C,9.6817078782,9.5585162571,-2.6218015739\O,8.963496
 5405,9.2546831395,-3.5399679343\N,10.8068298804,10.2747553902,-2.78332
 21607\H,11.3099670472,10.5716579154,-1.9797892193\C,11.2227619513,10.7
 57597432,-4.0846297648\H,11.2164959875,9.947908578,-4.8001555962\H,10.
 5669427676,11.5409390819,-4.4460425254\H,12.227771619,11.1483182194,-4
 .0025731445\\Version=EM64L-G09RevA.02\State=1-A\HF=-984.5541965\RMSD=7
 .820e-09\RMSF=2.035e-04\Dipole=0.9076319,1.291944,-0.9054378\Quadrupol
 e=13.4907988,-8.3543728,-5.136426,9.8034467,-3.3889396,-10.7320196\PG=
 C01 [X(C12H22N4O4)]\\@


 A MUSTACHE HAIR ACROSS A CHIP IS LIKE A REDWOOD
 TREE FALLING THROUGH A HOUSING PROJECT.
 - AN IBM MANAGER IN EAST FISHKILL, NEW YORK
   AS QUOTED IN "FROM SANDS TO CIRCUITS", IBM INNOVATION JANUARY 1985.
 Job cpu time:  0 days  2 hours 28 minutes 26.9 seconds.
 File lengths (MBytes):  RWF=    553 Int=      0 D2E=      0 Chk=     11 Scr=      1
 Normal termination of Gaussian 09 at Tue Dec 27 19:22:12 2016.
