 Entering Gaussian System, Link 0=g09
 Initial command:
 /home/steboss/Software/g09/l1.exe /tmp/Gau-29594.inp -scrdir=/tmp/
 Entering Link 1 = /home/steboss/Software/g09/l1.exe PID=     29603.
  
 Copyright (c) 1988,1990,1992,1993,1995,1998,2003,2009, Gaussian, Inc.
                  All Rights Reserved.
  
 This is part of the Gaussian(R) 09 program.  It is based on
 the Gaussian(R) 03 system (copyright 2003, Gaussian, Inc.),
 the Gaussian(R) 98 system (copyright 1998, Gaussian, Inc.),
 the Gaussian(R) 94 system (copyright 1995, Gaussian, Inc.),
 the Gaussian 92(TM) system (copyright 1992, Gaussian, Inc.),
 the Gaussian 90(TM) system (copyright 1990, Gaussian, Inc.),
 the Gaussian 88(TM) system (copyright 1988, Gaussian, Inc.),
 the Gaussian 86(TM) system (copyright 1986, Carnegie Mellon
 University), and the Gaussian 82(TM) system (copyright 1983,
 Carnegie Mellon University). Gaussian is a federally registered
 trademark of Gaussian, Inc.
  
 This software contains proprietary and confidential information,
 including trade secrets, belonging to Gaussian, Inc.
  
 This software is provided under written license and may be
 used, copied, transmitted, or stored only in accord with that
 written license.
  
 The following legend is applicable only to US Government
 contracts under FAR:
  
                    RESTRICTED RIGHTS LEGEND
  
 Use, reproduction and disclosure by the US Government is
 subject to restrictions as set forth in subparagraphs (a)
 and (c) of the Commercial Computer Software - Restricted
 Rights clause in FAR 52.227-19.
  
 Gaussian, Inc.
 340 Quinnipiac St., Bldg. 40, Wallingford CT 06492
  
  
 ---------------------------------------------------------------
 Warning -- This program may not be used in any manner that
 competes with the business of Gaussian, Inc. or will provide
 assistance to any competitor of Gaussian, Inc.  The licensee
 of this program is prohibited from giving any competitor of
 Gaussian, Inc. access to this program.  By using this program,
 the user acknowledges that Gaussian, Inc. is engaged in the
 business of creating and licensing software in the field of
 computational chemistry and represents and warrants to the
 licensee that it is not a competitor of Gaussian, Inc. and that
 it will not use this program in any manner prohibited above.
 ---------------------------------------------------------------
  

 Cite this work as:
 Gaussian 09, Revision A.02,
 M. J. Frisch, G. W. Trucks, H. B. Schlegel, G. E. Scuseria, 
 M. A. Robb, J. R. Cheeseman, G. Scalmani, V. Barone, B. Mennucci, 
 G. A. Petersson, H. Nakatsuji, M. Caricato, X. Li, H. P. Hratchian, 
 A. F. Izmaylov, J. Bloino, G. Zheng, J. L. Sonnenberg, M. Hada, 
 M. Ehara, K. Toyota, R. Fukuda, J. Hasegawa, M. Ishida, T. Nakajima, 
 Y. Honda, O. Kitao, H. Nakai, T. Vreven, J. A. Montgomery, Jr., 
 J. E. Peralta, F. Ogliaro, M. Bearpark, J. J. Heyd, E. Brothers, 
 K. N. Kudin, V. N. Staroverov, R. Kobayashi, J. Normand, 
 K. Raghavachari, A. Rendell, J. C. Burant, S. S. Iyengar, J. Tomasi, 
 M. Cossi, N. Rega, J. M. Millam, M. Klene, J. E. Knox, J. B. Cross, 
 V. Bakken, C. Adamo, J. Jaramillo, R. Gomperts, R. E. Stratmann, 
 O. Yazyev, A. J. Austin, R. Cammi, C. Pomelli, J. W. Ochterski, 
 R. L. Martin, K. Morokuma, V. G. Zakrzewski, G. A. Voth, 
 P. Salvador, J. J. Dannenberg, S. Dapprich, A. D. Daniels, 
 O. Farkas, J. B. Foresman, J. V. Ortiz, J. Cioslowski, 
 and D. J. Fox, Gaussian, Inc., Wallingford CT, 2009.
 
 ******************************************
 Gaussian 09:  EM64L-G09RevA.02 11-Jun-2009
                26-Dec-2016 
 ******************************************
 %chk=structure_60.chk
 -------------------------------------------------------------------
 # HF/6-31G* Opt=(ModRedundant, maxcycles=1000, calcfc) geom=nocrowd
 -------------------------------------------------------------------
 1/6=1000,10=4,18=120,19=15,38=1/1,3;
 2/9=110,12=1,17=6,18=5,40=1/2;
 3/5=1,6=6,7=1,11=9,16=1,25=1,30=1,71=2/1,2,3;
 4//1;
 5/5=2,38=5/2;
 8/6=4,10=90,11=11/1;
 11/6=1,8=1,9=11,15=111,16=1/1,2,10;
 10/6=1,7=6,13=1/2;
 6/7=2,8=2,9=2,10=2,28=1/1;
 7/10=1,18=20,25=1/1,2,3,16;
 1/6=1000,10=4,18=20,19=15/3(2);
 2/9=110,12=1/2;
 99//99;
 2/9=110,12=1/2;
 3/5=1,6=6,7=1,11=9,16=1,25=1,30=1,71=1/1,2,3;
 4/5=5,16=3/1;
 5/5=2,38=5/2;
 7//1,2,3,16;
 1/6=1000,18=20,19=15/3(-5);
 2/9=110,12=1/2;
 6/7=2,8=2,9=2,10=2,19=2,28=1/1;
 99/9=1/99;
 ------------------
 Phi Psi fixed scan
 ------------------
 Symbolic Z-matrix:
 Charge =  0 Multiplicity = 1
 H                     9.6921    1.        0. 
 C                     9.6921    2.09      0. 
 H                     10.2058   2.4538   -0.8898 
 H                     10.2058   2.4538    0.8898 
 C                     8.2647    2.6408    0. 
 O                     7.3015    1.8774    0. 
 N                     8.1367    3.9696    0. 
 H                     8.959     4.5561    0. 
 C                     6.8388    4.6139    0. 
 H                     6.2845    4.3155   -0.8898 
 C                     6.0308    4.2208    1.2321 
 H                     6.5688    4.5213    2.1312 
 H                     5.0616    4.7189    1.2058 
 H                     5.8836    3.1409    1.2414 
 C                     6.9794    6.1294    0. 
 O                     8.0915    6.6527    0. 
 N                     5.846     6.8349    0. 
 H                     4.9551    6.3592    0. 
 C                     5.8461    8.2839    0. 
 H                     5.3323    8.6477   -0.8898 
 C                     5.1347    8.8329    1.2322 
 H                     5.6431    8.4846    2.1312 
 H                     5.1499    9.9224    1.2058 
 H                     4.1019    8.4846    1.2414 
 C                     7.266     8.8318    0. 
 O                     7.6574    9.5503    0.9171 
 N                     8.0386    8.4902   -1.0338 
 H                     7.6716    7.8967   -1.764 
 C                     9.4087    8.9471   -1.1497 
 H                     9.4275    10.0365  -1.1807 
 C                     10.2458   8.4788    0.0359 
 H                     10.244    7.3895    0.0749 
 H                     11.2693   8.8362   -0.0776 
 H                     9.8232    8.8756    0.959 
 C                     10.0589   8.4132   -2.418 
 O                     9.4267    7.693    -3.1875 
 N                     11.3274   8.7686   -2.6346 
 H                     11.8055   9.3628   -1.9725 
 C                     12.0574   8.3257   -3.8054 
 H                     11.4129   7.6969   -4.4197 
 H                     12.3771   9.1923   -4.3841 
 H                     12.932    7.7544   -3.4943 
 
 The following ModRedundant input section has been read:
 D   15   17   19   25 F                                                       
 D   17   19   25   27 F                                                       

 GradGradGradGradGradGradGradGradGradGradGradGradGradGradGradGradGradGrad
 Berny optimization.
 Initialization pass.
                           ----------------------------
                           !    Initial Parameters    !
                           ! (Angstroms and Degrees)  !
 --------------------------                            --------------------------
 ! Name  Definition              Value          Derivative Info.                !
 --------------------------------------------------------------------------------
 ! R1    R(1,2)                  1.09           calculate D2E/DX2 analytically  !
 ! R2    R(2,3)                  1.0899         calculate D2E/DX2 analytically  !
 ! R3    R(2,4)                  1.0899         calculate D2E/DX2 analytically  !
 ! R4    R(2,5)                  1.53           calculate D2E/DX2 analytically  !
 ! R5    R(5,6)                  1.229          calculate D2E/DX2 analytically  !
 ! R6    R(5,7)                  1.335          calculate D2E/DX2 analytically  !
 ! R7    R(7,8)                  1.01           calculate D2E/DX2 analytically  !
 ! R8    R(7,9)                  1.449          calculate D2E/DX2 analytically  !
 ! R9    R(9,10)                 1.09           calculate D2E/DX2 analytically  !
 ! R10   R(9,11)                 1.5249         calculate D2E/DX2 analytically  !
 ! R11   R(9,15)                 1.522          calculate D2E/DX2 analytically  !
 ! R12   R(11,12)                1.09           calculate D2E/DX2 analytically  !
 ! R13   R(11,13)                1.09           calculate D2E/DX2 analytically  !
 ! R14   R(11,14)                1.0899         calculate D2E/DX2 analytically  !
 ! R15   R(15,16)                1.2291         calculate D2E/DX2 analytically  !
 ! R16   R(15,17)                1.335          calculate D2E/DX2 analytically  !
 ! R17   R(17,18)                1.0099         calculate D2E/DX2 analytically  !
 ! R18   R(17,19)                1.449          calculate D2E/DX2 analytically  !
 ! R19   R(19,20)                1.09           calculate D2E/DX2 analytically  !
 ! R20   R(19,21)                1.5251         calculate D2E/DX2 analytically  !
 ! R21   R(19,25)                1.5219         calculate D2E/DX2 analytically  !
 ! R22   R(21,22)                1.0899         calculate D2E/DX2 analytically  !
 ! R23   R(21,23)                1.0899         calculate D2E/DX2 analytically  !
 ! R24   R(21,24)                1.09           calculate D2E/DX2 analytically  !
 ! R25   R(25,26)                1.229          calculate D2E/DX2 analytically  !
 ! R26   R(25,27)                1.335          calculate D2E/DX2 analytically  !
 ! R27   R(27,28)                1.01           calculate D2E/DX2 analytically  !
 ! R28   R(27,29)                1.4489         calculate D2E/DX2 analytically  !
 ! R29   R(29,30)                1.09           calculate D2E/DX2 analytically  !
 ! R30   R(29,31)                1.525          calculate D2E/DX2 analytically  !
 ! R31   R(29,35)                1.522          calculate D2E/DX2 analytically  !
 ! R32   R(31,32)                1.09           calculate D2E/DX2 analytically  !
 ! R33   R(31,33)                1.09           calculate D2E/DX2 analytically  !
 ! R34   R(31,34)                1.09           calculate D2E/DX2 analytically  !
 ! R35   R(35,36)                1.229          calculate D2E/DX2 analytically  !
 ! R36   R(35,37)                1.335          calculate D2E/DX2 analytically  !
 ! R37   R(37,38)                1.01           calculate D2E/DX2 analytically  !
 ! R38   R(37,39)                1.4491         calculate D2E/DX2 analytically  !
 ! R39   R(39,40)                1.09           calculate D2E/DX2 analytically  !
 ! R40   R(39,41)                1.09           calculate D2E/DX2 analytically  !
 ! R41   R(39,42)                1.09           calculate D2E/DX2 analytically  !
 ! A1    A(1,2,3)              109.4982         calculate D2E/DX2 analytically  !
 ! A2    A(1,2,4)              109.4982         calculate D2E/DX2 analytically  !
 ! A3    A(1,2,5)              111.1004         calculate D2E/DX2 analytically  !
 ! A4    A(3,2,4)              109.4463         calculate D2E/DX2 analytically  !
 ! A5    A(3,2,5)              108.6355         calculate D2E/DX2 analytically  !
 ! A6    A(4,2,5)              108.6355         calculate D2E/DX2 analytically  !
 ! A7    A(2,5,6)              120.5004         calculate D2E/DX2 analytically  !
 ! A8    A(2,5,7)              116.6026         calculate D2E/DX2 analytically  !
 ! A9    A(6,5,7)              122.897          calculate D2E/DX2 analytically  !
 ! A10   A(5,7,8)              119.9959         calculate D2E/DX2 analytically  !
 ! A11   A(5,7,9)              121.9028         calculate D2E/DX2 analytically  !
 ! A12   A(8,7,9)              118.1013         calculate D2E/DX2 analytically  !
 ! A13   A(7,9,10)             109.4983         calculate D2E/DX2 analytically  !
 ! A14   A(7,9,11)             111.0986         calculate D2E/DX2 analytically  !
 ! A15   A(7,9,15)             111.1002         calculate D2E/DX2 analytically  !
 ! A16   A(10,9,11)            108.636          calculate D2E/DX2 analytically  !
 ! A17   A(10,9,15)            108.6373         calculate D2E/DX2 analytically  !
 ! A18   A(11,9,15)            107.7957         calculate D2E/DX2 analytically  !
 ! A19   A(9,11,12)            109.5034         calculate D2E/DX2 analytically  !
 ! A20   A(9,11,13)            109.5016         calculate D2E/DX2 analytically  !
 ! A21   A(9,11,14)            109.5033         calculate D2E/DX2 analytically  !
 ! A22   A(12,11,13)           109.4381         calculate D2E/DX2 analytically  !
 ! A23   A(12,11,14)           109.437          calculate D2E/DX2 analytically  !
 ! A24   A(13,11,14)           109.4437         calculate D2E/DX2 analytically  !
 ! A25   A(9,15,16)            120.4998         calculate D2E/DX2 analytically  !
 ! A26   A(9,15,17)            116.6003         calculate D2E/DX2 analytically  !
 ! A27   A(16,15,17)           122.8999         calculate D2E/DX2 analytically  !
 ! A28   A(15,17,18)           119.9991         calculate D2E/DX2 analytically  !
 ! A29   A(15,17,19)           121.8968         calculate D2E/DX2 analytically  !
 ! A30   A(18,17,19)           118.1041         calculate D2E/DX2 analytically  !
 ! A31   A(17,19,20)           109.4954         calculate D2E/DX2 analytically  !
 ! A32   A(17,19,21)           111.0974         calculate D2E/DX2 analytically  !
 ! A33   A(17,19,25)           111.1042         calculate D2E/DX2 analytically  !
 ! A34   A(20,19,21)           108.6349         calculate D2E/DX2 analytically  !
 ! A35   A(20,19,25)           108.6399         calculate D2E/DX2 analytically  !
 ! A36   A(21,19,25)           107.7944         calculate D2E/DX2 analytically  !
 ! A37   A(19,21,22)           109.4996         calculate D2E/DX2 analytically  !
 ! A38   A(19,21,23)           109.4977         calculate D2E/DX2 analytically  !
 ! A39   A(19,21,24)           109.4988         calculate D2E/DX2 analytically  !
 ! A40   A(22,21,23)           109.4452         calculate D2E/DX2 analytically  !
 ! A41   A(22,21,24)           109.4447         calculate D2E/DX2 analytically  !
 ! A42   A(23,21,24)           109.4412         calculate D2E/DX2 analytically  !
 ! A43   A(19,25,26)           120.5021         calculate D2E/DX2 analytically  !
 ! A44   A(19,25,27)           116.6021         calculate D2E/DX2 analytically  !
 ! A45   A(26,25,27)           122.8958         calculate D2E/DX2 analytically  !
 ! A46   A(25,27,28)           119.9937         calculate D2E/DX2 analytically  !
 ! A47   A(25,27,29)           121.9029         calculate D2E/DX2 analytically  !
 ! A48   A(28,27,29)           118.1034         calculate D2E/DX2 analytically  !
 ! A49   A(27,29,30)           109.4965         calculate D2E/DX2 analytically  !
 ! A50   A(27,29,31)           111.102          calculate D2E/DX2 analytically  !
 ! A51   A(27,29,35)           111.1008         calculate D2E/DX2 analytically  !
 ! A52   A(30,29,31)           108.6358         calculate D2E/DX2 analytically  !
 ! A53   A(30,29,35)           108.6347         calculate D2E/DX2 analytically  !
 ! A54   A(31,29,35)           107.7963         calculate D2E/DX2 analytically  !
 ! A55   A(29,31,32)           109.499          calculate D2E/DX2 analytically  !
 ! A56   A(29,31,33)           109.4979         calculate D2E/DX2 analytically  !
 ! A57   A(29,31,34)           109.4984         calculate D2E/DX2 analytically  !
 ! A58   A(32,31,33)           109.4477         calculate D2E/DX2 analytically  !
 ! A59   A(32,31,34)           109.4421         calculate D2E/DX2 analytically  !
 ! A60   A(33,31,34)           109.4422         calculate D2E/DX2 analytically  !
 ! A61   A(29,35,36)           120.5017         calculate D2E/DX2 analytically  !
 ! A62   A(29,35,37)           116.5984         calculate D2E/DX2 analytically  !
 ! A63   A(36,35,37)           122.8999         calculate D2E/DX2 analytically  !
 ! A64   A(35,37,38)           120.0034         calculate D2E/DX2 analytically  !
 ! A65   A(35,37,39)           121.8962         calculate D2E/DX2 analytically  !
 ! A66   A(38,37,39)           118.1004         calculate D2E/DX2 analytically  !
 ! A67   A(37,39,40)           109.4992         calculate D2E/DX2 analytically  !
 ! A68   A(37,39,41)           109.4946         calculate D2E/DX2 analytically  !
 ! A69   A(37,39,42)           109.5002         calculate D2E/DX2 analytically  !
 ! A70   A(40,39,41)           109.4421         calculate D2E/DX2 analytically  !
 ! A71   A(40,39,42)           109.4465         calculate D2E/DX2 analytically  !
 ! A72   A(41,39,42)           109.4447         calculate D2E/DX2 analytically  !
 ! D1    D(1,2,5,6)              0.0            calculate D2E/DX2 analytically  !
 ! D2    D(1,2,5,7)            180.0            calculate D2E/DX2 analytically  !
 ! D3    D(3,2,5,6)            120.51           calculate D2E/DX2 analytically  !
 ! D4    D(3,2,5,7)            -59.49           calculate D2E/DX2 analytically  !
 ! D5    D(4,2,5,6)           -120.51           calculate D2E/DX2 analytically  !
 ! D6    D(4,2,5,7)             59.49           calculate D2E/DX2 analytically  !
 ! D7    D(2,5,7,8)              0.0            calculate D2E/DX2 analytically  !
 ! D8    D(2,5,7,9)            180.0            calculate D2E/DX2 analytically  !
 ! D9    D(6,5,7,8)            180.0            calculate D2E/DX2 analytically  !
 ! D10   D(6,5,7,9)              0.0            calculate D2E/DX2 analytically  !
 ! D11   D(5,7,9,10)           -59.9991         calculate D2E/DX2 analytically  !
 ! D12   D(5,7,9,11)            59.9992         calculate D2E/DX2 analytically  !
 ! D13   D(5,7,9,15)           180.0            calculate D2E/DX2 analytically  !
 ! D14   D(8,7,9,10)           120.0009         calculate D2E/DX2 analytically  !
 ! D15   D(8,7,9,11)          -120.0008         calculate D2E/DX2 analytically  !
 ! D16   D(8,7,9,15)             0.0            calculate D2E/DX2 analytically  !
 ! D17   D(7,9,11,12)           60.0014         calculate D2E/DX2 analytically  !
 ! D18   D(7,9,11,13)          179.9992         calculate D2E/DX2 analytically  !
 ! D19   D(7,9,11,14)          -59.9962         calculate D2E/DX2 analytically  !
 ! D20   D(10,9,11,12)        -179.4894         calculate D2E/DX2 analytically  !
 ! D21   D(10,9,11,13)         -59.4916         calculate D2E/DX2 analytically  !
 ! D22   D(10,9,11,14)          60.5131         calculate D2E/DX2 analytically  !
 ! D23   D(15,9,11,12)         -61.9437         calculate D2E/DX2 analytically  !
 ! D24   D(15,9,11,13)          58.0541         calculate D2E/DX2 analytically  !
 ! D25   D(15,9,11,14)         178.0588         calculate D2E/DX2 analytically  !
 ! D26   D(7,9,15,16)            0.0            calculate D2E/DX2 analytically  !
 ! D27   D(7,9,15,17)          180.0            calculate D2E/DX2 analytically  !
 ! D28   D(10,9,15,16)        -120.5111         calculate D2E/DX2 analytically  !
 ! D29   D(10,9,15,17)          59.4889         calculate D2E/DX2 analytically  !
 ! D30   D(11,9,15,16)         121.9441         calculate D2E/DX2 analytically  !
 ! D31   D(11,9,15,17)         -58.0559         calculate D2E/DX2 analytically  !
 ! D32   D(9,15,17,18)           0.0            calculate D2E/DX2 analytically  !
 ! D33   D(9,15,17,19)         180.0            calculate D2E/DX2 analytically  !
 ! D34   D(16,15,17,18)        180.0            calculate D2E/DX2 analytically  !
 ! D35   D(16,15,17,19)          0.0            calculate D2E/DX2 analytically  !
 ! D36   D(15,17,19,20)        120.0048         calculate D2E/DX2 analytically  !
 ! D37   D(15,17,19,21)       -120.0009         calculate D2E/DX2 analytically  !
 ! D38   D(15,17,19,25)          0.0            frozen, calculate D2E/DX2 analyt!
 ! D39   D(18,17,19,20)        -59.9952         calculate D2E/DX2 analytically  !
 ! D40   D(18,17,19,21)         59.9991         calculate D2E/DX2 analytically  !
 ! D41   D(18,17,19,25)        180.0            calculate D2E/DX2 analytically  !
 ! D42   D(17,19,21,22)         60.0039         calculate D2E/DX2 analytically  !
 ! D43   D(17,19,21,23)       -179.9943         calculate D2E/DX2 analytically  !
 ! D44   D(17,19,21,24)        -59.998          calculate D2E/DX2 analytically  !
 ! D45   D(20,19,21,22)       -179.4919         calculate D2E/DX2 analytically  !
 ! D46   D(20,19,21,23)        -59.4901         calculate D2E/DX2 analytically  !
 ! D47   D(20,19,21,24)         60.5062         calculate D2E/DX2 analytically  !
 ! D48   D(25,19,21,22)        -61.9445         calculate D2E/DX2 analytically  !
 ! D49   D(25,19,21,23)         58.0573         calculate D2E/DX2 analytically  !
 ! D50   D(25,19,21,24)        178.0536         calculate D2E/DX2 analytically  !
 ! D51   D(17,19,25,26)       -119.9969         calculate D2E/DX2 analytically  !
 ! D52   D(17,19,25,27)         60.0013         frozen, calculate D2E/DX2 analyt!
 ! D53   D(20,19,25,26)        119.4914         calculate D2E/DX2 analytically  !
 ! D54   D(20,19,25,27)        -60.5103         calculate D2E/DX2 analytically  !
 ! D55   D(21,19,25,26)          1.9472         calculate D2E/DX2 analytically  !
 ! D56   D(21,19,25,27)       -178.0545         calculate D2E/DX2 analytically  !
 ! D57   D(19,25,27,28)         -0.0016         calculate D2E/DX2 analytically  !
 ! D58   D(19,25,27,29)       -179.9976         calculate D2E/DX2 analytically  !
 ! D59   D(26,25,27,28)        179.9966         calculate D2E/DX2 analytically  !
 ! D60   D(26,25,27,29)          0.0006         calculate D2E/DX2 analytically  !
 ! D61   D(25,27,29,30)        -60.0023         calculate D2E/DX2 analytically  !
 ! D62   D(25,27,29,31)         59.9967         calculate D2E/DX2 analytically  !
 ! D63   D(25,27,29,35)       -179.9991         calculate D2E/DX2 analytically  !
 ! D64   D(28,27,29,30)        120.0016         calculate D2E/DX2 analytically  !
 ! D65   D(28,27,29,31)       -119.9994         calculate D2E/DX2 analytically  !
 ! D66   D(28,27,29,35)          0.0048         calculate D2E/DX2 analytically  !
 ! D67   D(27,29,31,32)         59.9987         calculate D2E/DX2 analytically  !
 ! D68   D(27,29,31,33)       -179.9968         calculate D2E/DX2 analytically  !
 ! D69   D(27,29,31,34)        -59.9993         calculate D2E/DX2 analytically  !
 ! D70   D(30,29,31,32)       -179.4923         calculate D2E/DX2 analytically  !
 ! D71   D(30,29,31,33)        -59.4878         calculate D2E/DX2 analytically  !
 ! D72   D(30,29,31,34)         60.5096         calculate D2E/DX2 analytically  !
 ! D73   D(35,29,31,32)        -61.9496         calculate D2E/DX2 analytically  !
 ! D74   D(35,29,31,33)         58.0549         calculate D2E/DX2 analytically  !
 ! D75   D(35,29,31,34)        178.0524         calculate D2E/DX2 analytically  !
 ! D76   D(27,29,35,36)         -0.0068         calculate D2E/DX2 analytically  !
 ! D77   D(27,29,35,37)        179.9997         calculate D2E/DX2 analytically  !
 ! D78   D(30,29,35,36)       -120.5143         calculate D2E/DX2 analytically  !
 ! D79   D(30,29,35,37)         59.4922         calculate D2E/DX2 analytically  !
 ! D80   D(31,29,35,36)        121.9423         calculate D2E/DX2 analytically  !
 ! D81   D(31,29,35,37)        -58.0512         calculate D2E/DX2 analytically  !
 ! D82   D(29,35,37,38)         -0.0031         calculate D2E/DX2 analytically  !
 ! D83   D(29,35,37,39)        179.9956         calculate D2E/DX2 analytically  !
 ! D84   D(36,35,37,38)       -179.9964         calculate D2E/DX2 analytically  !
 ! D85   D(36,35,37,39)          0.0023         calculate D2E/DX2 analytically  !
 ! D86   D(35,37,39,40)          0.0021         calculate D2E/DX2 analytically  !
 ! D87   D(35,37,39,41)        119.9979         calculate D2E/DX2 analytically  !
 ! D88   D(35,37,39,42)       -120.0025         calculate D2E/DX2 analytically  !
 ! D89   D(38,37,39,40)       -179.9991         calculate D2E/DX2 analytically  !
 ! D90   D(38,37,39,41)        -60.0033         calculate D2E/DX2 analytically  !
 ! D91   D(38,37,39,42)         59.9962         calculate D2E/DX2 analytically  !
 --------------------------------------------------------------------------------
 Trust Radius=3.00D-01 FncErr=1.00D-07 GrdErr=1.00D-07
 Number of steps in this run= 252 maximum allowed number of steps= 252.
 GradGradGradGradGradGradGradGradGradGradGradGradGradGradGradGradGradGrad

                          Input orientation:                          
 ---------------------------------------------------------------------
 Center     Atomic      Atomic             Coordinates (Angstroms)
 Number     Number       Type             X           Y           Z
 ---------------------------------------------------------------------
      1          1           0        9.692100    1.000000    0.000000
      2          6           0        9.692100    2.090000    0.000000
      3          1           0       10.205800    2.453800   -0.889800
      4          1           0       10.205800    2.453800    0.889800
      5          6           0        8.264700    2.640800    0.000000
      6          8           0        7.301500    1.877400    0.000000
      7          7           0        8.136700    3.969600    0.000000
      8          1           0        8.959000    4.556100    0.000000
      9          6           0        6.838800    4.613900    0.000000
     10          1           0        6.284500    4.315500   -0.889800
     11          6           0        6.030800    4.220800    1.232100
     12          1           0        6.568800    4.521300    2.131200
     13          1           0        5.061600    4.718900    1.205800
     14          1           0        5.883600    3.140900    1.241400
     15          6           0        6.979400    6.129400    0.000000
     16          8           0        8.091500    6.652700    0.000000
     17          7           0        5.846000    6.834900    0.000000
     18          1           0        4.955100    6.359200    0.000000
     19          6           0        5.846100    8.283900    0.000000
     20          1           0        5.332300    8.647700   -0.889800
     21          6           0        5.134700    8.832900    1.232200
     22          1           0        5.643100    8.484600    2.131200
     23          1           0        5.149900    9.922400    1.205800
     24          1           0        4.101900    8.484600    1.241400
     25          6           0        7.266000    8.831800    0.000000
     26          8           0        7.657400    9.550300    0.917100
     27          7           0        8.038600    8.490200   -1.033800
     28          1           0        7.671600    7.896700   -1.764000
     29          6           0        9.408700    8.947100   -1.149700
     30          1           0        9.427500   10.036500   -1.180700
     31          6           0       10.245800    8.478800    0.035900
     32          1           0       10.244000    7.389500    0.074900
     33          1           0       11.269300    8.836200   -0.077600
     34          1           0        9.823200    8.875600    0.959000
     35          6           0       10.058900    8.413200   -2.418000
     36          8           0        9.426700    7.693000   -3.187500
     37          7           0       11.327400    8.768600   -2.634600
     38          1           0       11.805500    9.362800   -1.972500
     39          6           0       12.057400    8.325700   -3.805400
     40          1           0       11.412900    7.696900   -4.419700
     41          1           0       12.377100    9.192300   -4.384100
     42          1           0       12.932000    7.754400   -3.494300
 ---------------------------------------------------------------------
                    Distance matrix (angstroms):
                    1          2          3          4          5
     1  H    0.000000
     2  C    1.090000   0.000000
     3  H    1.780215   1.089946   0.000000
     4  H    1.780215   1.089946   1.779600   0.000000
     5  C    2.174786   1.529984   2.143498   2.143498   0.000000
     6  O    2.546527   2.400035   3.091753   3.091753   1.229038
     7  N    3.352282   2.439706   2.714879   2.714879   1.334951
     8  H    3.630879   2.572758   2.601138   2.601138   2.037260
     9  C    4.604519   3.809382   4.098105   4.098105   2.434402
    10  H    4.836943   4.166093   4.340797   4.691428   2.741816
    11  C    5.029587   4.411745   5.005534   4.546436   3.000796
    12  H    5.166872   4.495357   5.160307   4.363874   3.309739
    13  H    6.060173   5.459542   5.998751   5.629683   4.004036
    14  H    4.541938   4.141272   4.867806   4.390574   2.731449
    15  C    5.802541   4.865747   4.971060   4.971060   3.717839
    16  O    5.874942   4.835303   4.784639   4.784639   4.015637
    17  N    6.988458   6.107910   6.244489   6.244489   4.841548
    18  H    7.152635   6.376930   6.604070   6.604070   4.977946
    19  C    8.236924   7.290824   7.334084   7.334084   6.139561
    20  H    8.847989   7.924836   7.881332   8.079751   6.743409
    21  C    9.145629   8.231337   8.420918   8.156360   7.046795
    22  H    8.772437   7.863035   8.143416   7.663541   6.750170
    23  H   10.084382   9.134113   9.259247   9.024520   8.011094
    24  H    9.423940   8.583841   8.841389   8.587885   7.281482
    25  C    8.198967   7.165042   7.079057   7.079057   6.271035
    26  O    8.836781   7.786986   7.753679   7.540252   6.996505
    27  N    7.739890   6.690692   6.415264   6.695903   5.944354
    28  H    7.399905   6.396240   6.067253   6.564296   5.575657
    29  C    8.034832   6.958588   6.547203   6.852582   6.511526
    30  H    9.117149   8.038092   7.628087   7.898738   7.579085
    31  C    7.499355   6.412849   6.095830   6.085341   6.165086
    32  H    6.413729   5.328687   5.029238   5.002665   5.145230
    33  H    7.993723   6.928549   6.521176   6.542318   6.885973
    34  H    7.934856   6.854286   6.693576   6.433559   6.497795
    35  C    7.806203   6.779685   6.153976   6.817446   6.510490
    36  O    7.418008   6.451682   5.773702   6.684354   6.085649
    37  N    8.364596   7.363357   6.646729   7.318202   7.339699
    38  H    8.848369   7.826291   7.173950   7.647619   7.849414
    39  C    8.587293   7.678520   6.812368   7.742902   7.822003
    40  H    8.206301   7.343857   6.434857   7.558967   7.416809
    41  H    9.671780   8.767681   7.895065   8.828134   8.891250
    42  H    8.266136   7.402196   6.504763   7.399247   7.755174
                    6          7          8          9         10
     6  O    0.000000
     7  N    2.252745   0.000000
     8  H    3.150038   1.010029   0.000000
     9  C    2.775342   1.449023   2.120988   0.000000
    10  H    2.787537   2.083755   2.828884   1.089970   0.000000
    11  C    2.936711   2.452751   3.194503   1.524947   2.139110
    12  H    3.474057   2.702720   3.202543   2.150230   3.041319
    13  H    3.813821   3.386982   4.082914   2.150214   2.459625
    14  H    2.268909   2.702643   3.605822   2.150165   2.466256
    15  C    4.264183   2.450322   2.528654   1.522008   2.136554
    16  O    4.840206   2.683481   2.268984   2.392898   3.085368
    17  N    5.166748   3.668413   3.857940   2.432795   2.707656
    18  H    5.058866   3.979041   4.391171   2.567956   2.595334
    19  C    6.569736   4.884673   4.856608   3.801888   4.090494
    20  H    7.106789   5.526393   5.539484   4.396911   4.435611
    21  C    7.388662   5.846538   5.868101   4.714047   5.121702
    22  H    7.137744   5.580796   5.565098   4.577557   5.188374
    23  H    8.414592   6.768364   6.690319   5.699694   6.092305
    24  H    7.445375   6.181093   6.369113   4.900410   5.165961
    25  C    6.954491   4.939545   4.598680   4.239479   4.706597
    26  O    7.735705   5.675827   5.241876   5.087163   5.705513
    27  N    6.733586   4.638339   4.170494   4.187358   4.530532
    28  H    6.283362   4.330142   3.991078   3.818642   3.938688
    29  C    7.466107   5.264532   4.561241   5.167477   5.592843
    30  H    8.513803   6.314071   5.625685   6.123725   6.533981
    31  C    7.228324   4.978200   4.128525   5.152319   5.820815
    32  H    6.248773   4.017716   3.112072   4.393740   5.104680
    33  H    8.010890   5.788178   4.864439   6.120716   6.778247
    34  H    7.500230   5.275680   4.508282   5.290407   6.060938
    35  C    7.494442   5.411761   4.683345   5.536285   5.776905
    36  O    6.964039   5.068329   4.496559   5.132079   5.153674
    37  N    8.404619   6.336567   5.504143   6.659593   6.950199
    38  H    8.955891   6.814503   5.924330   7.149190   7.558367
    39  C    8.870188   6.987744   6.187975   7.449316   7.609783
    40  H    8.384744   6.645299   5.951470   7.068312   7.084811
    41  H    9.924203   8.029814   7.238653   8.417532   8.550619
    42  H    8.857302   7.037737   6.182555   7.694151   7.924564
                   11         12         13         14         15
    11  C    0.000000
    12  H    1.090011   0.000000
    13  H    1.090020   1.779624   0.000000
    14  H    1.089926   1.779536   1.779617   0.000000
    15  C    2.461842   2.701220   2.668599   3.416575   0.000000
    16  O    3.417410   3.376906   3.791283   4.329969   1.229068
    17  N    2.895814   3.227568   2.558651   3.897194   1.335038
    18  H    2.692203   3.244059   2.038598   3.572204   2.037302
    19  C    4.249820   4.384229   3.844297   5.290834   2.434387
    20  H    4.958609   5.261421   4.460974   5.930497   3.137916
    21  C    4.698347   4.631926   4.114734   5.741063   3.497163
    22  H    4.374778   4.069971   3.921097   5.422611   3.445965
    23  H    5.769308   5.660523   5.204249   6.821167   4.380396
    24  H    4.679822   4.752377   3.886231   5.632902   3.920210
    25  C    4.930021   4.858859   4.819676   5.986522   2.717555
    26  O    5.581095   5.286769   5.492172   6.658224   3.606011
    27  N    5.233865   5.284856   5.301041   6.199643   2.786400
    28  H    5.018075   5.270871   5.072497   5.903135   2.591175
    29  C    6.278622   6.198148   6.505639   7.201087   3.893937
    30  H    7.154128   7.039764   7.282399   8.122505   4.759483
    31  C    6.109639   5.794171   6.510103   6.998228   4.023722
    32  H    5.397298   5.095295   5.938713   6.198743   3.500154
    33  H    7.103458   6.752174   7.558757   7.948709   5.073069
    34  H    6.010328   5.561034   6.325496   6.963259   4.067984
    35  C    6.864768   6.929856   7.193941   7.656467   4.532746
    36  O    6.566671   6.820252   6.870259   7.272574   4.312108
    37  N    7.980465   7.962203   8.391007   8.736667   5.728141
    38  H    8.369993   8.228214   8.783370   9.171155   6.134890
    39  C    8.862647   8.935402   9.330721   9.511475   6.714975
    40  H    8.543601   8.744371   8.991871   9.131174   6.453428
    41  H    9.825123   9.899683  10.235958  10.508627   7.598477
    42  H    9.080294   9.087877   9.656521   9.663911   7.091136
                   16         17         18         19         20
    16  O    0.000000
    17  N    2.252880   0.000000
    18  H    3.150103   1.009947   0.000000
    19  C    2.775362   1.449000   2.120932   0.000000
    20  H    3.519226   2.083717   2.484201   1.089993   0.000000
    21  C    3.874823   2.452808   2.769434   1.525060   2.139212
    22  H    3.727269   2.702719   3.087504   2.150233   3.041322
    23  H    4.560472   3.386911   3.766735   2.150193   2.459608
    24  H    4.562219   2.702678   2.605062   2.150253   2.466272
    25  C    2.330220   2.450308   3.384377   1.521943   2.136547
    26  O    3.070114   3.390522   4.280960   2.392833   3.079881
    27  N    2.109016   2.935346   3.888171   2.432768   2.714701
    28  H    2.198988   2.751714   3.585383   2.567892   2.607787
    29  C    2.884631   4.298375   5.277650   3.801811   4.095635
    30  H    3.824794   4.946861   5.909226   4.158375   4.334057
    31  C    2.824347   4.697014   5.699605   4.404161   5.002792
    32  H    2.276344   4.433463   5.388840   4.488551   5.161251
    33  H    3.856437   5.781298   6.783117   5.451803   5.995262
    34  H    2.976533   4.571899   5.563304   4.133656   4.861911
    35  C    3.580048   5.107473   6.009527   4.859128   4.973041
    36  O    3.609036   4.870103   5.651052   4.830115   4.791136
    37  N    4.678589   6.381697   7.304282   6.100877   6.245011
    38  H    5.002919   6.767324   7.735654   6.369398   6.601964
    39  C    5.745290   7.435391   8.294025   7.284440   7.336987
    40  H    5.626349   7.160109   7.938915   7.132151   7.094921
    41  H    6.635983   8.211756   9.073746   7.918301   7.882635
    42  H    6.070776   7.954056   8.819731   7.918364   8.083121
                   21         22         23         24         25
    21  C    0.000000
    22  H    1.089947   0.000000
    23  H    1.089926   1.779573   0.000000
    24  H    1.089988   1.779618   1.779562   0.000000
    25  C    2.461861   2.701179   2.668565   3.416599   0.000000
    26  O    2.641584   2.582084   2.551345   3.725918   1.229028
    27  N    3.699302   3.969342   3.925760   4.546886   1.335044
    28  H    4.036031   4.430917   4.391144   4.703277   2.037307
    29  C    4.894238   5.015771   4.963564   5.838955   2.434393
    30  H    5.069405   5.262961   4.899619   6.052849   2.741794
    31  C    5.261166   5.057189   5.424098   6.261052   3.000851
    32  H    5.433939   5.157121   5.800377   6.347075   3.309732
    33  H    6.272870   6.054465   6.346180   7.296232   4.004054
    34  H    4.696647   4.358918   4.795460   5.741594   2.731460
    35  C    6.143928   6.340316   6.285530   6.991577   3.717827
    36  O    6.265332   6.575016   6.523981   6.971032   4.015675
    37  N    7.301083   7.423259   7.364878   8.204382   4.841496
    38  H    7.419600   7.455653   7.396739   8.393202   4.977929
    39  C    8.576622   8.741379   8.681885   9.422602   6.139603
    40  H    8.523512   8.765007   8.707713   9.280046   6.165916
    41  H    9.171933   9.396634   9.165830  10.031252   6.743414
    42  H    9.181550   9.236206   9.346242  10.046428   6.743477
                   26         27         28         29         30
    26  O    0.000000
    27  N    2.252806   0.000000
    28  H    3.150062   1.010012   0.000000
    29  C    2.775349   1.448918   2.120901   0.000000
    30  H    2.787545   2.083667   2.828810   1.090003   0.000000
    31  C    2.936740   2.452778   3.194524   1.525021   2.139196
    32  H    3.474026   2.702692   3.202506   2.150230   3.041350
    33  H    3.813815   3.386954   4.082897   2.150239   2.459629
    34  H    2.268847   2.702699   3.605878   2.150241   2.466289
    35  C    4.264164   2.450214   2.528575   1.521970   2.136511
    36  O    4.840220   2.683426   2.268969   2.392848   3.085326
    37  N    5.166675   3.668279   3.857853   2.432735   2.707585
    38  H    5.058822   3.978960   4.391133   2.567967   2.595323
    39  C    6.569753   4.884627   4.856603   3.801906   4.090509
    40  H    6.783827   4.845570   4.592384   4.033946   4.461688
    41  H    7.106789   5.526304   5.539425   4.396915   4.435604
    42  H    7.106836   5.526375   5.539494   4.396968   4.779356
                   31         32         33         34         35
    31  C    0.000000
    32  H    1.089999   0.000000
    33  H    1.090032   1.779730   0.000000
    34  H    1.090025   1.779663   1.779690   0.000000
    35  C    2.461881   2.701254   2.668608   3.416650   0.000000
    36  O    3.417413   3.376884   3.791248   4.330037   1.229022
    37  N    2.895758   3.227547   2.558553   3.897182   1.335034
    38  H    2.692172   3.244078   2.038496   3.572194   2.037357
    39  C    4.249814   4.384247   3.844243   5.290893   2.434448
    40  H    4.671816   4.654272   4.491376   5.731221   2.520556
    41  H    4.958621   5.261453   4.460938   5.930550   3.137929
    42  H    4.494746   4.483044   3.950785   5.545594   3.138016
                   36         37         38         39         40
    36  O    0.000000
    37  N    2.252837   0.000000
    38  H    3.150103   1.009965   0.000000
    39  C    2.775372   1.449080   2.120979   0.000000
    40  H    2.337375   2.083851   2.986326   1.090016   0.000000
    41  H    3.519178   2.083781   2.484273   1.089999   1.779655
    42  H    3.519236   2.083849   2.484316   1.089996   1.779701
                   41         42
    41  H    0.000000
    42  H    1.779667   0.000000
 Stoichiometry    C12H22N4O4
 Framework group  C1[X(C12H22N4O4)]
 Deg. of freedom   120
 Full point group                 C1      NOp   1
 Largest Abelian subgroup         C1      NOp   1
 Largest concise Abelian subgroup C1      NOp   1
                         Standard orientation:                         
 ---------------------------------------------------------------------
 Center     Atomic      Atomic             Coordinates (Angstroms)
 Number     Number       Type             X           Y           Z
 ---------------------------------------------------------------------
      1          1           0       -4.262190   -3.991537    0.736869
      2          6           0       -3.358685   -3.389460    0.833213
      3          1           0       -2.516670   -3.924070    0.393683
      4          1           0       -3.158053   -3.200663    1.887767
      5          6           0       -3.512786   -2.046397    0.116774
      6          8           0       -4.557641   -1.767082   -0.467003
      7          7           0       -2.466099   -1.219261    0.165613
      8          1           0       -1.628156   -1.493746    0.658227
      9          6           0       -2.487296    0.081202   -0.473146
     10          1           0       -2.651087   -0.041923   -1.543682
     11          6           0       -3.602871    0.952956    0.093423
     12          1           0       -3.447664    1.092885    1.163215
     13          1           0       -3.595152    1.922754   -0.404148
     14          1           0       -4.564330    0.467367   -0.073123
     15          6           0       -1.170942    0.815986   -0.263828
     16          8           0       -0.261405    0.295683    0.378540
     17          7           0       -1.071034    2.030535   -0.809002
     18          1           0       -1.846483    2.416147   -1.328594
     19          6           0        0.130090    2.830838   -0.680873
     20          1           0        0.532525    3.044013   -1.671169
     21          6           0       -0.163284    4.152712    0.020831
     22          1           0       -0.558498    3.955768    1.017327
     23          1           0        0.755824    4.732719    0.103114
     24          1           0       -0.897153    4.715706   -0.555838
     25          6           0        1.191699    2.100115    0.128659
     26          8           0        1.624182    2.584940    1.171928
     27          7           0        1.611664    0.928912   -0.355340
     28          1           0        1.225872    0.571349   -1.217568
     29          6           0        2.618309    0.137054    0.322149
     30          1           0        3.540532    0.712516    0.402490
     31          6           0        2.160956   -0.248890    1.724848
     32          1           0        1.243206   -0.833416    1.660344
     33          1           0        2.935980   -0.842487    2.209770
     34          1           0        1.976378    0.653085    2.308395
     35          6           0        2.911028   -1.146615   -0.441334
     36          8           0        2.320922   -1.397132   -1.489909
     37          7           0        3.826367   -1.961531    0.088180
     38          1           0        4.284812   -1.712120    0.952848
     39          6           0        4.193515   -3.213376   -0.542627
     40          1           0        3.617973   -3.341367   -1.459418
     41          1           0        5.257183   -3.202608   -0.780517
     42          1           0        3.982005   -4.038989    0.136872
 ---------------------------------------------------------------------
 Rotational constants (GHZ):      0.3678478      0.2326920      0.1574668
 Standard basis: 6-31G(d) (6D, 7F)
 There are   344 symmetry adapted basis functions of A   symmetry.
 Integral buffers will be    131072 words long.
 Raffenetti 1 integral format.
 Two-electron integral symmetry is turned on.
   344 basis functions,   648 primitive gaussians,   344 cartesian basis functions
    77 alpha electrons       77 beta electrons
       nuclear repulsion energy      1707.4452738276 Hartrees.
 NAtoms=   42 NActive=   42 NUniq=   42 SFac= 7.50D-01 NAtFMM=   80 NAOKFM=F Big=F
 One-electron integrals computed using PRISM.
 NBasis=   344 RedAO= T  NBF=   344
 NBsUse=   344 1.00D-06 NBFU=   344
 Harris functional with IExCor=  205 diagonalized for initial guess.
 ExpMin= 1.61D-01 ExpMax= 5.48D+03 ExpMxC= 8.25D+02 IAcc=1 IRadAn=         1 AccDes= 0.00D+00
 HarFok:  IExCor=  205 AccDes= 0.00D+00 IRadAn=         1 IDoV= 1
 ScaDFX=  1.000000  1.000000  1.000000  1.000000
 FoFCou: FMM=F IPFlag=           0 FMFlag=      100000 FMFlg1=           0
         NFxFlg=           0 DoJE=T BraDBF=F KetDBF=T FulRan=T
         Omega=  0.000000  0.000000  1.000000  0.000000  0.000000 ICntrl=     500 IOpCl=  0
         NMat0=    1 NMatS0=    1 NMatT0=    0 NMatD0=    1 NMtDS0=    0 NMtDT0=    0
         I1Cent=           4 NGrid=           0.
 Petite list used in FoFCou.
 Initial guess orbital symmetries:
       Occupied  (A) (A) (A) (A) (A) (A) (A) (A) (A) (A) (A) (A)
                 (A) (A) (A) (A) (A) (A) (A) (A) (A) (A) (A) (A)
                 (A) (A) (A) (A) (A) (A) (A) (A) (A) (A) (A) (A)
                 (A) (A) (A) (A) (A) (A) (A) (A) (A) (A) (A) (A)
                 (A) (A) (A) (A) (A) (A) (A) (A) (A) (A) (A) (A)
                 (A) (A) (A) (A) (A) (A) (A) (A) (A) (A) (A) (A)
                 (A) (A) (A) (A) (A)
       Virtual   (A) (A) (A) (A) (A) (A) (A) (A) (A) (A) (A) (A)
                 (A) (A) (A) (A) (A) (A) (A) (A) (A) (A) (A) (A)
                 (A) (A) (A) (A) (A) (A) (A) (A) (A) (A) (A) (A)
                 (A) (A) (A) (A) (A) (A) (A) (A) (A) (A) (A) (A)
                 (A) (A) (A) (A) (A) (A) (A) (A) (A) (A) (A) (A)
                 (A) (A) (A) (A) (A) (A) (A) (A) (A) (A) (A) (A)
                 (A) (A) (A) (A) (A) (A) (A) (A) (A) (A) (A) (A)
                 (A) (A) (A) (A) (A) (A) (A) (A) (A) (A) (A) (A)
                 (A) (A) (A) (A) (A) (A) (A) (A) (A) (A) (A) (A)
                 (A) (A) (A) (A) (A) (A) (A) (A) (A) (A) (A) (A)
                 (A) (A) (A) (A) (A) (A) (A) (A) (A) (A) (A) (A)
                 (A) (A) (A) (A) (A) (A) (A) (A) (A) (A) (A) (A)
                 (A) (A) (A) (A) (A) (A) (A) (A) (A) (A) (A) (A)
                 (A) (A) (A) (A) (A) (A) (A) (A) (A) (A) (A) (A)
                 (A) (A) (A) (A) (A) (A) (A) (A) (A) (A) (A) (A)
                 (A) (A) (A) (A) (A) (A) (A) (A) (A) (A) (A) (A)
                 (A) (A) (A) (A) (A) (A) (A) (A) (A) (A) (A) (A)
                 (A) (A) (A) (A) (A) (A) (A) (A) (A) (A) (A) (A)
                 (A) (A) (A) (A) (A) (A) (A) (A) (A) (A) (A) (A)
                 (A) (A) (A) (A) (A) (A) (A) (A) (A) (A) (A) (A)
                 (A) (A) (A) (A) (A) (A) (A) (A) (A) (A) (A) (A)
                 (A) (A) (A) (A) (A) (A) (A) (A) (A) (A) (A) (A)
                 (A) (A) (A)
 The electronic state of the initial guess is 1-A.
 Requested convergence on RMS density matrix=1.00D-08 within 128 cycles.
 Requested convergence on MAX density matrix=1.00D-06.
 Requested convergence on             energy=1.00D-06.
 No special actions if energy rises.
 Integral accuracy reduced to 1.0D-05 until final iterations.
 Initial convergence to 1.0D-05 achieved.  Increase integral accuracy.
 SCF Done:  E(RHF) =  -984.481452495     A.U. after   15 cycles
             Convg  =    0.4907D-08             -V/T =  2.0016
 Range of M.O.s used for correlation:     1   344
 NBasis=   344 NAE=    77 NBE=    77 NFC=     0 NFV=     0
 NROrb=    344 NOA=    77 NOB=    77 NVA=   267 NVB=   267
 Symmetrizing basis deriv contribution to polar:
 IMax=3 JMax=2 DiffMx= 0.00D+00
 G2DrvN: will do    43 centers at a time, making    1 passes doing MaxLOS=2.
 Calling FoFCou, ICntrl=  3107 FMM=F I1Cent=   0 AccDes= 0.00D+00.
 FoFDir/FoFCou used for L=0 through L=2.
 End of G2Drv Frequency-dependent properties file   721 does not exist.
 End of G2Drv Frequency-dependent properties file   722 does not exist.
          IDoAtm=111111111111111111111111111111111111111111
          Differentiating once with respect to nuclear coordinates.
          There are   129 degrees of freedom in the 1st order CPHF.  IDoFFX=5.
    123 vectors produced by pass  0 Test12= 2.06D-10 1.00D-07 XBig12= 9.61D-02 6.04D-02.
 AX will form   123 AO Fock derivatives at one time.
    123 vectors produced by pass  1 Test12= 2.06D-10 1.00D-07 XBig12= 1.15D-02 4.38D-02.
    123 vectors produced by pass  2 Test12= 2.06D-10 1.00D-07 XBig12= 1.36D-04 1.95D-03.
    123 vectors produced by pass  3 Test12= 2.06D-10 1.00D-07 XBig12= 1.62D-06 2.12D-04.
    123 vectors produced by pass  4 Test12= 2.06D-10 1.00D-07 XBig12= 9.80D-09 1.14D-05.
     37 vectors produced by pass  5 Test12= 2.06D-10 1.00D-07 XBig12= 5.10D-11 7.15D-07.
 Inverted reduced A of dimension   652 with in-core refinement.
 End of Minotr Frequency-dependent properties file   721 does not exist.
 End of Minotr Frequency-dependent properties file   722 does not exist.

 **********************************************************************

            Population analysis using the SCF density.

 **********************************************************************

 Orbital symmetries:
       Occupied  (A) (A) (A) (A) (A) (A) (A) (A) (A) (A) (A) (A)
                 (A) (A) (A) (A) (A) (A) (A) (A) (A) (A) (A) (A)
                 (A) (A) (A) (A) (A) (A) (A) (A) (A) (A) (A) (A)
                 (A) (A) (A) (A) (A) (A) (A) (A) (A) (A) (A) (A)
                 (A) (A) (A) (A) (A) (A) (A) (A) (A) (A) (A) (A)
                 (A) (A) (A) (A) (A) (A) (A) (A) (A) (A) (A) (A)
                 (A) (A) (A) (A) (A)
       Virtual   (A) (A) (A) (A) (A) (A) (A) (A) (A) (A) (A) (A)
                 (A) (A) (A) (A) (A) (A) (A) (A) (A) (A) (A) (A)
                 (A) (A) (A) (A) (A) (A) (A) (A) (A) (A) (A) (A)
                 (A) (A) (A) (A) (A) (A) (A) (A) (A) (A) (A) (A)
                 (A) (A) (A) (A) (A) (A) (A) (A) (A) (A) (A) (A)
                 (A) (A) (A) (A) (A) (A) (A) (A) (A) (A) (A) (A)
                 (A) (A) (A) (A) (A) (A) (A) (A) (A) (A) (A) (A)
                 (A) (A) (A) (A) (A) (A) (A) (A) (A) (A) (A) (A)
                 (A) (A) (A) (A) (A) (A) (A) (A) (A) (A) (A) (A)
                 (A) (A) (A) (A) (A) (A) (A) (A) (A) (A) (A) (A)
                 (A) (A) (A) (A) (A) (A) (A) (A) (A) (A) (A) (A)
                 (A) (A) (A) (A) (A) (A) (A) (A) (A) (A) (A) (A)
                 (A) (A) (A) (A) (A) (A) (A) (A) (A) (A) (A) (A)
                 (A) (A) (A) (A) (A) (A) (A) (A) (A) (A) (A) (A)
                 (A) (A) (A) (A) (A) (A) (A) (A) (A) (A) (A) (A)
                 (A) (A) (A) (A) (A) (A) (A) (A) (A) (A) (A) (A)
                 (A) (A) (A) (A) (A) (A) (A) (A) (A) (A) (A) (A)
                 (A) (A) (A) (A) (A) (A) (A) (A) (A) (A) (A) (A)
                 (A) (A) (A) (A) (A) (A) (A) (A) (A) (A) (A) (A)
                 (A) (A) (A) (A) (A) (A) (A) (A) (A) (A) (A) (A)
                 (A) (A) (A) (A) (A) (A) (A) (A) (A) (A) (A) (A)
                 (A) (A) (A) (A) (A) (A) (A) (A) (A) (A) (A) (A)
                 (A) (A) (A)
 The electronic state is 1-A.
 Alpha  occ. eigenvalues --  -20.53345 -20.52222 -20.51461 -20.51340 -15.61675
 Alpha  occ. eigenvalues --  -15.59546 -15.58885 -15.55871 -11.36904 -11.35036
 Alpha  occ. eigenvalues --  -11.34795 -11.34234 -11.29184 -11.28963 -11.27231
 Alpha  occ. eigenvalues --  -11.26348 -11.23385 -11.22487 -11.22252 -11.20438
 Alpha  occ. eigenvalues --   -1.41373  -1.38072  -1.37204  -1.36528  -1.26651
 Alpha  occ. eigenvalues --   -1.23897  -1.23856  -1.22000  -1.08048  -1.04645
 Alpha  occ. eigenvalues --   -1.02933  -0.98519  -0.95505  -0.91245  -0.89401
 Alpha  occ. eigenvalues --   -0.86235  -0.83427  -0.79564  -0.78416  -0.76641
 Alpha  occ. eigenvalues --   -0.74664  -0.72692  -0.69016  -0.68165  -0.67423
 Alpha  occ. eigenvalues --   -0.66188  -0.65071  -0.63895  -0.63457  -0.62091
 Alpha  occ. eigenvalues --   -0.61321  -0.60161  -0.59250  -0.58508  -0.58344
 Alpha  occ. eigenvalues --   -0.57424  -0.55959  -0.55736  -0.55509  -0.55399
 Alpha  occ. eigenvalues --   -0.54783  -0.53577  -0.53132  -0.52695  -0.52168
 Alpha  occ. eigenvalues --   -0.51333  -0.50793  -0.49390  -0.48983  -0.43710
 Alpha  occ. eigenvalues --   -0.41701  -0.41524  -0.40972  -0.40804  -0.39218
 Alpha  occ. eigenvalues --   -0.38742  -0.33668
 Alpha virt. eigenvalues --    0.17238   0.18226   0.19868   0.20750   0.21329
 Alpha virt. eigenvalues --    0.22561   0.23103   0.25483   0.26449   0.26823
 Alpha virt. eigenvalues --    0.27627   0.28605   0.29318   0.29947   0.30292
 Alpha virt. eigenvalues --    0.31110   0.31357   0.31739   0.32305   0.32663
 Alpha virt. eigenvalues --    0.33217   0.33979   0.34462   0.35239   0.35478
 Alpha virt. eigenvalues --    0.36494   0.37452   0.37958   0.39445   0.40268
 Alpha virt. eigenvalues --    0.40493   0.41731   0.42279   0.44960   0.45672
 Alpha virt. eigenvalues --    0.48158   0.49558   0.52918   0.53229   0.54312
 Alpha virt. eigenvalues --    0.55528   0.60646   0.61480   0.62115   0.64917
 Alpha virt. eigenvalues --    0.71151   0.72088   0.73049   0.74014   0.74331
 Alpha virt. eigenvalues --    0.75247   0.76002   0.76324   0.77287   0.77409
 Alpha virt. eigenvalues --    0.77917   0.78916   0.79006   0.80643   0.82091
 Alpha virt. eigenvalues --    0.82372   0.83233   0.84304   0.87742   0.88760
 Alpha virt. eigenvalues --    0.89555   0.90600   0.91693   0.92145   0.93166
 Alpha virt. eigenvalues --    0.94423   0.95053   0.96082   0.97854   0.97948
 Alpha virt. eigenvalues --    0.98964   0.99647   1.00652   1.00816   1.01574
 Alpha virt. eigenvalues --    1.02646   1.03312   1.06084   1.07399   1.08860
 Alpha virt. eigenvalues --    1.09698   1.10090   1.10800   1.11353   1.12062
 Alpha virt. eigenvalues --    1.13227   1.13803   1.14775   1.15185   1.15264
 Alpha virt. eigenvalues --    1.15816   1.16205   1.16833   1.17459   1.17955
 Alpha virt. eigenvalues --    1.18563   1.18835   1.19486   1.20066   1.21001
 Alpha virt. eigenvalues --    1.21422   1.22000   1.23159   1.24127   1.25057
 Alpha virt. eigenvalues --    1.25892   1.26499   1.27760   1.27949   1.28981
 Alpha virt. eigenvalues --    1.33086   1.34358   1.34875   1.36076   1.37331
 Alpha virt. eigenvalues --    1.38688   1.39289   1.41287   1.43245   1.43798
 Alpha virt. eigenvalues --    1.47816   1.51382   1.52567   1.53046   1.54331
 Alpha virt. eigenvalues --    1.56936   1.57482   1.59206   1.62037   1.63203
 Alpha virt. eigenvalues --    1.63629   1.64492   1.64537   1.67100   1.69029
 Alpha virt. eigenvalues --    1.71385   1.71904   1.73758   1.75203   1.75918
 Alpha virt. eigenvalues --    1.78677   1.81151   1.81666   1.87699   1.88409
 Alpha virt. eigenvalues --    1.90387   1.92712   1.95676   1.97644   2.00287
 Alpha virt. eigenvalues --    2.01186   2.03048   2.04369   2.05127   2.07603
 Alpha virt. eigenvalues --    2.08769   2.09532   2.11131   2.11737   2.13197
 Alpha virt. eigenvalues --    2.13275   2.14308   2.15126   2.15367   2.15740
 Alpha virt. eigenvalues --    2.16985   2.17796   2.19542   2.20442   2.21795
 Alpha virt. eigenvalues --    2.22686   2.24228   2.24665   2.27126   2.28161
 Alpha virt. eigenvalues --    2.30156   2.31125   2.31599   2.31980   2.34491
 Alpha virt. eigenvalues --    2.36492   2.36751   2.36965   2.39228   2.43032
 Alpha virt. eigenvalues --    2.44481   2.45514   2.47680   2.48684   2.49521
 Alpha virt. eigenvalues --    2.51660   2.52576   2.55761   2.56792   2.59571
 Alpha virt. eigenvalues --    2.60168   2.61283   2.62404   2.62677   2.63518
 Alpha virt. eigenvalues --    2.64254   2.65561   2.66826   2.67453   2.68725
 Alpha virt. eigenvalues --    2.70910   2.71919   2.73097   2.75343   2.77020
 Alpha virt. eigenvalues --    2.77665   2.79884   2.81842   2.83273   2.87806
 Alpha virt. eigenvalues --    2.89666   2.91658   2.94127   2.94872   2.97251
 Alpha virt. eigenvalues --    2.98400   3.00348   3.01357   3.03108   3.07207
 Alpha virt. eigenvalues --    3.07541   3.08728   3.14090   3.18582   3.21240
 Alpha virt. eigenvalues --    3.25100   3.27505   3.32356   3.33552   3.36473
 Alpha virt. eigenvalues --    3.38380   3.40452   3.43776   3.54387   3.57328
 Alpha virt. eigenvalues --    3.62633   3.63686   4.40894   4.41832   4.44148
 Alpha virt. eigenvalues --    4.48486   4.51238   4.56061   4.60398   4.63067
 Alpha virt. eigenvalues --    4.65705   4.69772   4.70990   4.72107   4.77199
 Alpha virt. eigenvalues --    4.86525   4.88429   4.92511   4.97286   5.02262
 Alpha virt. eigenvalues --    5.09163   5.14921
          Condensed to atoms (all electrons):
              1          2          3          4          5          6
     1  H    0.457874   0.385717  -0.018630  -0.018789  -0.030742   0.003519
     2  C    0.385717   5.245707   0.374840   0.374641   0.377961  -0.067195
     3  H   -0.018630   0.374840   0.508608  -0.023673  -0.034471   0.001250
     4  H   -0.018789   0.374641  -0.023673   0.513178  -0.035485   0.001186
     5  C   -0.030742   0.377961  -0.034471  -0.035485   4.185263   0.587140
     6  O    0.003519  -0.067195   0.001250   0.001186   0.587140   8.210756
     7  N    0.003845  -0.119758   0.003479   0.003700   0.246993  -0.107515
     8  H   -0.000016  -0.001183   0.000651   0.000494  -0.017586   0.002018
     9  C   -0.000077   0.004579  -0.000241  -0.000092  -0.029849   0.014466
    10  H    0.000001  -0.000013  -0.000003  -0.000002  -0.001664   0.002864
    11  C    0.000006  -0.000503   0.000008   0.000030  -0.003934  -0.015822
    12  H    0.000000  -0.000042   0.000000   0.000002   0.000030  -0.000028
    13  H    0.000000   0.000007   0.000000  -0.000001   0.000287   0.000273
    14  H    0.000001   0.000302  -0.000005  -0.000026   0.000386   0.011297
    15  C    0.000000   0.000010  -0.000011  -0.000006   0.004042   0.000566
    16  O    0.000000  -0.000039  -0.000001  -0.000001   0.000274  -0.000003
    17  N    0.000000   0.000000   0.000000   0.000000  -0.000082  -0.000002
    18  H    0.000000   0.000000   0.000000   0.000000   0.000001   0.000001
    19  C    0.000000   0.000000   0.000000   0.000000   0.000001   0.000000
    20  H    0.000000   0.000000   0.000000   0.000000   0.000000   0.000000
    21  C    0.000000   0.000000   0.000000   0.000000   0.000000   0.000000
    22  H    0.000000   0.000000   0.000000   0.000000   0.000000   0.000000
    23  H    0.000000   0.000000   0.000000   0.000000   0.000000   0.000000
    24  H    0.000000   0.000000   0.000000   0.000000   0.000000   0.000000
    25  C    0.000000   0.000000   0.000000   0.000000   0.000000   0.000000
    26  O    0.000000   0.000000   0.000000   0.000000   0.000000   0.000000
    27  N    0.000000   0.000000   0.000000   0.000000   0.000001   0.000000
    28  H    0.000000   0.000000   0.000000   0.000000   0.000000   0.000000
    29  C    0.000000   0.000000   0.000000   0.000000   0.000000   0.000000
    30  H    0.000000   0.000000   0.000000   0.000000   0.000000   0.000000
    31  C    0.000000   0.000000   0.000000   0.000000   0.000000   0.000000
    32  H    0.000000  -0.000001   0.000000   0.000000   0.000001   0.000000
    33  H    0.000000   0.000000   0.000000   0.000000   0.000000   0.000000
    34  H    0.000000   0.000000   0.000000   0.000000   0.000000   0.000000
    35  C    0.000000   0.000000   0.000000   0.000000   0.000000   0.000000
    36  O    0.000000   0.000000   0.000000   0.000000   0.000000   0.000000
    37  N    0.000000   0.000000   0.000000   0.000000   0.000000   0.000000
    38  H    0.000000   0.000000   0.000000   0.000000   0.000000   0.000000
    39  C    0.000000   0.000000   0.000000   0.000000   0.000000   0.000000
    40  H    0.000000   0.000000   0.000000   0.000000   0.000000   0.000000
    41  H    0.000000   0.000000   0.000000   0.000000   0.000000   0.000000
    42  H    0.000000   0.000000   0.000000   0.000000   0.000000   0.000000
              7          8          9         10         11         12
     1  H    0.003845  -0.000016  -0.000077   0.000001   0.000006   0.000000
     2  C   -0.119758  -0.001183   0.004579  -0.000013  -0.000503  -0.000042
     3  H    0.003479   0.000651  -0.000241  -0.000003   0.000008   0.000000
     4  H    0.003700   0.000494  -0.000092  -0.000002   0.000030   0.000002
     5  C    0.246993  -0.017586  -0.029849  -0.001664  -0.003934   0.000030
     6  O   -0.107515   0.002018   0.014466   0.002864  -0.015822  -0.000028
     7  N    7.414766   0.311684   0.200328  -0.041051  -0.063329   0.001660
     8  H    0.311684   0.288833  -0.026844   0.002494   0.002955   0.000259
     9  C    0.200328  -0.026844   5.005542   0.405021   0.337753  -0.042048
    10  H   -0.041051   0.002494   0.405021   0.501535  -0.046153   0.004511
    11  C   -0.063329   0.002955   0.337753  -0.046153   5.211228   0.385309
    12  H    0.001660   0.000259  -0.042048   0.004511   0.385309   0.520268
    13  H    0.004928  -0.000078  -0.042261   0.000291   0.377374  -0.024035
    14  H   -0.005594  -0.000197  -0.026626  -0.003972   0.387653  -0.019926
    15  C   -0.037646  -0.005305   0.382007  -0.040809  -0.066417  -0.002815
    16  O   -0.006428   0.018891  -0.067563   0.000843  -0.000400   0.000606
    17  N    0.002713   0.000689  -0.114355   0.002953   0.002436   0.000185
    18  H    0.000023  -0.000016   0.000953   0.000480   0.000263  -0.000024
    19  C   -0.000042  -0.000007   0.002861  -0.000163   0.000126  -0.000041
    20  H    0.000000   0.000000  -0.000104   0.000008  -0.000006   0.000001
    21  C    0.000001   0.000000  -0.000124   0.000002   0.000023   0.000009
    22  H    0.000000   0.000000  -0.000049   0.000000   0.000025   0.000019
    23  H    0.000000   0.000000   0.000002   0.000000   0.000000   0.000000
    24  H    0.000000   0.000000  -0.000003   0.000000  -0.000006   0.000000
    25  C   -0.000004  -0.000012   0.000280  -0.000011  -0.000058  -0.000001
    26  O    0.000000   0.000000  -0.000020   0.000000   0.000001   0.000000
    27  N   -0.000035   0.000178  -0.000693   0.000097  -0.000002   0.000004
    28  H    0.000004   0.000018  -0.000214  -0.000001   0.000006   0.000000
    29  C    0.000004  -0.000020   0.000023  -0.000001   0.000000   0.000000
    30  H    0.000000   0.000000   0.000000   0.000000   0.000000   0.000000
    31  C   -0.000018  -0.000046   0.000043  -0.000001  -0.000001   0.000000
    32  H   -0.000018   0.000631  -0.000123   0.000002   0.000001   0.000001
    33  H    0.000000   0.000000   0.000000   0.000000   0.000000   0.000000
    34  H    0.000000  -0.000003   0.000001   0.000000   0.000000   0.000000
    35  C    0.000000   0.000011  -0.000007   0.000000   0.000000   0.000000
    36  O   -0.000001   0.000008   0.000000   0.000000   0.000000   0.000000
    37  N    0.000000   0.000000   0.000000   0.000000   0.000000   0.000000
    38  H    0.000000   0.000000   0.000000   0.000000   0.000000   0.000000
    39  C    0.000000   0.000000   0.000000   0.000000   0.000000   0.000000
    40  H    0.000000   0.000000   0.000000   0.000000   0.000000   0.000000
    41  H    0.000000   0.000000   0.000000   0.000000   0.000000   0.000000
    42  H    0.000000   0.000000   0.000000   0.000000   0.000000   0.000000
             13         14         15         16         17         18
     1  H    0.000000   0.000001   0.000000   0.000000   0.000000   0.000000
     2  C    0.000007   0.000302   0.000010  -0.000039   0.000000   0.000000
     3  H    0.000000  -0.000005  -0.000011  -0.000001   0.000000   0.000000
     4  H   -0.000001  -0.000026  -0.000006  -0.000001   0.000000   0.000000
     5  C    0.000287   0.000386   0.004042   0.000274  -0.000082   0.000001
     6  O    0.000273   0.011297   0.000566  -0.000003  -0.000002   0.000001
     7  N    0.004928  -0.005594  -0.037646  -0.006428   0.002713   0.000023
     8  H   -0.000078  -0.000197  -0.005305   0.018891   0.000689  -0.000016
     9  C   -0.042261  -0.026626   0.382007  -0.067563  -0.114355   0.000953
    10  H    0.000291  -0.003972  -0.040809   0.000843   0.002953   0.000480
    11  C    0.377374   0.387653  -0.066417  -0.000400   0.002436   0.000263
    12  H   -0.024035  -0.019926  -0.002815   0.000606   0.000185  -0.000024
    13  H    0.569601  -0.019960  -0.007495   0.000018   0.000567   0.002977
    14  H   -0.019960   0.422174   0.004305  -0.000051   0.000033  -0.000084
    15  C   -0.007495   0.004305   4.197237   0.544792   0.274903  -0.019161
    16  O    0.000018  -0.000051   0.544792   8.463036  -0.099550   0.002240
    17  N    0.000567   0.000033   0.274903  -0.099550   7.421167   0.319935
    18  H    0.002977  -0.000084  -0.019161   0.002240   0.319935   0.304154
    19  C    0.000194  -0.000002  -0.029418  -0.002310   0.157873  -0.018592
    20  H    0.000003   0.000000   0.001491   0.000490  -0.046291  -0.002095
    21  C    0.000024  -0.000001   0.000828  -0.000076  -0.071751  -0.000261
    22  H    0.000024   0.000000   0.000686   0.000033   0.000223  -0.000128
    23  H    0.000000   0.000000  -0.000017   0.000005   0.004493  -0.000079
    24  H    0.000003   0.000000  -0.000095  -0.000009  -0.002052   0.001790
    25  C   -0.000014   0.000000  -0.003771   0.001714  -0.033157   0.002537
    26  O    0.000000   0.000000  -0.000026  -0.002129   0.001052  -0.000065
    27  N    0.000000   0.000000   0.008978  -0.204920   0.006839  -0.000259
    28  H    0.000000   0.000000   0.001796  -0.002639   0.001770  -0.000065
    29  C    0.000000   0.000000  -0.000010   0.004266  -0.000155   0.000007
    30  H    0.000000   0.000000   0.000026  -0.000320  -0.000003   0.000000
    31  C    0.000000   0.000000  -0.000337  -0.004413  -0.000033   0.000000
    32  H    0.000000   0.000000   0.000295  -0.002114   0.000083   0.000000
    33  H    0.000000   0.000000   0.000004   0.000265   0.000000   0.000000
    34  H    0.000000   0.000000  -0.000043   0.000243  -0.000019   0.000000
    35  C    0.000000   0.000000   0.000099   0.000264  -0.000001   0.000000
    36  O    0.000000   0.000000  -0.000007  -0.000130   0.000009   0.000000
    37  N    0.000000   0.000000  -0.000001   0.000010   0.000000   0.000000
    38  H    0.000000   0.000000   0.000000  -0.000001   0.000000   0.000000
    39  C    0.000000   0.000000   0.000000   0.000000   0.000000   0.000000
    40  H    0.000000   0.000000   0.000000   0.000000   0.000000   0.000000
    41  H    0.000000   0.000000   0.000000   0.000000   0.000000   0.000000
    42  H    0.000000   0.000000   0.000000   0.000000   0.000000   0.000000
             19         20         21         22         23         24
     1  H    0.000000   0.000000   0.000000   0.000000   0.000000   0.000000
     2  C    0.000000   0.000000   0.000000   0.000000   0.000000   0.000000
     3  H    0.000000   0.000000   0.000000   0.000000   0.000000   0.000000
     4  H    0.000000   0.000000   0.000000   0.000000   0.000000   0.000000
     5  C    0.000001   0.000000   0.000000   0.000000   0.000000   0.000000
     6  O    0.000000   0.000000   0.000000   0.000000   0.000000   0.000000
     7  N   -0.000042   0.000000   0.000001   0.000000   0.000000   0.000000
     8  H   -0.000007   0.000000   0.000000   0.000000   0.000000   0.000000
     9  C    0.002861  -0.000104  -0.000124  -0.000049   0.000002  -0.000003
    10  H   -0.000163   0.000008   0.000002   0.000000   0.000000   0.000000
    11  C    0.000126  -0.000006   0.000023   0.000025   0.000000  -0.000006
    12  H   -0.000041   0.000001   0.000009   0.000019   0.000000   0.000000
    13  H    0.000194   0.000003   0.000024   0.000024   0.000000   0.000003
    14  H   -0.000002   0.000000  -0.000001   0.000000   0.000000   0.000000
    15  C   -0.029418   0.001491   0.000828   0.000686  -0.000017  -0.000095
    16  O   -0.002310   0.000490  -0.000076   0.000033   0.000005  -0.000009
    17  N    0.157873  -0.046291  -0.071751   0.000223   0.004493  -0.002052
    18  H   -0.018592  -0.002095  -0.000261  -0.000128  -0.000079   0.001790
    19  C    5.063558   0.408518   0.364042  -0.033449  -0.033486  -0.041932
    20  H    0.408518   0.512107  -0.045660   0.004159   0.000202  -0.003120
    21  C    0.364042  -0.045660   5.103137   0.390677   0.390917   0.381057
    22  H   -0.033449   0.004159   0.390677   0.490761  -0.016624  -0.027639
    23  H   -0.033486   0.000202   0.390917  -0.016624   0.487396  -0.025400
    24  H   -0.041932  -0.003120   0.381057  -0.027639  -0.025400   0.566962
    25  C    0.378640  -0.034556  -0.057215  -0.005606  -0.003506   0.006223
    26  O   -0.076244   0.001139  -0.003047   0.002566   0.001461   0.000749
    27  N   -0.125278   0.000899   0.004941   0.000028   0.000055  -0.000052
    28  H   -0.001083   0.000319   0.000094  -0.000003  -0.000012  -0.000008
    29  C    0.004587  -0.000231  -0.000103  -0.000009  -0.000005   0.000001
    30  H   -0.000074  -0.000007  -0.000001   0.000000   0.000001   0.000000
    31  C   -0.000541   0.000007   0.000011   0.000000   0.000001   0.000000
    32  H   -0.000038  -0.000001   0.000001   0.000000   0.000000   0.000000
    33  H    0.000009   0.000000   0.000000   0.000000   0.000000   0.000000
    34  H    0.000315  -0.000004  -0.000007  -0.000002   0.000000   0.000000
    35  C   -0.000004  -0.000009  -0.000001   0.000000   0.000000   0.000000
    36  O   -0.000073  -0.000001   0.000000   0.000000   0.000000   0.000000
    37  N    0.000000   0.000000   0.000000   0.000000   0.000000   0.000000
    38  H    0.000000   0.000000   0.000000   0.000000   0.000000   0.000000
    39  C    0.000000   0.000000   0.000000   0.000000   0.000000   0.000000
    40  H    0.000000   0.000000   0.000000   0.000000   0.000000   0.000000
    41  H    0.000000   0.000000   0.000000   0.000000   0.000000   0.000000
    42  H    0.000000   0.000000   0.000000   0.000000   0.000000   0.000000
             25         26         27         28         29         30
     1  H    0.000000   0.000000   0.000000   0.000000   0.000000   0.000000
     2  C    0.000000   0.000000   0.000000   0.000000   0.000000   0.000000
     3  H    0.000000   0.000000   0.000000   0.000000   0.000000   0.000000
     4  H    0.000000   0.000000   0.000000   0.000000   0.000000   0.000000
     5  C    0.000000   0.000000   0.000001   0.000000   0.000000   0.000000
     6  O    0.000000   0.000000   0.000000   0.000000   0.000000   0.000000
     7  N   -0.000004   0.000000  -0.000035   0.000004   0.000004   0.000000
     8  H   -0.000012   0.000000   0.000178   0.000018  -0.000020   0.000000
     9  C    0.000280  -0.000020  -0.000693  -0.000214   0.000023   0.000000
    10  H   -0.000011   0.000000   0.000097  -0.000001  -0.000001   0.000000
    11  C   -0.000058   0.000001  -0.000002   0.000006   0.000000   0.000000
    12  H   -0.000001   0.000000   0.000004   0.000000   0.000000   0.000000
    13  H   -0.000014   0.000000   0.000000   0.000000   0.000000   0.000000
    14  H    0.000000   0.000000   0.000000   0.000000   0.000000   0.000000
    15  C   -0.003771  -0.000026   0.008978   0.001796  -0.000010   0.000026
    16  O    0.001714  -0.002129  -0.204920  -0.002639   0.004266  -0.000320
    17  N   -0.033157   0.001052   0.006839   0.001770  -0.000155  -0.000003
    18  H    0.002537  -0.000065  -0.000259  -0.000065   0.000007   0.000000
    19  C    0.378640  -0.076244  -0.125278  -0.001083   0.004587  -0.000074
    20  H   -0.034556   0.001139   0.000899   0.000319  -0.000231  -0.000007
    21  C   -0.057215  -0.003047   0.004941   0.000094  -0.000103  -0.000001
    22  H   -0.005606   0.002566   0.000028  -0.000003  -0.000009   0.000000
    23  H   -0.003506   0.001461   0.000055  -0.000012  -0.000005   0.000001
    24  H    0.006223   0.000749  -0.000052  -0.000008   0.000001   0.000000
    25  C    4.153254   0.574499   0.285064  -0.021240  -0.030526  -0.004645
    26  O    0.574499   8.243283  -0.097861   0.002076   0.012003   0.003172
    27  N    0.285064  -0.097861   7.530567   0.315849   0.208415  -0.039886
    28  H   -0.021240   0.002076   0.315849   0.294577  -0.027121   0.002060
    29  C   -0.030526   0.012003   0.208415  -0.027121   4.999086   0.407394
    30  H   -0.004645   0.003172  -0.039886   0.002060   0.407394   0.512815
    31  C   -0.001485  -0.014850  -0.070973   0.003519   0.335328  -0.049686
    32  H   -0.000527   0.000105   0.002137   0.000192  -0.037736   0.004270
    33  H    0.000253   0.000249   0.004865  -0.000096  -0.041962  -0.000455
    34  H    0.000401   0.009159  -0.005515  -0.000177  -0.027462  -0.003843
    35  C    0.003367   0.000409  -0.037301  -0.006009   0.381759  -0.035821
    36  O    0.000556  -0.000002  -0.006179   0.021759  -0.079005   0.001078
    37  N   -0.000080  -0.000001   0.002775   0.000726  -0.115585   0.002123
    38  H    0.000000   0.000001   0.000018  -0.000023   0.001091   0.000631
    39  C    0.000001   0.000000  -0.000051  -0.000010   0.003722  -0.000230
    40  H    0.000000   0.000000  -0.000004  -0.000011   0.000594  -0.000018
    41  H    0.000000   0.000000   0.000000   0.000000  -0.000105   0.000012
    42  H    0.000000   0.000000   0.000001   0.000000  -0.000003  -0.000002
             31         32         33         34         35         36
     1  H    0.000000   0.000000   0.000000   0.000000   0.000000   0.000000
     2  C    0.000000  -0.000001   0.000000   0.000000   0.000000   0.000000
     3  H    0.000000   0.000000   0.000000   0.000000   0.000000   0.000000
     4  H    0.000000   0.000000   0.000000   0.000000   0.000000   0.000000
     5  C    0.000000   0.000001   0.000000   0.000000   0.000000   0.000000
     6  O    0.000000   0.000000   0.000000   0.000000   0.000000   0.000000
     7  N   -0.000018  -0.000018   0.000000   0.000000   0.000000  -0.000001
     8  H   -0.000046   0.000631   0.000000  -0.000003   0.000011   0.000008
     9  C    0.000043  -0.000123   0.000000   0.000001  -0.000007   0.000000
    10  H   -0.000001   0.000002   0.000000   0.000000   0.000000   0.000000
    11  C   -0.000001   0.000001   0.000000   0.000000   0.000000   0.000000
    12  H    0.000000   0.000001   0.000000   0.000000   0.000000   0.000000
    13  H    0.000000   0.000000   0.000000   0.000000   0.000000   0.000000
    14  H    0.000000   0.000000   0.000000   0.000000   0.000000   0.000000
    15  C   -0.000337   0.000295   0.000004  -0.000043   0.000099  -0.000007
    16  O   -0.004413  -0.002114   0.000265   0.000243   0.000264  -0.000130
    17  N   -0.000033   0.000083   0.000000  -0.000019  -0.000001   0.000009
    18  H    0.000000   0.000000   0.000000   0.000000   0.000000   0.000000
    19  C   -0.000541  -0.000038   0.000009   0.000315  -0.000004  -0.000073
    20  H    0.000007  -0.000001   0.000000  -0.000004  -0.000009  -0.000001
    21  C    0.000011   0.000001   0.000000  -0.000007  -0.000001   0.000000
    22  H    0.000000   0.000000   0.000000  -0.000002   0.000000   0.000000
    23  H    0.000001   0.000000   0.000000   0.000000   0.000000   0.000000
    24  H    0.000000   0.000000   0.000000   0.000000   0.000000   0.000000
    25  C   -0.001485  -0.000527   0.000253   0.000401   0.003367   0.000556
    26  O   -0.014850   0.000105   0.000249   0.009159   0.000409  -0.000002
    27  N   -0.070973   0.002137   0.004865  -0.005515  -0.037301  -0.006179
    28  H    0.003519   0.000192  -0.000096  -0.000177  -0.006009   0.021759
    29  C    0.335328  -0.037736  -0.041962  -0.027462   0.381759  -0.079005
    30  H   -0.049686   0.004270  -0.000455  -0.003843  -0.035821   0.001078
    31  C    5.216232   0.387355   0.374702   0.390588  -0.063311   0.000053
    32  H    0.387355   0.501665  -0.027130  -0.018355  -0.001913   0.000542
    33  H    0.374702  -0.027130   0.592531  -0.022090  -0.007555   0.000019
    34  H    0.390588  -0.018355  -0.022090   0.436090   0.003840  -0.000064
    35  C   -0.063311  -0.001913  -0.007555   0.003840   4.141412   0.593441
    36  O    0.000053   0.000542   0.000019  -0.000064   0.593441   8.221000
    37  N    0.001991   0.000175   0.000190   0.000086   0.286122  -0.099018
    38  H   -0.000006   0.000036   0.002699  -0.000095  -0.020208   0.002387
    39  C   -0.000083  -0.000044   0.000193   0.000003  -0.025509  -0.004927
    40  H   -0.000051  -0.000001  -0.000009   0.000000  -0.001824   0.010502
    41  H   -0.000005   0.000001   0.000001   0.000000   0.000756   0.000367
    42  H    0.000016   0.000002   0.000001  -0.000001   0.000926   0.000373
             37         38         39         40         41         42
     1  H    0.000000   0.000000   0.000000   0.000000   0.000000   0.000000
     2  C    0.000000   0.000000   0.000000   0.000000   0.000000   0.000000
     3  H    0.000000   0.000000   0.000000   0.000000   0.000000   0.000000
     4  H    0.000000   0.000000   0.000000   0.000000   0.000000   0.000000
     5  C    0.000000   0.000000   0.000000   0.000000   0.000000   0.000000
     6  O    0.000000   0.000000   0.000000   0.000000   0.000000   0.000000
     7  N    0.000000   0.000000   0.000000   0.000000   0.000000   0.000000
     8  H    0.000000   0.000000   0.000000   0.000000   0.000000   0.000000
     9  C    0.000000   0.000000   0.000000   0.000000   0.000000   0.000000
    10  H    0.000000   0.000000   0.000000   0.000000   0.000000   0.000000
    11  C    0.000000   0.000000   0.000000   0.000000   0.000000   0.000000
    12  H    0.000000   0.000000   0.000000   0.000000   0.000000   0.000000
    13  H    0.000000   0.000000   0.000000   0.000000   0.000000   0.000000
    14  H    0.000000   0.000000   0.000000   0.000000   0.000000   0.000000
    15  C   -0.000001   0.000000   0.000000   0.000000   0.000000   0.000000
    16  O    0.000010  -0.000001   0.000000   0.000000   0.000000   0.000000
    17  N    0.000000   0.000000   0.000000   0.000000   0.000000   0.000000
    18  H    0.000000   0.000000   0.000000   0.000000   0.000000   0.000000
    19  C    0.000000   0.000000   0.000000   0.000000   0.000000   0.000000
    20  H    0.000000   0.000000   0.000000   0.000000   0.000000   0.000000
    21  C    0.000000   0.000000   0.000000   0.000000   0.000000   0.000000
    22  H    0.000000   0.000000   0.000000   0.000000   0.000000   0.000000
    23  H    0.000000   0.000000   0.000000   0.000000   0.000000   0.000000
    24  H    0.000000   0.000000   0.000000   0.000000   0.000000   0.000000
    25  C   -0.000080   0.000000   0.000001   0.000000   0.000000   0.000000
    26  O   -0.000001   0.000001   0.000000   0.000000   0.000000   0.000000
    27  N    0.002775   0.000018  -0.000051  -0.000004   0.000000   0.000001
    28  H    0.000726  -0.000023  -0.000010  -0.000011   0.000000   0.000000
    29  C   -0.115585   0.001091   0.003722   0.000594  -0.000105  -0.000003
    30  H    0.002123   0.000631  -0.000230  -0.000018   0.000012  -0.000002
    31  C    0.001991  -0.000006  -0.000083  -0.000051  -0.000005   0.000016
    32  H    0.000175   0.000036  -0.000044  -0.000001   0.000001   0.000002
    33  H    0.000190   0.002699   0.000193  -0.000009   0.000001   0.000001
    34  H    0.000086  -0.000095   0.000003   0.000000   0.000000  -0.000001
    35  C    0.286122  -0.020208  -0.025509  -0.001824   0.000756   0.000926
    36  O   -0.099018   0.002387  -0.004927   0.010502   0.000367   0.000373
    37  N    7.333819   0.322584   0.189003  -0.032058  -0.047472  -0.048596
[...]
    28  H    0.000000   0.000000   0.002416   0.004976   0.000437  -0.000070
    29  C    0.000000   0.000000   0.000084  -0.000708  -0.000098   0.000006
    30  H    0.000000   0.000000   0.000004  -0.000014  -0.000006   0.000000
    31  C    0.000000   0.000000  -0.000086   0.000816   0.000000  -0.000001
    32  H    0.000000   0.000000  -0.000017   0.001307   0.000009   0.000000
    33  H    0.000000   0.000000   0.000001   0.000036   0.000000   0.000000
    34  H    0.000000   0.000000   0.000022   0.000037  -0.000017   0.000000
    35  C    0.000000   0.000000  -0.000001  -0.000121   0.000006   0.000000
    36  O    0.000000   0.000000  -0.000064  -0.000008   0.000004   0.000000
    37  N    0.000000   0.000000   0.000000   0.000000   0.000000   0.000000
    38  H    0.000000   0.000000   0.000000   0.000000   0.000000   0.000000
    39  C    0.000000   0.000000   0.000000   0.000000   0.000000   0.000000
    40  H    0.000000   0.000000   0.000000   0.000000   0.000000   0.000000
    41  H    0.000000   0.000000   0.000000   0.000000   0.000000   0.000000
    42  H    0.000000   0.000000   0.000000   0.000000   0.000000   0.000000
             19         20         21         22         23         24
     1  H    0.000000   0.000000   0.000000   0.000000   0.000000   0.000000
     2  C    0.000000   0.000000   0.000000   0.000000   0.000000   0.000000
     3  H    0.000000   0.000000   0.000000   0.000000   0.000000   0.000000
     4  H    0.000000   0.000000   0.000000   0.000000   0.000000   0.000000
     5  C    0.000001   0.000000   0.000000   0.000000   0.000000   0.000000
     6  O    0.000000   0.000000   0.000000   0.000000   0.000000   0.000000
     7  N   -0.000069   0.000003   0.000000   0.000000   0.000000   0.000000
     8  H   -0.000009   0.000000   0.000000   0.000000   0.000000   0.000000
     9  C    0.002794  -0.000064  -0.000216  -0.000009   0.000002  -0.000013
    10  H    0.000013  -0.000007   0.000004  -0.000001   0.000000  -0.000004
    11  C   -0.000190  -0.000006   0.000049   0.000001   0.000000  -0.000002
    12  H    0.000011   0.000000   0.000001  -0.000001   0.000000   0.000000
    13  H   -0.000050   0.000003   0.000023   0.000027   0.000000   0.000022
    14  H    0.000001   0.000000  -0.000001   0.000000   0.000000   0.000000
    15  C   -0.016093   0.000306   0.000984   0.000255  -0.000020  -0.000050
    16  O    0.001732   0.000124  -0.000112   0.000001   0.000000  -0.000004
    17  N    0.151873  -0.048635  -0.072752   0.000511   0.004567  -0.003127
    18  H   -0.022768  -0.003038  -0.001021  -0.000058  -0.000102   0.002170
    19  C    5.066767   0.412793   0.355039  -0.032445  -0.032322  -0.039943
    20  H    0.412793   0.516212  -0.047822   0.004070   0.000059  -0.002915
    21  C    0.355039  -0.047822   5.102837   0.389775   0.390122   0.385721
    22  H   -0.032445   0.004070   0.389775   0.491507  -0.018496  -0.027332
    23  H   -0.032322   0.000059   0.390122  -0.018496   0.492107  -0.026836
    24  H   -0.039943  -0.002915   0.385721  -0.027332  -0.026836   0.559043
    25  C    0.379780  -0.038259  -0.049154  -0.004531  -0.003538   0.005211
    26  O   -0.077889   0.000901   0.001291   0.002117   0.001784   0.000512
    27  N   -0.124499   0.001795   0.004101   0.000039  -0.000006  -0.000038
    28  H   -0.001078   0.000269   0.000022  -0.000003  -0.000004  -0.000005
    29  C    0.005114  -0.000228  -0.000089  -0.000007  -0.000006   0.000001
    30  H    0.000168  -0.000018  -0.000007   0.000000   0.000000   0.000000
    31  C   -0.000373   0.000005   0.000005   0.000000   0.000000   0.000000
    32  H   -0.000014   0.000001   0.000000   0.000000   0.000000   0.000000
    33  H    0.000003   0.000000   0.000000   0.000000   0.000000   0.000000
    34  H    0.000161  -0.000002  -0.000002  -0.000001   0.000000   0.000000
    35  C   -0.000066  -0.000015   0.000000   0.000000   0.000000   0.000000
    36  O   -0.000051   0.000001   0.000000   0.000000   0.000000   0.000000
    37  N   -0.000001   0.000000   0.000000   0.000000   0.000000   0.000000
    38  H    0.000000   0.000000   0.000000   0.000000   0.000000   0.000000
    39  C    0.000000   0.000000   0.000000   0.000000   0.000000   0.000000
    40  H    0.000000   0.000000   0.000000   0.000000   0.000000   0.000000
    41  H    0.000000   0.000000   0.000000   0.000000   0.000000   0.000000
    42  H    0.000000   0.000000   0.000000   0.000000   0.000000   0.000000
             25         26         27         28         29         30
     1  H    0.000000   0.000000   0.000000   0.000000   0.000000   0.000000
     2  C    0.000000   0.000000   0.000000   0.000000   0.000000   0.000000
     3  H    0.000000   0.000000   0.000000   0.000000   0.000000   0.000000
     4  H    0.000000   0.000000   0.000000   0.000000   0.000000   0.000000
     5  C    0.000000   0.000000   0.000000   0.000001   0.000000   0.000000
     6  O    0.000000   0.000000   0.000000   0.000000   0.000000   0.000000
     7  N    0.000001   0.000000  -0.000004   0.000006   0.000000   0.000000
     8  H   -0.000006   0.000000   0.000009   0.000012   0.000000   0.000000
     9  C    0.000125  -0.000003   0.000019  -0.000048  -0.000003   0.000000
    10  H   -0.000013   0.000000   0.000007  -0.000017   0.000000   0.000000
    11  C   -0.000010   0.000000   0.000000   0.000003   0.000000   0.000000
    12  H   -0.000002   0.000000   0.000000   0.000000   0.000000   0.000000
    13  H   -0.000001   0.000000   0.000000   0.000000   0.000000   0.000000
    14  H    0.000000   0.000000   0.000000   0.000000   0.000000   0.000000
    15  C   -0.001877  -0.000161   0.005293   0.002416   0.000084   0.000004
    16  O    0.007293  -0.000311  -0.017381   0.004976  -0.000708  -0.000014
    17  N   -0.027702   0.001244   0.004540   0.000437  -0.000098  -0.000006
    18  H    0.002450  -0.000056  -0.000281  -0.000070   0.000006   0.000000
    19  C    0.379780  -0.077889  -0.124499  -0.001078   0.005114   0.000168
    20  H   -0.038259   0.000901   0.001795   0.000269  -0.000228  -0.000018
    21  C   -0.049154   0.001291   0.004101   0.000022  -0.000089  -0.000007
    22  H   -0.004531   0.002117   0.000039  -0.000003  -0.000007   0.000000
    23  H   -0.003538   0.001784  -0.000006  -0.000004  -0.000006   0.000000
    24  H    0.005211   0.000512  -0.000038  -0.000005   0.000001   0.000000
    25  C    4.093265   0.599563   0.291465  -0.018019  -0.032485  -0.002951
    26  O    0.599563   8.178237  -0.102251   0.002048   0.008504   0.005942
    27  N    0.291465  -0.102251   7.377029   0.306544   0.214939  -0.042071
    28  H   -0.018019   0.002048   0.306544   0.287264  -0.025465   0.003048
    29  C   -0.032485   0.008504   0.214939  -0.025465   5.041030   0.412632
    30  H   -0.002951   0.005942  -0.042071   0.003048   0.412632   0.493668
    31  C   -0.002098  -0.003779  -0.066452   0.002397   0.337315  -0.039754
    32  H   -0.000136   0.000024  -0.001231   0.001001  -0.035580   0.003748
    33  H    0.000114  -0.000020   0.004721  -0.000071  -0.038247  -0.000410
    34  H    0.001958   0.004275  -0.005197  -0.000269  -0.029132  -0.003388
    35  C    0.003674   0.000356  -0.045310  -0.007687   0.372631  -0.045517
    36  O    0.000428  -0.000003  -0.006428   0.020597  -0.078333   0.002019
    37  N   -0.000129  -0.000002   0.002049   0.000938  -0.111776   0.004854
    38  H   -0.000008  -0.000003  -0.000027  -0.000029   0.000736   0.001740
    39  C    0.000001   0.000000  -0.000098  -0.000027   0.004643  -0.000054
    40  H    0.000000   0.000000   0.000012   0.000001  -0.000177  -0.000005
    41  H    0.000000   0.000000   0.000000   0.000000   0.000005  -0.000015
    42  H    0.000000   0.000000  -0.000006  -0.000003   0.000113  -0.000001
             31         32         33         34         35         36
     1  H    0.000000   0.000000   0.000000   0.000000   0.000000   0.000000
     2  C    0.000000   0.000000   0.000000   0.000000   0.000000   0.000000
     3  H    0.000000   0.000000   0.000000   0.000000   0.000000   0.000000
     4  H    0.000000   0.000000   0.000000   0.000000   0.000000   0.000000
     5  C    0.000000   0.000000   0.000000   0.000000   0.000000   0.000000
     6  O    0.000000   0.000000   0.000000   0.000000   0.000000   0.000000
     7  N    0.000000  -0.000003   0.000000   0.000000   0.000000   0.000000
     8  H   -0.000002   0.000030   0.000000   0.000000   0.000000   0.000001
     9  C    0.000006  -0.000002   0.000000   0.000000   0.000000   0.000000
    10  H    0.000000   0.000000   0.000000   0.000000   0.000000   0.000000
    11  C    0.000000   0.000000   0.000000   0.000000   0.000000   0.000000
    12  H    0.000000   0.000000   0.000000   0.000000   0.000000   0.000000
    13  H    0.000000   0.000000   0.000000   0.000000   0.000000   0.000000
    14  H    0.000000   0.000000   0.000000   0.000000   0.000000   0.000000
    15  C   -0.000086  -0.000017   0.000001   0.000022  -0.000001  -0.000064
    16  O    0.000816   0.001307   0.000036   0.000037  -0.000121  -0.000008
    17  N    0.000000   0.000009   0.000000  -0.000017   0.000006   0.000004
    18  H   -0.000001   0.000000   0.000000   0.000000   0.000000   0.000000
    19  C   -0.000373  -0.000014   0.000003   0.000161  -0.000066  -0.000051
    20  H    0.000005   0.000001   0.000000  -0.000002  -0.000015   0.000001
    21  C    0.000005   0.000000   0.000000  -0.000002   0.000000   0.000000
    22  H    0.000000   0.000000   0.000000  -0.000001   0.000000   0.000000
    23  H    0.000000   0.000000   0.000000   0.000000   0.000000   0.000000
    24  H    0.000000   0.000000   0.000000   0.000000   0.000000   0.000000
    25  C   -0.002098  -0.000136   0.000114   0.001958   0.003674   0.000428
    26  O   -0.003779   0.000024  -0.000020   0.004275   0.000356  -0.000003
    27  N   -0.066452  -0.001231   0.004721  -0.005197  -0.045310  -0.006428
    28  H    0.002397   0.001001  -0.000071  -0.000269  -0.007687   0.020597
    29  C    0.337315  -0.035580  -0.038247  -0.029132   0.372631  -0.078333
    30  H   -0.039754   0.003748  -0.000410  -0.003388  -0.045517   0.002019
    31  C    5.149021   0.390632   0.378625   0.393236  -0.053531  -0.000958
    32  H    0.390632   0.491765  -0.024998  -0.021336  -0.003816   0.002030
    33  H    0.378625  -0.024998   0.552691  -0.024396  -0.002726   0.000038
    34  H    0.393236  -0.021336  -0.024396   0.470775   0.004079  -0.000061
    35  C   -0.053531  -0.003816  -0.002726   0.004079   4.169244   0.595896
    36  O   -0.000958   0.002030   0.000038  -0.000061   0.595896   8.184130
    37  N   -0.000012   0.000428   0.002249  -0.000063   0.282946  -0.103881
    38  H    0.000278   0.000005   0.000259  -0.000027  -0.021535   0.002527
    39  C   -0.000295  -0.000004  -0.000039   0.000003  -0.029556   0.008763
    40  H   -0.000008   0.000000   0.000003   0.000000  -0.003669   0.001258
    41  H    0.000005   0.000000  -0.000006   0.000000   0.004555   0.000361
    42  H    0.000022   0.000003  -0.000014   0.000000  -0.002835   0.003187
             37         38         39         40         41         42
     1  H    0.000000   0.000000   0.000000   0.000000   0.000000   0.000000
     2  C    0.000000   0.000000   0.000000   0.000000   0.000000   0.000000
     3  H    0.000000   0.000000   0.000000   0.000000   0.000000   0.000000
     4  H    0.000000   0.000000   0.000000   0.000000   0.000000   0.000000
     5  C    0.000000   0.000000   0.000000   0.000000   0.000000   0.000000
     6  O    0.000000   0.000000   0.000000   0.000000   0.000000   0.000000
     7  N    0.000000   0.000000   0.000000   0.000000   0.000000   0.000000
     8  H    0.000000   0.000000   0.000000   0.000000   0.000000   0.000000
     9  C    0.000000   0.000000   0.000000   0.000000   0.000000   0.000000
    10  H    0.000000   0.000000   0.000000   0.000000   0.000000   0.000000
    11  C    0.000000   0.000000   0.000000   0.000000   0.000000   0.000000
    12  H    0.000000   0.000000   0.000000   0.000000   0.000000   0.000000
    13  H    0.000000   0.000000   0.000000   0.000000   0.000000   0.000000
    14  H    0.000000   0.000000   0.000000   0.000000   0.000000   0.000000
    15  C    0.000000   0.000000   0.000000   0.000000   0.000000   0.000000
    16  O    0.000000   0.000000   0.000000   0.000000   0.000000   0.000000
    17  N    0.000000   0.000000   0.000000   0.000000   0.000000   0.000000
    18  H    0.000000   0.000000   0.000000   0.000000   0.000000   0.000000
    19  C   -0.000001   0.000000   0.000000   0.000000   0.000000   0.000000
    20  H    0.000000   0.000000   0.000000   0.000000   0.000000   0.000000
    21  C    0.000000   0.000000   0.000000   0.000000   0.000000   0.000000
    22  H    0.000000   0.000000   0.000000   0.000000   0.000000   0.000000
    23  H    0.000000   0.000000   0.000000   0.000000   0.000000   0.000000
    24  H    0.000000   0.000000   0.000000   0.000000   0.000000   0.000000
    25  C   -0.000129  -0.000008   0.000001   0.000000   0.000000   0.000000
    26  O   -0.000002  -0.000003   0.000000   0.000000   0.000000   0.000000
    27  N    0.002049  -0.000027  -0.000098   0.000012   0.000000  -0.000006
    28  H    0.000938  -0.000029  -0.000027   0.000001   0.000000  -0.000003
    29  C   -0.111776   0.000736   0.004643  -0.000177   0.000005   0.000113
    30  H    0.004854   0.001740  -0.000054  -0.000005  -0.000015  -0.000001
    31  C   -0.000012   0.000278  -0.000295  -0.000008   0.000005   0.000022
    32  H    0.000428   0.000005  -0.000004   0.000000   0.000000   0.000003
    33  H    0.002249   0.000259  -0.000039   0.000003  -0.000006  -0.000014
    34  H   -0.000063  -0.000027   0.000003   0.000000   0.000000   0.000000
    35  C    0.282946  -0.021535  -0.029556  -0.003669   0.004555  -0.002835
    36  O   -0.103881   0.002527   0.008763   0.001258   0.000361   0.003187
    37  N    7.322075   0.328580   0.196312  -0.045550  -0.037245  -0.041173
    38  H    0.328580   0.321558  -0.022483   0.001459  -0.004651   0.002472
    39  C    0.196312  -0.022483   4.906185   0.406191   0.397209   0.404488
    40  H   -0.045550   0.001459   0.406191   0.521499  -0.031055  -0.033282
    41  H   -0.037245  -0.004651   0.397209  -0.031055   0.525948  -0.025167
    42  H   -0.041173   0.002472   0.404488  -0.033282  -0.025167   0.491322
 Mulliken atomic charges:
              1
     1  H    0.208406
     2  C   -0.576434
     3  H    0.205204
     4  H    0.174174
     5  C    0.754534
     6  O   -0.621689
     7  N   -0.821427
     8  H    0.418517
     9  C   -0.033999
    10  H    0.214552
    11  C   -0.484226
    12  H    0.181348
    13  H    0.159351
    14  H    0.211485
    15  C    0.790225
    16  O   -0.633240
    17  N   -0.840197
    18  H    0.391730
    19  C   -0.028389
    20  H    0.204465
    21  C   -0.458800
    22  H    0.194578
    23  H    0.192687
    24  H    0.147590
    25  C    0.795589
    26  O   -0.622321
    27  N   -0.801281
    28  H    0.420815
    29  C   -0.045420
    30  H    0.206390
    31  C   -0.485016
    32  H    0.196156
    33  H    0.152187
    34  H    0.209346
    35  C    0.782998
    36  O   -0.631450
    37  N   -0.800597
    38  H    0.389148
    39  C   -0.271241
    40  H    0.183322
    41  H    0.170056
    42  H    0.200873
 Sum of Mulliken atomic charges =   0.00000
 Mulliken charges with hydrogens summed into heavy atoms:
              1
     2  C    0.011351
     5  C    0.754534
     6  O   -0.621689
     7  N   -0.402910
     9  C    0.180554
    11  C    0.067958
    15  C    0.790225
    16  O   -0.633240
    17  N   -0.448467
    19  C    0.176076
    21  C    0.076055
    25  C    0.795589
    26  O   -0.622321
    27  N   -0.380466
    29  C    0.160970
    31  C    0.072672
    35  C    0.782998
    36  O   -0.631450
    37  N   -0.411449
    39  C    0.283010
 Sum of Mulliken charges with hydrogens summed into heavy atoms =   0.00000
 Electronic spatial extent (au):  <R**2>=           7858.8915
 Charge=              0.0000 electrons
 Dipole moment (field-independent basis, Debye):
    X=              3.1375    Y=             -0.0248    Z=             -0.1394  Tot=              3.1407
 Quadrupole moment (field-independent basis, Debye-Ang):
   XX=           -114.5740   YY=           -118.1561   ZZ=           -121.3311
   XY=            -15.7112   XZ=             -6.7718   YZ=            -13.8897
 Traceless Quadrupole moment (field-independent basis, Debye-Ang):
   XX=              3.4464   YY=             -0.1357   ZZ=             -3.3107
   XY=            -15.7112   XZ=             -6.7718   YZ=            -13.8897
 Octapole moment (field-independent basis, Debye-Ang**2):
  XXX=            268.3940  YYY=            -42.3290  ZZZ=             -4.1021  XYY=            -33.7845
  XXY=            -26.1580  XXZ=             53.1882  XZZ=              4.3206  YZZ=              7.2224
  YYZ=            -12.8954  XYZ=             13.4751
 Hexadecapole moment (field-independent basis, Debye-Ang**3):
 XXXX=          -6530.9798 YYYY=          -2968.5001 ZZZZ=           -570.7660 XXXY=           -433.5347
 XXXZ=           -240.0285 YYYX=            -30.5254 YYYZ=            -52.0055 ZZZX=              0.5412
 ZZZY=             -2.3901 XXYY=          -1522.3928 XXZZ=          -1252.5445 YYZZ=           -596.6236
 XXYZ=           -100.2165 YYXZ=            -54.2525 ZZXY=            -19.7291
 N-N= 1.652713211446D+03 E-N=-5.613626073666D+03  KE= 9.830779770164D+02
 1\1\GINC-NODE005\FOpt\RHF\6-31G(d)\C12H22N4O4\MANAGER\26-Dec-2016\0\\#
  HF/6-31G* Opt=(ModRedundant, maxcycles=1000, calcfc) geom=nocrowd\\Ph
 i Psi fixed scan\\0,1\H,9.0736191145,0.5643540159,0.0663883839\C,9.162
 5051091,1.6006164683,-0.2291554868\H,9.4063854395,1.6297169706,-1.2860
 53217\H,9.9675159734,2.0703614501,0.3230977174\C,7.8279720802,2.282623
 7595,-0.0222571293\O,6.7861532639,1.7190706112,-0.2348975961\N,7.88551
 96756,3.5679352698,0.3852856131\H,8.7571448302,4.0228986992,0.53911764
 58\C,6.7001092318,4.3709914676,0.5540503263\H,5.9992283271,4.100598733
 6,-0.2251426521\C,6.0391118319,4.1461342121,1.9209252781\H,6.722479844
 1,4.4178644435,2.717779685\H,5.134498679,4.7363940991,2.0265521673\H,5
 .7803384371,3.100254259,2.0200478806\C,7.1134616745,5.835653217,0.4043
 315948\O,8.2383798007,6.1838004861,0.6499797708\N,6.1061069651,6.66176
 72731,0.0555082841\H,5.2460722553,6.2092022734,-0.1612171136\C,6.07482
 36324,8.0924752132,-0.2706003705\H,5.7533391523,8.1602527821,-1.306785
 7311\C,5.036892587,8.7816448334,0.6101431989\H,5.3518306586,8.77141709
 4,1.6450437214\H,4.8989011043,9.8099036157,0.3057925722\H,4.083802385,
 8.2670811867,0.5289088493\C,7.4088723633,8.8641254557,-0.2272872812\O,
 7.5003043454,9.8698354952,0.423013212\N,8.37718079,8.4346697947,-1.054
 9696804\H,8.3515570455,7.5053372287,-1.4090658531\C,9.6803838368,9.057
 7449569,-1.0758841528\H,9.5335301784,10.1296436872,-1.0924266289\C,10.
 5438789381,8.6847398978,0.1373020013\H,10.700873063,7.6141549532,0.171
 5813832\H,11.5082155614,9.1813342554,0.0898629051\H,10.0419732467,8.98
 99125281,1.0453040909\C,10.370342482,8.604356732,-2.3582444151\O,10.14
 60432235,7.526403989,-2.8446249797\N,11.2749024716,9.4598760142,-2.868
 9210222\H,11.3512636123,10.3704586699,-2.479798306\C,12.0296045008,9.1
 458234117,-4.063964711\H,11.4001314824,9.1535533363,-4.9463442733\H,12
 .8123418133,9.8828632504,-4.1828745859\H,12.4782089928,8.1668539093,-3
 .9730010952\\Version=EM64L-G09RevA.02\State=1-A\HF=-984.5498839\RMSD=4
 .584e-09\RMSF=1.250e-03\Dipole=0.5136179,1.0116197,-0.4895664\Quadrupo
 le=12.7032444,-10.5697819,-2.1334626,0.0449789,-3.5170946,-11.1154968\
 PG=C01 [X(C12H22N4O4)]\\@


 HOW IS IT THAT THE SKY FEEDS THE STARS?

                           -- LUCRETIUS
 Job cpu time:  0 days  3 hours 28 minutes 46.8 seconds.
 File lengths (MBytes):  RWF=    553 Int=      0 D2E=      0 Chk=     11 Scr=      1
 Normal termination of Gaussian 09 at Mon Dec 26 14:15:18 2016.
