 Entering Gaussian System, Link 0=g09
 Initial command:
 /home/steboss/Software/g09/l1.exe /tmp/Gau-1081.inp -scrdir=/tmp/
 Entering Link 1 = /home/steboss/Software/g09/l1.exe PID=      1083.
  
 Copyright (c) 1988,1990,1992,1993,1995,1998,2003,2009, Gaussian, Inc.
                  All Rights Reserved.
  
 This is part of the Gaussian(R) 09 program.  It is based on
 the Gaussian(R) 03 system (copyright 2003, Gaussian, Inc.),
 the Gaussian(R) 98 system (copyright 1998, Gaussian, Inc.),
 the Gaussian(R) 94 system (copyright 1995, Gaussian, Inc.),
 the Gaussian 92(TM) system (copyright 1992, Gaussian, Inc.),
 the Gaussian 90(TM) system (copyright 1990, Gaussian, Inc.),
 the Gaussian 88(TM) system (copyright 1988, Gaussian, Inc.),
 the Gaussian 86(TM) system (copyright 1986, Carnegie Mellon
 University), and the Gaussian 82(TM) system (copyright 1983,
 Carnegie Mellon University). Gaussian is a federally registered
 trademark of Gaussian, Inc.
  
 This software contains proprietary and confidential information,
 including trade secrets, belonging to Gaussian, Inc.
  
 This software is provided under written license and may be
 used, copied, transmitted, or stored only in accord with that
 written license.
  
 The following legend is applicable only to US Government
 contracts under FAR:
  
                    RESTRICTED RIGHTS LEGEND
  
 Use, reproduction and disclosure by the US Government is
 subject to restrictions as set forth in subparagraphs (a)
 and (c) of the Commercial Computer Software - Restricted
 Rights clause in FAR 52.227-19.
  
 Gaussian, Inc.
 340 Quinnipiac St., Bldg. 40, Wallingford CT 06492
  
  
 ---------------------------------------------------------------
 Warning -- This program may not be used in any manner that
 competes with the business of Gaussian, Inc. or will provide
 assistance to any competitor of Gaussian, Inc.  The licensee
 of this program is prohibited from giving any competitor of
 Gaussian, Inc. access to this program.  By using this program,
 the user acknowledges that Gaussian, Inc. is engaged in the
 business of creating and licensing software in the field of
 computational chemistry and represents and warrants to the
 licensee that it is not a competitor of Gaussian, Inc. and that
 it will not use this program in any manner prohibited above.
 ---------------------------------------------------------------
  

 Cite this work as:
 Gaussian 09, Revision A.02,
 M. J. Frisch, G. W. Trucks, H. B. Schlegel, G. E. Scuseria, 
 M. A. Robb, J. R. Cheeseman, G. Scalmani, V. Barone, B. Mennucci, 
 G. A. Petersson, H. Nakatsuji, M. Caricato, X. Li, H. P. Hratchian, 
 A. F. Izmaylov, J. Bloino, G. Zheng, J. L. Sonnenberg, M. Hada, 
 M. Ehara, K. Toyota, R. Fukuda, J. Hasegawa, M. Ishida, T. Nakajima, 
 Y. Honda, O. Kitao, H. Nakai, T. Vreven, J. A. Montgomery, Jr., 
 J. E. Peralta, F. Ogliaro, M. Bearpark, J. J. Heyd, E. Brothers, 
 K. N. Kudin, V. N. Staroverov, R. Kobayashi, J. Normand, 
 K. Raghavachari, A. Rendell, J. C. Burant, S. S. Iyengar, J. Tomasi, 
 M. Cossi, N. Rega, J. M. Millam, M. Klene, J. E. Knox, J. B. Cross, 
 V. Bakken, C. Adamo, J. Jaramillo, R. Gomperts, R. E. Stratmann, 
 O. Yazyev, A. J. Austin, R. Cammi, C. Pomelli, J. W. Ochterski, 
 R. L. Martin, K. Morokuma, V. G. Zakrzewski, G. A. Voth, 
 P. Salvador, J. J. Dannenberg, S. Dapprich, A. D. Daniels, 
 O. Farkas, J. B. Foresman, J. V. Ortiz, J. Cioslowski, 
 and D. J. Fox, Gaussian, Inc., Wallingford CT, 2009.
 
 ******************************************
 Gaussian 09:  EM64L-G09RevA.02 11-Jun-2009
                10-Feb-2017 
 ******************************************
 %chk=structure_165.chk
 %NProcShared=8
 Will use up to    8 processors via shared memory.
 -------------------------------------------
 # HF/6-31G* Opt=(ModRedundant) geom=nocrowd
 -------------------------------------------
 1/18=120,19=15,38=1/1,3;
 2/9=110,12=1,17=6,18=5,40=1/2;
 3/5=1,6=6,7=1,11=9,16=1,25=1,30=1,71=1/1,2,3;
 4//1;
 5/5=2,38=5/2;
 6/7=2,8=2,9=2,10=2,28=1/1;
 7//1,2,3,16;
 1/18=20,19=15/3(2);
 2/9=110,12=1/2;
 99//99;
 2/9=110,12=1/2;
 3/5=1,6=6,7=1,11=9,16=1,25=1,30=1,71=1/1,2,3;
 4/5=5,16=3/1;
 5/5=2,38=5/2;
 7//1,2,3,16;
 1/18=20,19=15/3(-5);
 2/9=110,12=1/2;
 6/7=2,8=2,9=2,10=2,19=2,28=1/1;
 99/9=1/99;
 ------------------
 Phi Psi fixed scan
 ------------------
 Symbolic Z-matrix:
 Charge =  0 Multiplicity = 1
 H                     1.1248    2.7631    1.9684 
 C                     1.5589    2.9786    0.992 
 H                     0.896     3.6429    0.4377 
 H                     1.6873    2.0489    0.4377 
 C                     2.9235    3.656     1.1334 
 O                     3.3922    3.8886    2.2454 
 N                     3.5554    3.9697    0. 
 H                     3.1293    3.7581   -0.891 
 C                     4.8533    4.6139    0. 
 H                     5.4076    4.3155    0.8898 
 C                     5.6613    4.2208   -1.2322 
 H                     5.1233    4.5214   -2.1312 
 H                     6.6305    4.7189   -1.2058 
 H                     5.8085    3.1409   -1.2414 
 C                     4.7127    6.1294    0. 
 O                     3.6366    6.656    -0.2741 
 N                     5.8056    6.8311    0.309 
 H                     6.6679    6.3528    0.5272 
 C                     5.801     8.2797    0.3436 
 H                     4.8071    8.6467    0.0875 
 H                     6.0669    8.6206    1.3442 
 H                     6.5256    8.6631   -0.3748 
 
 The following ModRedundant input section has been read:
 D    5    7    9   15 F                                                       
 D    7    9   15   17 F                                                       

 GradGradGradGradGradGradGradGradGradGradGradGradGradGradGradGradGradGrad
 Berny optimization.
 Initialization pass.
                           ----------------------------
                           !    Initial Parameters    !
                           ! (Angstroms and Degrees)  !
 --------------------------                            --------------------------
 ! Name  Definition              Value          Derivative Info.                !
 --------------------------------------------------------------------------------
 ! R1    R(1,2)                  1.0901         estimate D2E/DX2                !
 ! R2    R(2,3)                  1.0899         estimate D2E/DX2                !
 ! R3    R(2,4)                  1.09           estimate D2E/DX2                !
 ! R4    R(2,5)                  1.53           estimate D2E/DX2                !
 ! R5    R(5,6)                  1.229          estimate D2E/DX2                !
 ! R6    R(5,7)                  1.335          estimate D2E/DX2                !
 ! R7    R(7,8)                  1.0101         estimate D2E/DX2                !
 ! R8    R(7,9)                  1.449          estimate D2E/DX2                !
 ! R9    R(9,10)                 1.09           estimate D2E/DX2                !
 ! R10   R(9,11)                 1.525          estimate D2E/DX2                !
 ! R11   R(9,15)                 1.522          estimate D2E/DX2                !
 ! R12   R(11,12)                1.09           estimate D2E/DX2                !
 ! R13   R(11,13)                1.09           estimate D2E/DX2                !
 ! R14   R(11,14)                1.0899         estimate D2E/DX2                !
 ! R15   R(15,16)                1.229          estimate D2E/DX2                !
 ! R16   R(15,17)                1.335          estimate D2E/DX2                !
 ! R17   R(17,18)                1.0099         estimate D2E/DX2                !
 ! R18   R(17,19)                1.449          estimate D2E/DX2                !
 ! R19   R(19,20)                1.09           estimate D2E/DX2                !
 ! R20   R(19,21)                1.09           estimate D2E/DX2                !
 ! R21   R(19,22)                1.09           estimate D2E/DX2                !
 ! A1    A(1,2,3)              109.5006         estimate D2E/DX2                !
 ! A2    A(1,2,4)              109.4995         estimate D2E/DX2                !
 ! A3    A(1,2,5)              111.0954         estimate D2E/DX2                !
 ! A4    A(3,2,4)              109.4435         estimate D2E/DX2                !
 ! A5    A(3,2,5)              108.6385         estimate D2E/DX2                !
 ! A6    A(4,2,5)              108.6365         estimate D2E/DX2                !
 ! A7    A(2,5,6)              120.5016         estimate D2E/DX2                !
 ! A8    A(2,5,7)              116.5975         estimate D2E/DX2                !
 ! A9    A(6,5,7)              122.901          estimate D2E/DX2                !
 ! A10   A(5,7,8)              120.0            estimate D2E/DX2                !
 ! A11   A(5,7,9)              121.9001         estimate D2E/DX2                !
 ! A12   A(8,7,9)              118.0999         estimate D2E/DX2                !
 ! A13   A(7,9,10)             109.5            estimate D2E/DX2                !
 ! A14   A(7,9,11)             111.0992         estimate D2E/DX2                !
 ! A15   A(7,9,15)             111.0966         estimate D2E/DX2                !
 ! A16   A(10,9,11)            108.6382         estimate D2E/DX2                !
 ! A17   A(10,9,15)            108.6373         estimate D2E/DX2                !
 ! A18   A(11,9,15)            107.7947         estimate D2E/DX2                !
 ! A19   A(9,11,12)            109.5007         estimate D2E/DX2                !
 ! A20   A(9,11,13)            109.4959         estimate D2E/DX2                !
 ! A21   A(9,11,14)            109.4978         estimate D2E/DX2                !
 ! A22   A(12,11,13)           109.441          estimate D2E/DX2                !
 ! A23   A(12,11,14)           109.4482         estimate D2E/DX2                !
 ! A24   A(13,11,14)           109.4436         estimate D2E/DX2                !
 ! A25   A(9,15,16)            120.4997         estimate D2E/DX2                !
 ! A26   A(9,15,17)            116.5985         estimate D2E/DX2                !
 ! A27   A(16,15,17)           122.9018         estimate D2E/DX2                !
 ! A28   A(15,17,18)           120.0035         estimate D2E/DX2                !
 ! A29   A(15,17,19)           121.8963         estimate D2E/DX2                !
 ! A30   A(18,17,19)           118.1002         estimate D2E/DX2                !
 ! A31   A(17,19,20)           109.5046         estimate D2E/DX2                !
 ! A32   A(17,19,21)           109.4999         estimate D2E/DX2                !
 ! A33   A(17,19,22)           109.4988         estimate D2E/DX2                !
 ! A34   A(20,19,21)           109.4397         estimate D2E/DX2                !
 ! A35   A(20,19,22)           109.443          estimate D2E/DX2                !
 ! A36   A(21,19,22)           109.4414         estimate D2E/DX2                !
 ! D1    D(1,2,5,6)              0.0028         estimate D2E/DX2                !
 ! D2    D(1,2,5,7)           -179.9996         estimate D2E/DX2                !
 ! D3    D(3,2,5,6)            120.5145         estimate D2E/DX2                !
 ! D4    D(3,2,5,7)            -59.4879         estimate D2E/DX2                !
 ! D5    D(4,2,5,6)           -120.5064         estimate D2E/DX2                !
 ! D6    D(4,2,5,7)             59.4912         estimate D2E/DX2                !
 ! D7    D(2,5,7,8)             -0.0055         estimate D2E/DX2                !
 ! D8    D(2,5,7,9)           -179.9962         estimate D2E/DX2                !
 ! D9    D(6,5,7,8)            179.992          estimate D2E/DX2                !
 ! D10   D(6,5,7,9)              0.0013         estimate D2E/DX2                !
 ! D11   D(5,7,9,10)            29.997          estimate D2E/DX2                !
 ! D12   D(5,7,9,11)           149.9996         estimate D2E/DX2                !
 ! D13   D(5,7,9,15)           -90.0028         Frozen                          !
 ! D14   D(8,7,9,10)          -149.9939         estimate D2E/DX2                !
 ! D15   D(8,7,9,11)           -29.9913         estimate D2E/DX2                !
 ! D16   D(8,7,9,15)            90.0063         estimate D2E/DX2                !
 ! D17   D(7,9,11,12)           60.0024         estimate D2E/DX2                !
 ! D18   D(7,9,11,13)          179.9986         estimate D2E/DX2                !
 ! D19   D(7,9,11,14)          -60.0038         estimate D2E/DX2                !
 ! D20   D(10,9,11,12)        -179.4843         estimate D2E/DX2                !
 ! D21   D(10,9,11,13)         -59.4881         estimate D2E/DX2                !
 ! D22   D(10,9,11,14)          60.5095         estimate D2E/DX2                !
 ! D23   D(15,9,11,12)         -61.938          estimate D2E/DX2                !
 ! D24   D(15,9,11,13)          58.0582         estimate D2E/DX2                !
 ! D25   D(15,9,11,14)         178.0558         estimate D2E/DX2                !
 ! D26   D(7,9,15,16)          -15.0014         estimate D2E/DX2                !
 ! D27   D(7,9,15,17)          164.9981         Frozen                          !
 ! D28   D(10,9,15,16)        -135.5125         estimate D2E/DX2                !
 ! D29   D(10,9,15,17)          44.487          estimate D2E/DX2                !
 ! D30   D(11,9,15,16)         106.9406         estimate D2E/DX2                !
 ! D31   D(11,9,15,17)         -73.0599         estimate D2E/DX2                !
 ! D32   D(9,15,17,18)           0.0035         estimate D2E/DX2                !
 ! D33   D(9,15,17,19)         179.9985         estimate D2E/DX2                !
 ! D34   D(16,15,17,18)       -179.997          estimate D2E/DX2                !
 ! D35   D(16,15,17,19)         -0.002          estimate D2E/DX2                !
 ! D36   D(15,17,19,20)          0.0027         estimate D2E/DX2                !
 ! D37   D(15,17,19,21)        120.002          estimate D2E/DX2                !
 ! D38   D(15,17,19,22)       -120.0001         estimate D2E/DX2                !
 ! D39   D(18,17,19,20)        179.9978         estimate D2E/DX2                !
 ! D40   D(18,17,19,21)        -60.0029         estimate D2E/DX2                !
 ! D41   D(18,17,19,22)         59.995          estimate D2E/DX2                !
 --------------------------------------------------------------------------------
 Trust Radius=3.00D-01 FncErr=1.00D-07 GrdErr=1.00D-07
 Number of steps in this run= 108 maximum allowed number of steps= 132.
 GradGradGradGradGradGradGradGradGradGradGradGradGradGradGradGradGradGrad

                          Input orientation:                          
 ---------------------------------------------------------------------
 Center     Atomic      Atomic             Coordinates (Angstroms)
 Number     Number       Type             X           Y           Z
 ---------------------------------------------------------------------
      1          1           0        1.124800    2.763100    1.968400
      2          6           0        1.558900    2.978600    0.992000
      3          1           0        0.896000    3.642900    0.437700
      4          1           0        1.687300    2.048900    0.437700
      5          6           0        2.923500    3.656000    1.133400
      6          8           0        3.392200    3.888600    2.245400
      7          7           0        3.555400    3.969700    0.000000
      8          1           0        3.129300    3.758100   -0.891000
      9          6           0        4.853300    4.613900    0.000000
     10          1           0        5.407600    4.315500    0.889800
     11          6           0        5.661300    4.220800   -1.232200
     12          1           0        5.123300    4.521400   -2.131200
     13          1           0        6.630500    4.718900   -1.205800
     14          1           0        5.808500    3.140900   -1.241400
     15          6           0        4.712700    6.129400    0.000000
     16          8           0        3.636600    6.656000   -0.274100
     17          7           0        5.805600    6.831100    0.309000
     18          1           0        6.667900    6.352800    0.527200
     19          6           0        5.801000    8.279700    0.343600
     20          1           0        4.807100    8.646700    0.087500
     21          1           0        6.066900    8.620600    1.344200
     22          1           0        6.525600    8.663100   -0.374800
 ---------------------------------------------------------------------
                    Distance matrix (angstroms):
                    1          2          3          4          5
     1  H    0.000000
     2  C    1.090064   0.000000
     3  H    1.780292   1.089945   0.000000
     4  H    1.780317   1.089990   1.779604   0.000000
     5  C    2.174814   1.530032   2.143578   2.143586   0.000000
     6  O    2.546484   2.400021   3.091789   3.091757   1.228953
     7  N    3.352357   2.439745   2.714919   2.714931   1.335028
     8  H    3.631007   2.572832   2.601220   2.601187   2.037394
     9  C    4.604538   3.809375   4.098127   4.098093   2.434398
    10  H    4.681421   4.075566   4.583811   4.379783   2.581673
    11  C    5.740084   4.829059   5.082383   4.826841   3.662050
    12  H    5.990521   4.983930   5.024050   4.951626   4.030589
    13  H    6.649318   5.794834   6.061630   5.853650   4.510373
    14  H    5.690571   4.803490   5.215749   4.582153   3.772032
    15  C    5.299019   4.567062   4.576184   5.098540   3.256308
    16  O    5.147098   4.409435   4.134770   5.052900   3.389627
    17  N    6.419667   5.774314   5.855370   6.312400   4.366623
    18  H    6.759361   6.140289   6.377021   6.583156   4.654110
    19  C    7.412132   6.820374   6.750392   7.466877   5.502944
    20  H    7.191235   6.595171   6.360610   7.306624   5.435894
    21  H    7.689232   7.230372   7.234462   7.949206   5.879851
    22  H    8.334820   7.671362   7.586499   8.235104   6.349869
                    6          7          8          9         10
     6  O    0.000000
     7  N    2.252783   0.000000
     8  H    3.150103   1.010058   0.000000
     9  C    2.775373   1.448978   2.120955   0.000000
    10  H    2.466117   2.083739   2.944927   1.089970   0.000000
    11  C    4.165678   2.452791   2.596446   1.525027   2.139209
    12  H    4.748870   2.702720   2.469162   2.150225   3.041326
    13  H    4.804869   3.386959   3.644261   2.150214   2.459625
    14  H    4.307590   2.702673   2.771611   2.150165   2.466256
    15  C    3.436092   2.450234   2.987323   1.522008   2.136554
    16  O    3.750482   2.701468   3.005951   2.392836   3.157379
    17  N    4.269947   3.653285   4.248048   2.432762   2.612274
    18  H    4.444626   3.955346   4.611448   2.567973   2.422896
    19  C    5.357324   4.872051   5.395098   3.801879   4.020943
    20  H    5.412762   4.842390   5.260312   4.034014   4.445625
    21  H    5.509810   5.453932   6.104877   4.396970   4.378932
    22  H    6.283271   5.566917   5.988350   4.396940   4.663771
                   11         12         13         14         15
    11  C    0.000000
    12  H    1.089957   0.000000
    13  H    1.090023   1.779613   0.000000
    14  H    1.089925   1.779613   1.779617   0.000000
    15  C    2.461892   2.701161   2.668599   3.416575   0.000000
    16  O    3.308710   3.196187   3.685629   4.243671   1.228995
    17  N    3.034763   3.428531   2.726989   4.002665   1.335026
    18  H    2.941795   3.578674   2.382082   3.766008   2.037315
    19  C    4.356298   4.550685   3.970895   5.377690   2.434389
    20  H    4.696792   4.694754   4.519405   5.751749   2.520589
    21  H    5.114742   5.456393   4.695041   6.064587   3.137963
    22  H    4.606102   4.712225   4.032156   5.635594   3.137948
                   16         17         18         19         20
    16  O    0.000000
    17  N    2.252826   0.000000
    18  H    3.150046   1.009922   0.000000
    19  C    2.775353   1.449020   2.120889   0.000000
    20  H    2.337458   2.083859   2.986284   1.090006   0.000000
    21  H    3.519220   2.083801   2.484272   1.090007   1.779627
    22  H    3.519220   2.083796   2.484218   1.090018   1.779672
                   21         22
    21  H    0.000000
    22  H    1.779655   0.000000
 Stoichiometry    C6H12N2O2
 Framework group  C1[X(C6H12N2O2)]
 Deg. of freedom    60
 Full point group                 C1      NOp   1
 Largest Abelian subgroup         C1      NOp   1
 Largest concise Abelian subgroup C1      NOp   1
                         Standard orientation:                         
 ---------------------------------------------------------------------
 Center     Atomic      Atomic             Coordinates (Angstroms)
 Number     Number       Type             X           Y           Z
 ---------------------------------------------------------------------
      1          1           0        4.029156   -1.278818    0.024053
      2          6           0        3.405369   -0.549559   -0.492967
      3          1           0        3.189790   -0.904541   -1.500683
      4          1           0        3.930532    0.403944   -0.548759
      5          6           0        2.081584   -0.336263    0.243985
      6          8           0        1.837964   -0.951608    1.279517
      7          7           0        1.230686    0.538848   -0.296803
      8          1           0        1.476069    1.020682   -1.149939
      9          6           0       -0.055011    0.828859    0.305207
     10          1           0        0.012568    0.703193    1.385798
     11          6           0       -0.490497    2.259686    0.007222
     12          1           0       -0.571528    2.398306   -1.070843
     13          1           0       -1.458427    2.449444    0.471175
     14          1           0        0.246625    2.955271    0.408157
     15          6           0       -1.132254   -0.105550   -0.226709
     16          8           0       -0.934633   -0.772692   -1.239772
     17          7           0       -2.275771   -0.152153    0.460671
     18          1           0       -2.391192    0.415458    1.287979
     19          6           0       -3.377733   -1.002022    0.056860
     20          1           0       -3.104183   -1.548305   -0.845836
     21          1           0       -3.602915   -1.709567    0.854850
     22          1           0       -4.256293   -0.388431   -0.142581
 ---------------------------------------------------------------------
 Rotational constants (GHZ):      2.3381178      0.7512599      0.6760593
 Standard basis: 6-31G(d) (6D, 7F)
 There are   174 symmetry adapted basis functions of A   symmetry.
 Integral buffers will be    131072 words long.
 Raffenetti 1 integral format.
 Two-electron integral symmetry is turned on.
   174 basis functions,   328 primitive gaussians,   174 cartesian basis functions
    39 alpha electrons       39 beta electrons
       nuclear repulsion energy       557.1565008761 Hartrees.
 NAtoms=   22 NActive=   22 NUniq=   22 SFac= 7.50D-01 NAtFMM=   80 NAOKFM=F Big=F
 One-electron integrals computed using PRISM.
 NBasis=   174 RedAO= T  NBF=   174
 NBsUse=   174 1.00D-06 NBFU=   174
 Harris functional with IExCor=  205 diagonalized for initial guess.
 ExpMin= 1.61D-01 ExpMax= 5.48D+03 ExpMxC= 8.25D+02 IAcc=1 IRadAn=         1 AccDes= 0.00D+00
 HarFok:  IExCor=  205 AccDes= 0.00D+00 IRadAn=         1 IDoV= 1
 ScaDFX=  1.000000  1.000000  1.000000  1.000000
 FoFCou: FMM=F IPFlag=           0 FMFlag=      100000 FMFlg1=           0
         NFxFlg=           0 DoJE=T BraDBF=F KetDBF=T FulRan=T
         Omega=  0.000000  0.000000  1.000000  0.000000  0.000000 ICntrl=     500 IOpCl=  0
         NMat0=    1 NMatS0=    1 NMatT0=    0 NMatD0=    1 NMtDS0=    0 NMtDT0=    0
         I1Cent=           4 NGrid=           0.
 Petite list used in FoFCou.
 Initial guess orbital symmetries:
       Occupied  (A) (A) (A) (A) (A) (A) (A) (A) (A) (A) (A) (A)
                 (A) (A) (A) (A) (A) (A) (A) (A) (A) (A) (A) (A)
                 (A) (A) (A) (A) (A) (A) (A) (A) (A) (A) (A) (A)
                 (A) (A) (A)
       Virtual   (A) (A) (A) (A) (A) (A) (A) (A) (A) (A) (A) (A)
                 (A) (A) (A) (A) (A) (A) (A) (A) (A) (A) (A) (A)
                 (A) (A) (A) (A) (A) (A) (A) (A) (A) (A) (A) (A)
                 (A) (A) (A) (A) (A) (A) (A) (A) (A) (A) (A) (A)
                 (A) (A) (A) (A) (A) (A) (A) (A) (A) (A) (A) (A)
                 (A) (A) (A) (A) (A) (A) (A) (A) (A) (A) (A) (A)
                 (A) (A) (A) (A) (A) (A) (A) (A) (A) (A) (A) (A)
                 (A) (A) (A) (A) (A) (A) (A) (A) (A) (A) (A) (A)
                 (A) (A) (A) (A) (A) (A) (A) (A) (A) (A) (A) (A)
                 (A) (A) (A) (A) (A) (A) (A) (A) (A) (A) (A) (A)
                 (A) (A) (A) (A) (A) (A) (A) (A) (A) (A) (A) (A)
                 (A) (A) (A)
 The electronic state of the initial guess is 1-A.
 Requested convergence on RMS density matrix=1.00D-08 within 128 cycles.
 Requested convergence on MAX density matrix=1.00D-06.
 Requested convergence on             energy=1.00D-06.
 No special actions if energy rises.
 Integral accuracy reduced to 1.0D-05 until final iterations.
 Initial convergence to 1.0D-05 achieved.  Increase integral accuracy.
 SCF Done:  E(RHF) =  -492.847944957     A.U. after   15 cycles
             Convg  =    0.3966D-08             -V/T =  2.0021

 **********************************************************************

            Population analysis using the SCF density.

 **********************************************************************

 Orbital symmetries:
       Occupied  (A) (A) (A) (A) (A) (A) (A) (A) (A) (A) (A) (A)
                 (A) (A) (A) (A) (A) (A) (A) (A) (A) (A) (A) (A)
                 (A) (A) (A) (A) (A) (A) (A) (A) (A) (A) (A) (A)
                 (A) (A) (A)
       Virtual   (A) (A) (A) (A) (A) (A) (A) (A) (A) (A) (A) (A)
                 (A) (A) (A) (A) (A) (A) (A) (A) (A) (A) (A) (A)
                 (A) (A) (A) (A) (A) (A) (A) (A) (A) (A) (A) (A)
                 (A) (A) (A) (A) (A) (A) (A) (A) (A) (A) (A) (A)
                 (A) (A) (A) (A) (A) (A) (A) (A) (A) (A) (A) (A)
                 (A) (A) (A) (A) (A) (A) (A) (A) (A) (A) (A) (A)
                 (A) (A) (A) (A) (A) (A) (A) (A) (A) (A) (A) (A)
                 (A) (A) (A) (A) (A) (A) (A) (A) (A) (A) (A) (A)
                 (A) (A) (A) (A) (A) (A) (A) (A) (A) (A) (A) (A)
                 (A) (A) (A) (A) (A) (A) (A) (A) (A) (A) (A) (A)
                 (A) (A) (A) (A) (A) (A) (A) (A) (A) (A) (A) (A)
                 (A) (A) (A)
 The electronic state is 1-A.
 Alpha  occ. eigenvalues --  -20.51318 -20.50972 -15.59250 -15.58861 -11.34346
 Alpha  occ. eigenvalues --  -11.34208 -11.28402 -11.25913 -11.24316 -11.23004
 Alpha  occ. eigenvalues --   -1.37486  -1.36205  -1.23553  -1.23337  -1.06504
 Alpha  occ. eigenvalues --   -0.98697  -0.95960  -0.88118  -0.80224  -0.78796
 Alpha  occ. eigenvalues --   -0.72567  -0.67322  -0.66097  -0.62943  -0.62448
 Alpha  occ. eigenvalues --   -0.61129  -0.59838  -0.58235  -0.56564  -0.55764
 Alpha  occ. eigenvalues --   -0.54999  -0.54045  -0.53963  -0.50453  -0.49643
 Alpha  occ. eigenvalues --   -0.41363  -0.40612  -0.38663  -0.38532
 Alpha virt. eigenvalues --    0.19479   0.20630   0.21145   0.22365   0.26400
 Alpha virt. eigenvalues --    0.27106   0.29290   0.30027   0.30818   0.31147
 Alpha virt. eigenvalues --    0.31991   0.32494   0.32913   0.34166   0.36813
 Alpha virt. eigenvalues --    0.39173   0.39930   0.42137   0.48472   0.50551
 Alpha virt. eigenvalues --    0.55500   0.57029   0.61353   0.70759   0.71508
 Alpha virt. eigenvalues --    0.74124   0.75219   0.76029   0.76404   0.77610
 Alpha virt. eigenvalues --    0.80847   0.81416   0.83573   0.86189   0.89716
 Alpha virt. eigenvalues --    0.94752   0.95848   0.96471   0.97101   1.00287
 Alpha virt. eigenvalues --    1.01191   1.02393   1.03927   1.07130   1.08680
 Alpha virt. eigenvalues --    1.10539   1.12447   1.13418   1.14903   1.15003
 Alpha virt. eigenvalues --    1.15519   1.17154   1.17922   1.18823   1.20048
 Alpha virt. eigenvalues --    1.21578   1.22161   1.22274   1.23495   1.23995
 Alpha virt. eigenvalues --    1.31455   1.33682   1.35690   1.38595   1.39414
 Alpha virt. eigenvalues --    1.46570   1.49756   1.58768   1.60078   1.62714
 Alpha virt. eigenvalues --    1.64246   1.65130   1.67302   1.74226   1.76547
 Alpha virt. eigenvalues --    1.80529   1.82263   1.91310   1.92798   1.98398
 Alpha virt. eigenvalues --    2.01011   2.04126   2.08244   2.10807   2.13163
 Alpha virt. eigenvalues --    2.14553   2.14985   2.17504   2.18670   2.21393
 Alpha virt. eigenvalues --    2.25032   2.28579   2.29965   2.31376   2.33240
 Alpha virt. eigenvalues --    2.38676   2.40236   2.41617   2.44802   2.46592
 Alpha virt. eigenvalues --    2.53539   2.54222   2.57613   2.61290   2.63068
 Alpha virt. eigenvalues --    2.63955   2.67028   2.68177   2.73133   2.73788
 Alpha virt. eigenvalues --    2.78380   2.82385   2.90797   2.94869   2.99485
 Alpha virt. eigenvalues --    3.01627   3.03309   3.09162   3.13953   3.26646
 Alpha virt. eigenvalues --    3.29995   3.36268   3.40470   3.53934   3.57462
 Alpha virt. eigenvalues --    4.35847   4.47321   4.47948   4.56133   4.64621
 Alpha virt. eigenvalues --    4.66810   4.70907   4.81113   4.93064   5.05345
          Condensed to atoms (all electrons):
              1          2          3          4          5          6
     1  H    0.456249   0.385526  -0.017915  -0.019140  -0.029939   0.003660
     2  C    0.385526   5.262239   0.375249   0.370987   0.374995  -0.070887
     3  H   -0.017915   0.375249   0.502057  -0.024218  -0.034346   0.001136
     4  H   -0.019140   0.370987  -0.024218   0.525114  -0.034109   0.001414
     5  C   -0.029939   0.374995  -0.034346  -0.034109   4.160271   0.602564
     6  O    0.003660  -0.070887   0.001136   0.001414   0.602564   8.188530
     7  N    0.003755  -0.120990   0.003457   0.003447   0.243953  -0.104808
     8  H   -0.000015  -0.000910   0.000506   0.000614  -0.017236   0.002302
     9  C   -0.000077   0.004833  -0.000227  -0.000284  -0.029486   0.004972
    10  H   -0.000001   0.000315  -0.000009  -0.000029  -0.000638   0.009053
    11  C    0.000001  -0.000034  -0.000006   0.000004   0.003243   0.000469
    12  H    0.000000  -0.000012   0.000000   0.000001  -0.000148  -0.000008
    13  H    0.000000   0.000002   0.000000   0.000000  -0.000020   0.000001
    14  H    0.000000  -0.000012   0.000000   0.000001  -0.000110  -0.000001
    15  C    0.000001  -0.000180   0.000017   0.000009   0.001312   0.001119
    16  O    0.000000  -0.000055   0.000072   0.000000   0.004337  -0.000334
    17  N    0.000000  -0.000002   0.000000   0.000000   0.000128  -0.000094
    18  H    0.000000   0.000000   0.000000   0.000000  -0.000022  -0.000009
    19  C    0.000000   0.000000   0.000000   0.000000  -0.000002   0.000001
    20  H    0.000000   0.000000   0.000000   0.000000  -0.000002   0.000000
    21  H    0.000000   0.000000   0.000000   0.000000   0.000000   0.000000
    22  H    0.000000   0.000000   0.000000   0.000000   0.000000   0.000000
              7          8          9         10         11         12
     1  H    0.003755  -0.000015  -0.000077  -0.000001   0.000001   0.000000
     2  C   -0.120990  -0.000910   0.004833   0.000315  -0.000034  -0.000012
     3  H    0.003457   0.000506  -0.000227  -0.000009  -0.000006   0.000000
     4  H    0.003447   0.000614  -0.000284  -0.000029   0.000004   0.000001
     5  C    0.243953  -0.017236  -0.029486  -0.000638   0.003243  -0.000148
     6  O   -0.104808   0.002302   0.004972   0.009053   0.000469  -0.000008
     7  N    7.346501   0.325367   0.228195  -0.035714  -0.058478  -0.002446
     8  H    0.325367   0.319911  -0.026407   0.002444  -0.002740   0.002779
     9  C    0.228195  -0.026407   5.090139   0.404191   0.332013  -0.037713
    10  H   -0.035714   0.002444   0.404191   0.463237  -0.032778   0.003980
    11  C   -0.058478  -0.002740   0.332013  -0.032778   5.153069   0.387629
    12  H   -0.002446   0.002779  -0.037713   0.003980   0.387629   0.516477
    13  H    0.004177   0.000013  -0.040322  -0.002040   0.391461  -0.022584
    14  H    0.000308   0.000275  -0.037813  -0.004290   0.389713  -0.025296
    15  C   -0.072498   0.001251   0.352204  -0.047822  -0.064798  -0.004958
    16  O   -0.000781   0.000730  -0.078645   0.001363  -0.000809   0.001497
    17  N    0.002534  -0.000007  -0.116847   0.005301   0.001112   0.000578
    18  H    0.000044  -0.000002   0.001611   0.001267   0.000340   0.000006
    19  C   -0.000096   0.000002   0.003812  -0.000223  -0.000251  -0.000011
    20  H   -0.000009   0.000000   0.000608  -0.000021  -0.000036  -0.000004
    21  H    0.000002   0.000000  -0.000080  -0.000001  -0.000004   0.000000
    22  H    0.000001   0.000000  -0.000039   0.000001   0.000032   0.000000
             13         14         15         16         17         18
     1  H    0.000000   0.000000   0.000001   0.000000   0.000000   0.000000
     2  C    0.000002  -0.000012  -0.000180  -0.000055  -0.000002   0.000000
     3  H    0.000000   0.000000   0.000017   0.000072   0.000000   0.000000
     4  H    0.000000   0.000001   0.000009   0.000000   0.000000   0.000000
     5  C   -0.000020  -0.000110   0.001312   0.004337   0.000128  -0.000022
     6  O    0.000001  -0.000001   0.001119  -0.000334  -0.000094  -0.000009
     7  N    0.004177   0.000308  -0.072498  -0.000781   0.002534   0.000044
     8  H    0.000013   0.000275   0.001251   0.000730  -0.000007  -0.000002
     9  C   -0.040322  -0.037813   0.352204  -0.078645  -0.116847   0.001611
    10  H   -0.002040  -0.004290  -0.047822   0.001363   0.005301   0.001267
    11  C    0.391461   0.389713  -0.064798  -0.000809   0.001112   0.000340
    12  H   -0.022584  -0.025296  -0.004958   0.001497   0.000578   0.000006
    13  H    0.517347  -0.020680  -0.002360   0.000005   0.002319   0.000969
    14  H   -0.020680   0.504782   0.005334  -0.000079  -0.000058  -0.000059
    15  C   -0.002360   0.005334   4.210572   0.607460   0.265455  -0.022271
    16  O    0.000005  -0.000079   0.607460   8.201664  -0.099655   0.002423
    17  N    0.002319  -0.000058   0.265455  -0.099655   7.344661   0.325083
    18  H    0.000969  -0.000059  -0.022271   0.002423   0.325083   0.328327
    19  C   -0.000007   0.000005  -0.025840  -0.005329   0.188516  -0.022549
    20  H   -0.000002   0.000000  -0.001992   0.010947  -0.031626   0.002333
    21  H    0.000004   0.000000   0.000651   0.000374  -0.047201  -0.001218
    22  H   -0.000020  -0.000001   0.001274   0.000387  -0.048910  -0.000891
             19         20         21         22
     1  H    0.000000   0.000000   0.000000   0.000000
     2  C    0.000000   0.000000   0.000000   0.000000
     3  H    0.000000   0.000000   0.000000   0.000000
     4  H    0.000000   0.000000   0.000000   0.000000
     5  C   -0.000002  -0.000002   0.000000   0.000000
     6  O    0.000001   0.000000   0.000000   0.000000
     7  N   -0.000096  -0.000009   0.000002   0.000001
     8  H    0.000002   0.000000   0.000000   0.000000
     9  C    0.003812   0.000608  -0.000080  -0.000039
    10  H   -0.000223  -0.000021  -0.000001   0.000001
    11  C   -0.000251  -0.000036  -0.000004   0.000032
    12  H   -0.000011  -0.000004   0.000000   0.000000
    13  H   -0.000007  -0.000002   0.000004  -0.000020
    14  H    0.000005   0.000000   0.000000  -0.000001
    15  C   -0.025840  -0.001992   0.000651   0.001274
    16  O   -0.005329   0.010947   0.000374   0.000387
    17  N    0.188516  -0.031626  -0.047201  -0.048910
    18  H   -0.022549   0.002333  -0.001218  -0.000891
    19  C    4.950037   0.396320   0.403354   0.401715
    20  H    0.396320   0.429715  -0.021781  -0.022922
    21  H    0.403354  -0.021781   0.528445  -0.036992
    22  H    0.401715  -0.022922  -0.036992   0.540840
 Mulliken atomic charges:
              1
     1  H    0.217897
     2  C   -0.581067
     3  H    0.194225
     4  H    0.176189
     5  C    0.755255
     6  O   -0.639080
     7  N   -0.765921
     8  H    0.391121
     9  C   -0.054637
    10  H    0.232416
    11  C   -0.499156
    12  H    0.180233
    13  H    0.171739
    14  H    0.187981
    15  C    0.796059
    16  O   -0.645573
    17  N   -0.791288
    18  H    0.384617
    19  C   -0.289453
    20  H    0.238472
    21  H    0.174446
    22  H    0.165526
 Sum of Mulliken atomic charges =   0.00000
 Mulliken charges with hydrogens summed into heavy atoms:
              1
     2  C    0.007244
     5  C    0.755255
     6  O   -0.639080
     7  N   -0.374801
     9  C    0.177778
    11  C    0.040797
    15  C    0.796059
    16  O   -0.645573
    17  N   -0.406671
    19  C    0.288991
 Sum of Mulliken charges with hydrogens summed into heavy atoms =   0.00000
 Electronic spatial extent (au):  <R**2>=           1827.7146
 Charge=              0.0000 electrons
 Dipole moment (field-independent basis, Debye):
    X=             -1.5123    Y=              4.2508    Z=             -0.1150  Tot=              4.5132
 Quadrupole moment (field-independent basis, Debye-Ang):
   XX=            -48.6074   YY=            -60.7679   ZZ=            -64.8001
   XY=              2.6851   XZ=            -11.2403   YZ=              1.0330
 Traceless Quadrupole moment (field-independent basis, Debye-Ang):
   XX=              9.4511   YY=             -2.7094   ZZ=             -6.7417
   XY=              2.6851   XZ=            -11.2403   YZ=              1.0330
 Octapole moment (field-independent basis, Debye-Ang**2):
  XXX=             -9.1960  YYY=             -1.1590  ZZZ=              0.2359  XYY=             -3.2176
  XXY=             -3.7769  XXZ=             -5.4579  XZZ=             -6.7282  YZZ=              9.6502
  YYZ=             -2.5998  XYZ=              3.7052
 Hexadecapole moment (field-independent basis, Debye-Ang**3):
 XXXX=          -1538.7503 YYYY=           -474.8394 ZZZZ=           -232.5726 XXXY=             13.5820
 XXXZ=            -25.7143 YYYX=              9.9505 YYYZ=              1.5011 ZZZX=            -21.9621
 ZZZY=              0.9723 XXYY=           -345.2740 XXZZ=           -323.2541 YYZZ=           -117.6784
 XXYZ=             12.7905 YYXZ=             -8.5050 ZZXY=              5.8175
 N-N= 5.571565008761D+02 E-N=-2.269731095265D+03  KE= 4.918152362228D+02
 Calling FoFJK, ICntrl=      2127 FMM=F ISym2X=0 I1Cent= 0 IOpClX= 0 NMat=1 NMatS=1 NMatT=0.
 ***** Axes restored to original set *****
 -------------------------------------------------------------------
 Center     Atomic                   Forces (Hartrees/Bohr)
 Number     Number              X              Y              Z
 -------------------------------------------------------------------
      1        1           0.006837776    0.003274206   -0.005885139
      2        6           0.007991927    0.003847103   -0.004743673
      3        1           0.000008254   -0.004788305    0.000736465
      4        1          -0.004424740    0.002373591    0.000467027
      5        6          -0.004651038    0.002126433    0.059655689
      6        8          -0.011396663   -0.006583603   -0.040605394
      7        7           0.013854830   -0.005938580   -0.020440677
      8        1           0.004499581    0.006531994    0.014274359
      9        6           0.003094950    0.000121706    0.001908071
     10        1          -0.008248832   -0.000341467   -0.002971174
     11        6          -0.000978212   -0.006093364   -0.000993943
     12        1           0.005165897   -0.001409557    0.000347137
     13        1          -0.004054475   -0.004580098   -0.004505215
     14        1           0.001256718    0.004598953   -0.002604264
     15        6          -0.056355708    0.016561956   -0.002726166
     16        8           0.039049166   -0.017041151    0.006212114
     17        7           0.015148608   -0.000519030    0.001819294
     18        1          -0.014133195    0.006807400   -0.001550728
     19        6           0.002785059    0.003798393    0.000537925
     20        1           0.008734076   -0.005552411    0.002337117
     21        1          -0.001104818    0.001197320   -0.004815651
     22        1          -0.003079162    0.001608511    0.003546826
 -------------------------------------------------------------------
 Cartesian Forces:  Max     0.059655689 RMS     0.013917949

 GradGradGradGradGradGradGradGradGradGradGradGradGradGradGradGradGradGrad
 Berny optimization.
 Internal  Forces:  Max     0.042878452 RMS     0.007766335
 Search for a local minimum.
 Step number   1 out of a maximum of  108
 All quantities printed in internal units (Hartrees-Bohrs-Radians)
 Mixed Optimization -- RFO/linear search
 Second derivative matrix not updated -- first step.
     Eigenvalues ---    0.00369   0.00435   0.00999   0.01043   0.01269
     Eigenvalues ---    0.01422   0.01660   0.02551   0.02551   0.03503
     Eigenvalues ---    0.05232   0.05841   0.05844   0.05844   0.07165
     Eigenvalues ---    0.07463   0.07685   0.07685   0.15421   0.16000
     Eigenvalues ---    0.16000   0.16000   0.16000   0.16000   0.16000
     Eigenvalues ---    0.16000   0.16000   0.16000   0.16000   0.16000
     Eigenvalues ---    0.16180   0.22000   0.22000   0.25000   0.25000
     Eigenvalues ---    0.25000   0.25000   0.29420   0.29887   0.30174
     Eigenvalues ---    0.34805   0.34810   0.34811   0.34812   0.34812
     Eigenvalues ---    0.34814   0.34816   0.34818   0.34819   0.34821
     Eigenvalues ---    0.38374   0.38379   0.45963   0.45986   0.58334
     Eigenvalues ---    0.58334   0.91506   0.915241000.000001000.00000
     Eigenvalues --- 1000.000001000.000001000.000001000.000001000.00000
     Eigenvalues --- 1000.000001000.000001000.000001000.000001000.00000
     Eigenvalues --- 1000.000001000.000001000.000001000.000001000.00000
     Eigenvalues --- 1000.000001000.000001000.000001000.000001000.00000
     Eigenvalues --- 1000.000001000.000001000.000001000.000001000.00000
     Eigenvalues --- 1000.000001000.000001000.000001000.000001000.00000
     Eigenvalues --- 1000.000001000.000001000.000001000.000001000.00000
     Eigenvalues --- 1000.000001000.000001000.00000
 RFO step:  Lambda=-1.33561253D-02 EMin= 3.68681829D-03
 Linear search not attempted -- first point.
 Maximum step size (   0.300) exceeded in Quadratic search.
    -- Step size scaled by   0.931
 Iteration  1 RMS(Cart)=  0.04722061 RMS(Int)=  0.00125484
 Iteration  2 RMS(Cart)=  0.00176352 RMS(Int)=  0.00036367
 Iteration  3 RMS(Cart)=  0.00000209 RMS(Int)=  0.00036367
 Iteration  4 RMS(Cart)=  0.00000000 RMS(Int)=  0.00036367
 Iteration  1 RMS(Cart)=  0.00002275 RMS(Int)=  0.00000672
 Iteration  2 RMS(Cart)=  0.00001239 RMS(Int)=  0.00000747
 Iteration  3 RMS(Cart)=  0.00000686 RMS(Int)=  0.00000848
 Iteration  4 RMS(Cart)=  0.00000389 RMS(Int)=  0.00000923
 Iteration  5 RMS(Cart)=  0.00000227 RMS(Int)=  0.00000972
 Iteration  6 RMS(Cart)=  0.00000136 RMS(Int)=  0.00001004
 Iteration  7 RMS(Cart)=  0.00000084 RMS(Int)=  0.00001025
 Variable       Old X    -DE/DX   Delta X   Delta X   Delta X     New X
                                 (Linear)    (Quad)   (Total)
    R1        2.05992  -0.00864   0.00000  -0.02226  -0.02226   2.03766
    R2        2.05970  -0.00330   0.00000  -0.00849  -0.00849   2.05120
    R3        2.05978  -0.00278   0.00000  -0.00717  -0.00717   2.05261
    R4        2.89134  -0.01050   0.00000  -0.03179  -0.03179   2.85955
    R5        2.32239  -0.04233   0.00000  -0.04245  -0.04245   2.27994
    R6        2.52284   0.01078   0.00000   0.01682   0.01682   2.53966
    R7        1.90873  -0.01586   0.00000  -0.03122  -0.03122   1.87751
    R8        2.73817  -0.01177   0.00000  -0.02759  -0.02759   2.71058
    R9        2.05975  -0.00653   0.00000  -0.01681  -0.01681   2.04293
   R10        2.88188   0.00893   0.00000   0.02664   0.02664   2.90852
   R11        2.87618   0.00766   0.00000   0.02263   0.02263   2.89881
   R12        2.05972  -0.00322   0.00000  -0.00831  -0.00831   2.05141
   R13        2.05984  -0.00581   0.00000  -0.01496  -0.01496   2.04489
   R14        2.05966  -0.00436   0.00000  -0.01124  -0.01124   2.04842
   R15        2.32246  -0.04288   0.00000  -0.04300  -0.04300   2.27946
   R16        2.52283   0.01113   0.00000   0.01736   0.01736   2.54020
   R17        1.90848  -0.01563   0.00000  -0.03075  -0.03075   1.87773
   R18        2.73825   0.00107   0.00000   0.00250   0.00250   2.74075
   R19        2.05981  -0.01038   0.00000  -0.02674  -0.02674   2.03307
   R20        2.05982  -0.00432   0.00000  -0.01112  -0.01112   2.04870
   R21        2.05984  -0.00382   0.00000  -0.00984  -0.00984   2.05000
    A1        1.91115   0.00074   0.00000   0.00122   0.00146   1.91261
    A2        1.91113   0.00036   0.00000   0.00032   0.00067   1.91180
    A3        1.93898  -0.00805   0.00000  -0.04541  -0.04510   1.89388
    A4        1.91015  -0.00432   0.00000  -0.01864  -0.01928   1.89087
    A5        1.89610   0.00506   0.00000   0.02793   0.02772   1.92382
    A6        1.89607   0.00626   0.00000   0.03497   0.03481   1.93088
    A7        2.10315   0.00940   0.00000   0.03322   0.03319   2.13634
    A8        2.03501  -0.00625   0.00000  -0.02208  -0.02211   2.01290
    A9        2.14503  -0.00315   0.00000  -0.01114  -0.01117   2.13386
   A10        2.09440  -0.00066   0.00000  -0.00345  -0.00384   2.09056
   A11        2.12756   0.00017   0.00000   0.00069   0.00029   2.12785
   A12        2.06123   0.00049   0.00000   0.00277   0.00237   2.06360
   A13        1.91114  -0.00201   0.00000  -0.03786  -0.03775   1.87339
   A14        1.93905  -0.00364   0.00000  -0.02498  -0.02478   1.91427
   A15        1.93900  -0.00201   0.00000  -0.01043  -0.01008   1.92893
   A16        1.89609   0.00172   0.00000   0.02264   0.02148   1.91757
   A17        1.89608  -0.00095   0.00000   0.01298   0.01179   1.90787
   A18        1.88137   0.00713   0.00000   0.04031   0.03987   1.92124
   A19        1.91115   0.00429   0.00000   0.02303   0.02276   1.93391
   A20        1.91106   0.00546   0.00000   0.02877   0.02849   1.93956
   A21        1.91110   0.00286   0.00000   0.01590   0.01567   1.92676
   A22        1.91011  -0.00505   0.00000  -0.02822  -0.02852   1.88158
   A23        1.91023  -0.00340   0.00000  -0.01714  -0.01734   1.89289
   A24        1.91015  -0.00417   0.00000  -0.02241  -0.02265   1.88751
   A25        2.10312   0.00450   0.00000   0.01593   0.01453   2.11765
   A26        2.03503  -0.00581   0.00000  -0.02054  -0.02191   2.01311
   A27        2.14504   0.00131   0.00000   0.00462   0.00327   2.14831
   A28        2.09446  -0.00423   0.00000  -0.01769  -0.01775   2.07671
   A29        2.12749   0.00728   0.00000   0.02903   0.02897   2.15646
   A30        2.06124  -0.00305   0.00000  -0.01134  -0.01139   2.04984
   A31        1.91122  -0.00488   0.00000  -0.02887  -0.02872   1.88250
   A32        1.91113   0.00385   0.00000   0.02162   0.02144   1.93257
   A33        1.91111   0.00479   0.00000   0.02746   0.02731   1.93842
   A34        1.91008  -0.00035   0.00000  -0.00528  -0.00516   1.90492
   A35        1.91014  -0.00043   0.00000  -0.00419  -0.00401   1.90613
   A36        1.91011  -0.00299   0.00000  -0.01076  -0.01121   1.89890
    D1        0.00005   0.00023   0.00000   0.00469   0.00472   0.00477
    D2       -3.14159  -0.00014   0.00000  -0.00857  -0.00869   3.13291
    D3        2.10338  -0.00057   0.00000  -0.00383  -0.00412   2.09926
    D4       -1.03826  -0.00094   0.00000  -0.01710  -0.01753  -1.05579
    D5       -2.10323   0.00072   0.00000   0.00979   0.01026  -2.09297
    D6        1.03832   0.00035   0.00000  -0.00347  -0.00315   1.03517
    D7       -0.00010   0.00096   0.00000   0.02311   0.02295   0.02285
    D8       -3.14153  -0.00145   0.00000  -0.03020  -0.03025   3.11141
    D9        3.14145   0.00058   0.00000   0.00951   0.00956  -3.13217
   D10        0.00002  -0.00183   0.00000  -0.04381  -0.04364  -0.04361
   D11        0.52355  -0.00003   0.00000  -0.01504  -0.01520   0.50834
   D12        2.61799  -0.00150   0.00000  -0.02726  -0.02701   2.59098
   D13       -1.57085   0.00373   0.00000   0.00000   0.00000  -1.57084
   D14       -2.61789  -0.00240   0.00000  -0.06738  -0.06760  -2.68549
   D15       -0.52345  -0.00387   0.00000  -0.07960  -0.07941  -0.60286
   D16        1.57091   0.00136   0.00000  -0.05234  -0.05240   1.51851
   D17        1.04724   0.00148   0.00000   0.02464   0.02463   1.07187
   D18        3.14157   0.00126   0.00000   0.02183   0.02187  -3.11975
   D19       -1.04726   0.00126   0.00000   0.02177   0.02179  -1.02547
   D20       -3.13259  -0.00216   0.00000  -0.02304  -0.02343   3.12717
   D21       -1.03826  -0.00237   0.00000  -0.02584  -0.02619  -1.06446
   D22        1.05609  -0.00238   0.00000  -0.02591  -0.02627   1.02982
   D23       -1.08102   0.00155   0.00000   0.02661   0.02693  -1.05409
   D24        1.01331   0.00133   0.00000   0.02380   0.02416   1.03747
   D25        3.10766   0.00132   0.00000   0.02373   0.02409   3.13175
   D26       -0.26182  -0.00348   0.00000  -0.09429  -0.09445  -0.35627
   D27        2.87976  -0.00177   0.00000   0.00000   0.00000   2.87976
   D28       -2.36514   0.00086   0.00000  -0.04937  -0.04931  -2.41445
   D29        0.77644   0.00257   0.00000   0.04492   0.04514   0.82158
   D30        1.86647  -0.00456   0.00000  -0.10526  -0.10550   1.76096
   D31       -1.27514  -0.00286   0.00000  -0.01097  -0.01105  -1.28619
   D32        0.00006  -0.00202   0.00000  -0.07813  -0.07787  -0.07781
   D33        3.14157  -0.00136   0.00000  -0.05756  -0.05736   3.08421
   D34       -3.14154  -0.00027   0.00000   0.01863   0.01842  -3.12312
   D35       -0.00004   0.00040   0.00000   0.03920   0.03894   0.03890
   D36        0.00005  -0.00016   0.00000  -0.00804  -0.00808  -0.00803
   D37        2.09443  -0.00121   0.00000  -0.01896  -0.01920   2.07523
   D38       -2.09440   0.00043   0.00000  -0.00204  -0.00180  -2.09619
   D39        3.14155   0.00049   0.00000   0.01215   0.01214  -3.12949
   D40       -1.04725  -0.00056   0.00000   0.00123   0.00102  -1.04623
   D41        1.04711   0.00108   0.00000   0.01815   0.01842   1.06553
         Item               Value     Threshold  Converged?
 Maximum Force            0.042878     0.000450     NO 
 RMS     Force            0.007822     0.000300     NO 
 Maximum Displacement     0.146062     0.001800     NO 
 RMS     Displacement     0.047028     0.001200     NO 
 Predicted change in Energy=-7.263226D-03
 GradGradGradGradGradGradGradGradGradGradGradGradGradGradGradGradGradGrad

                          Input orientation:                          
 ---------------------------------------------------------------------
 Center     Atomic      Atomic             Coordinates (Angstroms)
 Number     Number       Type             X           Y           Z
 ---------------------------------------------------------------------
      1          1           0        1.190921    2.753841    1.954595
      2          6           0        1.586776    2.983794    0.978320
      3          1           0        0.911509    3.658475    0.461578
      4          1           0        1.669784    2.070824    0.395725
      5          6           0        2.943403    3.631688    1.150377
      6          8           0        3.436544    3.821068    2.235074
      7          7           0        3.569125    3.967433    0.009372
      8          1           0        3.125221    3.802024   -0.863959
      9          6           0        4.845161    4.622546    0.008708
     10          1           0        5.366170    4.313992    0.904290
     11          6           0        5.645652    4.196932   -1.235063
     12          1           0        5.128362    4.486871   -2.144343
     13          1           0        6.622866    4.661524   -1.247788
     14          1           0        5.782850    3.121732   -1.246303
     15          6           0        4.667396    6.146112    0.024638
     16          8           0        3.633604    6.660671   -0.323957
     17          7           0        5.767987    6.850536    0.339915
     18          1           0        6.592378    6.362968    0.604493
     19          6           0        5.819192    8.299975    0.340740
     20          1           0        4.851071    8.664491    0.045222
     21          1           0        6.053379    8.675085    1.330576
     22          1           0        6.565947    8.664116   -0.356811
 ---------------------------------------------------------------------
                    Distance matrix (angstroms):
                    1          2          3          4          5
     1  H    0.000000
     2  C    1.078283   0.000000
     3  H    1.767919   1.085450   0.000000
     4  H    1.768021   1.086196   1.760668   0.000000
     5  C    2.118626   1.513211   2.145636   2.151256   0.000000
     6  O    2.502092   2.387907   3.089907   3.093219   1.206491
     7  N    3.303416   2.415805   2.713461   2.711806   1.343930
     8  H    3.575535   2.535804   2.584216   2.588851   2.029685
     9  C    4.542246   3.773953   4.075308   4.091954   2.429381
    10  H    4.579292   4.007333   4.524345   4.353585   2.529011
    11  C    5.665780   4.779670   5.057730   4.794511   3.648558
    12  H    5.942064   4.955108   5.025824   4.924529   4.044820
    13  H    6.587909   5.756087   6.045464   5.826310   4.511121
    14  H    5.609537   4.751317   5.189886   4.551700   3.750546
    15  C    5.226673   4.516634   4.526139   5.072608   3.249887
    16  O    5.140215   4.405093   4.127958   5.043929   3.438717
    17  N    6.351349   5.730774   5.812867   6.296350   4.358452
    18  H    6.635082   6.051001   6.293407   6.534372   4.590523
    19  C    7.401691   6.825074   6.755995   7.484847   5.542434
    20  H    7.209590   6.617900   6.383861   7.329384   5.494512
    21  H    7.687264   7.243302   7.236046   7.981611   5.927924
    22  H    8.316540   7.670773   7.595976   8.246830   6.381204
                    6          7          8          9         10
     6  O    0.000000
     7  N    2.234447   0.000000
     8  H    3.114689   0.993538   0.000000
     9  C    2.753774   1.434378   2.095948   0.000000
    10  H    2.395290   2.037241   2.900115   1.081075   0.000000
    11  C    4.130773   2.431718   2.578031   1.539123   2.160705
    12  H    4.741818   2.709155   2.474060   2.175831   3.062777
    13  H    4.794721   3.374544   3.622097   2.177278   2.516248
    14  H    4.256079   2.681885   2.769833   2.169506   2.494024
    15  C    3.436110   2.439892   2.943239   1.533984   2.149125
    16  O    3.827638   2.714552   2.953289   2.394262   3.165008
    17  N    4.266723   3.640952   4.210338   2.434183   2.629455
    18  H    4.367990   3.902924   4.553676   2.537084   2.406610
    19  C    5.415360   4.893212   5.379624   3.818700   4.051035
    20  H    5.500462   4.868985   5.239156   4.042114   4.464321
    21  H    5.588150   5.484441   6.093999   4.430598   4.435438
    22  H    6.321877   5.583355   5.977937   4.407833   4.685447
                   11         12         13         14         15
    11  C    0.000000
    12  H    1.085561   0.000000
    13  H    1.082107   1.751530   0.000000
    14  H    1.083977   1.760237   1.754021   0.000000
    15  C    2.518558   2.769485   2.765309   3.465026   0.000000
    16  O    3.308846   3.205232   3.712916   4.241942   1.206239
    17  N    3.088225   3.488204   2.836088   4.052195   1.344215
    18  H    2.995324   3.635819   2.515310   3.819214   2.022082
    19  C    4.398663   4.603547   4.050635   5.416108   2.462861
    20  H    4.714824   4.724785   4.564524   5.767012   2.525152
    21  H    5.177123   5.520132   4.804264   6.128069   3.165775
    22  H    4.644781   4.765636   4.100953   5.667667   3.176529
                   16         17         18         19         20
    16  O    0.000000
    17  N    2.243293   0.000000
    18  H    3.115283   0.993652   0.000000
    19  C    2.811750   1.450344   2.102232   0.000000
    20  H    2.373566   2.053780   2.939718   1.075854   0.000000
    21  H    3.556777   2.095672   2.482660   1.084125   1.760055
    22  H    3.551550   2.100295   2.494009   1.084813   1.761372
                   21         22
    21  H    0.000000
    22  H    1.763554   0.000000
 Stoichiometry    C6H12N2O2
 Framework group  C1[X(C6H12N2O2)]
 Deg. of freedom    60
 Full point group                 C1      NOp   1
 Largest Abelian subgroup         C1      NOp   1
 Largest concise Abelian subgroup C1      NOp   1
                         Standard orientation:                         
 ---------------------------------------------------------------------
 Center     Atomic      Atomic             Coordinates (Angstroms)
 Number     Number       Type             X           Y           Z
 ---------------------------------------------------------------------
      1          1           0       -3.974200   -1.288960   -0.019706
      2          6           0       -3.368138   -0.577089    0.517529
      3          1           0       -3.146684   -0.961994    1.507988
      4          1           0       -3.914435    0.355272    0.627463
      5          6           0       -2.086757   -0.356180   -0.256466
      6          8           0       -1.856352   -0.917546   -1.299252
      7          7           0       -1.228831    0.521943    0.290352
      8          1           0       -1.452415    0.957139    1.155067
      9          6           0        0.043678    0.810327   -0.305464
     10          1           0       -0.059386    0.664567   -1.371697
     11          6           0        0.434373    2.269902   -0.012379
     12          1           0        0.527865    2.436898    1.056179
     13          1           0        1.382427    2.519435   -0.470507
     14          1           0       -0.317148    2.947477   -0.401113
     15          6           0        1.118541   -0.141280    0.235112
     16          8           0        0.968286   -0.730242    1.277015
     17          7           0        2.262781   -0.176556   -0.469433
     18          1           0        2.325182    0.344961   -1.312920
     19          6           0        3.419913   -0.959671   -0.080493
     20          1           0        3.181942   -1.465932    0.838492
     21          1           0        3.658334   -1.695358   -0.840260
     22          1           0        4.285733   -0.324959    0.075435
 ---------------------------------------------------------------------
 Rotational constants (GHZ):      2.3321291      0.7473878      0.6776208
 Standard basis: 6-31G(d) (6D, 7F)
 There are   174 symmetry adapted basis functions of A   symmetry.
 Integral buffers will be    131072 words long.
 Raffenetti 1 integral format.
 Two-electron integral symmetry is turned on.
   174 basis functions,   328 primitive gaussians,   174 cartesian basis functions
    39 alpha electrons       39 beta electrons
       nuclear repulsion energy       557.9575002694 Hartrees.
 NAtoms=   22 NActive=   22 NUniq=   22 SFac= 7.50D-01 NAtFMM=   80 NAOKFM=F Big=F
 One-electron integrals computed using PRISM.
 NBasis=   174 RedAO= T  NBF=   174
 NBsUse=   174 1.00D-06 NBFU=   174
 Initial guess read from the read-write file.
 B after Tr=     0.000000    0.000000    0.000000
         Rot=    1.000000    0.000000    0.000000    0.000000 Ang=   0.00 deg.
 Initial guess orbital symmetries:
       Occupied  (A) (A) (A) (A) (A) (A) (A) (A) (A) (A) (A) (A)
                 (A) (A) (A) (A) (A) (A) (A) (A) (A) (A) (A) (A)
                 (A) (A) (A) (A) (A) (A) (A) (A) (A) (A) (A) (A)
                 (A) (A) (A)
       Virtual   (A) (A) (A) (A) (A) (A) (A) (A) (A) (A) (A) (A)
                 (A) (A) (A) (A) (A) (A) (A) (A) (A) (A) (A) (A)
                 (A) (A) (A) (A) (A) (A) (A) (A) (A) (A) (A) (A)
                 (A) (A) (A) (A) (A) (A) (A) (A) (A) (A) (A) (A)
                 (A) (A) (A) (A) (A) (A) (A) (A) (A) (A) (A) (A)
                 (A) (A) (A) (A) (A) (A) (A) (A) (A) (A) (A) (A)
                 (A) (A) (A) (A) (A) (A) (A) (A) (A) (A) (A) (A)
                 (A) (A) (A) (A) (A) (A) (A) (A) (A) (A) (A) (A)
                 (A) (A) (A) (A) (A) (A) (A) (A) (A) (A) (A) (A)
                 (A) (A) (A) (A) (A) (A) (A) (A) (A) (A) (A) (A)
                 (A) (A) (A) (A) (A) (A) (A) (A) (A) (A) (A) (A)
                 (A) (A) (A)
 Harris functional with IExCor=  205 diagonalized for initial guess.
 ExpMin= 1.61D-01 ExpMax= 5.48D+03 ExpMxC= 8.25D+02 IAcc=1 IRadAn=         1 AccDes= 0.00D+00
 HarFok:  IExCor=  205 AccDes= 0.00D+00 IRadAn=         1 IDoV= 1
 ScaDFX=  1.000000  1.000000  1.000000  1.000000
 FoFCou: FMM=F IPFlag=           0 FMFlag=      100000 FMFlg1=           0
         NFxFlg=           0 DoJE=T BraDBF=F KetDBF=T FulRan=T
         Omega=  0.000000  0.000000  1.000000  0.000000  0.000000 ICntrl=     500 IOpCl=  0
         NMat0=    1 NMatS0=    1 NMatT0=    0 NMatD0=    1 NMtDS0=    0 NMtDT0=    0
         I1Cent=           4 NGrid=           0.
 Petite list used in FoFCou.
 Requested convergence on RMS density matrix=1.00D-08 within 128 cycles.
 Requested convergence on MAX density matrix=1.00D-06.
 Requested convergence on             energy=1.00D-06.
 No special actions if energy rises.
 Integral accuracy reduced to 1.0D-05 until final iterations.
 Initial convergence to 1.0D-05 achieved.  Increase integral accuracy.
 SCF Done:  E(RHF) =  -492.854457820     A.U. after   16 cycles
             Convg  =    0.4077D-08             -V/T =  2.0015
 Calling FoFJK, ICntrl=      2127 FMM=F ISym2X=0 I1Cent= 0 IOpClX= 0 NMat=1 NMatS=1 NMatT=0.
 ***** Axes restored to original set *****
 -------------------------------------------------------------------
 Center     Atomic                   Forces (Hartrees/Bohr)
 Number     Number              X              Y              Z
 -------------------------------------------------------------------
      1        1          -0.000957297   -0.000560370    0.000557110
      2        6           0.001179055    0.000823754   -0.000720334
      3        1          -0.000075783   -0.000475437    0.000113328
      4        1          -0.000370296    0.000455026    0.000138688
      5        6          -0.001700482   -0.000507300    0.014373293
      6        8          -0.003753072   -0.000707849   -0.006457057
      7        7           0.006512744   -0.005861497   -0.005427407
      8        1          -0.002390662    0.003558993    0.000492264
      9        6           0.002284132    0.000176957   -0.002991394
     10        1           0.000438027    0.000413478   -0.000336191
     11        6          -0.000831898    0.001316808    0.002473436
     12        1          -0.000205364    0.000542536    0.000117997
     13        1           0.000920505    0.000502535   -0.000555386
     14        1          -0.000747446    0.000100890    0.001038471
     15        6          -0.011399026    0.004527997   -0.013617837
     16        8           0.006704095   -0.004750436    0.005418370
     17        7           0.006715581    0.004043651    0.003296029
     18        1          -0.000597934   -0.001172628    0.001837759
     19        6          -0.000648246   -0.002886314    0.000686248
     20        1          -0.000876101    0.001162846   -0.000343051
     21        1          -0.000094720   -0.000020751    0.000064688
     22        1          -0.000105812   -0.000682889   -0.000159028
 -------------------------------------------------------------------
 Cartesian Forces:  Max     0.014373293 RMS     0.003782715

 GradGradGradGradGradGradGradGradGradGradGradGradGradGradGradGradGradGrad
 Berny optimization.
 Using GEDIIS/GDIIS optimizer.
 Internal  Forces:  Max     0.009682773 RMS     0.002000601
 Search for a local minimum.
 Step number   2 out of a maximum of  108
 All quantities printed in internal units (Hartrees-Bohrs-Radians)
 Mixed Optimization -- RFO/linear search
 Update second derivatives using D2CorX and points    1    2
 DE= -6.51D-03 DEPred=-7.26D-03 R= 8.97D-01
 SS=  1.41D+00  RLast= 3.00D-01 DXNew= 5.0454D-01 8.9981D-01
 Trust test= 8.97D-01 RLast= 3.00D-01 DXMaxT set to 5.05D-01
 Use linear search instead of GDIIS.
     Eigenvalues ---    0.00369   0.00435   0.01043   0.01119   0.01246
     Eigenvalues ---    0.01389   0.01652   0.02539   0.02556   0.03597
     Eigenvalues ---    0.05308   0.05589   0.05635   0.05995   0.07185
     Eigenvalues ---    0.07338   0.07466   0.07779   0.15522   0.15694
     Eigenvalues ---    0.15986   0.15998   0.16000   0.16000   0.16000
     Eigenvalues ---    0.16000   0.16000   0.16000   0.16000   0.16159
     Eigenvalues ---    0.17095   0.21894   0.22249   0.24286   0.24906
     Eigenvalues ---    0.25000   0.25332   0.29374   0.30067   0.30704
     Eigenvalues ---    0.34709   0.34807   0.34811   0.34811   0.34812
     Eigenvalues ---    0.34815   0.34817   0.34818   0.34821   0.35440
     Eigenvalues ---    0.38307   0.39512   0.45930   0.46220   0.56344
     Eigenvalues ---    0.58480   0.83058   0.915631000.000001000.00000
     Eigenvalues --- 1000.000001000.000001000.000001000.000001000.00000
     Eigenvalues --- 1000.000001000.000001000.000001000.000001000.00000
     Eigenvalues --- 1000.000001000.000001000.000001000.000001000.00000
     Eigenvalues --- 1000.000001000.000001000.000001000.000001000.00000
     Eigenvalues --- 1000.000001000.000001000.000001000.000001000.00000
     Eigenvalues --- 1000.000001000.000001000.000001000.000001000.00000
     Eigenvalues --- 1000.000001000.000001000.000001000.000001000.00000
     Eigenvalues --- 1000.000001000.000001000.00000
 RFO step:  Lambda=-2.14476256D-03 EMin= 3.68662394D-03
 Quartic linear search produced a step of  0.04255.
 Iteration  1 RMS(Cart)=  0.03400104 RMS(Int)=  0.00106865
 Iteration  2 RMS(Cart)=  0.00177670 RMS(Int)=  0.00041339
 Iteration  3 RMS(Cart)=  0.00000192 RMS(Int)=  0.00041338
 Iteration  4 RMS(Cart)=  0.00000000 RMS(Int)=  0.00041338
 Iteration  1 RMS(Cart)=  0.00001645 RMS(Int)=  0.00000889
 Iteration  2 RMS(Cart)=  0.00001067 RMS(Int)=  0.00000982
 Iteration  3 RMS(Cart)=  0.00000700 RMS(Int)=  0.00001129
 Iteration  4 RMS(Cart)=  0.00000464 RMS(Int)=  0.00001254
 Iteration  5 RMS(Cart)=  0.00000309 RMS(Int)=  0.00001345
 Iteration  6 RMS(Cart)=  0.00000207 RMS(Int)=  0.00001410
 Iteration  7 RMS(Cart)=  0.00000139 RMS(Int)=  0.00001455
 Iteration  8 RMS(Cart)=  0.00000093 RMS(Int)=  0.00001486
 Variable       Old X    -DE/DX   Delta X   Delta X   Delta X     New X
                                 (Linear)    (Quad)   (Total)
    R1        2.03766   0.00098  -0.00095  -0.00021  -0.00116   2.03650
    R2        2.05120  -0.00030  -0.00036  -0.00209  -0.00245   2.04876
    R3        2.05261  -0.00049  -0.00031  -0.00245  -0.00275   2.04986
    R4        2.85955   0.00009  -0.00135  -0.00412  -0.00548   2.85408
    R5        2.27994  -0.00745  -0.00181  -0.01448  -0.01628   2.26366
    R6        2.53966   0.00968   0.00072   0.01960   0.02032   2.55998
    R7        1.87751   0.00004  -0.00133  -0.00429  -0.00562   1.87189
    R8        2.71058   0.00288  -0.00117   0.00391   0.00274   2.71332
    R9        2.04293  -0.00019  -0.00072  -0.00290  -0.00362   2.03932
   R10        2.90852  -0.00362   0.00113  -0.00880  -0.00766   2.90086
   R11        2.89881   0.00023   0.00096   0.00393   0.00489   2.90370
   R12        2.05141   0.00014  -0.00035  -0.00073  -0.00109   2.05033
   R13        2.04489   0.00105  -0.00064   0.00104   0.00040   2.04529
   R14        2.04842  -0.00021  -0.00048  -0.00218  -0.00266   2.04576
   R15        2.27946  -0.00934  -0.00183  -0.01670  -0.01853   2.26093
   R16        2.54020   0.00509   0.00074   0.01151   0.01225   2.55245
   R17        1.87773   0.00057  -0.00131  -0.00304  -0.00435   1.87338
   R18        2.74075  -0.00249   0.00011  -0.00636  -0.00626   2.73450
   R19        2.03307   0.00128  -0.00114   0.00006  -0.00108   2.03199
   R20        2.04870   0.00003  -0.00047  -0.00146  -0.00193   2.04676
   R21        2.05000  -0.00020  -0.00042  -0.00197  -0.00239   2.04761
    A1        1.91261  -0.00053   0.00006  -0.00233  -0.00226   1.91035
    A2        1.91180  -0.00051   0.00003  -0.00256  -0.00252   1.90928
    A3        1.89388   0.00103  -0.00192   0.00122  -0.00069   1.89318
    A4        1.89087  -0.00046  -0.00082  -0.00704  -0.00790   1.88297
    A5        1.92382   0.00030   0.00118   0.00535   0.00651   1.93032
    A6        1.93088   0.00015   0.00148   0.00529   0.00675   1.93763
    A7        2.13634  -0.00013   0.00141   0.00417   0.00548   2.14183
    A8        2.01290  -0.00086  -0.00094  -0.00651  -0.00756   2.00534
    A9        2.13386   0.00099  -0.00048   0.00266   0.00208   2.13594
   A10        2.09056  -0.00144  -0.00016  -0.01016  -0.01228   2.07828
   A11        2.12785   0.00159   0.00001   0.00645   0.00448   2.13233
   A12        2.06360  -0.00026   0.00010  -0.00148  -0.00341   2.06019
   A13        1.87339  -0.00088  -0.00161   0.00624   0.00459   1.87798
   A14        1.91427   0.00190  -0.00105  -0.00367  -0.00469   1.90957
   A15        1.92893  -0.00003  -0.00043   0.00034  -0.00012   1.92880
   A16        1.91757  -0.00010   0.00091  -0.00174  -0.00086   1.91672
   A17        1.90787   0.00033   0.00050   0.00728   0.00774   1.91561
   A18        1.92124  -0.00121   0.00170  -0.00804  -0.00641   1.91483
   A19        1.93391  -0.00049   0.00097  -0.00078   0.00016   1.93407
   A20        1.93956   0.00106   0.00121   0.01162   0.01282   1.95238
   A21        1.92676  -0.00179   0.00067  -0.00969  -0.00902   1.91774
   A22        1.88158  -0.00023  -0.00121  -0.00483  -0.00607   1.87551
   A23        1.89289   0.00099  -0.00074   0.00205   0.00129   1.89417
   A24        1.88751   0.00054  -0.00096   0.00164   0.00069   1.88820
   A25        2.11765   0.00080   0.00062   0.00780   0.00724   2.12489
   A26        2.01311  -0.00343  -0.00093  -0.01479  -0.01689   1.99622
   A27        2.14831   0.00289   0.00014   0.01476   0.01373   2.16204
   A28        2.07671  -0.00068  -0.00076  -0.00768  -0.00871   2.06800
   A29        2.15646  -0.00066   0.00123   0.00076   0.00171   2.15817
   A30        2.04984   0.00133  -0.00048   0.00616   0.00539   2.05523
   A31        1.88250   0.00132  -0.00122   0.00526   0.00404   1.88654
   A32        1.93257  -0.00002   0.00091   0.00286   0.00376   1.93633
   A33        1.93842  -0.00120   0.00116  -0.00483  -0.00367   1.93475
   A34        1.90492  -0.00036  -0.00022  -0.00134  -0.00156   1.90336
   A35        1.90613  -0.00016  -0.00017  -0.00182  -0.00198   1.90415
   A36        1.89890   0.00043  -0.00048  -0.00014  -0.00064   1.89827
    D1        0.00477  -0.00027   0.00020  -0.02372  -0.02353  -0.01876
    D2        3.13291   0.00012  -0.00037   0.00263   0.00226   3.13518
    D3        2.09926  -0.00010  -0.00018  -0.02262  -0.02282   2.07644
    D4       -1.05579   0.00028  -0.00075   0.00373   0.00297  -1.05281
    D5       -2.09297  -0.00038   0.00044  -0.02455  -0.02410  -2.11707
    D6        1.03517   0.00000  -0.00013   0.00179   0.00169   1.03686
    D7        0.02285   0.00108   0.00098   0.04937   0.05010   0.07295
    D8        3.11141  -0.00119  -0.00129  -0.06773  -0.06875   3.04266
    D9       -3.13217   0.00146   0.00041   0.07569   0.07583  -3.05635
   D10       -0.04361  -0.00081  -0.00186  -0.04141  -0.04303  -0.08664
   D11        0.50834   0.00060  -0.00065   0.01275   0.01211   0.52045
   D12        2.59098   0.00103  -0.00115   0.01225   0.01113   2.60211
   D13       -1.57084   0.00075   0.00000   0.00000   0.00000  -1.57084
   D14       -2.68549  -0.00167  -0.00288  -0.10288  -0.10583  -2.79133
   D15       -0.60286  -0.00124  -0.00338  -0.10337  -0.10681  -0.70967
   D16        1.51851  -0.00152  -0.00223  -0.11562  -0.11794   1.40056
   D17        1.07187   0.00006   0.00105  -0.00067   0.00039   1.07227
   D18       -3.11975   0.00014   0.00093   0.00039   0.00135  -3.11840
   D19       -1.02547   0.00032   0.00093   0.00362   0.00456  -1.02091
   D20        3.12717   0.00006  -0.00100   0.00370   0.00268   3.12984
   D21       -1.06446   0.00014  -0.00111   0.00476   0.00363  -1.06082
   D22        1.02982   0.00032  -0.00112   0.00800   0.00684   1.03666
   D23       -1.05409  -0.00036   0.00115   0.00651   0.00766  -1.04643
   D24        1.03747  -0.00029   0.00103   0.00757   0.00862   1.04609
   D25        3.13175  -0.00010   0.00102   0.01081   0.01183  -3.13961
   D26       -0.35627  -0.00037  -0.00402   0.08968   0.08554  -0.27073
   D27        2.87976  -0.00344   0.00000   0.00000   0.00000   2.87976
   D28       -2.41445   0.00052  -0.00210   0.07741   0.07522  -2.33923
   D29        0.82158  -0.00255   0.00192  -0.01226  -0.01032   0.81126
   D30        1.76096   0.00120  -0.00449   0.07998   0.07541   1.83637
   D31       -1.28619  -0.00187  -0.00047  -0.00969  -0.01013  -1.29632
   D32       -0.07781   0.00050  -0.00331  -0.00233  -0.00539  -0.08320
   D33        3.08421   0.00126  -0.00244   0.04244   0.04004   3.12425
   D34       -3.12312  -0.00250   0.00078  -0.09331  -0.09257   3.06750
   D35        0.03890  -0.00174   0.00166  -0.04854  -0.04714  -0.00823
   D36       -0.00803  -0.00053  -0.00034  -0.02380  -0.02421  -0.03225
   D37        2.07523  -0.00017  -0.00082  -0.02052  -0.02141   2.05382
   D38       -2.09619  -0.00045  -0.00008  -0.02202  -0.02215  -2.11834
   D39       -3.12949   0.00024   0.00052   0.02048   0.02106  -3.10843
   D40       -1.04623   0.00060   0.00004   0.02376   0.02387  -1.02236
   D41        1.06553   0.00032   0.00078   0.02226   0.02313   1.08866
         Item               Value     Threshold  Converged?
 Maximum Force            0.009683     0.000450     NO 
 RMS     Force            0.001944     0.000300     NO 
 Maximum Displacement     0.115828     0.001800     NO 
 RMS     Displacement     0.033697     0.001200     NO 
 Predicted change in Energy=-1.181841D-03
 GradGradGradGradGradGradGradGradGradGradGradGradGradGradGradGradGradGrad

                          Input orientation:                          
 ---------------------------------------------------------------------
 Center     Atomic      Atomic             Coordinates (Angstroms)
 Number     Number       Type             X           Y           Z
 ---------------------------------------------------------------------
      1          1           0        1.179023    2.783228    1.947704
      2          6           0        1.584058    3.014418    0.976176
      3          1           0        0.933083    3.719769    0.472090
      4          1           0        1.622915    2.110527    0.377734
      5          6           0        2.963182    3.601964    1.160160
      6          8           0        3.454955    3.774188    2.238771
      7          7           0        3.599199    3.934852    0.011321
      8          1           0        3.119117    3.839162   -0.849830
      9          6           0        4.864492    4.613535    0.006922
     10          1           0        5.393569    4.323311    0.901592
     11          6           0        5.665983    4.190545   -1.232079
     12          1           0        5.142314    4.464430   -2.141998
     13          1           0        6.639382    4.662732   -1.262961
     14          1           0        5.810846    3.117720   -1.228173
     15          6           0        4.658704    6.136227   -0.003932
     16          8           0        3.602950    6.626847   -0.279847
     17          7           0        5.761607    6.850043    0.309837
     18          1           0        6.578023    6.361167    0.587760
     19          6           0        5.799125    8.296279    0.339839
     20          1           0        4.832037    8.661584    0.043996
     21          1           0        6.023854    8.657147    1.336021
     22          1           0        6.546882    8.677025   -0.345704
 ---------------------------------------------------------------------
                    Distance matrix (angstroms):
                    1          2          3          4          5
     1  H    0.000000
     2  C    1.077669   0.000000
     3  H    1.764946   1.084155   0.000000
     4  H    1.764759   1.084740   1.753406   0.000000
     5  C    2.115131   1.510313   2.146770   2.152415   0.000000
     6  O    2.499318   2.381524   3.079604   3.096385   1.197875
     7  N    3.306519   2.416389   2.714174   2.714428   1.354682
     8  H    3.564430   2.524066   2.557434   2.594940   2.029935
     9  C    4.549653   3.775960   4.058469   4.112222   2.442992
    10  H    4.607451   4.028788   4.521578   4.403256   2.548328
    11  C    5.676652   4.787670   5.052342   4.823316   3.657099
    12  H    5.937995   4.948407   5.010549   4.927076   4.049285
    13  H    6.607301   5.769486   6.038329   5.862641   4.528928
    14  H    5.625999   4.768182   5.200570   4.596970   3.748042
    15  C    5.211494   4.489961   4.466107   5.056475   3.263800
    16  O    5.060713   4.324715   4.018046   4.974947   3.410695
    17  N    6.342056   5.710337   5.756699   6.292567   4.370841
    18  H    6.618179   6.024225   6.233434   6.531856   4.583439
    19  C    7.370503   6.787472   6.681339   7.463625   5.545457
    20  H    7.178001   6.580944   6.309251   7.302479   5.508013
    21  H    7.638683   7.188997   7.144230   7.946371   5.912150
    22  H    8.295208   7.644744   7.533785   8.239400   6.392713
                    6          7          8          9         10
     6  O    0.000000
     7  N    2.237890   0.000000
     8  H    3.107485   0.990563   0.000000
     9  C    2.769918   1.435826   2.092847   0.000000
    10  H    2.418224   2.040403   2.911186   1.079160   0.000000
    11  C    4.136279   2.425494   2.599252   1.535068   2.155084
    12  H    4.744972   2.701563   2.480722   2.171929   3.057202
    13  H    4.815829   3.375843   3.638847   2.182947   2.520425
    14  H    4.242744   2.663725   2.812299   2.158357   2.482633
    15  C    3.472457   2.443120   2.891777   1.536574   2.155612
    16  O    3.808281   2.707699   2.886201   2.393147   3.147760
    17  N    4.301432   3.641904   4.170490   2.428692   2.621069
    18  H    4.378567   3.884930   4.515662   2.515508   2.377873
    19  C    5.436026   4.895880   5.335133   3.814050   4.032929
    20  H    5.531730   4.884973   5.195072   4.048350   4.457736
    21  H    5.590840   5.471184   6.035596   4.411511   4.400923
    22  H    6.346443   5.595044   5.950515   4.412113   4.673404
                   11         12         13         14         15
    11  C    0.000000
    12  H    1.084986   0.000000
    13  H    1.082321   1.747353   0.000000
    14  H    1.082568   1.759443   1.753495   0.000000
    15  C    2.511700   2.756830   2.771178   3.455081   0.000000
    16  O    3.331429   3.242421   3.747556   4.253011   1.196434
    17  N    3.075643   3.476517   2.833463   4.037095   1.350696
    18  H    2.975774   3.620836   2.512691   3.795540   2.021011
    19  C    4.398375   4.612373   4.059269   5.410755   2.466691
    20  H    4.723772   4.742462   4.578804   5.771561   2.531753
    21  H    5.164663   5.518388   4.805094   6.107840   3.164514
    22  H    4.657268   4.790141   4.118794   5.676828   3.183973
                   16         17         18         19         20
    16  O    0.000000
    17  N    2.248855   0.000000
    18  H    3.110368   0.991351   0.000000
    19  C    2.827402   1.447033   2.100668   0.000000
    20  H    2.399101   2.053401   2.938719   1.075281   0.000000
    21  H    3.548793   2.094624   2.477604   1.083101   1.757776
    22  H    3.588078   2.093861   2.497104   1.083548   1.758635
[...]
    13  H    6.606180   5.803594   6.143644   5.882577   4.521989
    14  H    5.620804   4.873834   5.447280   4.736409   3.751690
    15  C    5.212653   4.382057   4.306509   4.830160   3.242466
    16  O    5.098180   4.193716   3.841149   4.621532   3.420115
    17  N    6.343497   5.603908   5.543377   6.116593   4.351461
    18  H    6.553347   5.906914   6.002617   6.433059   4.517025
    19  C    7.299778   6.571818   6.310173   7.151112   5.466349
    20  H    7.559482   6.736537   6.366405   7.219505   5.783148
    21  H    7.102749   6.476359   6.126682   7.183927   5.459410
    22  H    8.227987   7.526544   7.330255   8.096551   6.332627
                    6          7          8          9         10
     6  O    0.000000
     7  N    2.253930   0.000000
     8  H    3.085065   0.997197   0.000000
     9  C    2.770714   1.442393   2.063719   0.000000
    10  H    2.358423   2.040254   2.909413   1.079939   0.000000
    11  C    4.095073   2.440964   2.751121   1.532884   2.152986
    12  H    4.737857   2.717604   2.620214   2.169181   3.055361
    13  H    4.761615   3.387087   3.742049   2.176888   2.511883
    14  H    4.148738   2.672168   3.085730   2.152849   2.477881
    15  C    3.542078   2.437197   2.649087   1.532616   2.150182
    16  O    3.957679   2.701060   2.516286   2.390754   3.155171
    17  N    4.365943   3.648437   3.971284   2.440463   2.641405
    18  H    4.323598   3.898005   4.415552   2.550713   2.381307
    19  C    5.472213   4.860452   5.032532   3.808133   4.035253
    20  H    5.994420   5.045838   5.004970   4.130901   4.600756
    21  H    5.355768   5.106576   5.312119   4.232846   4.344291
    22  H    6.237537   5.698790   5.937750   4.500571   4.598937
                   11         12         13         14         15
    11  C    0.000000
    12  H    1.085610   0.000000
    13  H    1.083863   1.753942   0.000000
    14  H    1.082998   1.758747   1.761477   0.000000
    15  C    2.513873   2.760826   2.770962   3.453106   0.000000
    16  O    3.316603   3.217734   3.732550   4.235638   1.201897
    17  N    3.087909   3.480918   2.842622   4.053075   1.350219
    18  H    3.088288   3.737147   2.651657   3.903658   2.019447
    19  C    4.430361   4.637172   4.116053   5.444406   2.440303
    20  H    4.601952   4.552390   4.366896   5.672384   2.668637
    21  H    5.134792   5.395253   4.944741   6.100846   2.854508
    22  H    4.916709   5.190585   4.376325   5.896069   3.306243
                   16         17         18         19         20
    16  O    0.000000
    17  N    2.242815   0.000000
    18  H    3.102406   0.994321   0.000000
    19  C    2.768394   1.448459   2.105105   0.000000
    20  H    2.614225   2.075594   2.920684   1.079673   0.000000
    21  H    2.995296   2.109645   2.672320   1.084755   1.756345
    22  H    3.793549   2.067992   2.322197   1.081995   1.759919
                   21         22
    21  H    0.000000
    22  H    1.764824   0.000000
 Stoichiometry    C6H12N2O2
 Framework group  C1[X(C6H12N2O2)]
 Deg. of freedom    60
 Full point group                 C1      NOp   1
 Largest Abelian subgroup         C1      NOp   1
 Largest concise Abelian subgroup C1      NOp   1
                         Standard orientation:                         
 ---------------------------------------------------------------------
 Center     Atomic      Atomic             Coordinates (Angstroms)
 Number     Number       Type             X           Y           Z
 ---------------------------------------------------------------------
      1          1           0        3.978115   -1.225919    0.088424
      2          6           0        3.206007   -0.827814   -0.553369
      3          1           0        2.817537   -1.628462   -1.175783
      4          1           0        3.622565   -0.066144   -1.202818
      5          6           0        2.086848   -0.277473    0.301021
      6          8           0        1.974029   -0.543310    1.464851
      7          7           0        1.225934    0.558320   -0.353656
      8          1           0        1.216371    0.474331   -1.347264
      9          6           0       -0.054051    0.882095    0.227123
     10          1           0        0.060339    0.825120    1.299475
     11          6           0       -0.474467    2.300409   -0.174585
     12          1           0       -0.580891    2.378621   -1.252131
     13          1           0       -1.422032    2.574796    0.274404
     14          1           0        0.280733    3.007218    0.146319
     15          6           0       -1.108355   -0.131579   -0.230938
     16          8           0       -0.937246   -0.818925   -1.201934
     17          7           0       -2.258741   -0.134410    0.475954
     18          1           0       -2.263498    0.309358    1.365741
     19          6           0       -3.319504   -1.076700    0.184572
     20          1           0       -3.518071   -1.079162   -0.876681
     21          1           0       -3.061080   -2.085487    0.488316
     22          1           0       -4.213564   -0.767381    0.709635
 ---------------------------------------------------------------------
 Rotational constants (GHZ):      2.2045454      0.7647813      0.6927609

 **********************************************************************

            Population analysis using the SCF density.

 **********************************************************************

 Orbital symmetries:
       Occupied  (A) (A) (A) (A) (A) (A) (A) (A) (A) (A) (A) (A)
                 (A) (A) (A) (A) (A) (A) (A) (A) (A) (A) (A) (A)
                 (A) (A) (A) (A) (A) (A) (A) (A) (A) (A) (A) (A)
                 (A) (A) (A)
       Virtual   (A) (A) (A) (A) (A) (A) (A) (A) (A) (A) (A) (A)
                 (A) (A) (A) (A) (A) (A) (A) (A) (A) (A) (A) (A)
                 (A) (A) (A) (A) (A) (A) (A) (A) (A) (A) (A) (A)
                 (A) (A) (A) (A) (A) (A) (A) (A) (A) (A) (A) (A)
                 (A) (A) (A) (A) (A) (A) (A) (A) (A) (A) (A) (A)
                 (A) (A) (A) (A) (A) (A) (A) (A) (A) (A) (A) (A)
                 (A) (A) (A) (A) (A) (A) (A) (A) (A) (A) (A) (A)
                 (A) (A) (A) (A) (A) (A) (A) (A) (A) (A) (A) (A)
                 (A) (A) (A) (A) (A) (A) (A) (A) (A) (A) (A) (A)
                 (A) (A) (A) (A) (A) (A) (A) (A) (A) (A) (A) (A)
                 (A) (A) (A) (A) (A) (A) (A) (A) (A) (A) (A) (A)
                 (A) (A) (A)
 The electronic state is 1-A.
 Alpha  occ. eigenvalues --  -20.52929 -20.52358 -15.58974 -15.57737 -11.34630
 Alpha  occ. eigenvalues --  -11.34532 -11.27748 -11.26016 -11.23117 -11.22696
 Alpha  occ. eigenvalues --   -1.39935  -1.38842  -1.23787  -1.23480  -1.05619
 Alpha  occ. eigenvalues --   -0.99095  -0.96012  -0.87800  -0.79811  -0.78357
 Alpha  occ. eigenvalues --   -0.73186  -0.67249  -0.66262  -0.63622  -0.62864
 Alpha  occ. eigenvalues --   -0.62027  -0.59820  -0.58364  -0.57460  -0.56478
 Alpha  occ. eigenvalues --   -0.55639  -0.54029  -0.53315  -0.51357  -0.50191
 Alpha  occ. eigenvalues --   -0.42792  -0.41877  -0.39709  -0.38751
 Alpha virt. eigenvalues --    0.19312   0.20498   0.21570   0.23531   0.26500
 Alpha virt. eigenvalues --    0.27164   0.29507   0.30588   0.31279   0.31525
 Alpha virt. eigenvalues --    0.32448   0.32568   0.33836   0.34218   0.37585
 Alpha virt. eigenvalues --    0.40259   0.40613   0.42490   0.48349   0.49804
 Alpha virt. eigenvalues --    0.53881   0.57354   0.60275   0.71005   0.72253
 Alpha virt. eigenvalues --    0.74123   0.74847   0.75328   0.76230   0.77601
 Alpha virt. eigenvalues --    0.80530   0.82795   0.84124   0.86050   0.90276
 Alpha virt. eigenvalues --    0.94602   0.96064   0.96622   0.98196   0.99810
 Alpha virt. eigenvalues --    1.02179   1.03552   1.04518   1.08176   1.09335
 Alpha virt. eigenvalues --    1.11253   1.11791   1.12683   1.14557   1.15792
 Alpha virt. eigenvalues --    1.16497   1.17747   1.19520   1.20074   1.21188
 Alpha virt. eigenvalues --    1.21430   1.22490   1.23282   1.24068   1.26532
 Alpha virt. eigenvalues --    1.29281   1.31344   1.34138   1.37651   1.40245
 Alpha virt. eigenvalues --    1.42739   1.46069   1.53653   1.57008   1.62427
 Alpha virt. eigenvalues --    1.63506   1.67968   1.70187   1.73652   1.76512
 Alpha virt. eigenvalues --    1.79453   1.83888   1.91397   1.96035   1.98126
 Alpha virt. eigenvalues --    1.99150   2.03386   2.07481   2.09783   2.12020
 Alpha virt. eigenvalues --    2.13519   2.16878   2.16960   2.20095   2.23911
 Alpha virt. eigenvalues --    2.26140   2.28333   2.30151   2.31229   2.34708
 Alpha virt. eigenvalues --    2.37077   2.39653   2.40153   2.45832   2.46556
 Alpha virt. eigenvalues --    2.53340   2.55338   2.57553   2.60027   2.61809
 Alpha virt. eigenvalues --    2.64694   2.68868   2.71723   2.76079   2.76989
 Alpha virt. eigenvalues --    2.80272   2.83066   2.89503   2.94787   2.99937
 Alpha virt. eigenvalues --    3.02347   3.07050   3.08722   3.11263   3.27464
 Alpha virt. eigenvalues --    3.32153   3.38294   3.41373   3.52706   3.55732
 Alpha virt. eigenvalues --    4.35574   4.44193   4.48605   4.55853   4.65095
 Alpha virt. eigenvalues --    4.68182   4.75259   4.81143   4.91180   5.03897
          Condensed to atoms (all electrons):
              1          2          3          4          5          6
     1  H    0.466469   0.383694  -0.017226  -0.020174  -0.032793   0.003718
     2  C    0.383694   5.272488   0.375219   0.375553   0.374289  -0.071518
     3  H   -0.017226   0.375219   0.488048  -0.024133  -0.027563   0.000483
     4  H   -0.020174   0.375553  -0.024133   0.512892  -0.034473   0.001861
     5  C   -0.032793   0.374289  -0.027563  -0.034473   4.136042   0.617271
     6  O    0.003718  -0.071518   0.000483   0.001861   0.617271   8.139531
     7  N    0.004374  -0.120740   0.000879   0.004617   0.268795  -0.105743
     8  H    0.000067  -0.001152   0.000259  -0.000073  -0.017860   0.002340
     9  C   -0.000115   0.005558  -0.000455  -0.000039  -0.029849   0.001081
    10  H   -0.000002   0.000516  -0.000023  -0.000031  -0.003088   0.012649
    11  C    0.000002  -0.000122   0.000000  -0.000002   0.002301   0.000168
    12  H    0.000000  -0.000009   0.000000   0.000002  -0.000154  -0.000007
    13  H    0.000000   0.000002   0.000000   0.000000  -0.000014   0.000001
    14  H    0.000000  -0.000005   0.000000   0.000000   0.000023   0.000020
    15  C   -0.000001  -0.000257   0.000127   0.000009   0.000948   0.000630
    16  O    0.000000  -0.000272   0.000216   0.000000   0.003193  -0.000086
    17  N    0.000000  -0.000004   0.000000   0.000000  -0.000029  -0.000064
    18  H    0.000000   0.000000   0.000000   0.000000  -0.000015  -0.000016
    19  C    0.000000   0.000000   0.000000   0.000000  -0.000002   0.000001
    20  H    0.000000   0.000000   0.000000   0.000000   0.000000   0.000000
    21  H    0.000000   0.000000   0.000000   0.000000   0.000001   0.000000
    22  H    0.000000   0.000000   0.000000   0.000000   0.000000   0.000000
              7          8          9         10         11         12
     1  H    0.004374   0.000067  -0.000115  -0.000002   0.000002   0.000000
     2  C   -0.120740  -0.001152   0.005558   0.000516  -0.000122  -0.000009
     3  H    0.000879   0.000259  -0.000455  -0.000023   0.000000   0.000000
     4  H    0.004617  -0.000073  -0.000039  -0.000031  -0.000002   0.000002
     5  C    0.268795  -0.017860  -0.029849  -0.003088   0.002301  -0.000154
     6  O   -0.105743   0.002340   0.001081   0.012649   0.000168  -0.000007
     7  N    7.333702   0.319229   0.230386  -0.036042  -0.066758  -0.002228
     8  H    0.319229   0.325238  -0.030946   0.003695  -0.001285   0.002371
     9  C    0.230386  -0.030946   5.089016   0.398876   0.341763  -0.035972
    10  H   -0.036042   0.003695   0.398876   0.455526  -0.031352   0.003522
    11  C   -0.066758  -0.001285   0.341763  -0.031352   5.121911   0.389988
    12  H   -0.002228   0.002371  -0.035972   0.003522   0.389988   0.521530
    13  H    0.004216  -0.000084  -0.037951  -0.001592   0.388307  -0.025487
    14  H    0.000219  -0.000140  -0.034788  -0.003402   0.390424  -0.025142
    15  C   -0.066983  -0.001674   0.379205  -0.038741  -0.061844  -0.003930
    16  O   -0.007509   0.009721  -0.075857   0.001575  -0.000841   0.001272
    17  N    0.003719   0.000353  -0.118766   0.003926   0.002350   0.000407
    18  H    0.000017  -0.000009   0.001015   0.001412   0.000410   0.000028
    19  C   -0.000114  -0.000008   0.004167  -0.000208  -0.000215  -0.000018
    20  H   -0.000003  -0.000001   0.000199  -0.000001  -0.000013   0.000002
    21  H    0.000005   0.000000  -0.000163  -0.000004  -0.000004   0.000000
    22  H    0.000001   0.000000   0.000008  -0.000005   0.000003  -0.000001
             13         14         15         16         17         18
     1  H    0.000000   0.000000  -0.000001   0.000000   0.000000   0.000000
     2  C    0.000002  -0.000005  -0.000257  -0.000272  -0.000004   0.000000
     3  H    0.000000   0.000000   0.000127   0.000216   0.000000   0.000000
     4  H    0.000000   0.000000   0.000009   0.000000   0.000000   0.000000
     5  C   -0.000014   0.000023   0.000948   0.003193  -0.000029  -0.000015
     6  O    0.000001   0.000020   0.000630  -0.000086  -0.000064  -0.000016
     7  N    0.004216   0.000219  -0.066983  -0.007509   0.003719   0.000017
     8  H   -0.000084  -0.000140  -0.001674   0.009721   0.000353  -0.000009
     9  C   -0.037951  -0.034788   0.379205  -0.075857  -0.118766   0.001015
    10  H   -0.001592  -0.003402  -0.038741   0.001575   0.003926   0.001412
    11  C    0.388307   0.390424  -0.061844  -0.000841   0.002350   0.000410
    12  H   -0.025487  -0.025142  -0.003930   0.001272   0.000407   0.000028
    13  H    0.523714  -0.022361  -0.001395   0.000005   0.002261   0.000264
    14  H   -0.022361   0.500169   0.004628  -0.000071  -0.000062  -0.000054
    15  C   -0.001395   0.004628   4.196234   0.613280   0.264201  -0.023252
    16  O    0.000005  -0.000071   0.613280   8.169549  -0.106058   0.002571
    17  N    0.002261  -0.000062   0.264201  -0.106058   7.333820   0.327725
    18  H    0.000264  -0.000054  -0.023252   0.002571   0.327725   0.329887
    19  C    0.000014   0.000004  -0.028334   0.007308   0.199775  -0.023769
    20  H   -0.000010   0.000000  -0.003114   0.003963  -0.038865   0.002858
    21  H    0.000004   0.000000  -0.003602   0.001107  -0.046807   0.000781
    22  H   -0.000010   0.000000   0.004449   0.000344  -0.038592  -0.004163
             19         20         21         22
     1  H    0.000000   0.000000   0.000000   0.000000
     2  C    0.000000   0.000000   0.000000   0.000000
     3  H    0.000000   0.000000   0.000000   0.000000
     4  H    0.000000   0.000000   0.000000   0.000000
     5  C   -0.000002   0.000000   0.000001   0.000000
     6  O    0.000001   0.000000   0.000000   0.000000
     7  N   -0.000114  -0.000003   0.000005   0.000001
     8  H   -0.000008  -0.000001   0.000000   0.000000
     9  C    0.004167   0.000199  -0.000163   0.000008
    10  H   -0.000208  -0.000001  -0.000004  -0.000005
    11  C   -0.000215  -0.000013  -0.000004   0.000003
    12  H   -0.000018   0.000002   0.000000  -0.000001
    13  H    0.000014  -0.000010   0.000004  -0.000010
    14  H    0.000004   0.000000   0.000000   0.000000
    15  C   -0.028334  -0.003114  -0.003602   0.004449
    16  O    0.007308   0.003963   0.001107   0.000344
    17  N    0.199775  -0.038865  -0.046807  -0.038592
    18  H   -0.023769   0.002858   0.000781  -0.004163
    19  C    4.908851   0.403198   0.406553   0.398061
    20  H    0.403198   0.483422  -0.032019  -0.024328
    21  H    0.406553  -0.032019   0.526269  -0.032616
    22  H    0.398061  -0.024328  -0.032616   0.527007
 Mulliken atomic charges:
              1
     1  H    0.211987
     2  C   -0.593240
     3  H    0.204168
     4  H    0.183993
     5  C    0.742978
     6  O   -0.602322
     7  N   -0.764038
     8  H    0.389959
     9  C   -0.086373
    10  H    0.232794
    11  C   -0.475194
    12  H    0.173825
    13  H    0.170115
    14  H    0.190538
    15  C    0.769416
    16  O   -0.623409
    17  N   -0.789291
    18  H    0.384309
    19  C   -0.275264
    20  H    0.204713
    21  H    0.180495
    22  H    0.169842
 Sum of Mulliken atomic charges =   0.00000
 Mulliken charges with hydrogens summed into heavy atoms:
              1
     2  C    0.006908
     5  C    0.742978
     6  O   -0.602322
     7  N   -0.374079
     9  C    0.146421
    11  C    0.059284
    15  C    0.769416
    16  O   -0.623409
    17  N   -0.404982
    19  C    0.279785
 Sum of Mulliken charges with hydrogens summed into heavy atoms =   0.00000
 Electronic spatial extent (au):  <R**2>=           1806.9496
 Charge=              0.0000 electrons
 Dipole moment (field-independent basis, Debye):
    X=             -1.8573    Y=              2.0145    Z=             -0.3928  Tot=              2.7681
 Quadrupole moment (field-independent basis, Debye-Ang):
   XX=            -51.9058   YY=            -60.5675   ZZ=            -64.4228
   XY=             -0.1381   XZ=            -12.0004   YZ=              0.2853
 Traceless Quadrupole moment (field-independent basis, Debye-Ang):
   XX=              7.0596   YY=             -1.6021   ZZ=             -5.4575
   XY=             -0.1381   XZ=            -12.0004   YZ=              0.2853
 Octapole moment (field-independent basis, Debye-Ang**2):
  XXX=            -13.4162  YYY=             -4.1514  ZZZ=             -3.2779  XYY=             -1.2851
  XXY=            -10.9292  XXZ=             -5.5786  XZZ=             -9.9696  YZZ=              7.9832
  YYZ=              1.7879  XYZ=              4.9190
 Hexadecapole moment (field-independent basis, Debye-Ang**3):
 XXXX=          -1475.2558 YYYY=           -485.6340 ZZZZ=           -255.1351 XXXY=             16.4093
 XXXZ=            -36.1478 YYYX=              2.1852 YYYZ=              2.0744 ZZZX=            -25.5847
 ZZZY=              1.8273 XXYY=           -342.9406 XXZZ=           -315.8964 YYZZ=           -125.9847
 XXYZ=              9.8109 YYXZ=             -3.0763 ZZXY=              2.1100
 N-N= 5.586319438136D+02 E-N=-2.272742914682D+03  KE= 4.921317017478D+02
 1\1\GINC-RODAN\FOpt\RHF\6-31G(d)\C6H12N2O2\STEBOSS\10-Feb-2017\0\\# HF
 /6-31G* Opt=(ModRedundant) geom=nocrowd\\Phi Psi fixed scan\\0,1\H,1.3
 110189776,2.6445765,1.9788754488\C,1.6045141145,3.1516273014,1.0715171
 248\H,1.0090624749,4.0533293171,0.9632769038\H,1.4133944857,2.51511394
 71,0.2149140449\C,3.064785908,3.5310655498,1.1664231765\O,3.6640599589
 ,3.5327803553,2.2050590155\N,3.6498463625,3.8549918582,-0.025676132\H,
 3.0232206354,4.1181445487,-0.7553970967\C,4.9136415156,4.5498097544,-0
 .0490602154\H,5.4462581193,4.2702980453,0.8478573261\C,5.7232279033,4.
 1353576031,-1.2829701141\H,5.194985771,4.3972997052,-2.1945044966\H,6.
 6896627632,4.6255123516,-1.3055875497\H,5.8764903155,3.0633055716,-1.2
 729825417\C,4.6785097189,6.0642695964,-0.0551993518\O,3.6191918703,6.5
 331318313,-0.3754645984\N,5.7567260375,6.8218049034,0.239219293\H,6.53
 43027459,6.3814576842,0.6752722095\C,5.6638147577,8.2650024682,0.32033
 99958\H,5.1526462281,8.6429683322,-0.5523233388\H,5.1220278747,8.58790
 08079,1.2028913223\H,6.6639114616,8.6769519677,0.3489195741\\Version=E
 M64L-G09RevA.02\State=1-A\HF=-492.8583162\RMSD=5.252e-09\RMSF=4.403e-0
 4\Dipole=0.7797038,0.1429627,-0.7467472\Quadrupole=6.2291106,-0.303148
 9,-5.9259617,6.2299284,0.656279,5.1112477\PG=C01 [X(C6H12N2O2)]\\@


 IT TAKES GREATER CHARACTER TO CARRY OFF GOOD FORTUNE THAN BAD.
                     FRENCH PROVERB.
 Job cpu time:  0 days  0 hours 20 minutes 53.8 seconds.
 File lengths (MBytes):  RWF=     25 Int=      0 D2E=      0 Chk=      3 Scr=      1
 Normal termination of Gaussian 09 at Fri Feb 10 16:06:46 2017.
