 Entering Gaussian System, Link 0=g09
 Initial command:
 /home/steboss/Software/g09/l1.exe /tmp/Gau-353.inp -scrdir=/tmp/
 Entering Link 1 = /home/steboss/Software/g09/l1.exe PID=       355.
  
 Copyright (c) 1988,1990,1992,1993,1995,1998,2003,2009, Gaussian, Inc.
                  All Rights Reserved.
  
 This is part of the Gaussian(R) 09 program.  It is based on
 the Gaussian(R) 03 system (copyright 2003, Gaussian, Inc.),
 the Gaussian(R) 98 system (copyright 1998, Gaussian, Inc.),
 the Gaussian(R) 94 system (copyright 1995, Gaussian, Inc.),
 the Gaussian 92(TM) system (copyright 1992, Gaussian, Inc.),
 the Gaussian 90(TM) system (copyright 1990, Gaussian, Inc.),
 the Gaussian 88(TM) system (copyright 1988, Gaussian, Inc.),
 the Gaussian 86(TM) system (copyright 1986, Carnegie Mellon
 University), and the Gaussian 82(TM) system (copyright 1983,
 Carnegie Mellon University). Gaussian is a federally registered
 trademark of Gaussian, Inc.
  
 This software contains proprietary and confidential information,
 including trade secrets, belonging to Gaussian, Inc.
  
 This software is provided under written license and may be
 used, copied, transmitted, or stored only in accord with that
 written license.
  
 The following legend is applicable only to US Government
 contracts under FAR:
  
                    RESTRICTED RIGHTS LEGEND
  
 Use, reproduction and disclosure by the US Government is
 subject to restrictions as set forth in subparagraphs (a)
 and (c) of the Commercial Computer Software - Restricted
 Rights clause in FAR 52.227-19.
  
 Gaussian, Inc.
 340 Quinnipiac St., Bldg. 40, Wallingford CT 06492
  
  
 ---------------------------------------------------------------
 Warning -- This program may not be used in any manner that
 competes with the business of Gaussian, Inc. or will provide
 assistance to any competitor of Gaussian, Inc.  The licensee
 of this program is prohibited from giving any competitor of
 Gaussian, Inc. access to this program.  By using this program,
 the user acknowledges that Gaussian, Inc. is engaged in the
 business of creating and licensing software in the field of
 computational chemistry and represents and warrants to the
 licensee that it is not a competitor of Gaussian, Inc. and that
 it will not use this program in any manner prohibited above.
 ---------------------------------------------------------------
  

 Cite this work as:
 Gaussian 09, Revision A.02,
 M. J. Frisch, G. W. Trucks, H. B. Schlegel, G. E. Scuseria, 
 M. A. Robb, J. R. Cheeseman, G. Scalmani, V. Barone, B. Mennucci, 
 G. A. Petersson, H. Nakatsuji, M. Caricato, X. Li, H. P. Hratchian, 
 A. F. Izmaylov, J. Bloino, G. Zheng, J. L. Sonnenberg, M. Hada, 
 M. Ehara, K. Toyota, R. Fukuda, J. Hasegawa, M. Ishida, T. Nakajima, 
 Y. Honda, O. Kitao, H. Nakai, T. Vreven, J. A. Montgomery, Jr., 
 J. E. Peralta, F. Ogliaro, M. Bearpark, J. J. Heyd, E. Brothers, 
 K. N. Kudin, V. N. Staroverov, R. Kobayashi, J. Normand, 
 K. Raghavachari, A. Rendell, J. C. Burant, S. S. Iyengar, J. Tomasi, 
 M. Cossi, N. Rega, J. M. Millam, M. Klene, J. E. Knox, J. B. Cross, 
 V. Bakken, C. Adamo, J. Jaramillo, R. Gomperts, R. E. Stratmann, 
 O. Yazyev, A. J. Austin, R. Cammi, C. Pomelli, J. W. Ochterski, 
 R. L. Martin, K. Morokuma, V. G. Zakrzewski, G. A. Voth, 
 P. Salvador, J. J. Dannenberg, S. Dapprich, A. D. Daniels, 
 O. Farkas, J. B. Foresman, J. V. Ortiz, J. Cioslowski, 
 and D. J. Fox, Gaussian, Inc., Wallingford CT, 2009.
 
 ******************************************
 Gaussian 09:  EM64L-G09RevA.02 11-Jun-2009
                11-Feb-2017 
 ******************************************
 %chk=structure_165.chk
 %NProcShared=8
 Will use up to    8 processors via shared memory.
 -------------------------------------------
 # HF/6-31G* Opt=(ModRedundant) geom=nocrowd
 -------------------------------------------
 1/18=120,19=15,38=1/1,3;
 2/9=110,12=1,17=6,18=5,40=1/2;
 3/5=1,6=6,7=1,11=9,16=1,25=1,30=1,71=1/1,2,3;
 4//1;
 5/5=2,38=5/2;
 6/7=2,8=2,9=2,10=2,28=1/1;
 7//1,2,3,16;
 1/18=20,19=15/3(2);
 2/9=110,12=1/2;
 99//99;
 2/9=110,12=1/2;
 3/5=1,6=6,7=1,11=9,16=1,25=1,30=1,71=1/1,2,3;
 4/5=5,16=3/1;
 5/5=2,38=5/2;
 7//1,2,3,16;
 1/18=20,19=15/3(-5);
 2/9=110,12=1/2;
 6/7=2,8=2,9=2,10=2,19=2,28=1/1;
 99/9=1/99;
 ------------------
 Phi Psi fixed scan
 ------------------
 Symbolic Z-matrix:
 Charge =  0 Multiplicity = 1
 H                     1.8827    1.2362    0.9842 
 C                     1.9409    2.209     0.496 
 H                     1.2624    2.9049    0.9895 
 H                     1.658     2.1079   -0.5517 
 C                     3.3599    2.7768    0.5667 
 O                     4.2568    2.1469    1.1227 
 N                     3.5554    3.9697    0. 
 H                     2.7862    4.4492   -0.4455 
 C                     4.8533    4.6139    0. 
 H                     5.4076    4.3155    0.8898 
 C                     5.6613    4.2208   -1.2322 
 H                     5.1233    4.5214   -2.1312 
 H                     6.6305    4.7189   -1.2058 
 H                     5.8085    3.1409   -1.2414 
 C                     4.7127    6.1294    0. 
 O                     3.6366    6.656    -0.2741 
 N                     5.8056    6.8311    0.309 
 H                     6.6679    6.3528    0.5272 
 C                     5.801     8.2797    0.3436 
 H                     4.8071    8.6467    0.0875 
 H                     6.0669    8.6206    1.3442 
 H                     6.5256    8.6631   -0.3748 
 
 The following ModRedundant input section has been read:
 D    5    7    9   15 F                                                       
 D    7    9   15   17 F                                                       

 GradGradGradGradGradGradGradGradGradGradGradGradGradGradGradGradGradGrad
 Berny optimization.
 Initialization pass.
                           ----------------------------
                           !    Initial Parameters    !
                           ! (Angstroms and Degrees)  !
 --------------------------                            --------------------------
 ! Name  Definition              Value          Derivative Info.                !
 --------------------------------------------------------------------------------
 ! R1    R(1,2)                  1.09           estimate D2E/DX2                !
 ! R2    R(2,3)                  1.09           estimate D2E/DX2                !
 ! R3    R(2,4)                  1.0899         estimate D2E/DX2                !
 ! R4    R(2,5)                  1.53           estimate D2E/DX2                !
 ! R5    R(5,6)                  1.229          estimate D2E/DX2                !
 ! R6    R(5,7)                  1.3351         estimate D2E/DX2                !
 ! R7    R(7,8)                  1.01           estimate D2E/DX2                !
 ! R8    R(7,9)                  1.449          estimate D2E/DX2                !
 ! R9    R(9,10)                 1.09           estimate D2E/DX2                !
 ! R10   R(9,11)                 1.525          estimate D2E/DX2                !
 ! R11   R(9,15)                 1.522          estimate D2E/DX2                !
 ! R12   R(11,12)                1.09           estimate D2E/DX2                !
 ! R13   R(11,13)                1.09           estimate D2E/DX2                !
 ! R14   R(11,14)                1.0899         estimate D2E/DX2                !
 ! R15   R(15,16)                1.229          estimate D2E/DX2                !
 ! R16   R(15,17)                1.335          estimate D2E/DX2                !
 ! R17   R(17,18)                1.0099         estimate D2E/DX2                !
 ! R18   R(17,19)                1.449          estimate D2E/DX2                !
 ! R19   R(19,20)                1.09           estimate D2E/DX2                !
 ! R20   R(19,21)                1.09           estimate D2E/DX2                !
 ! R21   R(19,22)                1.09           estimate D2E/DX2                !
 ! A1    A(1,2,3)              109.4976         estimate D2E/DX2                !
 ! A2    A(1,2,4)              109.5057         estimate D2E/DX2                !
 ! A3    A(1,2,5)              111.1022         estimate D2E/DX2                !
 ! A4    A(3,2,4)              109.442          estimate D2E/DX2                !
 ! A5    A(3,2,5)              108.6296         estimate D2E/DX2                !
 ! A6    A(4,2,5)              108.6368         estimate D2E/DX2                !
 ! A7    A(2,5,6)              120.5005         estimate D2E/DX2                !
 ! A8    A(2,5,7)              116.6018         estimate D2E/DX2                !
 ! A9    A(6,5,7)              122.8977         estimate D2E/DX2                !
 ! A10   A(5,7,8)              119.9947         estimate D2E/DX2                !
 ! A11   A(5,7,9)              121.8985         estimate D2E/DX2                !
 ! A12   A(8,7,9)              118.1068         estimate D2E/DX2                !
 ! A13   A(7,9,10)             109.5            estimate D2E/DX2                !
 ! A14   A(7,9,11)             111.0992         estimate D2E/DX2                !
 ! A15   A(7,9,15)             111.0966         estimate D2E/DX2                !
 ! A16   A(10,9,11)            108.6382         estimate D2E/DX2                !
 ! A17   A(10,9,15)            108.6373         estimate D2E/DX2                !
 ! A18   A(11,9,15)            107.7947         estimate D2E/DX2                !
 ! A19   A(9,11,12)            109.5007         estimate D2E/DX2                !
 ! A20   A(9,11,13)            109.4959         estimate D2E/DX2                !
 ! A21   A(9,11,14)            109.4978         estimate D2E/DX2                !
 ! A22   A(12,11,13)           109.441          estimate D2E/DX2                !
 ! A23   A(12,11,14)           109.4482         estimate D2E/DX2                !
 ! A24   A(13,11,14)           109.4436         estimate D2E/DX2                !
 ! A25   A(9,15,16)            120.4997         estimate D2E/DX2                !
 ! A26   A(9,15,17)            116.5985         estimate D2E/DX2                !
 ! A27   A(16,15,17)           122.9018         estimate D2E/DX2                !
 ! A28   A(15,17,18)           120.0035         estimate D2E/DX2                !
 ! A29   A(15,17,19)           121.8963         estimate D2E/DX2                !
 ! A30   A(18,17,19)           118.1002         estimate D2E/DX2                !
 ! A31   A(17,19,20)           109.5046         estimate D2E/DX2                !
 ! A32   A(17,19,21)           109.4999         estimate D2E/DX2                !
 ! A33   A(17,19,22)           109.4988         estimate D2E/DX2                !
 ! A34   A(20,19,21)           109.4397         estimate D2E/DX2                !
 ! A35   A(20,19,22)           109.443          estimate D2E/DX2                !
 ! A36   A(21,19,22)           109.4414         estimate D2E/DX2                !
 ! D1    D(1,2,5,6)              0.0047         estimate D2E/DX2                !
 ! D2    D(1,2,5,7)           -179.9966         estimate D2E/DX2                !
 ! D3    D(3,2,5,6)            120.5112         estimate D2E/DX2                !
 ! D4    D(3,2,5,7)            -59.4901         estimate D2E/DX2                !
 ! D5    D(4,2,5,6)           -120.5165         estimate D2E/DX2                !
 ! D6    D(4,2,5,7)             59.4823         estimate D2E/DX2                !
 ! D7    D(2,5,7,8)             -0.0022         estimate D2E/DX2                !
 ! D8    D(2,5,7,9)           -179.9961         estimate D2E/DX2                !
 ! D9    D(6,5,7,8)            179.9965         estimate D2E/DX2                !
 ! D10   D(6,5,7,9)              0.0027         estimate D2E/DX2                !
 ! D11   D(5,7,9,10)           -30.0015         estimate D2E/DX2                !
 ! D12   D(5,7,9,11)            90.0011         estimate D2E/DX2                !
 ! D13   D(5,7,9,15)          -150.0013         Frozen                          !
 ! D14   D(8,7,9,10)           150.0045         estimate D2E/DX2                !
 ! D15   D(8,7,9,11)           -89.9929         estimate D2E/DX2                !
 ! D16   D(8,7,9,15)            30.0047         estimate D2E/DX2                !
 ! D17   D(7,9,11,12)           60.0024         estimate D2E/DX2                !
 ! D18   D(7,9,11,13)          179.9986         estimate D2E/DX2                !
 ! D19   D(7,9,11,14)          -60.0038         estimate D2E/DX2                !
 ! D20   D(10,9,11,12)        -179.4843         estimate D2E/DX2                !
 ! D21   D(10,9,11,13)         -59.4881         estimate D2E/DX2                !
 ! D22   D(10,9,11,14)          60.5095         estimate D2E/DX2                !
 ! D23   D(15,9,11,12)         -61.938          estimate D2E/DX2                !
 ! D24   D(15,9,11,13)          58.0582         estimate D2E/DX2                !
 ! D25   D(15,9,11,14)         178.0558         estimate D2E/DX2                !
 ! D26   D(7,9,15,16)          -15.0014         estimate D2E/DX2                !
 ! D27   D(7,9,15,17)          164.9981         Frozen                          !
 ! D28   D(10,9,15,16)        -135.5125         estimate D2E/DX2                !
 ! D29   D(10,9,15,17)          44.487          estimate D2E/DX2                !
 ! D30   D(11,9,15,16)         106.9406         estimate D2E/DX2                !
 ! D31   D(11,9,15,17)         -73.0599         estimate D2E/DX2                !
 ! D32   D(9,15,17,18)           0.0035         estimate D2E/DX2                !
 ! D33   D(9,15,17,19)         179.9985         estimate D2E/DX2                !
 ! D34   D(16,15,17,18)       -179.997          estimate D2E/DX2                !
 ! D35   D(16,15,17,19)         -0.002          estimate D2E/DX2                !
 ! D36   D(15,17,19,20)          0.0027         estimate D2E/DX2                !
 ! D37   D(15,17,19,21)        120.002          estimate D2E/DX2                !
 ! D38   D(15,17,19,22)       -120.0001         estimate D2E/DX2                !
 ! D39   D(18,17,19,20)        179.9978         estimate D2E/DX2                !
 ! D40   D(18,17,19,21)        -60.0029         estimate D2E/DX2                !
 ! D41   D(18,17,19,22)         59.995          estimate D2E/DX2                !
 --------------------------------------------------------------------------------
 Trust Radius=3.00D-01 FncErr=1.00D-07 GrdErr=1.00D-07
 Number of steps in this run= 108 maximum allowed number of steps= 132.
 GradGradGradGradGradGradGradGradGradGradGradGradGradGradGradGradGradGrad

                          Input orientation:                          
 ---------------------------------------------------------------------
 Center     Atomic      Atomic             Coordinates (Angstroms)
 Number     Number       Type             X           Y           Z
 ---------------------------------------------------------------------
      1          1           0        1.882700    1.236200    0.984200
      2          6           0        1.940900    2.209000    0.496000
      3          1           0        1.262400    2.904900    0.989500
      4          1           0        1.658000    2.107900   -0.551700
      5          6           0        3.359900    2.776800    0.566700
      6          8           0        4.256800    2.146900    1.122700
      7          7           0        3.555400    3.969700    0.000000
      8          1           0        2.786200    4.449200   -0.445500
      9          6           0        4.853300    4.613900    0.000000
     10          1           0        5.407600    4.315500    0.889800
     11          6           0        5.661300    4.220800   -1.232200
     12          1           0        5.123300    4.521400   -2.131200
     13          1           0        6.630500    4.718900   -1.205800
     14          1           0        5.808500    3.140900   -1.241400
     15          6           0        4.712700    6.129400    0.000000
     16          8           0        3.636600    6.656000   -0.274100
     17          7           0        5.805600    6.831100    0.309000
     18          1           0        6.667900    6.352800    0.527200
     19          6           0        5.801000    8.279700    0.343600
     20          1           0        4.807100    8.646700    0.087500
     21          1           0        6.066900    8.620600    1.344200
     22          1           0        6.525600    8.663100   -0.374800
 ---------------------------------------------------------------------
                    Distance matrix (angstroms):
                    1          2          3          4          5
     1  H    0.000000
     2  C    1.089985   0.000000
     3  H    1.780270   1.090037   0.000000
     4  H    1.780264   1.089922   1.779608   0.000000
     5  C    2.174827   1.530018   2.143519   2.143527   0.000000
     6  O    2.546548   2.400000   3.091721   3.091747   1.228959
     7  N    3.352402   2.439814   2.714914   2.714922   1.335058
     8  H    3.630940   2.572829   2.601164   2.601115   2.037303
     9  C    4.604560   3.809414   4.098092   4.098091   2.434405
    10  H    4.681444   4.075589   4.379773   4.583767   2.581679
    11  C    5.300763   4.568959   5.100771   4.577536   3.258469
    12  H    5.567741   4.730438   5.220957   4.508670   3.664952
    13  H    6.282269   5.584628   6.076713   5.654284   4.196467
    14  H    4.898273   4.341120   5.069481   4.332369   3.065524
    15  C    5.737679   4.826844   4.825047   5.080160   3.659391
    16  O    5.833842   4.821230   4.615654   4.967608   3.978907
    17  N    6.866436   6.027826   6.043078   6.344447   4.741857
    18  H    7.020440   6.286222   6.428154   6.654495   4.871571
    19  C    8.085440   7.195623   7.064315   7.487131   6.024172
    20  H    8.016963   7.058750   6.807846   7.285692   6.064631
    21  H    8.495086   7.671501   7.475176   8.090000   6.487091
    22  H    8.863535   7.964495   7.919562   8.166729   6.749563
                    6          7          8          9         10
     6  O    0.000000
     7  N    2.252780   0.000000
     8  H    3.150000   1.009980   0.000000
     9  C    2.775312   1.448978   2.120966   0.000000
    10  H    2.466051   2.083739   2.944935   1.089970   0.000000
    11  C    3.437911   2.452791   2.989526   1.525027   2.139209
    12  H    4.120308   2.702720   2.882505   2.150225   3.041326
    13  H    4.203754   3.386959   3.928032   2.150214   2.459625
    14  H    2.997462   2.702673   3.388127   2.150165   2.466256
    15  C    4.162764   2.450234   2.594792   1.522008   2.136554
    16  O    4.761059   2.701468   2.371186   2.392836   3.157379
    17  N    5.000262   3.653285   3.919119   2.432762   2.612274
    18  H    4.884426   3.955346   4.431414   2.567973   2.422896
    19  C    6.372032   4.872051   4.938059   3.801879   4.020943
    20  H    6.604685   4.842390   4.689044   4.034014   4.445625
    21  H    6.725646   5.453932   5.600589   4.396970   4.378932
    22  H    7.060511   5.566917   5.634276   4.396940   4.663771
                   11         12         13         14         15
    11  C    0.000000
    12  H    1.089957   0.000000
    13  H    1.090023   1.779613   0.000000
    14  H    1.089925   1.779613   1.779617   0.000000
    15  C    2.461892   2.701161   2.668599   3.416575   0.000000
    16  O    3.308710   3.196187   3.685629   4.243671   1.228995
    17  N    3.034763   3.428531   2.726989   4.002665   1.335026
    18  H    2.941795   3.578674   2.382082   3.766008   2.037315
    19  C    4.356298   4.550685   3.970895   5.377690   2.434389
    20  H    4.696792   4.694754   4.519405   5.751749   2.520589
    21  H    5.114742   5.456393   4.695041   6.064587   3.137963
    22  H    4.606102   4.712225   4.032156   5.635594   3.137948
                   16         17         18         19         20
    16  O    0.000000
    17  N    2.252826   0.000000
    18  H    3.150046   1.009922   0.000000
    19  C    2.775353   1.449020   2.120889   0.000000
    20  H    2.337458   2.083859   2.986284   1.090006   0.000000
    21  H    3.519220   2.083801   2.484272   1.090007   1.779627
    22  H    3.519220   2.083796   2.484218   1.090018   1.779672
                   21         22
    21  H    0.000000
    22  H    1.779655   0.000000
 Stoichiometry    C6H12N2O2
 Framework group  C1[X(C6H12N2O2)]
 Deg. of freedom    60
 Full point group                 C1      NOp   1
 Largest Abelian subgroup         C1      NOp   1
 Largest concise Abelian subgroup C1      NOp   1
                         Standard orientation:                         
 ---------------------------------------------------------------------
 Center     Atomic      Atomic             Coordinates (Angstroms)
 Number     Number       Type             X           Y           Z
 ---------------------------------------------------------------------
      1          1           0       -4.363402   -0.730496   -0.401694
      2          6           0       -3.430439   -1.028407    0.076737
      3          1           0       -3.148540   -2.024568   -0.264404
      4          1           0       -3.563527   -1.039534    1.158445
      5          6           0       -2.300189   -0.056073   -0.266859
      6          8           0       -2.509068    0.910286   -0.996831
      7          7           0       -1.103653   -0.318674    0.263916
      8          1           0       -0.981202   -1.125831    0.858527
      9          6           0        0.046731    0.526277    0.014495
     10          1           0       -0.044231    0.983180   -0.970898
     11          6           0        0.150819    1.633910    1.057579
     12          1           0        0.251693    1.191943    2.048788
     13          1           0        1.023005    2.252397    0.845651
     14          1           0       -0.747577    2.250143    1.024729
     15          6           0        1.337766   -0.278491    0.060186
     16          8           0        1.352781   -1.406372    0.548129
     17          7           0        2.424312    0.305101   -0.450824
     18          1           0        2.362096    1.234498   -0.841072
     19          6           0        3.713142   -0.356959   -0.466764
     20          1           0        3.620641   -1.344442   -0.014620
     21          1           0        4.056548   -0.460009   -1.496118
     22          1           0        4.433202    0.234864    0.098391
 ---------------------------------------------------------------------
 Rotational constants (GHZ):      2.8909652      0.6522230      0.5996191
 Standard basis: 6-31G(d) (6D, 7F)
 There are   174 symmetry adapted basis functions of A   symmetry.
 Integral buffers will be    131072 words long.
 Raffenetti 1 integral format.
 Two-electron integral symmetry is turned on.
   174 basis functions,   328 primitive gaussians,   174 cartesian basis functions
    39 alpha electrons       39 beta electrons
       nuclear repulsion energy       551.4708224225 Hartrees.
 NAtoms=   22 NActive=   22 NUniq=   22 SFac= 7.50D-01 NAtFMM=   80 NAOKFM=F Big=F
 One-electron integrals computed using PRISM.
 NBasis=   174 RedAO= T  NBF=   174
 NBsUse=   174 1.00D-06 NBFU=   174
 Harris functional with IExCor=  205 diagonalized for initial guess.
 ExpMin= 1.61D-01 ExpMax= 5.48D+03 ExpMxC= 8.25D+02 IAcc=1 IRadAn=         1 AccDes= 0.00D+00
 HarFok:  IExCor=  205 AccDes= 0.00D+00 IRadAn=         1 IDoV= 1
 ScaDFX=  1.000000  1.000000  1.000000  1.000000
 FoFCou: FMM=F IPFlag=           0 FMFlag=      100000 FMFlg1=           0
         NFxFlg=           0 DoJE=T BraDBF=F KetDBF=T FulRan=T
         Omega=  0.000000  0.000000  1.000000  0.000000  0.000000 ICntrl=     500 IOpCl=  0
         NMat0=    1 NMatS0=    1 NMatT0=    0 NMatD0=    1 NMtDS0=    0 NMtDT0=    0
         I1Cent=           4 NGrid=           0.
 Petite list used in FoFCou.
 Initial guess orbital symmetries:
       Occupied  (A) (A) (A) (A) (A) (A) (A) (A) (A) (A) (A) (A)
                 (A) (A) (A) (A) (A) (A) (A) (A) (A) (A) (A) (A)
                 (A) (A) (A) (A) (A) (A) (A) (A) (A) (A) (A) (A)
                 (A) (A) (A)
       Virtual   (A) (A) (A) (A) (A) (A) (A) (A) (A) (A) (A) (A)
                 (A) (A) (A) (A) (A) (A) (A) (A) (A) (A) (A) (A)
                 (A) (A) (A) (A) (A) (A) (A) (A) (A) (A) (A) (A)
                 (A) (A) (A) (A) (A) (A) (A) (A) (A) (A) (A) (A)
                 (A) (A) (A) (A) (A) (A) (A) (A) (A) (A) (A) (A)
                 (A) (A) (A) (A) (A) (A) (A) (A) (A) (A) (A) (A)
                 (A) (A) (A) (A) (A) (A) (A) (A) (A) (A) (A) (A)
                 (A) (A) (A) (A) (A) (A) (A) (A) (A) (A) (A) (A)
                 (A) (A) (A) (A) (A) (A) (A) (A) (A) (A) (A) (A)
                 (A) (A) (A) (A) (A) (A) (A) (A) (A) (A) (A) (A)
                 (A) (A) (A) (A) (A) (A) (A) (A) (A) (A) (A) (A)
                 (A) (A) (A)
 The electronic state of the initial guess is 1-A.
 Requested convergence on RMS density matrix=1.00D-08 within 128 cycles.
 Requested convergence on MAX density matrix=1.00D-06.
 Requested convergence on             energy=1.00D-06.
 No special actions if energy rises.
 Integral accuracy reduced to 1.0D-05 until final iterations.
 Initial convergence to 1.0D-05 achieved.  Increase integral accuracy.
 SCF Done:  E(RHF) =  -492.853563405     A.U. after   15 cycles
             Convg  =    0.4808D-08             -V/T =  2.0021

 **********************************************************************

            Population analysis using the SCF density.

 **********************************************************************

 Orbital symmetries:
       Occupied  (A) (A) (A) (A) (A) (A) (A) (A) (A) (A) (A) (A)
                 (A) (A) (A) (A) (A) (A) (A) (A) (A) (A) (A) (A)
                 (A) (A) (A) (A) (A) (A) (A) (A) (A) (A) (A) (A)
                 (A) (A) (A)
       Virtual   (A) (A) (A) (A) (A) (A) (A) (A) (A) (A) (A) (A)
                 (A) (A) (A) (A) (A) (A) (A) (A) (A) (A) (A) (A)
                 (A) (A) (A) (A) (A) (A) (A) (A) (A) (A) (A) (A)
                 (A) (A) (A) (A) (A) (A) (A) (A) (A) (A) (A) (A)
                 (A) (A) (A) (A) (A) (A) (A) (A) (A) (A) (A) (A)
                 (A) (A) (A) (A) (A) (A) (A) (A) (A) (A) (A) (A)
                 (A) (A) (A) (A) (A) (A) (A) (A) (A) (A) (A) (A)
                 (A) (A) (A) (A) (A) (A) (A) (A) (A) (A) (A) (A)
                 (A) (A) (A) (A) (A) (A) (A) (A) (A) (A) (A) (A)
                 (A) (A) (A) (A) (A) (A) (A) (A) (A) (A) (A) (A)
                 (A) (A) (A) (A) (A) (A) (A) (A) (A) (A) (A) (A)
                 (A) (A) (A)
 The electronic state is 1-A.
 Alpha  occ. eigenvalues --  -20.52766 -20.51149 -15.60219 -15.58636 -11.35613
 Alpha  occ. eigenvalues --  -11.34516 -11.28414 -11.26696 -11.23192 -11.23002
 Alpha  occ. eigenvalues --   -1.38691  -1.36683  -1.24409  -1.23477  -1.06266
 Alpha  occ. eigenvalues --   -0.98853  -0.96291  -0.88342  -0.80585  -0.78622
 Alpha  occ. eigenvalues --   -0.73353  -0.67087  -0.65160  -0.64191  -0.63171
 Alpha  occ. eigenvalues --   -0.61938  -0.59970  -0.58322  -0.56931  -0.56021
 Alpha  occ. eigenvalues --   -0.55715  -0.54303  -0.52915  -0.52066  -0.49196
 Alpha  occ. eigenvalues --   -0.42528  -0.40717  -0.39916  -0.38291
 Alpha virt. eigenvalues --    0.19031   0.20416   0.21164   0.23602   0.26139
 Alpha virt. eigenvalues --    0.27957   0.29166   0.30128   0.30543   0.31384
 Alpha virt. eigenvalues --    0.31990   0.32525   0.33009   0.34018   0.36120
 Alpha virt. eigenvalues --    0.39337   0.39951   0.42462   0.47349   0.51653
 Alpha virt. eigenvalues --    0.53014   0.58428   0.61209   0.70597   0.72585
 Alpha virt. eigenvalues --    0.73415   0.74736   0.75854   0.77198   0.78094
 Alpha virt. eigenvalues --    0.79186   0.82544   0.84536   0.86856   0.89570
 Alpha virt. eigenvalues --    0.91200   0.94212   0.95742   0.97385   0.98471
 Alpha virt. eigenvalues --    1.01466   1.01868   1.03743   1.06923   1.09294
 Alpha virt. eigenvalues --    1.11359   1.11910   1.13116   1.14702   1.15929
 Alpha virt. eigenvalues --    1.16314   1.16860   1.17884   1.18661   1.19688
 Alpha virt. eigenvalues --    1.19977   1.21359   1.22374   1.23887   1.25418
 Alpha virt. eigenvalues --    1.31167   1.33495   1.36472   1.36874   1.39430
 Alpha virt. eigenvalues --    1.45254   1.52032   1.58119   1.60206   1.61124
 Alpha virt. eigenvalues --    1.62149   1.66199   1.68537   1.74606   1.75935
 Alpha virt. eigenvalues --    1.79340   1.79988   1.89451   1.94238   1.98691
 Alpha virt. eigenvalues --    2.01824   2.04861   2.07643   2.10858   2.11973
 Alpha virt. eigenvalues --    2.13135   2.14387   2.16024   2.18167   2.20138
 Alpha virt. eigenvalues --    2.24020   2.25328   2.27681   2.29710   2.33819
 Alpha virt. eigenvalues --    2.37096   2.38108   2.43634   2.45507   2.49325
 Alpha virt. eigenvalues --    2.52485   2.55828   2.58311   2.60895   2.62917
 Alpha virt. eigenvalues --    2.63056   2.64582   2.69819   2.70830   2.77173
 Alpha virt. eigenvalues --    2.78627   2.82300   2.87341   2.94420   2.97658
 Alpha virt. eigenvalues --    3.01429   3.05722   3.08211   3.13835   3.24415
 Alpha virt. eigenvalues --    3.30431   3.34201   3.38999   3.52256   3.58945
 Alpha virt. eigenvalues --    4.38887   4.43670   4.49174   4.51808   4.63507
 Alpha virt. eigenvalues --    4.65655   4.69995   4.84000   4.88235   5.04188
          Condensed to atoms (all electrons):
              1          2          3          4          5          6
     1  H    0.458626   0.385522  -0.018634  -0.018945  -0.030515   0.003581
     2  C    0.385522   5.251298   0.373969   0.374384   0.376213  -0.069335
     3  H   -0.018634   0.373969   0.508112  -0.023632  -0.033642   0.001311
     4  H   -0.018945   0.374384  -0.023632   0.515502  -0.035253   0.001264
     5  C   -0.030515   0.376213  -0.033642  -0.035253   4.176581   0.595134
     6  O    0.003581  -0.069335   0.001311   0.001264   0.595134   8.199757
     7  N    0.003822  -0.119614   0.003339   0.003672   0.246202  -0.107892
     8  H   -0.000018  -0.001214   0.000603   0.000542  -0.016734   0.002003
     9  C   -0.000076   0.004905  -0.000228  -0.000251  -0.024947   0.008433
    10  H   -0.000002   0.000326  -0.000024  -0.000009  -0.000368   0.008224
    11  C    0.000003  -0.000296   0.000002   0.000053  -0.002965  -0.002308
    12  H    0.000000  -0.000013   0.000000  -0.000001   0.000196  -0.000018
    13  H    0.000000   0.000003   0.000000   0.000000   0.000021  -0.000021
    14  H    0.000000   0.000066   0.000000  -0.000022   0.002014   0.003043
    15  C    0.000000  -0.000013   0.000002  -0.000006   0.003130   0.000525
    16  O    0.000000  -0.000041   0.000000   0.000000   0.000395  -0.000003
    17  N    0.000000   0.000000   0.000000   0.000000  -0.000066  -0.000003
    18  H    0.000000   0.000000   0.000000   0.000000  -0.000003  -0.000001
    19  C    0.000000   0.000000   0.000000   0.000000   0.000001   0.000000
    20  H    0.000000   0.000000   0.000000   0.000000   0.000000   0.000000
    21  H    0.000000   0.000000   0.000000   0.000000   0.000000   0.000000
    22  H    0.000000   0.000000   0.000000   0.000000   0.000000   0.000000
              7          8          9         10         11         12
     1  H    0.003822  -0.000018  -0.000076  -0.000002   0.000003   0.000000
     2  C   -0.119614  -0.001214   0.004905   0.000326  -0.000296  -0.000013
     3  H    0.003339   0.000603  -0.000228  -0.000024   0.000002   0.000000
     4  H    0.003672   0.000542  -0.000251  -0.000009   0.000053  -0.000001
     5  C    0.246202  -0.016734  -0.024947  -0.000368  -0.002965   0.000196
     6  O   -0.107892   0.002003   0.008433   0.008224  -0.002308  -0.000018
     7  N    7.395229   0.313272   0.199850  -0.034854  -0.069356  -0.000306
     8  H    0.313272   0.294657  -0.025357   0.002581   0.001873   0.000964
     9  C    0.199850  -0.025357   5.075950   0.403673   0.336899  -0.039063
    10  H   -0.034854   0.002581   0.403673   0.464255  -0.040714   0.004049
    11  C   -0.069356   0.001873   0.336899  -0.040714   5.161242   0.388002
    12  H   -0.000306   0.000964  -0.039063   0.004049   0.388002   0.519027
    13  H    0.005300  -0.000064  -0.042748  -0.000063   0.381628  -0.023791
    14  H   -0.005100  -0.000196  -0.030463  -0.003764   0.390977  -0.022785
    15  C   -0.042129  -0.004591   0.363831  -0.039598  -0.064858  -0.004310
    16  O   -0.003805   0.016234  -0.078929   0.001560  -0.000898   0.001402
    17  N    0.002702   0.000557  -0.114603   0.003583   0.002210   0.000366
    18  H   -0.000002  -0.000016   0.001175   0.000865   0.000500  -0.000003
    19  C   -0.000069  -0.000006   0.003819  -0.000139  -0.000285  -0.000003
    20  H   -0.000005  -0.000007   0.000571  -0.000018  -0.000038  -0.000003
    21  H    0.000002   0.000000  -0.000079  -0.000005  -0.000005   0.000000
    22  H    0.000000   0.000000  -0.000054  -0.000001   0.000040  -0.000001
             13         14         15         16         17         18
     1  H    0.000000   0.000000   0.000000   0.000000   0.000000   0.000000
     2  C    0.000003   0.000066  -0.000013  -0.000041   0.000000   0.000000
     3  H    0.000000   0.000000   0.000002   0.000000   0.000000   0.000000
     4  H    0.000000  -0.000022  -0.000006   0.000000   0.000000   0.000000
     5  C    0.000021   0.002014   0.003130   0.000395  -0.000066  -0.000003
     6  O   -0.000021   0.003043   0.000525  -0.000003  -0.000003  -0.000001
     7  N    0.005300  -0.005100  -0.042129  -0.003805   0.002702  -0.000002
     8  H   -0.000064  -0.000196  -0.004591   0.016234   0.000557  -0.000016
     9  C   -0.042748  -0.030463   0.363831  -0.078929  -0.114603   0.001175
    10  H   -0.000063  -0.003764  -0.039598   0.001560   0.003583   0.000865
    11  C    0.381628   0.390977  -0.064858  -0.000898   0.002210   0.000500
    12  H   -0.023791  -0.022785  -0.004310   0.001402   0.000366  -0.000003
    13  H    0.549311  -0.021743  -0.002941   0.000049   0.001879   0.001015
    14  H   -0.021743   0.477489   0.004710  -0.000078  -0.000040  -0.000047
    15  C   -0.002941   0.004710   4.170677   0.593055   0.282931  -0.021157
    16  O    0.000049  -0.000078   0.593055   8.217714  -0.098768   0.002373
    17  N    0.001879  -0.000040   0.282931  -0.098768   7.327929   0.324434
    18  H    0.001015  -0.000047  -0.021157   0.002373   0.324434   0.321080
    19  C    0.000015   0.000004  -0.025440  -0.004786   0.185793  -0.021806
    20  H   -0.000003   0.000000  -0.001996   0.010213  -0.031649   0.002292
    21  H    0.000004   0.000000   0.000535   0.000368  -0.047087  -0.001253
    22  H   -0.000021  -0.000001   0.001249   0.000371  -0.048126  -0.000901
             19         20         21         22
     1  H    0.000000   0.000000   0.000000   0.000000
     2  C    0.000000   0.000000   0.000000   0.000000
     3  H    0.000000   0.000000   0.000000   0.000000
     4  H    0.000000   0.000000   0.000000   0.000000
     5  C    0.000001   0.000000   0.000000   0.000000
     6  O    0.000000   0.000000   0.000000   0.000000
     7  N   -0.000069  -0.000005   0.000002   0.000000
     8  H   -0.000006  -0.000007   0.000000   0.000000
     9  C    0.003819   0.000571  -0.000079  -0.000054
    10  H   -0.000139  -0.000018  -0.000005  -0.000001
    11  C   -0.000285  -0.000038  -0.000005   0.000040
    12  H   -0.000003  -0.000003   0.000000  -0.000001
    13  H    0.000015  -0.000003   0.000004  -0.000021
    14  H    0.000004   0.000000   0.000000  -0.000001
    15  C   -0.025440  -0.001996   0.000535   0.001249
    16  O   -0.004786   0.010213   0.000368   0.000371
    17  N    0.185793  -0.031649  -0.047087  -0.048126
    18  H   -0.021806   0.002292  -0.001253  -0.000901
    19  C    4.953650   0.396541   0.403127   0.402220
    20  H    0.396541   0.430514  -0.022090  -0.022521
    21  H    0.403127  -0.022090   0.528137  -0.036334
    22  H    0.402220  -0.022521  -0.036334   0.532106
 Mulliken atomic charges:
              1
     1  H    0.216636
     2  C   -0.576160
     3  H    0.188824
     4  H    0.182703
     5  C    0.744606
     6  O   -0.643694
     7  N   -0.790259
     8  H    0.414917
     9  C   -0.042307
    10  H    0.230445
    11  C   -0.481705
    12  H    0.176290
    13  H    0.152170
    14  H    0.205935
    15  C    0.786396
    16  O   -0.656426
    17  N   -0.792041
    18  H    0.391457
    19  C   -0.292637
    20  H    0.238199
    21  H    0.174679
    22  H    0.171973
 Sum of Mulliken atomic charges =   0.00000
 Mulliken charges with hydrogens summed into heavy atoms:
              1
     2  C    0.012002
     5  C    0.744606
     6  O   -0.643694
     7  N   -0.375342
     9  C    0.188138
    11  C    0.052690
    15  C    0.786396
    16  O   -0.656426
    17  N   -0.400584
    19  C    0.292213
 Sum of Mulliken charges with hydrogens summed into heavy atoms =   0.00000
 Electronic spatial extent (au):  <R**2>=           1972.5193
 Charge=              0.0000 electrons
 Dipole moment (field-independent basis, Debye):
    X=              2.5941    Y=              0.5927    Z=              0.7876  Tot=              2.7751
 Quadrupole moment (field-independent basis, Debye-Ang):
   XX=            -54.7806   YY=            -63.3418   ZZ=            -62.0667
   XY=             12.6223   XZ=             -9.6803   YZ=              2.3819
 Traceless Quadrupole moment (field-independent basis, Debye-Ang):
   XX=              5.2824   YY=             -3.2788   ZZ=             -2.0036
   XY=             12.6223   XZ=             -9.6803   YZ=              2.3819
 Octapole moment (field-independent basis, Debye-Ang**2):
  XXX=             34.3308  YYY=              3.6977  ZZZ=              0.9182  XYY=              2.1561
  XXY=            -16.8533  XXZ=              4.7202  XZZ=              5.8651  YZZ=             -2.4664
  YYZ=             -2.3558  XYZ=             -6.1015
 Hexadecapole moment (field-independent basis, Debye-Ang**3):
 XXXX=          -1814.1052 YYYY=           -389.6656 ZZZZ=           -203.2065 XXXY=             42.9851
 XXXZ=            -47.3123 YYYX=             12.1802 YYYZ=             -5.2299 ZZZX=             -8.4093
 ZZZY=             -7.3650 XXYY=           -396.6686 XXZZ=           -373.1739 YYZZ=           -100.7524
 XXYZ=             15.0028 YYXZ=            -13.8616 ZZXY=              9.1271
 N-N= 5.514708224225D+02 E-N=-2.258108547295D+03  KE= 4.918240085126D+02
 Calling FoFJK, ICntrl=      2127 FMM=F ISym2X=0 I1Cent= 0 IOpClX= 0 NMat=1 NMatS=1 NMatT=0.
 ***** Axes restored to original set *****
 -------------------------------------------------------------------
 Center     Atomic                   Forces (Hartrees/Bohr)
 Number     Number              X              Y              Z
 -------------------------------------------------------------------
      1        1           0.004557748    0.007759561   -0.002977010
      2        6           0.005896601    0.007679855   -0.002080922
      3        1          -0.001066888   -0.003563084   -0.003724767
      4        1          -0.003237493    0.000369314    0.004022095
      5        6           0.020760689   -0.043205910    0.028146238
      6        8          -0.025456017    0.022869484   -0.018814563
      7        7          -0.006446636    0.018081506   -0.006583784
      8        1           0.012464093   -0.002144392    0.007701338
      9        6           0.006439758   -0.000119047    0.000775380
     10        1          -0.007602229   -0.001508252   -0.003617585
     11        6           0.004153070   -0.004884532   -0.002645539
     12        1           0.004284661   -0.001549506    0.001644288
     13        1          -0.001997191   -0.004685270   -0.004858250
     14        1           0.000393616    0.005634357   -0.001217687
     15        6          -0.051124852    0.009751214   -0.002590424
     16        8           0.032402194   -0.016419004    0.005513707
     17        7           0.012573115   -0.002023406    0.002692176
     18        1          -0.014029265    0.006304822   -0.002380109
     19        6           0.002614776    0.004439613   -0.000122710
     20        1           0.008775976   -0.005271550    0.002247102
     21        1          -0.001063788    0.001081664   -0.004837301
     22        1          -0.003291938    0.001402563    0.003708329
 -------------------------------------------------------------------
 Cartesian Forces:  Max     0.051124852 RMS     0.012567408

 GradGradGradGradGradGradGradGradGradGradGradGradGradGradGradGradGradGrad
 Berny optimization.
 Internal  Forces:  Max     0.038811625 RMS     0.007225092
 Search for a local minimum.
 Step number   1 out of a maximum of  108
 All quantities printed in internal units (Hartrees-Bohrs-Radians)
 Mixed Optimization -- RFO/linear search
 Second derivative matrix not updated -- first step.
     Eigenvalues ---    0.00369   0.00435   0.00999   0.01043   0.01269
     Eigenvalues ---    0.01422   0.01660   0.02551   0.02551   0.03503
     Eigenvalues ---    0.05232   0.05841   0.05844   0.05844   0.07165
     Eigenvalues ---    0.07464   0.07685   0.07685   0.15421   0.16000
     Eigenvalues ---    0.16000   0.16000   0.16000   0.16000   0.16000
     Eigenvalues ---    0.16000   0.16000   0.16000   0.16000   0.16000
     Eigenvalues ---    0.16180   0.22000   0.22000   0.25000   0.25000
     Eigenvalues ---    0.25000   0.25000   0.29422   0.29887   0.30174
     Eigenvalues ---    0.34808   0.34810   0.34811   0.34812   0.34812
     Eigenvalues ---    0.34814   0.34816   0.34818   0.34821   0.34822
     Eigenvalues ---    0.38374   0.38379   0.45976   0.45986   0.58327
     Eigenvalues ---    0.58334   0.91506   0.915221000.000001000.00000
     Eigenvalues --- 1000.000001000.000001000.000001000.000001000.00000
     Eigenvalues --- 1000.000001000.000001000.000001000.000001000.00000
     Eigenvalues --- 1000.000001000.000001000.000001000.000001000.00000
     Eigenvalues --- 1000.000001000.000001000.000001000.000001000.00000
     Eigenvalues --- 1000.000001000.000001000.000001000.000001000.00000
     Eigenvalues --- 1000.000001000.000001000.000001000.000001000.00000
     Eigenvalues --- 1000.000001000.000001000.000001000.000001000.00000
     Eigenvalues --- 1000.000001000.000001000.00000
 RFO step:  Lambda=-1.29446421D-02 EMin= 3.68861443D-03
 Linear search not attempted -- first point.
 Iteration  1 RMS(Cart)=  0.06770425 RMS(Int)=  0.00165982
 Iteration  2 RMS(Cart)=  0.00268204 RMS(Int)=  0.00050996
 Iteration  3 RMS(Cart)=  0.00000320 RMS(Int)=  0.00050995
 Iteration  4 RMS(Cart)=  0.00000000 RMS(Int)=  0.00050995
 Iteration  1 RMS(Cart)=  0.00025441 RMS(Int)=  0.00008241
 Iteration  2 RMS(Cart)=  0.00013859 RMS(Int)=  0.00009164
 Iteration  3 RMS(Cart)=  0.00007633 RMS(Int)=  0.00010423
 Iteration  4 RMS(Cart)=  0.00004269 RMS(Int)=  0.00011356
 Iteration  5 RMS(Cart)=  0.00002436 RMS(Int)=  0.00011979
 Iteration  6 RMS(Cart)=  0.00001425 RMS(Int)=  0.00012383
 Iteration  7 RMS(Cart)=  0.00000856 RMS(Int)=  0.00012643
 Iteration  8 RMS(Cart)=  0.00000528 RMS(Int)=  0.00012812
 Iteration  9 RMS(Cart)=  0.00000333 RMS(Int)=  0.00012921
 Iteration 10 RMS(Cart)=  0.00000214 RMS(Int)=  0.00012992
 Iteration 11 RMS(Cart)=  0.00000140 RMS(Int)=  0.00013038
 Iteration 12 RMS(Cart)=  0.00000092 RMS(Int)=  0.00013069
 Variable       Old X    -DE/DX   Delta X   Delta X   Delta X     New X
                                 (Linear)    (Quad)   (Total)
    R1        2.05977  -0.00850   0.00000  -0.02355  -0.02355   2.03623
    R2        2.05987  -0.00330   0.00000  -0.00913  -0.00913   2.05074
    R3        2.05965  -0.00306   0.00000  -0.00847  -0.00847   2.05118
    R4        2.89132  -0.01003   0.00000  -0.03265  -0.03265   2.85867
    R5        2.32240  -0.03881   0.00000  -0.04182  -0.04182   2.28058
    R6        2.52289   0.00896   0.00000   0.01502   0.01502   2.53792
    R7        1.90859  -0.01391   0.00000  -0.02942  -0.02942   1.87916
    R8        2.73817  -0.01018   0.00000  -0.02566  -0.02566   2.71251
    R9        2.05975  -0.00641   0.00000  -0.01774  -0.01774   2.04200
   R10        2.88188   0.01075   0.00000   0.03448   0.03448   2.91637
   R11        2.87618   0.00048   0.00000   0.00154   0.00154   2.87771
   R12        2.05972  -0.00390   0.00000  -0.01080  -0.01080   2.04892
   R13        2.05984  -0.00403   0.00000  -0.01117  -0.01117   2.04867
   R14        2.05966  -0.00552   0.00000  -0.01528  -0.01528   2.04438
   R15        2.32246  -0.03664   0.00000  -0.03948  -0.03948   2.28299
   R16        2.52283   0.00799   0.00000   0.01340   0.01340   2.53623
   R17        1.90848  -0.01548   0.00000  -0.03274  -0.03274   1.87574
   R18        2.73825   0.00165   0.00000   0.00417   0.00417   2.74242
   R19        2.05981  -0.01031   0.00000  -0.02854  -0.02854   2.03127
   R20        2.05982  -0.00436   0.00000  -0.01208  -0.01208   2.04774
   R21        2.05984  -0.00414   0.00000  -0.01146  -0.01146   2.04837
    A1        1.91109   0.00062   0.00000   0.00180   0.00216   1.91326
    A2        1.91123   0.00044   0.00000   0.00032   0.00068   1.91192
    A3        1.93910  -0.00810   0.00000  -0.04883  -0.04846   1.89064
    A4        1.91012  -0.00467   0.00000  -0.02275  -0.02351   1.88662
    A5        1.89594   0.00579   0.00000   0.03456   0.03434   1.93029
    A6        1.89607   0.00595   0.00000   0.03529   0.03508   1.93115
    A7        2.10313   0.00853   0.00000   0.03245   0.03245   2.13558
    A8        2.03508  -0.00707   0.00000  -0.02690  -0.02691   2.00818
    A9        2.14497  -0.00146   0.00000  -0.00555  -0.00556   2.13941
   A10        2.09430   0.00318   0.00000   0.01956   0.01935   2.11365
   A11        2.12753   0.00155   0.00000   0.00666   0.00647   2.13400
   A12        2.06135  -0.00473   0.00000  -0.02622  -0.02638   2.03497
   A13        1.91114  -0.00113   0.00000  -0.03515  -0.03525   1.87588
   A14        1.93905   0.00386   0.00000   0.01361   0.01483   1.95388
   A15        1.93900  -0.01161   0.00000  -0.07085  -0.07126   1.86774
   A16        1.89609  -0.00217   0.00000   0.01257   0.01139   1.90748
   A17        1.89608   0.00254   0.00000   0.02873   0.02569   1.92177
   A18        1.88137   0.00878   0.00000   0.05440   0.05454   1.93591
   A19        1.91115   0.00253   0.00000   0.01475   0.01448   1.92562
   A20        1.91106   0.00757   0.00000   0.04542   0.04508   1.95614
   A21        1.91110   0.00043   0.00000   0.00070   0.00065   1.91175
   A22        1.91011  -0.00450   0.00000  -0.02240  -0.02293   1.88717
   A23        1.91023  -0.00199   0.00000  -0.01483  -0.01480   1.89543
   A24        1.91015  -0.00405   0.00000  -0.02371  -0.02384   1.88632
   A25        2.10312   0.00096   0.00000   0.00364   0.00244   2.10556
   A26        2.03503  -0.00393   0.00000  -0.01494  -0.01615   2.01888
   A27        2.14504   0.00297   0.00000   0.01131   0.01007   2.15512
   A28        2.09446  -0.00473   0.00000  -0.02192  -0.02192   2.07254
   A29        2.12749   0.00730   0.00000   0.03132   0.03132   2.15881
   A30        2.06124  -0.00257   0.00000  -0.00941  -0.00941   2.05183
   A31        1.91122  -0.00441   0.00000  -0.02809  -0.02793   1.88328
   A32        1.91113   0.00366   0.00000   0.02220   0.02201   1.93314
   A33        1.91111   0.00457   0.00000   0.02801   0.02784   1.93896
   A34        1.91008  -0.00037   0.00000  -0.00532  -0.00519   1.90489
   A35        1.91014  -0.00056   0.00000  -0.00527  -0.00509   1.90505
   A36        1.91011  -0.00290   0.00000  -0.01154  -0.01201   1.89810
    D1        0.00008   0.00003   0.00000   0.00224   0.00227   0.00235
    D2       -3.14153  -0.00011   0.00000  -0.00317  -0.00320   3.13846
    D3        2.10332  -0.00047   0.00000  -0.00340  -0.00382   2.09950
    D4       -1.03830  -0.00060   0.00000  -0.00881  -0.00928  -1.04758
    D5       -2.10341   0.00064   0.00000   0.00925   0.00973  -2.09368
    D6        1.03816   0.00050   0.00000   0.00384   0.00427   1.04243
    D7       -0.00004   0.00036   0.00000   0.01543   0.01593   0.01589
    D8       -3.14152  -0.00064   0.00000  -0.02081  -0.02138   3.12028
    D9        3.14153   0.00022   0.00000   0.00988   0.01046  -3.13120
   D10        0.00005  -0.00078   0.00000  -0.02636  -0.02686  -0.02681
   D11       -0.52362  -0.00177   0.00000  -0.03185  -0.03055  -0.55418
   D12        1.57082  -0.00277   0.00000  -0.03047  -0.03021   1.54061
   D13       -2.61802   0.00314   0.00000   0.00000   0.00000  -2.61802
   D14        2.61807  -0.00276   0.00000  -0.06744  -0.06628   2.55179
   D15       -1.57067  -0.00375   0.00000  -0.06605  -0.06594  -1.63661
   D16        0.52368   0.00216   0.00000  -0.03559  -0.03573   0.48795
   D17        1.04724  -0.00221   0.00000  -0.00227  -0.00225   1.04499
   D18        3.14157  -0.00154   0.00000   0.00719   0.00747  -3.13415
   D19       -1.04726  -0.00159   0.00000   0.00642   0.00663  -1.04064
   D20       -3.13259  -0.00262   0.00000  -0.02922  -0.02940   3.12120
   D21       -1.03826  -0.00195   0.00000  -0.01976  -0.01968  -1.05794
   D22        1.05609  -0.00200   0.00000  -0.02053  -0.02052   1.03557
   D23       -1.08102   0.00402   0.00000   0.04137   0.04109  -1.03994
   D24        1.01331   0.00470   0.00000   0.05084   0.05080   1.06411
   D25        3.10766   0.00464   0.00000   0.05006   0.04996  -3.12556
   D26       -0.26182  -0.00521   0.00000  -0.08863  -0.08843  -0.35025
   D27        2.87976  -0.00373   0.00000   0.00000   0.00000   2.87976
   D28       -2.36514   0.00173   0.00000  -0.01986  -0.01881  -2.38395
   D29        0.77644   0.00321   0.00000   0.06877   0.06961   0.84606
   D30        1.86647  -0.00187   0.00000  -0.08001  -0.08089   1.78557
   D31       -1.27514  -0.00039   0.00000   0.00863   0.00753  -1.26760
   D32        0.00006  -0.00163   0.00000  -0.06858  -0.06871  -0.06864
   D33        3.14157  -0.00151   0.00000  -0.06434  -0.06448   3.07708
   D34       -3.14154  -0.00011   0.00000   0.02237   0.02251  -3.11903
   D35       -0.00004   0.00002   0.00000   0.02662   0.02674   0.02670
   D36        0.00005   0.00005   0.00000  -0.00079  -0.00082  -0.00077
   D37        2.09443  -0.00086   0.00000  -0.01092  -0.01117   2.08326
   D38       -2.09440   0.00063   0.00000   0.00572   0.00598  -2.08842
   D39        3.14155   0.00017   0.00000   0.00337   0.00336  -3.13827
   D40       -1.04725  -0.00074   0.00000  -0.00676  -0.00699  -1.05424
   D41        1.04711   0.00076   0.00000   0.00989   0.01015   1.05726
         Item               Value     Threshold  Converged?
 Maximum Force            0.038812     0.000450     NO 
 RMS     Force            0.007264     0.000300     NO 
 Maximum Displacement     0.215955     0.001800     NO 
 RMS     Displacement     0.067888     0.001200     NO 
 Predicted change in Energy=-7.060116D-03
 GradGradGradGradGradGradGradGradGradGradGradGradGradGradGradGradGradGrad

                          Input orientation:                          
 ---------------------------------------------------------------------
 Center     Atomic      Atomic             Coordinates (Angstroms)
 Number     Number       Type             X           Y           Z
 ---------------------------------------------------------------------
      1          1           0        1.898277    1.313759    0.965024
      2          6           0        1.946030    2.287299    0.505678
      3          1           0        1.296755    2.974112    1.038970
      4          1           0        1.597891    2.222178   -0.520350
      5          6           0        3.380362    2.765678    0.552927
      6          8           0        4.265782    2.105452    1.039316
      7          7           0        3.595120    3.974408    0.008391
      8          1           0        2.847485    4.503639   -0.378660
      9          6           0        4.892565    4.588207   -0.007525
     10          1           0        5.415596    4.264715    0.880985
     11          6           0        5.706958    4.183406   -1.254361
     12          1           0        5.186665    4.482204   -2.157467
     13          1           0        6.690162    4.640016   -1.264785
     14          1           0        5.835450    3.109331   -1.269475
     15          6           0        4.673365    6.094618    0.033232
     16          8           0        3.610486    6.571033   -0.287443
     17          7           0        5.752910    6.831228    0.338620
     18          1           0        6.597323    6.365776    0.574359
     19          6           0        5.760256    8.282389    0.350236
     20          1           0        4.776774    8.620013    0.077858
     21          1           0        6.003992    8.657380    1.337249
     22          1           0        6.479995    8.674557   -0.359080
 ---------------------------------------------------------------------
                    Distance matrix (angstroms):
                    1          2          3          4          5
     1  H    0.000000
     2  C    1.077525   0.000000
     3  H    1.767504   1.085205   0.000000
     4  H    1.766860   1.085438   1.757147   0.000000
     5  C    2.115294   1.512742   2.149675   2.150469   0.000000
     6  O    2.497474   2.387276   3.093492   3.092543   1.206831
     7  N    3.297495   2.411043   2.710197   2.709022   1.343007
     8  H    3.589125   2.550850   2.598824   2.605115   2.042626
     9  C    4.542425   3.773543   4.078027   4.088516   2.433614
    10  H    4.592029   4.011099   4.319197   4.550886   2.548904
    11  C    5.259904   4.564815   5.115823   4.611899   3.269448
    12  H    5.531951   4.734096   5.255753   4.546115   3.681769
    13  H    6.244854   5.583602   6.096832   5.686066   4.215685
    14  H    4.870154   4.353676   5.093815   4.393761   3.076801
    15  C    5.605886   4.707148   4.706438   4.976021   3.608848
    16  O    5.669150   4.663672   4.477786   4.797637   3.903833
    17  N    6.759663   5.930222   5.935078   6.264611   4.712070
    18  H    6.910610   6.186536   6.309935   6.584992   4.828044
    19  C    7.990910   7.107290   6.969576   7.403333   6.011578
    20  H    7.902794   6.949778   6.701527   7.169062   6.037293
    21  H    8.421652   7.598454   7.385566   8.017245   6.496980
    22  H    8.770789   7.880464   7.830427   8.092845   6.734563
                    6          7          8          9         10
     6  O    0.000000
     7  N    2.237318   0.000000
     8  H    3.126264   0.994410   0.000000
     9  C    2.766371   1.435398   2.080204   0.000000
    10  H    2.451440   2.039566   2.870363   1.080582   0.000000
    11  C    3.414064   2.469429   3.007655   1.543276   2.156666
    12  H    4.088569   2.735290   2.938771   2.172552   3.054816
    13  H    4.196488   3.412227   3.945882   2.194252   2.523826
    14  H    2.966842   2.720364   3.415491   2.160700   2.477029
    15  C    4.134220   2.378764   2.456564   1.522821   2.148985
    16  O    4.704373   2.613469   2.205586   2.377747   3.153212
    17  N    5.003547   3.595348   3.791260   2.427169   2.644792
    18  H    4.878794   3.879715   4.293843   2.530719   2.430012
    19  C    6.392404   4.833567   4.826434   3.811542   4.067208
    20  H    6.604924   4.794036   4.568928   4.034372   4.474565
    21  H    6.785124   5.431276   5.491944   4.427398   4.455322
    22  H    7.071874   5.527110   5.531010   4.397929   4.702916
                   11         12         13         14         15
    11  C    0.000000
    12  H    1.084244   0.000000
    13  H    1.084109   1.755646   0.000000
    14  H    1.081838   1.759042   1.753155   0.000000
    15  C    2.525657   2.768125   2.805028   3.458240   0.000000
    16  O    3.321278   3.216292   3.764097   4.230630   1.208104
    17  N    3.090415   3.474046   2.872413   4.055280   1.342115
    18  H    2.983238   3.605645   2.523750   3.818980   2.016918
    19  C    4.402185   4.589007   4.091442   5.421221   2.463364
    20  H    4.724779   4.720822   4.615639   5.770938   2.527906
    21  H    5.178911   5.505739   4.835351   6.132232   3.168403
    22  H    4.644304   4.741595   4.140289   5.675914   3.173942
                   16         17         18         19         20
    16  O    0.000000
    17  N    2.247140   0.000000
    18  H    3.115450   0.992598   0.000000
    19  C    2.820794   1.451226   2.103406   0.000000
    20  H    2.385790   2.054408   2.939812   1.074903   0.000000
    21  H    3.566699   2.096458   2.487065   1.083615   1.758842
    22  H    3.558655   2.100786   2.493099   1.083952   1.759219
                   21         22
    21  H    0.000000
    22  H    1.761933   0.000000
 Stoichiometry    C6H12N2O2
 Framework group  C1[X(C6H12N2O2)]
 Deg. of freedom    60
 Full point group                 C1      NOp   1
 Largest Abelian subgroup         C1      NOp   1
 Largest concise Abelian subgroup C1      NOp   1
                         Standard orientation:                         
 ---------------------------------------------------------------------
 Center     Atomic      Atomic             Coordinates (Angstroms)
 Number     Number       Type             X           Y           Z
 ---------------------------------------------------------------------
      1          1           0       -4.266130   -0.807175   -0.376120
      2          6           0       -3.338410   -1.094032    0.090901
      3          1           0       -3.044736   -2.079193   -0.256783
      4          1           0       -3.473290   -1.142587    1.166831
      5          6           0       -2.287297   -0.067419   -0.269119
      6          8           0       -2.529026    0.887244   -0.966705
      7          7           0       -1.069548   -0.293970    0.249949
      8          1           0       -0.892512   -1.092811    0.815071
      9          6           0        0.047963    0.567695   -0.012860
     10          1           0       -0.079328    0.970080   -1.007617
     11          6           0        0.131637    1.729049    1.000035
     12          1           0        0.239047    1.343147    2.007571
     13          1           0        0.970720    2.385420    0.799013
     14          1           0       -0.774542    2.317940    0.950857
     15          6           0        1.300459   -0.296461    0.046041
     16          8           0        1.287769   -1.360897    0.617296
     17          7           0        2.409492    0.250779   -0.475350
     18          1           0        2.342979    1.138969   -0.913466
     19          6           0        3.713375   -0.385482   -0.441893
     20          1           0        3.607283   -1.330235    0.059708
     21          1           0        4.083509   -0.555869   -1.445979
     22          1           0        4.431088    0.223768    0.095372
 ---------------------------------------------------------------------
 Rotational constants (GHZ):      2.8381809      0.6663857      0.6069663
 Standard basis: 6-31G(d) (6D, 7F)
 There are   174 symmetry adapted basis functions of A   symmetry.
 Integral buffers will be    131072 words long.
 Raffenetti 1 integral format.
 Two-electron integral symmetry is turned on.
   174 basis functions,   328 primitive gaussians,   174 cartesian basis functions
    39 alpha electrons       39 beta electrons
       nuclear repulsion energy       554.0134773386 Hartrees.
 NAtoms=   22 NActive=   22 NUniq=   22 SFac= 7.50D-01 NAtFMM=   80 NAOKFM=F Big=F
 One-electron integrals computed using PRISM.
 NBasis=   174 RedAO= T  NBF=   174
 NBsUse=   174 1.00D-06 NBFU=   174
 Initial guess read from the read-write file.
 B after Tr=     0.000000    0.000000    0.000000
         Rot=    1.000000    0.000000    0.000000    0.000000 Ang=   0.00 deg.
 Initial guess orbital symmetries:
       Occupied  (A) (A) (A) (A) (A) (A) (A) (A) (A) (A) (A) (A)
                 (A) (A) (A) (A) (A) (A) (A) (A) (A) (A) (A) (A)
                 (A) (A) (A) (A) (A) (A) (A) (A) (A) (A) (A) (A)
                 (A) (A) (A)
       Virtual   (A) (A) (A) (A) (A) (A) (A) (A) (A) (A) (A) (A)
                 (A) (A) (A) (A) (A) (A) (A) (A) (A) (A) (A) (A)
                 (A) (A) (A) (A) (A) (A) (A) (A) (A) (A) (A) (A)
                 (A) (A) (A) (A) (A) (A) (A) (A) (A) (A) (A) (A)
                 (A) (A) (A) (A) (A) (A) (A) (A) (A) (A) (A) (A)
                 (A) (A) (A) (A) (A) (A) (A) (A) (A) (A) (A) (A)
                 (A) (A) (A) (A) (A) (A) (A) (A) (A) (A) (A) (A)
                 (A) (A) (A) (A) (A) (A) (A) (A) (A) (A) (A) (A)
                 (A) (A) (A) (A) (A) (A) (A) (A) (A) (A) (A) (A)
                 (A) (A) (A) (A) (A) (A) (A) (A) (A) (A) (A) (A)
                 (A) (A) (A) (A) (A) (A) (A) (A) (A) (A) (A) (A)
                 (A) (A) (A)
 Harris functional with IExCor=  205 diagonalized for initial guess.
 ExpMin= 1.61D-01 ExpMax= 5.48D+03 ExpMxC= 8.25D+02 IAcc=1 IRadAn=         1 AccDes= 0.00D+00
 HarFok:  IExCor=  205 AccDes= 0.00D+00 IRadAn=         1 IDoV= 1
 ScaDFX=  1.000000  1.000000  1.000000  1.000000
 FoFCou: FMM=F IPFlag=           0 FMFlag=      100000 FMFlg1=           0
         NFxFlg=           0 DoJE=T BraDBF=F KetDBF=T FulRan=T
         Omega=  0.000000  0.000000  1.000000  0.000000  0.000000 ICntrl=     500 IOpCl=  0
         NMat0=    1 NMatS0=    1 NMatT0=    0 NMatD0=    1 NMtDS0=    0 NMtDT0=    0
         I1Cent=           4 NGrid=           0.
 Petite list used in FoFCou.
 Requested convergence on RMS density matrix=1.00D-08 within 128 cycles.
 Requested convergence on MAX density matrix=1.00D-06.
 Requested convergence on             energy=1.00D-06.
 No special actions if energy rises.
 Integral accuracy reduced to 1.0D-05 until final iterations.
 Initial convergence to 1.0D-05 achieved.  Increase integral accuracy.
 SCF Done:  E(RHF) =  -492.859410471     A.U. after   13 cycles
             Convg  =    0.9957D-08             -V/T =  2.0014
 Calling FoFJK, ICntrl=      2127 FMM=F ISym2X=0 I1Cent= 0 IOpClX= 0 NMat=1 NMatS=1 NMatT=0.
 ***** Axes restored to original set *****
 -------------------------------------------------------------------
 Center     Atomic                   Forces (Hartrees/Bohr)
 Number     Number              X              Y              Z
 -------------------------------------------------------------------
      1        1          -0.001242916   -0.001605878    0.000544794
      2        6           0.000491603    0.000595786    0.000271705
      3        1          -0.000127511   -0.000120911   -0.000167374
      4        1           0.000019847    0.000075469    0.000204352
      5        6           0.003176023   -0.008530941    0.002862996
      6        8          -0.003970589    0.002822239   -0.001711723
      7        7          -0.000499800   -0.000223523   -0.002813349
      8        1          -0.000910666    0.001536777    0.001295809
      9        6           0.002260145   -0.001404171   -0.000703394
     10        1           0.001861563    0.000340715    0.000342713
     11        6          -0.001647165    0.001625861    0.002147972
     12        1          -0.000575932    0.000433648   -0.000026814
     13        1           0.000613888    0.000695294    0.000847426
     14        1          -0.000862108   -0.000551644    0.001182788
     15        6          -0.004671156    0.004135025   -0.013674599
     16        8           0.004193157   -0.000655257    0.004846574
     17        7           0.003180006    0.005334420    0.003461255
     18        1           0.000668714   -0.001893020    0.001250433
     19        6          -0.000417323   -0.003002642    0.000419571
     20        1          -0.001674019    0.001432285   -0.000517465
     21        1          -0.000045373   -0.000186536    0.000400878
     22        1           0.000179610   -0.000852995   -0.000464548
 -------------------------------------------------------------------
 Cartesian Forces:  Max     0.013674599 RMS     0.002755191

 GradGradGradGradGradGradGradGradGradGradGradGradGradGradGradGradGradGrad
 Berny optimization.
 Using GEDIIS/GDIIS optimizer.
 Internal  Forces:  Max     0.007165201 RMS     0.001777151
 Search for a local minimum.
 Step number   2 out of a maximum of  108
 All quantities printed in internal units (Hartrees-Bohrs-Radians)
 Mixed Optimization -- RFO/linear search
 Update second derivatives using D2CorX and points    1    2
 DE= -5.85D-03 DEPred=-7.06D-03 R= 8.28D-01
 SS=  1.41D+00  RLast= 2.99D-01 DXNew= 5.0454D-01 8.9823D-01
 Trust test= 8.28D-01 RLast= 2.99D-01 DXMaxT set to 5.05D-01
 Use linear search instead of GDIIS.
     Eigenvalues ---    0.00369   0.00435   0.01043   0.01086   0.01245
     Eigenvalues ---    0.01435   0.01654   0.02543   0.02551   0.03674
     Eigenvalues ---    0.05068   0.05513   0.05747   0.06270   0.07159
     Eigenvalues ---    0.07337   0.07455   0.07769   0.14764   0.15670
     Eigenvalues ---    0.15994   0.16000   0.16000   0.16000   0.16000
     Eigenvalues ---    0.16000   0.16000   0.16000   0.16000   0.16211
     Eigenvalues ---    0.18085   0.21889   0.22145   0.24529   0.24936
     Eigenvalues ---    0.25000   0.25248   0.29327   0.30009   0.30982
     Eigenvalues ---    0.34737   0.34809   0.34810   0.34811   0.34813
     Eigenvalues ---    0.34815   0.34816   0.34818   0.34821   0.35355
     Eigenvalues ---    0.38351   0.39726   0.45938   0.46200   0.57216
     Eigenvalues ---    0.58404   0.83569   0.915151000.000001000.00000
     Eigenvalues --- 1000.000001000.000001000.000001000.000001000.00000
     Eigenvalues --- 1000.000001000.000001000.000001000.000001000.00000
     Eigenvalues --- 1000.000001000.000001000.000001000.000001000.00000
     Eigenvalues --- 1000.000001000.000001000.000001000.000001000.00000
     Eigenvalues --- 1000.000001000.000001000.000001000.000001000.00000
     Eigenvalues --- 1000.000001000.000001000.000001000.000001000.00000
     Eigenvalues --- 1000.000001000.000001000.000001000.000001000.00000
     Eigenvalues --- 1000.000001000.000001000.00000
 RFO step:  Lambda=-1.34181564D-03 EMin= 3.68861337D-03
 Quartic linear search produced a step of -0.09574.
 Iteration  1 RMS(Cart)=  0.02185826 RMS(Int)=  0.00055933
 Iteration  2 RMS(Cart)=  0.00115554 RMS(Int)=  0.00022953
 Iteration  3 RMS(Cart)=  0.00000097 RMS(Int)=  0.00022953
 Iteration  1 RMS(Cart)=  0.00003353 RMS(Int)=  0.00001112
 Iteration  2 RMS(Cart)=  0.00001848 RMS(Int)=  0.00001236
 Iteration  3 RMS(Cart)=  0.00001035 RMS(Int)=  0.00001408
 Iteration  4 RMS(Cart)=  0.00000590 RMS(Int)=  0.00001539
 Iteration  5 RMS(Cart)=  0.00000345 RMS(Int)=  0.00001628
 Iteration  6 RMS(Cart)=  0.00000207 RMS(Int)=  0.00001687
 Iteration  7 RMS(Cart)=  0.00000127 RMS(Int)=  0.00001726
 Iteration  8 RMS(Cart)=  0.00000080 RMS(Int)=  0.00001752
 Variable       Old X    -DE/DX   Delta X   Delta X   Delta X     New X
                                 (Linear)    (Quad)   (Total)
    R1        2.03623   0.00174   0.00225  -0.00068   0.00158   2.03780
    R2        2.05074  -0.00008   0.00087  -0.00222  -0.00135   2.04939
    R3        2.05118  -0.00020   0.00081  -0.00239  -0.00158   2.04960
    R4        2.85867   0.00112   0.00313  -0.00377  -0.00064   2.85802
    R5        2.28058  -0.00515   0.00400  -0.01417  -0.01017   2.27041
    R6        2.53792   0.00717  -0.00144   0.01437   0.01293   2.55085
    R7        1.87916   0.00100   0.00282  -0.00448  -0.00166   1.87750
    R8        2.71251   0.00511   0.00246   0.00636   0.00882   2.72133
    R9        2.04200   0.00108   0.00170  -0.00110   0.00060   2.04260
   R10        2.91637  -0.00524  -0.00330  -0.00818  -0.01148   2.90489
   R11        2.87771   0.00395  -0.00015   0.01212   0.01198   2.88969
   R12        2.04892   0.00042   0.00103  -0.00129  -0.00026   2.04867
   R13        2.04867   0.00084   0.00107  -0.00028   0.00079   2.04946
   R14        2.04438   0.00043   0.00146  -0.00225  -0.00079   2.04359
   R15        2.28299  -0.00523   0.00378  -0.01375  -0.00997   2.27302
   R16        2.53623   0.00301  -0.00128   0.00759   0.00631   2.54254
   R17        1.87574   0.00175   0.00313  -0.00373  -0.00059   1.87515
   R18        2.74242  -0.00262  -0.00040  -0.00525  -0.00564   2.73678
   R19        2.03127   0.00211   0.00273  -0.00081   0.00193   2.03320
   R20        2.04774   0.00029   0.00116  -0.00190  -0.00075   2.04699
   R21        2.04837   0.00011   0.00110  -0.00222  -0.00113   2.04724
    A1        1.91326  -0.00066  -0.00021  -0.00199  -0.00224   1.91101
    A2        1.91192  -0.00058  -0.00007  -0.00230  -0.00241   1.90951
    A3        1.89064   0.00178   0.00464   0.00009   0.00468   1.89532
    A4        1.88662  -0.00021   0.00225  -0.00847  -0.00615   1.88047
    A5        1.93029  -0.00001  -0.00329   0.00725   0.00398   1.93426
    A6        1.93115  -0.00034  -0.00336   0.00534   0.00199   1.93315
    A7        2.13558  -0.00040  -0.00311   0.00577   0.00260   2.13818
    A8        2.00818   0.00034   0.00258  -0.00470  -0.00218   2.00600
    A9        2.13941   0.00006   0.00053  -0.00098  -0.00050   2.13891
   A10        2.11365  -0.00031  -0.00185   0.00268   0.00033   2.11399
   A11        2.13400   0.00115  -0.00062   0.00572   0.00461   2.13861
   A12        2.03497  -0.00085   0.00253  -0.01037  -0.00833   2.02664
   A13        1.87588  -0.00053   0.00338   0.00141   0.00477   1.88065
   A14        1.95388  -0.00058  -0.00142  -0.00392  -0.00551   1.94837
   A15        1.86774   0.00360   0.00682   0.00879   0.01564   1.88338
   A16        1.90748   0.00031  -0.00109  -0.00846  -0.00945   1.89803
   A17        1.92177  -0.00001  -0.00246   0.00247   0.00016   1.92192
   A18        1.93591  -0.00268  -0.00522   0.00017  -0.00500   1.93091
   A19        1.92562  -0.00026  -0.00139   0.00236   0.00099   1.92662
   A20        1.95614  -0.00084  -0.00432   0.00559   0.00130   1.95744
   A21        1.91175  -0.00185  -0.00006  -0.01107  -0.01114   1.90061
   A22        1.88717   0.00076   0.00220   0.00052   0.00276   1.88994
   A23        1.89543   0.00103   0.00142   0.00194   0.00335   1.89878
   A24        1.88632   0.00129   0.00228   0.00072   0.00300   1.88932
   A25        2.10556   0.00307  -0.00023   0.01386   0.01247   2.11803
   A26        2.01888  -0.00227   0.00155  -0.00953  -0.00914   2.00974
   A27        2.15512  -0.00056  -0.00096   0.00243   0.00030   2.15542
   A28        2.07254  -0.00067   0.00210  -0.00937  -0.00731   2.06523
   A29        2.15881  -0.00093  -0.00300   0.00315   0.00012   2.15893
   A30        2.05183   0.00160   0.00090   0.00616   0.00702   2.05884
   A31        1.88328   0.00150   0.00267   0.00283   0.00549   1.88877
   A32        1.93314  -0.00035  -0.00211   0.00300   0.00091   1.93405
   A33        1.93896  -0.00159  -0.00267  -0.00344  -0.00608   1.93288
   A34        1.90489  -0.00025   0.00050  -0.00106  -0.00058   1.90431
   A35        1.90505  -0.00003   0.00049  -0.00146  -0.00099   1.90406
   A36        1.89810   0.00074   0.00115   0.00009   0.00128   1.89938
    D1        0.00235  -0.00018  -0.00022  -0.00827  -0.00850  -0.00616
    D2        3.13846   0.00014   0.00031   0.01105   0.01137  -3.13336
    D3        2.09950   0.00012   0.00037  -0.00629  -0.00589   2.09361
    D4       -1.04758   0.00044   0.00089   0.01303   0.01398  -1.03360
    D5       -2.09368  -0.00038  -0.00093  -0.00872  -0.00970  -2.10339
    D6        1.04243  -0.00006  -0.00041   0.01061   0.01017   1.05259
    D7        0.01589   0.00003  -0.00153   0.02011   0.01865   0.03455
    D8        3.12028  -0.00044   0.00205  -0.04529  -0.04327   3.07701
    D9       -3.13120   0.00035  -0.00100   0.03951   0.03854  -3.09265
   D10       -0.02681  -0.00012   0.00257  -0.02589  -0.02338  -0.05019
   D11       -0.55418   0.00012   0.00292   0.00820   0.01105  -0.54312
   D12        1.54061  -0.00018   0.00289  -0.00365  -0.00078   1.53982
   D13       -2.61802  -0.00147   0.00000   0.00000   0.00000  -2.61802
   D14        2.55179  -0.00032   0.00635  -0.05418  -0.04782   2.50397
   D15       -1.63661  -0.00062   0.00631  -0.06603  -0.05966  -1.69627
   D16        0.48795  -0.00191   0.00342  -0.06238  -0.05887   0.42907
   D17        1.04499   0.00105   0.00022   0.01911   0.01931   1.06430
   D18       -3.13415   0.00126  -0.00071   0.02515   0.02439  -3.10976
   D19       -1.04064   0.00110  -0.00063   0.02220   0.02153  -1.01911
   D20        3.12120   0.00023   0.00281   0.01288   0.01573   3.13692
   D21       -1.05794   0.00045   0.00188   0.01892   0.02081  -1.03713
   D22        1.03557   0.00028   0.00196   0.01597   0.01795   1.05352
   D23       -1.03994  -0.00130  -0.00393   0.01047   0.00657  -1.03337
   D24        1.06411  -0.00109  -0.00486   0.01651   0.01165   1.07576
   D25       -3.12556  -0.00125  -0.00478   0.01356   0.00879  -3.11677
   D26       -0.35025   0.00124   0.00847   0.08207   0.09072  -0.25953
   D27        2.87976  -0.00165   0.00000   0.00000   0.00000   2.87976
   D28       -2.38395  -0.00015   0.00180   0.07417   0.07602  -2.30793
   D29        0.84606  -0.00304  -0.00666  -0.00790  -0.01470   0.83135
   D30        1.78557   0.00123   0.00774   0.08304   0.09101   1.87658
   D31       -1.26760  -0.00166  -0.00072   0.00097   0.00028  -1.26732
   D32       -0.06864   0.00098   0.00658   0.01289   0.01929  -0.04936
   D33        3.07708   0.00129   0.00617   0.03022   0.03614   3.11322
   D34       -3.11903  -0.00221  -0.00216  -0.07239  -0.07429   3.08987
   D35        0.02670  -0.00189  -0.00256  -0.05507  -0.05744  -0.03074
   D36       -0.00077  -0.00031   0.00008  -0.01003  -0.00998  -0.01075
   D37        2.08326   0.00010   0.00107  -0.00782  -0.00675   2.07652
   D38       -2.08842  -0.00027  -0.00057  -0.00798  -0.00860  -2.09702
   D39       -3.13827   0.00001  -0.00032   0.00714   0.00684  -3.13143
   D40       -1.05424   0.00042   0.00067   0.00936   0.01008  -1.04416
   D41        1.05726   0.00004  -0.00097   0.00919   0.00822   1.06548
         Item               Value     Threshold  Converged?
 Maximum Force            0.007165     0.000450     NO 
 RMS     Force            0.001752     0.000300     NO 
 Maximum Displacement     0.067046     0.001800     NO 
 RMS     Displacement     0.021891     0.001200     NO 
 Predicted change in Energy=-7.791322D-04
 GradGradGradGradGradGradGradGradGradGradGradGradGradGradGradGradGradGrad

                          Input orientation:                          
 ---------------------------------------------------------------------
 Center     Atomic      Atomic             Coordinates (Angstroms)
 Number     Number       Type             X           Y           Z
 ---------------------------------------------------------------------
      1          1           0        1.888552    1.314573    0.988557
      2          6           0        1.942872    2.282207    0.515702
      3          1           0        1.304888    2.980551    1.046186
      4          1           0        1.576022    2.207005   -0.502201
      5          6           0        3.381708    2.747796    0.533986
      6          8           0        4.265461    2.095039    1.020170
      7          7           0        3.594873    3.959459   -0.021471
      8          1           0        2.842120    4.499324   -0.380649
      9          6           0        4.887446    4.594316   -0.022619
     10          1           0        5.408769    4.282137    0.871308
     11          6           0        5.719273    4.183991   -1.248461
     12          1           0        5.217143    4.481024   -2.162203
     13          1           0        6.706623    4.632647   -1.241480
     14          1           0        5.835820    3.108868   -1.248689
     15          6           0        4.668139    6.107530   -0.002247
     16          8           0        3.594042    6.587686   -0.252374
     17          7           0        5.752547    6.838243    0.314548
     18          1           0        6.589638    6.360597    0.550694
     19          6           0        5.762101    8.285878    0.355260
     20          1           0        4.781727    8.636495    0.084069
     21          1           0        6.003338    8.641368    1.349642
     22          1           0        6.487100    8.684665   -0.344027
 ---------------------------------------------------------------------
                    Distance matrix (angstroms):
                    1          2          3          4          5
     1  H    0.000000
     2  C    1.078360   0.000000
     3  H    1.766201   1.084492   0.000000
     4  H    1.765353   1.084601   1.751968   0.000000
     5  C    2.119028   1.512401   2.151675   2.150963   0.000000
     6  O    2.501964   2.384101   3.090275   3.092447   1.201451
     7  N    3.305618   2.414712   2.709647   2.716239   1.349851
     8  H    3.595366   2.554936   2.589520   2.621546   2.048307
     9  C    4.557693   3.782348   4.072015   4.110326   2.446772
    10  H    4.605661   4.017289   4.308892   4.569753   2.564559
    11  C    5.283203   4.581512   5.118639   4.651010   3.271694
    12  H    5.570747   4.767265   5.277398   4.602665   3.693554
    13  H    6.260710   5.595138   6.094389   5.723053   4.214262
    14  H    4.879107   4.353330   5.080577   4.417746   3.054663
    15  C    5.628520   4.725299   4.710486   5.002523   3.637343
    16  O    5.679290   4.674768   4.465189   4.829615   3.925328
    17  N    6.774635   5.942352   5.932854   6.289579   4.732947
    18  H    6.910448   6.182792   6.292759   6.595245   4.831503
    19  C    8.000284   7.117325   6.963521   7.430423   6.030635
    20  H    7.924589   6.972975   6.708486   7.208231   6.069535
    21  H    8.410932   7.590900   7.362905   8.026922   6.501725
    22  H    8.788668   7.898140   7.831024   8.130423   6.757276
                    6          7          8          9         10
     6  O    0.000000
     7  N    2.238474   0.000000
     8  H    3.125505   0.993530   0.000000
     9  C    2.778608   1.440066   2.078598   0.000000
    10  H    2.472390   2.047289   2.863958   1.080897   0.000000
    11  C    3.409395   2.463532   3.021678   1.537202   2.144636
    12  H    4.089759   2.736151   2.969007   2.167800   3.046058
    13  H    4.184948   3.409485   3.961463   2.190090   2.504228
    14  H    2.939659   2.692844   3.413078   2.146909   2.460349
    15  C    4.160237   2.401350   2.462491   1.529159   2.154922
    16  O    4.717420   2.638351   2.223308   2.387301   3.141887
    17  N    5.020689   3.613290   3.797951   2.428433   2.638530
    18  H    4.880287   3.880909   4.286681   2.519106   2.411896
    19  C    6.403790   4.853525   4.837959   3.812538   4.052295
    20  H    6.628233   4.826430   4.592845   4.044968   4.469157
    21  H    6.781091   5.440674   5.490332   4.416667   4.425518
    22  H    7.086600   5.549468   5.550163   4.403766   4.692771
                   11         12         13         14         15
    11  C    0.000000
    12  H    1.084108   0.000000
    13  H    1.084528   1.757632   0.000000
    14  H    1.081422   1.760706   1.755065   0.000000
    15  C    2.521494   2.759046   2.804709   3.450952   0.000000
    16  O    3.359545   3.274130   3.806398   4.256805   1.202829
    17  N    3.080448   3.460843   2.862890   4.044611   1.345452
    18  H    2.955014   3.574402   2.492265   3.792066   2.015426
    19  C    4.404456   4.594727   4.097292   5.420288   2.463689
    20  H    4.741247   4.743761   4.636066   5.782908   2.532986
    21  H    5.167112   5.500875   4.824766   6.114568   3.167127
    22  H    4.654421   4.752805   4.156016   5.686132   3.172863
                   16         17         18         19         20
    16  O    0.000000
    17  N    2.245735   0.000000
    18  H    3.109675   0.992285   0.000000
    19  C    2.820204   1.448239   2.104689   0.000000
[...]
     18          1           0        6.593196    6.356147    0.550635
     19          6           0        5.767422    8.283283    0.350561
     20          1           0        4.762951    8.638004    0.187500
     21          1           0        6.123315    8.654778    1.304364
     22          1           0        6.408912    8.665724   -0.436168
 ---------------------------------------------------------------------
                    Distance matrix (angstroms):
                    1          2          3          4          5
     1  H    0.000000
     2  C    1.079984   0.000000
     3  H    1.769462   1.084916   0.000000
     4  H    1.764383   1.085470   1.755032   0.000000
     5  C    2.126982   1.515041   2.160439   2.142584   0.000000
     6  O    2.528350   2.404630   3.166723   3.046634   1.223223
     7  N    3.314162   2.421656   2.667414   2.768258   1.357075
     8  H    3.592025   2.561526   2.472193   2.759699   2.052626
     9  C    4.559723   3.786428   4.039987   4.153365   2.447622
    10  H    4.596966   4.024208   4.309260   4.599354   2.574790
    11  C    5.321366   4.588925   5.077145   4.676953   3.265899
    12  H    5.622328   4.777669   5.216199   4.644685   3.687061
    13  H    6.291115   5.600531   6.056265   5.747879   4.208262
    14  H    4.935319   4.362537   5.053353   4.415438   3.047333
    15  C    5.611223   4.728461   4.662330   5.079355   3.639861
    16  O    5.672812   4.691159   4.410867   4.938073   3.944136
    17  N    6.750946   5.945227   5.897388   6.360405   4.735263
    18  H    6.899768   6.192520   6.281462   6.649292   4.839766
    19  C    7.978989   7.127757   6.933868   7.517057   6.039730
    20  H    7.881344   6.970117   6.643065   7.311240   6.068510
    21  H    8.447879   7.673463   7.434660   8.179281   6.570402
    22  H    8.734884   7.856889   7.741026   8.147985   6.723881
                    6          7          8          9         10
     6  O    0.000000
     7  N    2.264860   0.000000
     8  H    3.149312   0.995844   0.000000
     9  C    2.789385   1.441857   2.079548   0.000000
    10  H    2.503111   2.058190   2.839669   1.083195   0.000000
    11  C    3.381115   2.462678   3.082594   1.534812   2.145621
    12  H    4.059268   2.732192   3.058709   2.165883   3.047613
    13  H    4.157857   3.407668   4.005225   2.184969   2.497777
    14  H    2.889664   2.695628   3.486034   2.146158   2.464936
    15  C    4.182833   2.400450   2.430614   1.529155   2.144722
    16  O    4.763301   2.647386   2.187996   2.401082   3.153529
    17  N    5.039661   3.615726   3.767823   2.429266   2.622143
    18  H    4.901010   3.888029   4.266200   2.520381   2.408137
    19  C    6.434849   4.855818   4.799695   3.810072   4.043010
    20  H    6.649437   4.826847   4.551834   4.048909   4.446147
    21  H    6.864408   5.500819   5.503320   4.446117   4.442206
    22  H    7.084865   5.499599   5.464609   4.366549   4.678449
                   11         12         13         14         15
    11  C    0.000000
    12  H    1.084608   0.000000
    13  H    1.085391   1.760861   0.000000
    14  H    1.082171   1.761948   1.756861   0.000000
    15  C    2.525284   2.767193   2.802996   3.454630   0.000000
    16  O    3.367879   3.278923   3.809838   4.268190   1.217567
    17  N    3.084066   3.471557   2.858868   4.045844   1.350111
    18  H    2.937272   3.557634   2.458945   3.774485   2.022014
    19  C    4.389605   4.579742   4.071055   5.406774   2.463615
    20  H    4.768382   4.789852   4.659132   5.805964   2.537360
    21  H    5.151322   5.488760   4.770359   6.100254   3.208224
    22  H    4.597066   4.668740   4.106547   5.635959   3.130234
                   16         17         18         19         20
    16  O    0.000000
    17  N    2.263613   0.000000
    18  H    3.130534   0.994056   0.000000
    19  C    2.827841   1.447331   2.106130   0.000000
    20  H    2.399920   2.059106   2.947632   1.077672   0.000000
    21  H    3.627705   2.088370   2.464265   1.083702   1.760187
    22  H    3.505754   2.098606   2.518310   1.084765   1.760375
                   21         22
    21  H    0.000000
    22  H    1.763843   0.000000
 Stoichiometry    C6H12N2O2
 Framework group  C1[X(C6H12N2O2)]
 Deg. of freedom    60
 Full point group                 C1      NOp   1
 Largest Abelian subgroup         C1      NOp   1
 Largest concise Abelian subgroup C1      NOp   1
                         Standard orientation:                         
 ---------------------------------------------------------------------
 Center     Atomic      Atomic             Coordinates (Angstroms)
 Number     Number       Type             X           Y           Z
 ---------------------------------------------------------------------
      1          1           0       -4.233390   -0.914673   -0.525656
      2          6           0       -3.344393   -1.118600    0.052672
      3          1           0       -2.977378   -2.112446   -0.181021
      4          1           0       -3.593719   -1.094353    1.108842
      5          6           0       -2.304194   -0.060895   -0.254886
      6          8           0       -2.559473    0.941158   -0.908336
      7          7           0       -1.077375   -0.296692    0.275178
      8          1           0       -0.865983   -1.173392    0.697570
      9          6           0        0.051427    0.555332   -0.005558
     10          1           0       -0.058406    0.947508   -1.009275
     11          6           0        0.132370    1.729380    0.979687
     12          1           0        0.246510    1.363613    1.994360
     13          1           0        0.965426    2.388121    0.755743
     14          1           0       -0.782036    2.304721    0.916924
     15          6           0        1.313588   -0.305296    0.062148
     16          8           0        1.307279   -1.402706    0.589519
     17          7           0        2.415055    0.256389   -0.480145
     18          1           0        2.336372    1.164030   -0.877817
     19          6           0        3.725552   -0.356400   -0.437070
     20          1           0        3.621007   -1.355198   -0.046109
     21          1           0        4.150417   -0.408872   -1.432634
     22          1           0        4.398873    0.204314    0.202424
 ---------------------------------------------------------------------
 Rotational constants (GHZ):      2.8232083      0.6627515      0.5987956

 **********************************************************************

            Population analysis using the SCF density.

 **********************************************************************

 Orbital symmetries:
       Occupied  (A) (A) (A) (A) (A) (A) (A) (A) (A) (A) (A) (A)
                 (A) (A) (A) (A) (A) (A) (A) (A) (A) (A) (A) (A)
                 (A) (A) (A) (A) (A) (A) (A) (A) (A) (A) (A) (A)
                 (A) (A) (A)
       Virtual   (A) (A) (A) (A) (A) (A) (A) (A) (A) (A) (A) (A)
                 (A) (A) (A) (A) (A) (A) (A) (A) (A) (A) (A) (A)
                 (A) (A) (A) (A) (A) (A) (A) (A) (A) (A) (A) (A)
                 (A) (A) (A) (A) (A) (A) (A) (A) (A) (A) (A) (A)
                 (A) (A) (A) (A) (A) (A) (A) (A) (A) (A) (A) (A)
                 (A) (A) (A) (A) (A) (A) (A) (A) (A) (A) (A) (A)
                 (A) (A) (A) (A) (A) (A) (A) (A) (A) (A) (A) (A)
                 (A) (A) (A) (A) (A) (A) (A) (A) (A) (A) (A) (A)
                 (A) (A) (A) (A) (A) (A) (A) (A) (A) (A) (A) (A)
                 (A) (A) (A) (A) (A) (A) (A) (A) (A) (A) (A) (A)
                 (A) (A) (A) (A) (A) (A) (A) (A) (A) (A) (A) (A)
                 (A) (A) (A)
 The electronic state is 1-A.
 Alpha  occ. eigenvalues --  -20.53558 -20.51808 -15.59928 -15.57835 -11.35963
 Alpha  occ. eigenvalues --  -11.34719 -11.28213 -11.26508 -11.22896 -11.22631
 Alpha  occ. eigenvalues --   -1.39646  -1.37169  -1.24475  -1.23265  -1.05726
 Alpha  occ. eigenvalues --   -0.99184  -0.96460  -0.88521  -0.80593  -0.78441
 Alpha  occ. eigenvalues --   -0.73143  -0.67370  -0.65642  -0.64438  -0.63205
 Alpha  occ. eigenvalues --   -0.61800  -0.60135  -0.58651  -0.56893  -0.56468
 Alpha  occ. eigenvalues --   -0.55939  -0.54354  -0.53021  -0.52386  -0.49211
 Alpha  occ. eigenvalues --   -0.42991  -0.41362  -0.40187  -0.38274
 Alpha virt. eigenvalues --    0.18733   0.20449   0.21214   0.24292   0.26214
 Alpha virt. eigenvalues --    0.28530   0.29697   0.30330   0.30902   0.31199
 Alpha virt. eigenvalues --    0.32282   0.32706   0.33398   0.34545   0.36614
 Alpha virt. eigenvalues --    0.39927   0.40404   0.42850   0.47602   0.51450
 Alpha virt. eigenvalues --    0.52891   0.58039   0.60988   0.70173   0.72509
 Alpha virt. eigenvalues --    0.73276   0.74499   0.75470   0.76769   0.77938
 Alpha virt. eigenvalues --    0.78838   0.82335   0.84241   0.86670   0.89715
 Alpha virt. eigenvalues --    0.92703   0.94950   0.95672   0.97595   0.98403
 Alpha virt. eigenvalues --    1.01450   1.02367   1.04181   1.06121   1.09353
 Alpha virt. eigenvalues --    1.11162   1.11702   1.13004   1.15083   1.15760
 Alpha virt. eigenvalues --    1.16219   1.17611   1.17946   1.19524   1.20805
 Alpha virt. eigenvalues --    1.21140   1.21884   1.23087   1.24548   1.25229
 Alpha virt. eigenvalues --    1.31468   1.34498   1.35708   1.37648   1.39471
 Alpha virt. eigenvalues --    1.44830   1.50724   1.56209   1.59496   1.61798
 Alpha virt. eigenvalues --    1.61891   1.66160   1.67301   1.73962   1.78154
 Alpha virt. eigenvalues --    1.78946   1.79630   1.90174   1.94193   1.98696
 Alpha virt. eigenvalues --    2.00960   2.04045   2.07034   2.09605   2.11838
 Alpha virt. eigenvalues --    2.12362   2.13681   2.16810   2.18508   2.19874
 Alpha virt. eigenvalues --    2.23283   2.24061   2.27736   2.30561   2.35009
 Alpha virt. eigenvalues --    2.36836   2.38631   2.42347   2.44797   2.49343
 Alpha virt. eigenvalues --    2.53188   2.56239   2.58737   2.62628   2.63830
 Alpha virt. eigenvalues --    2.64954   2.66283   2.70519   2.72170   2.77828
 Alpha virt. eigenvalues --    2.80658   2.81177   2.87719   2.93867   2.96175
 Alpha virt. eigenvalues --    3.02223   3.04442   3.06945   3.12323   3.25002
 Alpha virt. eigenvalues --    3.30724   3.35251   3.38224   3.52072   3.58442
 Alpha virt. eigenvalues --    4.38812   4.43085   4.48878   4.51800   4.63847
 Alpha virt. eigenvalues --    4.66305   4.69853   4.85386   4.88511   5.04170
          Condensed to atoms (all electrons):
              1          2          3          4          5          6
     1  H    0.464261   0.384770  -0.019494  -0.017875  -0.033852   0.003825
     2  C    0.384770   5.254685   0.374813   0.376792   0.376246  -0.067281
     3  H   -0.019494   0.374813   0.510641  -0.025078  -0.031690   0.001614
     4  H   -0.017875   0.376792  -0.025078   0.497868  -0.029948   0.000650
     5  C   -0.033852   0.376246  -0.031690  -0.029948   4.156877   0.596857
     6  O    0.003825  -0.067281   0.001614   0.000650   0.596857   8.182343
     7  N    0.004466  -0.122412   0.003155   0.001875   0.257349  -0.105994
     8  H   -0.000020  -0.001360   0.000906   0.000189  -0.014629   0.001882
     9  C   -0.000091   0.004900  -0.000193  -0.000177  -0.025964   0.009183
    10  H    0.000003   0.000332  -0.000029  -0.000008  -0.000782   0.007485
    11  C    0.000002  -0.000317   0.000004   0.000042  -0.002139  -0.003385
    12  H    0.000000  -0.000008   0.000000  -0.000002   0.000221  -0.000017
    13  H    0.000000   0.000003   0.000000   0.000000   0.000000   0.000001
    14  H    0.000000   0.000084  -0.000001  -0.000017   0.001911   0.004147
    15  C    0.000000  -0.000006  -0.000010  -0.000004   0.003282   0.000480
    16  O    0.000000  -0.000062  -0.000003   0.000000   0.000428  -0.000004
    17  N    0.000000   0.000000   0.000000   0.000000  -0.000071  -0.000001
    18  H    0.000000   0.000000   0.000000   0.000000  -0.000002   0.000000
    19  C    0.000000   0.000000   0.000000   0.000000   0.000001   0.000000
    20  H    0.000000   0.000000   0.000000   0.000000   0.000000   0.000000
    21  H    0.000000   0.000000   0.000000   0.000000   0.000000   0.000000
    22  H    0.000000   0.000000   0.000000   0.000000   0.000000   0.000000
              7          8          9         10         11         12
     1  H    0.004466  -0.000020  -0.000091   0.000003   0.000002   0.000000
     2  C   -0.122412  -0.001360   0.004900   0.000332  -0.000317  -0.000008
     3  H    0.003155   0.000906  -0.000193  -0.000029   0.000004   0.000000
     4  H    0.001875   0.000189  -0.000177  -0.000008   0.000042  -0.000002
     5  C    0.257349  -0.014629  -0.025964  -0.000782  -0.002139   0.000221
     6  O   -0.105994   0.001882   0.009183   0.007485  -0.003385  -0.000017
     7  N    7.415683   0.311254   0.201812  -0.042930  -0.065607   0.000432
     8  H    0.311254   0.288579  -0.030363   0.002757   0.002585   0.000444
     9  C    0.201812  -0.030363   5.057089   0.408112   0.336495  -0.037673
    10  H   -0.042930   0.002757   0.408112   0.479104  -0.041789   0.003950
    11  C   -0.065607   0.002585   0.336495  -0.041789   5.145073   0.388120
    12  H    0.000432   0.000444  -0.037673   0.003950   0.388120   0.517113
    13  H    0.004724  -0.000064  -0.038463   0.000213   0.380531  -0.025254
    14  H   -0.005624  -0.000160  -0.029165  -0.003667   0.391948  -0.023162
    15  C   -0.043611  -0.006928   0.370531  -0.039185  -0.053133  -0.003526
    16  O   -0.009795   0.024007  -0.075741   0.001567  -0.000641   0.001091
    17  N    0.002835   0.000941  -0.115455   0.002986   0.002382   0.000352
    18  H    0.000035  -0.000029   0.001039   0.000774   0.000451  -0.000017
    19  C   -0.000076  -0.000013   0.003929  -0.000084  -0.000303   0.000000
    20  H   -0.000002  -0.000012   0.000528  -0.000019  -0.000030  -0.000002
    21  H    0.000002   0.000000  -0.000074  -0.000004  -0.000002   0.000000
    22  H    0.000000   0.000000  -0.000061  -0.000001   0.000037  -0.000001
             13         14         15         16         17         18
     1  H    0.000000   0.000000   0.000000   0.000000   0.000000   0.000000
     2  C    0.000003   0.000084  -0.000006  -0.000062   0.000000   0.000000
     3  H    0.000000  -0.000001  -0.000010  -0.000003   0.000000   0.000000
     4  H    0.000000  -0.000017  -0.000004   0.000000   0.000000   0.000000
     5  C    0.000000   0.001911   0.003282   0.000428  -0.000071  -0.000002
     6  O    0.000001   0.004147   0.000480  -0.000004  -0.000001   0.000000
     7  N    0.004724  -0.005624  -0.043611  -0.009795   0.002835   0.000035
     8  H   -0.000064  -0.000160  -0.006928   0.024007   0.000941  -0.000029
     9  C   -0.038463  -0.029165   0.370531  -0.075741  -0.115455   0.001039
    10  H    0.000213  -0.003667  -0.039185   0.001567   0.002986   0.000774
    11  C    0.380531   0.391948  -0.053133  -0.000641   0.002382   0.000451
    12  H   -0.025254  -0.023162  -0.003526   0.001091   0.000352  -0.000017
    13  H    0.550175  -0.023587  -0.002868   0.000024   0.001718   0.001184
    14  H   -0.023587   0.473098   0.004018  -0.000069  -0.000028  -0.000037
    15  C   -0.002868   0.004018   4.151296   0.591492   0.293324  -0.022268
    16  O    0.000024  -0.000069   0.591492   8.196915  -0.095216   0.002390
    17  N    0.001718  -0.000028   0.293324  -0.095216   7.312337   0.327241
    18  H    0.001184  -0.000037  -0.022268   0.002390   0.327241   0.322103
    19  C    0.000000   0.000003  -0.023213  -0.002626   0.188708  -0.022297
    20  H   -0.000001   0.000000  -0.001943   0.009500  -0.034011   0.002574
    21  H    0.000003   0.000000   0.001229   0.000242  -0.044222  -0.001660
    22  H   -0.000013  -0.000001   0.000329   0.000342  -0.046844  -0.000609
             19         20         21         22
     1  H    0.000000   0.000000   0.000000   0.000000
     2  C    0.000000   0.000000   0.000000   0.000000
     3  H    0.000000   0.000000   0.000000   0.000000
     4  H    0.000000   0.000000   0.000000   0.000000
     5  C    0.000001   0.000000   0.000000   0.000000
     6  O    0.000000   0.000000   0.000000   0.000000
     7  N   -0.000076  -0.000002   0.000002   0.000000
     8  H   -0.000013  -0.000012   0.000000   0.000000
     9  C    0.003929   0.000528  -0.000074  -0.000061
    10  H   -0.000084  -0.000019  -0.000004  -0.000001
    11  C   -0.000303  -0.000030  -0.000002   0.000037
    12  H    0.000000  -0.000002   0.000000  -0.000001
    13  H    0.000000  -0.000001   0.000003  -0.000013
    14  H    0.000003   0.000000   0.000000  -0.000001
    15  C   -0.023213  -0.001943   0.001229   0.000329
    16  O   -0.002626   0.009500   0.000242   0.000342
    17  N    0.188708  -0.034011  -0.044222  -0.046844
    18  H   -0.022297   0.002574  -0.001660  -0.000609
    19  C    4.939096   0.399452   0.402881   0.403557
    20  H    0.399452   0.440226  -0.022450  -0.024304
    21  H    0.402881  -0.022450   0.526566  -0.037603
    22  H    0.403557  -0.024304  -0.037603   0.531851
 Mulliken atomic charges:
              1
     1  H    0.214007
     2  C   -0.581180
     3  H    0.185364
     4  H    0.195693
     5  C    0.745905
     6  O   -0.631785
     7  N   -0.807572
     8  H    0.420034
     9  C   -0.040198
    10  H    0.221216
    11  C   -0.480323
    12  H    0.177939
    13  H    0.151674
    14  H    0.210309
    15  C    0.780713
    16  O   -0.643838
    17  N   -0.796976
    18  H    0.389128
    19  C   -0.289018
    20  H    0.230495
    21  H    0.175093
    22  H    0.173320
 Sum of Mulliken atomic charges =   0.00000
 Mulliken charges with hydrogens summed into heavy atoms:
              1
     2  C    0.013884
     5  C    0.745905
     6  O   -0.631785
     7  N   -0.387538
     9  C    0.181017
    11  C    0.059600
    15  C    0.780713
    16  O   -0.643838
    17  N   -0.407848
    19  C    0.289891
 Sum of Mulliken charges with hydrogens summed into heavy atoms =   0.00000
 Electronic spatial extent (au):  <R**2>=           1964.8328
 Charge=              0.0000 electrons
 Dipole moment (field-independent basis, Debye):
    X=              2.7296    Y=              0.2924    Z=              0.2739  Tot=              2.7588
 Quadrupole moment (field-independent basis, Debye-Ang):
   XX=            -55.1806   YY=            -62.8543   ZZ=            -62.0856
   XY=             12.5526   XZ=             -8.6675   YZ=              2.6395
 Traceless Quadrupole moment (field-independent basis, Debye-Ang):
   XX=              4.8595   YY=             -2.8141   ZZ=             -2.0454
   XY=             12.5526   XZ=             -8.6675   YZ=              2.6395
 Octapole moment (field-independent basis, Debye-Ang**2):
  XXX=             37.9576  YYY=              2.4647  ZZZ=             -0.0962  XYY=              1.6967
  XXY=            -19.0538  XXZ=              4.4586  XZZ=              4.7445  YZZ=             -1.0011
  YYZ=             -2.0127  XYZ=             -5.5853
 Hexadecapole moment (field-independent basis, Debye-Ang**3):
 XXXX=          -1796.9194 YYYY=           -413.0863 ZZZZ=           -189.7600 XXXY=             46.7226
 XXXZ=            -49.0520 YYYX=             11.3505 YYYZ=             -4.0919 ZZZX=             -5.3977
 ZZZY=             -6.5056 XXYY=           -397.8670 XXZZ=           -361.8204 YYZZ=           -102.9411
 XXYZ=             13.8460 YYXZ=            -13.9556 ZZXY=              8.5643
 N-N= 5.517203203139D+02 E-N=-2.258644081761D+03  KE= 4.919453074701D+02


 EVERY WORD THAT YOU WRITE IS A BLOW THAT SMITES THE DEVIL.
     -- ST. BERNARD OF CLAIRVAUX
 Error termination request processed by link 9999.
 Error termination via Lnk1e in /home/steboss/Software/g09/l9999.exe at Sat Feb 11 15:56:18 2017.
 Job cpu time:  0 days  1 hours 52 minutes 48.8 seconds.
 File lengths (MBytes):  RWF=     25 Int=      0 D2E=      0 Chk=      3 Scr=      1
