 Entering Gaussian System, Link 0=g09
 Initial command:
 /home/steboss/Software/g09/l1.exe /tmp/Gau-8548.inp -scrdir=/tmp/
 Entering Link 1 = /home/steboss/Software/g09/l1.exe PID=      8550.
  
 Copyright (c) 1988,1990,1992,1993,1995,1998,2003,2009, Gaussian, Inc.
                  All Rights Reserved.
  
 This is part of the Gaussian(R) 09 program.  It is based on
 the Gaussian(R) 03 system (copyright 2003, Gaussian, Inc.),
 the Gaussian(R) 98 system (copyright 1998, Gaussian, Inc.),
 the Gaussian(R) 94 system (copyright 1995, Gaussian, Inc.),
 the Gaussian 92(TM) system (copyright 1992, Gaussian, Inc.),
 the Gaussian 90(TM) system (copyright 1990, Gaussian, Inc.),
 the Gaussian 88(TM) system (copyright 1988, Gaussian, Inc.),
 the Gaussian 86(TM) system (copyright 1986, Carnegie Mellon
 University), and the Gaussian 82(TM) system (copyright 1983,
 Carnegie Mellon University). Gaussian is a federally registered
 trademark of Gaussian, Inc.
  
 This software contains proprietary and confidential information,
 including trade secrets, belonging to Gaussian, Inc.
  
 This software is provided under written license and may be
 used, copied, transmitted, or stored only in accord with that
 written license.
  
 The following legend is applicable only to US Government
 contracts under FAR:
  
                    RESTRICTED RIGHTS LEGEND
  
 Use, reproduction and disclosure by the US Government is
 subject to restrictions as set forth in subparagraphs (a)
 and (c) of the Commercial Computer Software - Restricted
 Rights clause in FAR 52.227-19.
  
 Gaussian, Inc.
 340 Quinnipiac St., Bldg. 40, Wallingford CT 06492
  
  
 ---------------------------------------------------------------
 Warning -- This program may not be used in any manner that
 competes with the business of Gaussian, Inc. or will provide
 assistance to any competitor of Gaussian, Inc.  The licensee
 of this program is prohibited from giving any competitor of
 Gaussian, Inc. access to this program.  By using this program,
 the user acknowledges that Gaussian, Inc. is engaged in the
 business of creating and licensing software in the field of
 computational chemistry and represents and warrants to the
 licensee that it is not a competitor of Gaussian, Inc. and that
 it will not use this program in any manner prohibited above.
 ---------------------------------------------------------------
  

 Cite this work as:
 Gaussian 09, Revision A.02,
 M. J. Frisch, G. W. Trucks, H. B. Schlegel, G. E. Scuseria, 
 M. A. Robb, J. R. Cheeseman, G. Scalmani, V. Barone, B. Mennucci, 
 G. A. Petersson, H. Nakatsuji, M. Caricato, X. Li, H. P. Hratchian, 
 A. F. Izmaylov, J. Bloino, G. Zheng, J. L. Sonnenberg, M. Hada, 
 M. Ehara, K. Toyota, R. Fukuda, J. Hasegawa, M. Ishida, T. Nakajima, 
 Y. Honda, O. Kitao, H. Nakai, T. Vreven, J. A. Montgomery, Jr., 
 J. E. Peralta, F. Ogliaro, M. Bearpark, J. J. Heyd, E. Brothers, 
 K. N. Kudin, V. N. Staroverov, R. Kobayashi, J. Normand, 
 K. Raghavachari, A. Rendell, J. C. Burant, S. S. Iyengar, J. Tomasi, 
 M. Cossi, N. Rega, J. M. Millam, M. Klene, J. E. Knox, J. B. Cross, 
 V. Bakken, C. Adamo, J. Jaramillo, R. Gomperts, R. E. Stratmann, 
 O. Yazyev, A. J. Austin, R. Cammi, C. Pomelli, J. W. Ochterski, 
 R. L. Martin, K. Morokuma, V. G. Zakrzewski, G. A. Voth, 
 P. Salvador, J. J. Dannenberg, S. Dapprich, A. D. Daniels, 
 O. Farkas, J. B. Foresman, J. V. Ortiz, J. Cioslowski, 
 and D. J. Fox, Gaussian, Inc., Wallingford CT, 2009.
 
 ******************************************
 Gaussian 09:  EM64L-G09RevA.02 11-Jun-2009
                10-Feb-2017 
 ******************************************
 %chk=structure_60.chk
 %NProcShared=8
 Will use up to    8 processors via shared memory.
 -------------------------------------------
 # HF/6-31G* Opt=(ModRedundant) geom=nocrowd
 -------------------------------------------
 1/18=120,19=15,38=1/1,3;
 2/9=110,12=1,17=6,18=5,40=1/2;
 3/5=1,6=6,7=1,11=9,16=1,25=1,30=1,71=1/1,2,3;
 4//1;
 5/5=2,38=5/2;
 6/7=2,8=2,9=2,10=2,28=1/1;
 7//1,2,3,16;
 1/18=20,19=15/3(2);
 2/9=110,12=1/2;
 99//99;
 2/9=110,12=1/2;
 3/5=1,6=6,7=1,11=9,16=1,25=1,30=1,71=1/1,2,3;
 4/5=5,16=3/1;
 5/5=2,38=5/2;
 7//1,2,3,16;
 1/18=20,19=15/3(-5);
 2/9=110,12=1/2;
 6/7=2,8=2,9=2,10=2,19=2,28=1/1;
 99/9=1/99;
 ------------------
 Phi Psi fixed scan
 ------------------
 Symbolic Z-matrix:
 Charge =  0 Multiplicity = 1
 H                     1.8827    1.2362    0.9842 
 C                     1.9409    2.209     0.496 
 H                     1.2624    2.9049    0.9895 
 H                     1.658     2.1079   -0.5517 
 C                     3.3599    2.7768    0.5667 
 O                     4.2568    2.1469    1.1227 
 N                     3.5554    3.9697    0. 
 H                     2.7862    4.4492   -0.4455 
 C                     4.8533    4.6139    0. 
 H                     5.4076    4.3155    0.8898 
 C                     5.6613    4.2208   -1.2322 
 H                     5.1233    4.5214   -2.1312 
 H                     6.6305    4.7189   -1.2058 
 H                     5.8085    3.1409   -1.2414 
 C                     4.7127    6.1294    0. 
 O                     5.1823    6.7994   -0.9171 
 N                     4.0632    6.6695    1.0338 
 H                     3.6947    6.0769    1.764 
 C                     3.8633    8.0999    1.1497 
 H                     4.3136    8.6009    0.2928 
 H                     2.7955    8.3171    1.1769 
 H                     4.3301    8.4594    2.0667 
 
 The following ModRedundant input section has been read:
 D    5    7    9   15 F                                                       
 D    7    9   15   17 F                                                       

 GradGradGradGradGradGradGradGradGradGradGradGradGradGradGradGradGradGrad
 Berny optimization.
 Initialization pass.
                           ----------------------------
                           !    Initial Parameters    !
                           ! (Angstroms and Degrees)  !
 --------------------------                            --------------------------
 ! Name  Definition              Value          Derivative Info.                !
 --------------------------------------------------------------------------------
 ! R1    R(1,2)                  1.09           estimate D2E/DX2                !
 ! R2    R(2,3)                  1.09           estimate D2E/DX2                !
 ! R3    R(2,4)                  1.0899         estimate D2E/DX2                !
 ! R4    R(2,5)                  1.53           estimate D2E/DX2                !
 ! R5    R(5,6)                  1.229          estimate D2E/DX2                !
 ! R6    R(5,7)                  1.3351         estimate D2E/DX2                !
 ! R7    R(7,8)                  1.01           estimate D2E/DX2                !
 ! R8    R(7,9)                  1.449          estimate D2E/DX2                !
 ! R9    R(9,10)                 1.09           estimate D2E/DX2                !
 ! R10   R(9,11)                 1.525          estimate D2E/DX2                !
 ! R11   R(9,15)                 1.522          estimate D2E/DX2                !
 ! R12   R(11,12)                1.09           estimate D2E/DX2                !
 ! R13   R(11,13)                1.09           estimate D2E/DX2                !
 ! R14   R(11,14)                1.0899         estimate D2E/DX2                !
 ! R15   R(15,16)                1.229          estimate D2E/DX2                !
 ! R16   R(15,17)                1.335          estimate D2E/DX2                !
 ! R17   R(17,18)                1.01           estimate D2E/DX2                !
 ! R18   R(17,19)                1.4489         estimate D2E/DX2                !
 ! R19   R(19,20)                1.09           estimate D2E/DX2                !
 ! R20   R(19,21)                1.09           estimate D2E/DX2                !
 ! R21   R(19,22)                1.09           estimate D2E/DX2                !
 ! A1    A(1,2,3)              109.4976         estimate D2E/DX2                !
 ! A2    A(1,2,4)              109.5057         estimate D2E/DX2                !
 ! A3    A(1,2,5)              111.1022         estimate D2E/DX2                !
 ! A4    A(3,2,4)              109.442          estimate D2E/DX2                !
 ! A5    A(3,2,5)              108.6296         estimate D2E/DX2                !
 ! A6    A(4,2,5)              108.6368         estimate D2E/DX2                !
 ! A7    A(2,5,6)              120.5005         estimate D2E/DX2                !
 ! A8    A(2,5,7)              116.6018         estimate D2E/DX2                !
 ! A9    A(6,5,7)              122.8977         estimate D2E/DX2                !
 ! A10   A(5,7,8)              119.9947         estimate D2E/DX2                !
 ! A11   A(5,7,9)              121.8985         estimate D2E/DX2                !
 ! A12   A(8,7,9)              118.1068         estimate D2E/DX2                !
 ! A13   A(7,9,10)             109.5            estimate D2E/DX2                !
 ! A14   A(7,9,11)             111.0992         estimate D2E/DX2                !
 ! A15   A(7,9,15)             111.0966         estimate D2E/DX2                !
 ! A16   A(10,9,11)            108.6382         estimate D2E/DX2                !
 ! A17   A(10,9,15)            108.6373         estimate D2E/DX2                !
 ! A18   A(11,9,15)            107.7947         estimate D2E/DX2                !
 ! A19   A(9,11,12)            109.5007         estimate D2E/DX2                !
 ! A20   A(9,11,13)            109.4959         estimate D2E/DX2                !
 ! A21   A(9,11,14)            109.4978         estimate D2E/DX2                !
 ! A22   A(12,11,13)           109.441          estimate D2E/DX2                !
 ! A23   A(12,11,14)           109.4482         estimate D2E/DX2                !
 ! A24   A(13,11,14)           109.4436         estimate D2E/DX2                !
 ! A25   A(9,15,16)            120.4988         estimate D2E/DX2                !
 ! A26   A(9,15,17)            116.6009         estimate D2E/DX2                !
 ! A27   A(16,15,17)           122.9003         estimate D2E/DX2                !
 ! A28   A(15,17,18)           119.9975         estimate D2E/DX2                !
 ! A29   A(15,17,19)           121.9004         estimate D2E/DX2                !
 ! A30   A(18,17,19)           118.1021         estimate D2E/DX2                !
 ! A31   A(17,19,20)           109.5044         estimate D2E/DX2                !
 ! A32   A(17,19,21)           109.5034         estimate D2E/DX2                !
 ! A33   A(17,19,22)           109.5005         estimate D2E/DX2                !
 ! A34   A(20,19,21)           109.4351         estimate D2E/DX2                !
 ! A35   A(20,19,22)           109.4433         estimate D2E/DX2                !
 ! A36   A(21,19,22)           109.4405         estimate D2E/DX2                !
 ! D1    D(1,2,5,6)              0.0047         estimate D2E/DX2                !
 ! D2    D(1,2,5,7)           -179.9966         estimate D2E/DX2                !
 ! D3    D(3,2,5,6)            120.5112         estimate D2E/DX2                !
 ! D4    D(3,2,5,7)            -59.4901         estimate D2E/DX2                !
 ! D5    D(4,2,5,6)           -120.5165         estimate D2E/DX2                !
 ! D6    D(4,2,5,7)             59.4823         estimate D2E/DX2                !
 ! D7    D(2,5,7,8)             -0.0022         estimate D2E/DX2                !
 ! D8    D(2,5,7,9)           -179.9961         estimate D2E/DX2                !
 ! D9    D(6,5,7,8)            179.9965         estimate D2E/DX2                !
 ! D10   D(6,5,7,9)              0.0027         estimate D2E/DX2                !
 ! D11   D(5,7,9,10)           -30.0015         estimate D2E/DX2                !
 ! D12   D(5,7,9,11)            90.0011         estimate D2E/DX2                !
 ! D13   D(5,7,9,15)          -150.0013         Frozen                          !
 ! D14   D(8,7,9,10)           150.0045         estimate D2E/DX2                !
 ! D15   D(8,7,9,11)           -89.9929         estimate D2E/DX2                !
 ! D16   D(8,7,9,15)            30.0047         estimate D2E/DX2                !
 ! D17   D(7,9,11,12)           60.0024         estimate D2E/DX2                !
 ! D18   D(7,9,11,13)          179.9986         estimate D2E/DX2                !
 ! D19   D(7,9,11,14)          -60.0038         estimate D2E/DX2                !
 ! D20   D(10,9,11,12)        -179.4843         estimate D2E/DX2                !
 ! D21   D(10,9,11,13)         -59.4881         estimate D2E/DX2                !
 ! D22   D(10,9,11,14)          60.5095         estimate D2E/DX2                !
 ! D23   D(15,9,11,12)         -61.938          estimate D2E/DX2                !
 ! D24   D(15,9,11,13)          58.0582         estimate D2E/DX2                !
 ! D25   D(15,9,11,14)         178.0558         estimate D2E/DX2                !
 ! D26   D(7,9,15,16)         -119.9999         estimate D2E/DX2                !
 ! D27   D(7,9,15,17)           60.0015         Frozen                          !
 ! D28   D(10,9,15,16)         119.489          estimate D2E/DX2                !
 ! D29   D(10,9,15,17)         -60.5096         estimate D2E/DX2                !
 ! D30   D(11,9,15,16)           1.9421         estimate D2E/DX2                !
 ! D31   D(11,9,15,17)        -178.0565         estimate D2E/DX2                !
 ! D32   D(9,15,17,18)          -0.0063         estimate D2E/DX2                !
 ! D33   D(9,15,17,19)         179.9999         estimate D2E/DX2                !
 ! D34   D(16,15,17,18)        179.9951         estimate D2E/DX2                !
 ! D35   D(16,15,17,19)          0.0012         estimate D2E/DX2                !
 ! D36   D(15,17,19,20)          0.0023         estimate D2E/DX2                !
 ! D37   D(15,17,19,21)        119.9982         estimate D2E/DX2                !
 ! D38   D(15,17,19,22)       -120.0018         estimate D2E/DX2                !
 ! D39   D(18,17,19,20)       -179.9916         estimate D2E/DX2                !
 ! D40   D(18,17,19,21)        -59.9958         estimate D2E/DX2                !
 ! D41   D(18,17,19,22)         60.0043         estimate D2E/DX2                !
 --------------------------------------------------------------------------------
 Trust Radius=3.00D-01 FncErr=1.00D-07 GrdErr=1.00D-07
 Number of steps in this run= 108 maximum allowed number of steps= 132.
 GradGradGradGradGradGradGradGradGradGradGradGradGradGradGradGradGradGrad

                          Input orientation:                          
 ---------------------------------------------------------------------
 Center     Atomic      Atomic             Coordinates (Angstroms)
 Number     Number       Type             X           Y           Z
 ---------------------------------------------------------------------
      1          1           0        1.882700    1.236200    0.984200
      2          6           0        1.940900    2.209000    0.496000
      3          1           0        1.262400    2.904900    0.989500
      4          1           0        1.658000    2.107900   -0.551700
      5          6           0        3.359900    2.776800    0.566700
      6          8           0        4.256800    2.146900    1.122700
      7          7           0        3.555400    3.969700    0.000000
      8          1           0        2.786200    4.449200   -0.445500
      9          6           0        4.853300    4.613900    0.000000
     10          1           0        5.407600    4.315500    0.889800
     11          6           0        5.661300    4.220800   -1.232200
     12          1           0        5.123300    4.521400   -2.131200
     13          1           0        6.630500    4.718900   -1.205800
     14          1           0        5.808500    3.140900   -1.241400
     15          6           0        4.712700    6.129400    0.000000
     16          8           0        5.182300    6.799400   -0.917100
     17          7           0        4.063200    6.669500    1.033800
     18          1           0        3.694700    6.076900    1.764000
     19          6           0        3.863300    8.099900    1.149700
     20          1           0        4.313600    8.600900    0.292800
     21          1           0        2.795500    8.317100    1.176900
     22          1           0        4.330100    8.459400    2.066700
 ---------------------------------------------------------------------
                    Distance matrix (angstroms):
                    1          2          3          4          5
     1  H    0.000000
     2  C    1.089985   0.000000
     3  H    1.780270   1.090037   0.000000
     4  H    1.780264   1.089922   1.779608   0.000000
     5  C    2.174827   1.530018   2.143519   2.143527   0.000000
     6  O    2.546548   2.400000   3.091721   3.091747   1.228959
     7  N    3.352402   2.439814   2.714914   2.714922   1.335058
     8  H    3.630940   2.572829   2.601164   2.601115   2.037303
     9  C    4.604560   3.809414   4.098092   4.098091   2.434405
    10  H    4.681444   4.075589   4.379773   4.583767   2.581679
    11  C    5.300763   4.568959   5.100771   4.577536   3.258469
    12  H    5.567741   4.730438   5.220957   4.508670   3.664952
    13  H    6.282269   5.584628   6.076713   5.654284   4.196467
    14  H    4.898273   4.341120   5.069481   4.332369   3.065524
    15  C    5.737679   4.826844   4.825047   5.080160   3.659391
    16  O    6.741772   5.794420   5.845329   5.879148   4.658768
    17  N    5.854724   4.968848   4.692404   5.395090   3.983206
    18  H    5.227218   4.432188   4.071550   5.026288   3.526511
    19  C    7.145666   6.231023   5.811916   6.607736   5.378540
    20  H    7.786277   6.821098   6.499202   7.065723   5.908020
    21  H    7.142092   6.205067   5.628270   6.544932   5.602304
    22  H    7.702999   6.873345   6.436118   7.371410   5.956780
                    6          7          8          9         10
     6  O    0.000000
     7  N    2.252780   0.000000
     8  H    3.150000   1.009980   0.000000
     9  C    2.775312   1.448978   2.120966   0.000000
    10  H    2.466051   2.083739   2.944935   1.089970   0.000000
    11  C    3.437911   2.452791   2.989526   1.525027   2.139209
    12  H    4.120308   2.702720   2.882505   2.150225   3.041326
    13  H    4.203754   3.386959   3.928032   2.150214   2.459625
    14  H    2.997462   2.702673   3.388127   2.150165   2.466256
    15  C    4.162764   2.450234   2.594792   1.522008   2.136554
    16  O    5.163632   3.390439   3.389269   2.392848   3.079839
    17  N    4.527615   2.935221   2.957835   2.432795   2.714676
    18  H    4.021458   2.751616   2.890791   2.567960   2.607831
    19  C    5.966052   4.298275   4.127035   3.801856   4.095619
    20  H    6.507386   4.701980   4.484936   4.034003   4.462947
    21  H    6.341112   4.567541   4.194391   4.396968   4.787306
    22  H    6.383116   5.002881   4.977598   4.396915   4.440496
                   11         12         13         14         15
    11  C    0.000000
    12  H    1.089957   0.000000
    13  H    1.090023   1.779613   0.000000
    14  H    1.089925   1.779613   1.779617   0.000000
    15  C    2.461892   2.701161   2.668599   3.416575   0.000000
    16  O    2.641573   2.582015   2.551296   3.725845   1.229023
    17  N    3.699299   3.969304   3.925771   4.546826   1.335028
    18  H    4.036067   4.430921   4.391218   4.703262   2.037345
    19  C    4.894249   5.015732   4.963561   5.838908   2.434371
    20  H    4.829824   4.813908   4.762746   5.865159   2.520580
    21  H    5.549437   5.547028   5.773346   6.459055   3.137958
    22  H    5.533585   5.810282   5.476535   6.435498   3.137918
                   16         17         18         19         20
    16  O    0.000000
    17  N    2.252836   0.000000
    18  H    3.150120   1.010029   0.000000
    19  C    2.775378   1.448943   2.120924   0.000000
    20  H    2.337499   2.083768   2.986309   1.089976   0.000000
    21  H    3.519242   2.083777   2.484299   1.090006   1.779551
    22  H    3.519220   2.083713   2.484284   1.089969   1.779611
                   21         22
    21  H    0.000000
    22  H    1.779604   0.000000
 Stoichiometry    C6H12N2O2
 Framework group  C1[X(C6H12N2O2)]
 Deg. of freedom    60
 Full point group                 C1      NOp   1
 Largest Abelian subgroup         C1      NOp   1
 Largest concise Abelian subgroup C1      NOp   1
                         Standard orientation:                         
 ---------------------------------------------------------------------
 Center     Atomic      Atomic             Coordinates (Angstroms)
 Number     Number       Type             X           Y           Z
 ---------------------------------------------------------------------
      1          1           0        4.030550   -1.357355   -0.247762
      2          6           0        3.061300   -1.234563   -0.731023
      3          1           0        2.583019   -2.208021   -0.839693
      4          1           0        3.199368   -0.786339   -1.714874
      5          6           0        2.144921   -0.329187    0.094508
      6          8           0        2.535910    0.153928    1.154729
      7          7           0        0.924950   -0.103943   -0.398760
      8          1           0        0.649202   -0.523710   -1.275013
      9          6           0       -0.035736    0.735484    0.288249
     10          1           0        0.135632    0.679862    1.363226
     11          6           0        0.093032    2.190138   -0.151194
     12          1           0       -0.085013    2.263253   -1.224022
     13          1           0       -0.639960    2.796998    0.380401
     14          1           0        1.096062    2.551260    0.075646
     15          6           0       -1.461015    0.286647   -0.000945
     16          8           0       -2.259347    1.052004   -0.537036
     17          7           0       -1.779347   -0.959714    0.356195
     18          1           0       -1.088066   -1.551647    0.794266
     19          6           0       -3.103335   -1.505142    0.134835
     20          1           0       -3.731666   -0.753054   -0.342252
     21          1           0       -3.032926   -2.381058   -0.510089
     22          1           0       -3.542917   -1.792310    1.089997
 ---------------------------------------------------------------------
 Rotational constants (GHZ):      2.1846260      0.7526207      0.6276130
 Standard basis: 6-31G(d) (6D, 7F)
 There are   174 symmetry adapted basis functions of A   symmetry.
 Integral buffers will be    131072 words long.
 Raffenetti 1 integral format.
 Two-electron integral symmetry is turned on.
   174 basis functions,   328 primitive gaussians,   174 cartesian basis functions
    39 alpha electrons       39 beta electrons
       nuclear repulsion energy       554.0234758925 Hartrees.
 NAtoms=   22 NActive=   22 NUniq=   22 SFac= 7.50D-01 NAtFMM=   80 NAOKFM=F Big=F
 One-electron integrals computed using PRISM.
 NBasis=   174 RedAO= T  NBF=   174
 NBsUse=   174 1.00D-06 NBFU=   174
 Harris functional with IExCor=  205 diagonalized for initial guess.
 ExpMin= 1.61D-01 ExpMax= 5.48D+03 ExpMxC= 8.25D+02 IAcc=1 IRadAn=         1 AccDes= 0.00D+00
 HarFok:  IExCor=  205 AccDes= 0.00D+00 IRadAn=         1 IDoV= 1
 ScaDFX=  1.000000  1.000000  1.000000  1.000000
 FoFCou: FMM=F IPFlag=           0 FMFlag=      100000 FMFlg1=           0
         NFxFlg=           0 DoJE=T BraDBF=F KetDBF=T FulRan=T
         Omega=  0.000000  0.000000  1.000000  0.000000  0.000000 ICntrl=     500 IOpCl=  0
         NMat0=    1 NMatS0=    1 NMatT0=    0 NMatD0=    1 NMtDS0=    0 NMtDT0=    0
         I1Cent=           4 NGrid=           0.
 Petite list used in FoFCou.
 Initial guess orbital symmetries:
       Occupied  (A) (A) (A) (A) (A) (A) (A) (A) (A) (A) (A) (A)
                 (A) (A) (A) (A) (A) (A) (A) (A) (A) (A) (A) (A)
                 (A) (A) (A) (A) (A) (A) (A) (A) (A) (A) (A) (A)
                 (A) (A) (A)
       Virtual   (A) (A) (A) (A) (A) (A) (A) (A) (A) (A) (A) (A)
                 (A) (A) (A) (A) (A) (A) (A) (A) (A) (A) (A) (A)
                 (A) (A) (A) (A) (A) (A) (A) (A) (A) (A) (A) (A)
                 (A) (A) (A) (A) (A) (A) (A) (A) (A) (A) (A) (A)
                 (A) (A) (A) (A) (A) (A) (A) (A) (A) (A) (A) (A)
                 (A) (A) (A) (A) (A) (A) (A) (A) (A) (A) (A) (A)
                 (A) (A) (A) (A) (A) (A) (A) (A) (A) (A) (A) (A)
                 (A) (A) (A) (A) (A) (A) (A) (A) (A) (A) (A) (A)
                 (A) (A) (A) (A) (A) (A) (A) (A) (A) (A) (A) (A)
                 (A) (A) (A) (A) (A) (A) (A) (A) (A) (A) (A) (A)
                 (A) (A) (A) (A) (A) (A) (A) (A) (A) (A) (A) (A)
                 (A) (A) (A)
 The electronic state of the initial guess is 1-A.
 Requested convergence on RMS density matrix=1.00D-08 within 128 cycles.
 Requested convergence on MAX density matrix=1.00D-06.
 Requested convergence on             energy=1.00D-06.
 No special actions if energy rises.
 Integral accuracy reduced to 1.0D-05 until final iterations.
 Initial convergence to 1.0D-05 achieved.  Increase integral accuracy.
 SCF Done:  E(RHF) =  -492.847209256     A.U. after   15 cycles
             Convg  =    0.5532D-08             -V/T =  2.0020

 **********************************************************************

            Population analysis using the SCF density.

 **********************************************************************

 Orbital symmetries:
       Occupied  (A) (A) (A) (A) (A) (A) (A) (A) (A) (A) (A) (A)
                 (A) (A) (A) (A) (A) (A) (A) (A) (A) (A) (A) (A)
                 (A) (A) (A) (A) (A) (A) (A) (A) (A) (A) (A) (A)
                 (A) (A) (A)
       Virtual   (A) (A) (A) (A) (A) (A) (A) (A) (A) (A) (A) (A)
                 (A) (A) (A) (A) (A) (A) (A) (A) (A) (A) (A) (A)
                 (A) (A) (A) (A) (A) (A) (A) (A) (A) (A) (A) (A)
                 (A) (A) (A) (A) (A) (A) (A) (A) (A) (A) (A) (A)
                 (A) (A) (A) (A) (A) (A) (A) (A) (A) (A) (A) (A)
                 (A) (A) (A) (A) (A) (A) (A) (A) (A) (A) (A) (A)
                 (A) (A) (A) (A) (A) (A) (A) (A) (A) (A) (A) (A)
                 (A) (A) (A) (A) (A) (A) (A) (A) (A) (A) (A) (A)
                 (A) (A) (A) (A) (A) (A) (A) (A) (A) (A) (A) (A)
                 (A) (A) (A) (A) (A) (A) (A) (A) (A) (A) (A) (A)
                 (A) (A) (A) (A) (A) (A) (A) (A) (A) (A) (A) (A)
                 (A) (A) (A)
 The electronic state is 1-A.
 Alpha  occ. eigenvalues --  -20.52522 -20.52357 -15.60387 -15.59981 -11.35708
 Alpha  occ. eigenvalues --  -11.35253 -11.28118 -11.26603 -11.24351 -11.20801
 Alpha  occ. eigenvalues --   -1.38535  -1.37717  -1.25412  -1.23653  -1.05722
 Alpha  occ. eigenvalues --   -0.99225  -0.96742  -0.87342  -0.80724  -0.79611
 Alpha  occ. eigenvalues --   -0.73903  -0.67133  -0.65556  -0.65392  -0.62991
 Alpha  occ. eigenvalues --   -0.62383  -0.59623  -0.58633  -0.57018  -0.56123
 Alpha  occ. eigenvalues --   -0.55451  -0.53071  -0.52255  -0.51242  -0.49493
 Alpha  occ. eigenvalues --   -0.42747  -0.41858  -0.39976  -0.38813
 Alpha virt. eigenvalues --    0.18284   0.19577   0.21209   0.22668   0.25944
 Alpha virt. eigenvalues --    0.27230   0.27345   0.29877   0.31211   0.31659
 Alpha virt. eigenvalues --    0.31921   0.32534   0.33210   0.34156   0.36403
 Alpha virt. eigenvalues --    0.39040   0.40515   0.44046   0.46084   0.50793
 Alpha virt. eigenvalues --    0.53282   0.56786   0.60397   0.70957   0.71772
 Alpha virt. eigenvalues --    0.73172   0.74074   0.75143   0.77130   0.78728
 Alpha virt. eigenvalues --    0.80038   0.83925   0.84399   0.86996   0.89052
 Alpha virt. eigenvalues --    0.89489   0.94450   0.95198   0.97384   0.98484
 Alpha virt. eigenvalues --    0.99744   1.00745   1.02051   1.07113   1.09939
 Alpha virt. eigenvalues --    1.10028   1.11447   1.14019   1.15207   1.15597
 Alpha virt. eigenvalues --    1.16665   1.16716   1.17502   1.18450   1.19252
 Alpha virt. eigenvalues --    1.20217   1.21148   1.21569   1.23019   1.25633
 Alpha virt. eigenvalues --    1.27260   1.33868   1.36481   1.39932   1.44157
 Alpha virt. eigenvalues --    1.45003   1.54594   1.56209   1.57615   1.60896
 Alpha virt. eigenvalues --    1.61567   1.63096   1.69683   1.72531   1.73946
 Alpha virt. eigenvalues --    1.76561   1.83057   1.88927   1.91755   1.97842
 Alpha virt. eigenvalues --    2.04268   2.06259   2.06994   2.10530   2.12645
 Alpha virt. eigenvalues --    2.14252   2.15806   2.16656   2.18956   2.20772
 Alpha virt. eigenvalues --    2.22248   2.25115   2.27471   2.30566   2.35015
 Alpha virt. eigenvalues --    2.37610   2.39884   2.40177   2.43830   2.49890
 Alpha virt. eigenvalues --    2.51717   2.55303   2.58121   2.61408   2.62886
 Alpha virt. eigenvalues --    2.63834   2.65085   2.70467   2.73315   2.74688
 Alpha virt. eigenvalues --    2.77837   2.80165   2.90045   2.91866   2.98367
 Alpha virt. eigenvalues --    3.01517   3.03257   3.08432   3.10808   3.25842
 Alpha virt. eigenvalues --    3.29648   3.33778   3.40351   3.53178   3.56607
 Alpha virt. eigenvalues --    4.39276   4.41875   4.46382   4.50731   4.62269
 Alpha virt. eigenvalues --    4.65994   4.69698   4.84846   4.88790   5.04769
          Condensed to atoms (all electrons):
              1          2          3          4          5          6
     1  H    0.450671   0.385777  -0.018674  -0.017966  -0.029917   0.003565
     2  C    0.385777   5.252982   0.372828   0.375309   0.376573  -0.068695
     3  H   -0.018674   0.372828   0.521122  -0.024307  -0.035232   0.001338
     4  H   -0.017966   0.375309  -0.024307   0.509466  -0.035550   0.001189
     5  C   -0.029917   0.376573  -0.035232  -0.035550   4.188737   0.599377
     6  O    0.003565  -0.068695   0.001338   0.001189   0.599377   8.181416
     7  N    0.003797  -0.122802   0.003717   0.003699   0.234643  -0.107720
     8  H   -0.000013  -0.000991   0.000668   0.000532  -0.018265   0.002233
     9  C   -0.000077   0.004578  -0.000240  -0.000213  -0.023126   0.008795
    10  H   -0.000002   0.000338  -0.000021  -0.000009  -0.001751   0.006800
    11  C    0.000004  -0.000275   0.000000   0.000053  -0.002486  -0.001931
    12  H    0.000000  -0.000008   0.000000   0.000000   0.000150  -0.000021
    13  H    0.000000   0.000003   0.000000   0.000000   0.000008  -0.000015
    14  H    0.000000   0.000044   0.000000  -0.000020   0.001865   0.002603
    15  C    0.000000   0.000005   0.000008  -0.000011   0.002814   0.000509
    16  O    0.000000   0.000000   0.000000   0.000000  -0.000079  -0.000001
    17  N    0.000000  -0.000018   0.000001   0.000001   0.000288   0.000009
    18  H    0.000000   0.000005   0.000013   0.000000   0.000165  -0.000051
    19  C    0.000000   0.000000   0.000000   0.000000   0.000004   0.000000
    20  H    0.000000   0.000000   0.000000   0.000000   0.000000   0.000000
    21  H    0.000000   0.000000   0.000000   0.000000  -0.000001   0.000000
    22  H    0.000000   0.000000   0.000000   0.000000   0.000000   0.000000
              7          8          9         10         11         12
     1  H    0.003797  -0.000013  -0.000077  -0.000002   0.000004   0.000000
     2  C   -0.122802  -0.000991   0.004578   0.000338  -0.000275  -0.000008
     3  H    0.003717   0.000668  -0.000240  -0.000021   0.000000   0.000000
     4  H    0.003699   0.000532  -0.000213  -0.000009   0.000053   0.000000
     5  C    0.234643  -0.018265  -0.023126  -0.001751  -0.002486   0.000150
     6  O   -0.107720   0.002233   0.008795   0.006800  -0.001931  -0.000021
     7  N    7.449244   0.321366   0.151697  -0.037679  -0.070305  -0.000704
     8  H    0.321366   0.320219  -0.025515   0.002646   0.002110   0.000893
     9  C    0.151697  -0.025515   5.130229   0.404036   0.360637  -0.035367
    10  H   -0.037679   0.002646   0.404036   0.458186  -0.035767   0.003844
    11  C   -0.070305   0.002110   0.360637  -0.035767   5.092609   0.391192
    12  H   -0.000704   0.000893  -0.035367   0.003844   0.391192   0.521209
    13  H    0.004630  -0.000075  -0.036560  -0.000354   0.391014  -0.019681
    14  H   -0.004115  -0.000099  -0.035695  -0.003208   0.386572  -0.027136
    15  C   -0.038677  -0.003431   0.358801  -0.035919  -0.064208  -0.006043
    16  O    0.000569   0.000289  -0.079202   0.001067  -0.001705   0.002213
    17  N    0.002040   0.002836  -0.130104   0.000362   0.004963  -0.000017
    18  H    0.004570   0.000061  -0.001140   0.000046   0.000177  -0.000007
    19  C   -0.000144  -0.000106   0.003921  -0.000191  -0.000105  -0.000003
    20  H   -0.000024  -0.000007   0.000623  -0.000016  -0.000014  -0.000003
    21  H    0.000024  -0.000018  -0.000032  -0.000002   0.000002   0.000000
    22  H   -0.000003   0.000004  -0.000108   0.000007   0.000001   0.000000
             13         14         15         16         17         18
     1  H    0.000000   0.000000   0.000000   0.000000   0.000000   0.000000
     2  C    0.000003   0.000044   0.000005   0.000000  -0.000018   0.000005
     3  H    0.000000   0.000000   0.000008   0.000000   0.000001   0.000013
     4  H    0.000000  -0.000020  -0.000011   0.000000   0.000001   0.000000
     5  C    0.000008   0.001865   0.002814  -0.000079   0.000288   0.000165
     6  O   -0.000015   0.002603   0.000509  -0.000001   0.000009  -0.000051
     7  N    0.004630  -0.004115  -0.038677   0.000569   0.002040   0.004570
     8  H   -0.000075  -0.000099  -0.003431   0.000289   0.002836   0.000061
     9  C   -0.036560  -0.035695   0.358801  -0.079202  -0.130104  -0.001140
    10  H   -0.000354  -0.003208  -0.035919   0.001067   0.000362   0.000046
    11  C    0.391014   0.386572  -0.064208  -0.001705   0.004963   0.000177
    12  H   -0.019681  -0.027136  -0.006043   0.002213  -0.000017  -0.000007
    13  H    0.504395  -0.024125  -0.001588   0.000592  -0.000032  -0.000017
    14  H   -0.024125   0.517907   0.005531   0.000667  -0.000040  -0.000008
    15  C   -0.001588   0.005531   4.195628   0.592270   0.289446  -0.022276
    16  O    0.000592   0.000667   0.592270   8.204726  -0.098169   0.002296
    17  N   -0.000032  -0.000040   0.289446  -0.098169   7.327173   0.325804
    18  H   -0.000017  -0.000008  -0.022276   0.002296   0.325804   0.319392
    19  C   -0.000001   0.000002  -0.025969  -0.004904   0.186568  -0.022234
    20  H    0.000000   0.000000  -0.001612   0.010469  -0.031947   0.002249
    21  H    0.000000   0.000000   0.000849   0.000390  -0.048298  -0.000837
    22  H    0.000000   0.000000   0.000825   0.000366  -0.047287  -0.001166
             19         20         21         22
     1  H    0.000000   0.000000   0.000000   0.000000
     2  C    0.000000   0.000000   0.000000   0.000000
     3  H    0.000000   0.000000   0.000000   0.000000
     4  H    0.000000   0.000000   0.000000   0.000000
     5  C    0.000004   0.000000  -0.000001   0.000000
     6  O    0.000000   0.000000   0.000000   0.000000
     7  N   -0.000144  -0.000024   0.000024  -0.000003
     8  H   -0.000106  -0.000007  -0.000018   0.000004
     9  C    0.003921   0.000623  -0.000032  -0.000108
    10  H   -0.000191  -0.000016  -0.000002   0.000007
    11  C   -0.000105  -0.000014   0.000002   0.000001
    12  H   -0.000003  -0.000003   0.000000   0.000000
    13  H   -0.000001   0.000000   0.000000   0.000000
    14  H    0.000002   0.000000   0.000000   0.000000
    15  C   -0.025969  -0.001612   0.000849   0.000825
    16  O   -0.004904   0.010469   0.000390   0.000366
    17  N    0.186568  -0.031947  -0.048298  -0.047287
    18  H   -0.022234   0.002249  -0.000837  -0.001166
    19  C    4.954894   0.396320   0.402091   0.403332
    20  H    0.396320   0.430551  -0.022791  -0.021993
    21  H    0.402091  -0.022791   0.537388  -0.036322
    22  H    0.403332  -0.021993  -0.036322   0.527867
 Mulliken atomic charges:
              1
     1  H    0.222836
     2  C   -0.575654
     3  H    0.178778
     4  H    0.187829
     5  C    0.741784
     6  O   -0.629399
     7  N   -0.797824
     8  H    0.394663
     9  C   -0.055941
    10  H    0.237587
    11  C   -0.452536
    12  H    0.169487
    13  H    0.181806
    14  H    0.179257
    15  C    0.753050
    16  O   -0.631855
    17  N   -0.783580
    18  H    0.392960
    19  C   -0.293475
    20  H    0.238194
    21  H    0.167556
    22  H    0.174477
 Sum of Mulliken atomic charges =   0.00000
 Mulliken charges with hydrogens summed into heavy atoms:
              1
     2  C    0.013789
     5  C    0.741784
     6  O   -0.629399
     7  N   -0.403161
     9  C    0.181646
    11  C    0.078014
    15  C    0.753050
    16  O   -0.631855
    17  N   -0.390620
    19  C    0.286752
 Sum of Mulliken charges with hydrogens summed into heavy atoms =   0.00000
 Electronic spatial extent (au):  <R**2>=           1882.0673
 Charge=              0.0000 electrons
 Dipole moment (field-independent basis, Debye):
    X=             -0.2336    Y=             -4.3745    Z=             -1.6289  Tot=              4.6738
 Quadrupole moment (field-independent basis, Debye-Ang):
   XX=            -68.0806   YY=            -58.3433   ZZ=            -61.7099
   XY=              3.8970   XZ=            -11.4666   YZ=              1.2536
 Traceless Quadrupole moment (field-independent basis, Debye-Ang):
   XX=             -5.3694   YY=              4.3680   ZZ=              1.0014
   XY=              3.8970   XZ=            -11.4666   YZ=              1.2536
 Octapole moment (field-independent basis, Debye-Ang**2):
  XXX=             -7.9600  YYY=             -8.8296  ZZZ=             -4.6272  XYY=              2.8963
  XXY=            -31.1919  XXZ=            -13.9831  XZZ=             -7.3568  YZZ=             -2.9133
  YYZ=              5.1275  XYZ=             -3.4480
 Hexadecapole moment (field-independent basis, Debye-Ang**3):
 XXXX=          -1640.1527 YYYY=           -574.8353 ZZZZ=           -182.7536 XXXY=             21.2147
 XXXZ=            -58.4486 YYYX=              9.1367 YYYZ=              0.5344 ZZZX=             -7.0289
 ZZZY=             -2.0304 XXYY=           -369.9104 XXZZ=           -334.0230 YYZZ=           -126.0987
 XXYZ=              2.4463 YYXZ=             -3.3706 ZZXY=              1.1813
 N-N= 5.540234758925D+02 E-N=-2.263098420171D+03  KE= 4.918455506016D+02
 Calling FoFJK, ICntrl=      2127 FMM=F ISym2X=0 I1Cent= 0 IOpClX= 0 NMat=1 NMatS=1 NMatT=0.
 ***** Axes restored to original set *****
 -------------------------------------------------------------------
 Center     Atomic                   Forces (Hartrees/Bohr)
 Number     Number              X              Y              Z
 -------------------------------------------------------------------
      1        1           0.004436409    0.007920101   -0.002987079
      2        6           0.006105767    0.007191632   -0.002364874
      3        1          -0.001485311   -0.003592248   -0.003535771
      4        1          -0.003205572    0.000300225    0.004072311
      5        6           0.019931048   -0.051129588    0.029882617
      6        8          -0.028979925    0.026508930   -0.020169387
      7        7          -0.011292230    0.022840663   -0.000037959
      8        1           0.010223449   -0.009192462    0.004842150
      9        6           0.015046977   -0.001904214   -0.011930292
     10        1          -0.008184822   -0.000191834   -0.002296505
     11        6           0.003583205   -0.006204891   -0.000945548
     12        1           0.005916757   -0.001610616    0.003255094
     13        1          -0.005190559   -0.003949412   -0.003768786
     14        1          -0.000376118    0.004438267    0.000092095
     15        6           0.016081544    0.022235394   -0.035284438
     16        8          -0.017359578   -0.020593165    0.034370852
     17        7          -0.008498832   -0.000623850    0.012029666
     18        1           0.006863241    0.006848565   -0.011870289
     19        6          -0.001476459    0.003457348    0.002627819
     20        1          -0.003620690   -0.006324752    0.007438487
     21        1           0.004438874    0.002252995    0.000586623
     22        1          -0.002957177    0.001322911   -0.004006784
 -------------------------------------------------------------------
 Cartesian Forces:  Max     0.051129588 RMS     0.013548948

 GradGradGradGradGradGradGradGradGradGradGradGradGradGradGradGradGradGrad
 Berny optimization.
 Internal  Forces:  Max     0.043861723 RMS     0.008090662
 Search for a local minimum.
 Step number   1 out of a maximum of  108
 All quantities printed in internal units (Hartrees-Bohrs-Radians)
 Mixed Optimization -- RFO/linear search
 Second derivative matrix not updated -- first step.
     Eigenvalues ---    0.00369   0.00435   0.00999   0.01044   0.01269
     Eigenvalues ---    0.01422   0.01660   0.02551   0.02551   0.03503
     Eigenvalues ---    0.05232   0.05841   0.05844   0.05844   0.07165
     Eigenvalues ---    0.07464   0.07685   0.07685   0.15421   0.16000
     Eigenvalues ---    0.16000   0.16000   0.16000   0.16000   0.16000
     Eigenvalues ---    0.16000   0.16000   0.16000   0.16000   0.16000
     Eigenvalues ---    0.16180   0.22000   0.22000   0.25000   0.25000
     Eigenvalues ---    0.25000   0.25000   0.29422   0.29887   0.30174
     Eigenvalues ---    0.34808   0.34810   0.34812   0.34814   0.34815
     Eigenvalues ---    0.34816   0.34816   0.34818   0.34821   0.34822
     Eigenvalues ---    0.38379   0.38384   0.45968   0.45976   0.58327
     Eigenvalues ---    0.58334   0.91495   0.915221000.000001000.00000
     Eigenvalues --- 1000.000001000.000001000.000001000.000001000.00000
     Eigenvalues --- 1000.000001000.000001000.000001000.000001000.00000
     Eigenvalues --- 1000.000001000.000001000.000001000.000001000.00000
     Eigenvalues --- 1000.000001000.000001000.000001000.000001000.00000
     Eigenvalues --- 1000.000001000.000001000.000001000.000001000.00000
     Eigenvalues --- 1000.000001000.000001000.000001000.000001000.00000
     Eigenvalues --- 1000.000001000.000001000.000001000.000001000.00000
     Eigenvalues --- 1000.000001000.000001000.00000
 RFO step:  Lambda=-1.47470295D-02 EMin= 3.68861443D-03
 Linear search not attempted -- first point.
 Iteration  1 RMS(Cart)=  0.08716152 RMS(Int)=  0.00242133
 Iteration  2 RMS(Cart)=  0.00408090 RMS(Int)=  0.00051089
 Iteration  3 RMS(Cart)=  0.00000649 RMS(Int)=  0.00051088
 Iteration  4 RMS(Cart)=  0.00000001 RMS(Int)=  0.00051088
 Iteration  1 RMS(Cart)=  0.00043587 RMS(Int)=  0.00011288
 Iteration  2 RMS(Cart)=  0.00023270 RMS(Int)=  0.00012608
 Iteration  3 RMS(Cart)=  0.00012453 RMS(Int)=  0.00014217
 Iteration  4 RMS(Cart)=  0.00006688 RMS(Int)=  0.00015272
 Iteration  5 RMS(Cart)=  0.00003612 RMS(Int)=  0.00015890
 Iteration  6 RMS(Cart)=  0.00001967 RMS(Int)=  0.00016241
 Iteration  7 RMS(Cart)=  0.00001084 RMS(Int)=  0.00016439
 Iteration  8 RMS(Cart)=  0.00000608 RMS(Int)=  0.00016550
 Iteration  9 RMS(Cart)=  0.00000348 RMS(Int)=  0.00016614
 Iteration 10 RMS(Cart)=  0.00000204 RMS(Int)=  0.00016650
 Iteration 11 RMS(Cart)=  0.00000123 RMS(Int)=  0.00016671
 Iteration 12 RMS(Cart)=  0.00000076 RMS(Int)=  0.00016684
 Variable       Old X    -DE/DX   Delta X   Delta X   Delta X     New X
                                 (Linear)    (Quad)   (Total)
    R1        2.05977  -0.00864   0.00000  -0.02382  -0.02382   2.03595
    R2        2.05987  -0.00297   0.00000  -0.00818  -0.00818   2.05169
    R3        2.05965  -0.00311   0.00000  -0.00857  -0.00857   2.05108
    R4        2.89132  -0.00959   0.00000  -0.03104  -0.03104   2.86027
    R5        2.32240  -0.04386   0.00000  -0.04717  -0.04716   2.27523
    R6        2.52289   0.01399   0.00000   0.02339   0.02339   2.54628
    R7        1.90859  -0.01429   0.00000  -0.03011  -0.03011   1.87848
    R8        2.73817   0.00344   0.00000   0.00864   0.00864   2.74682
    R9        2.05975  -0.00598   0.00000  -0.01649  -0.01649   2.04325
   R10        2.88188   0.00508   0.00000   0.01619   0.01619   2.89807
   R11        2.87618   0.00914   0.00000   0.02889   0.02889   2.90506
   R12        2.05972  -0.00605   0.00000  -0.01667  -0.01667   2.04305
   R13        2.05984  -0.00651   0.00000  -0.01794  -0.01794   2.04190
   R14        2.05966  -0.00445   0.00000  -0.01226  -0.01226   2.04740
   R15        2.32252  -0.04351   0.00000  -0.04680  -0.04680   2.27572
   R16        2.52284   0.01063   0.00000   0.01777   0.01777   2.54061
   R17        1.90868  -0.01510   0.00000  -0.03184  -0.03184   1.87684
   R18        2.73811   0.00173   0.00000   0.00434   0.00434   2.74245
   R19        2.05976  -0.01025   0.00000  -0.02825  -0.02825   2.03151
   R20        2.05981  -0.00388   0.00000  -0.01071  -0.01071   2.04911
   R21        2.05974  -0.00420   0.00000  -0.01158  -0.01158   2.04817
    A1        1.91109   0.00034   0.00000   0.00009   0.00048   1.91157
    A2        1.91123   0.00038   0.00000  -0.00032   0.00003   1.91127
    A3        1.93910  -0.00804   0.00000  -0.04817  -0.04779   1.89131
    A4        1.91012  -0.00476   0.00000  -0.02265  -0.02345   1.88668
    A5        1.89594   0.00622   0.00000   0.03680   0.03658   1.93252
    A6        1.89607   0.00590   0.00000   0.03466   0.03441   1.93048
    A7        2.10313   0.00877   0.00000   0.03312   0.03311   2.13624
    A8        2.03508  -0.00597   0.00000  -0.02255  -0.02256   2.01252
    A9        2.14497  -0.00280   0.00000  -0.01056  -0.01057   2.13440
   A10        2.09430  -0.00341   0.00000  -0.01716  -0.01792   2.07638
   A11        2.12753   0.00323   0.00000   0.01375   0.01293   2.14046
   A12        2.06135   0.00018   0.00000   0.00340   0.00254   2.06389
   A13        1.91114  -0.00126   0.00000  -0.04859  -0.04970   1.86143
   A14        1.93905   0.00142   0.00000   0.01414   0.01507   1.95412
   A15        1.93900  -0.00975   0.00000  -0.04387  -0.04607   1.89293
   A16        1.89609  -0.00231   0.00000   0.00170   0.00142   1.89751
   A17        1.89608  -0.00186   0.00000  -0.00783  -0.01091   1.88517
   A18        1.88137   0.01398   0.00000   0.08663   0.08709   1.96846
   A19        1.91115   0.00375   0.00000   0.02175   0.02161   1.93275
   A20        1.91106   0.00465   0.00000   0.02648   0.02634   1.93741
   A21        1.91110  -0.00132   0.00000  -0.00768  -0.00764   1.90346
   A22        1.91011  -0.00416   0.00000  -0.02356  -0.02388   1.88623
   A23        1.91023  -0.00117   0.00000  -0.00641  -0.00637   1.90386
   A24        1.91015  -0.00176   0.00000  -0.01062  -0.01058   1.89957
   A25        2.10310   0.00841   0.00000   0.03178   0.03153   2.13463
   A26        2.03507  -0.00826   0.00000  -0.03118  -0.03141   2.00366
   A27        2.14501  -0.00016   0.00000  -0.00059  -0.00080   2.14422
   A28        2.09435  -0.00679   0.00000  -0.03251  -0.03252   2.06183
   A29        2.12756   0.00872   0.00000   0.03715   0.03713   2.16470
   A30        2.06127  -0.00193   0.00000  -0.00465  -0.00467   2.05660
   A31        1.91121  -0.00436   0.00000  -0.02734  -0.02717   1.88404
   A32        1.91119   0.00456   0.00000   0.02750   0.02732   1.93852
   A33        1.91114   0.00419   0.00000   0.02497   0.02478   1.93593
   A34        1.91000  -0.00057   0.00000  -0.00521  -0.00504   1.90497
   A35        1.91015  -0.00060   0.00000  -0.00627  -0.00611   1.90403
   A36        1.91010  -0.00323   0.00000  -0.01369  -0.01418   1.89592
    D1        0.00008  -0.00013   0.00000  -0.00325  -0.00328  -0.00320
    D2       -3.14153   0.00006   0.00000   0.00365   0.00370  -3.13783
    D3        2.10332  -0.00066   0.00000  -0.00916  -0.00967   2.09364
    D4       -1.03830  -0.00047   0.00000  -0.00225  -0.00269  -1.04099
    D5       -2.10341   0.00056   0.00000   0.00454   0.00497  -2.09844
    D6        1.03816   0.00075   0.00000   0.01145   0.01195   1.05011
    D7       -0.00004  -0.00008   0.00000  -0.02712  -0.02650  -0.02653
    D8       -3.14152   0.00111   0.00000   0.05051   0.05000  -3.09153
    D9        3.14153   0.00012   0.00000  -0.02004  -0.01952   3.12201
   D10        0.00005   0.00130   0.00000   0.05760   0.05697   0.05702
   D11       -0.52362  -0.00209   0.00000  -0.06902  -0.06790  -0.59153
   D12        1.57082  -0.00488   0.00000  -0.08956  -0.08882   1.48199
   D13       -2.61802   0.00721   0.00000   0.00000   0.00000  -2.61802
   D14        2.61807  -0.00092   0.00000   0.00720   0.00807   2.62614
   D15       -1.57067  -0.00371   0.00000  -0.01333  -0.01285  -1.58352
   D16        0.52368   0.00837   0.00000   0.07622   0.07597   0.59965
   D17        1.04724   0.00012   0.00000   0.02423   0.02493   1.07217
   D18        3.14157   0.00017   0.00000   0.02494   0.02583  -3.11579
   D19       -1.04726   0.00006   0.00000   0.02345   0.02425  -1.02302
   D20       -3.13259  -0.00206   0.00000  -0.02606  -0.02637   3.12423
   D21       -1.03826  -0.00200   0.00000  -0.02535  -0.02547  -1.06373
   D22        1.05609  -0.00211   0.00000  -0.02683  -0.02705   1.02904
   D23       -1.08102   0.00216   0.00000   0.01304   0.01237  -1.06865
   D24        1.01331   0.00221   0.00000   0.01375   0.01327   1.02657
   D25        3.10766   0.00210   0.00000   0.01227   0.01168   3.11935
   D26       -2.09439  -0.00488   0.00000  -0.03843  -0.03843  -2.13283
   D27        1.04722  -0.00470   0.00000   0.00000   0.00000   1.04722
   D28        2.08548   0.00392   0.00000   0.05390   0.05381   2.13928
   D29       -1.05609   0.00409   0.00000   0.09234   0.09224  -0.96386
   D30        0.03390  -0.00001   0.00000   0.00864   0.00797   0.04187
   D31       -3.10767   0.00017   0.00000   0.04708   0.04640  -3.06127
   D32       -0.00011   0.00009   0.00000  -0.01392  -0.01359  -0.01370
   D33        3.14159  -0.00029   0.00000  -0.02606  -0.02562   3.11597
   D34        3.14151   0.00027   0.00000   0.02553   0.02508  -3.11660
   D35        0.00002  -0.00011   0.00000   0.01338   0.01305   0.01307
   D36        0.00004   0.00011   0.00000   0.00546   0.00551   0.00555
   D37        2.09436  -0.00046   0.00000  -0.00082  -0.00105   2.09331
   D38       -2.09443   0.00095   0.00000   0.01459   0.01488  -2.07954
   D39       -3.14145  -0.00026   0.00000  -0.00646  -0.00649   3.13525
   D40       -1.04712  -0.00084   0.00000  -0.01275  -0.01305  -1.06017
   D41        1.04727   0.00057   0.00000   0.00267   0.00289   1.05016
         Item               Value     Threshold  Converged?
 Maximum Force            0.043862     0.000450     NO 
 RMS     Force            0.008074     0.000300     NO 
 Maximum Displacement     0.287039     0.001800     NO 
 RMS     Displacement     0.087628     0.001200     NO 
 Predicted change in Energy=-8.003696D-03
 GradGradGradGradGradGradGradGradGradGradGradGradGradGradGradGradGradGrad

                          Input orientation:                          
 ---------------------------------------------------------------------
 Center     Atomic      Atomic             Coordinates (Angstroms)
 Number     Number       Type             X           Y           Z
 ---------------------------------------------------------------------
      1          1           0        1.910476    1.337169    1.003731
      2          6           0        1.951103    2.286959    0.496783
      3          1           0        1.252087    2.976088    0.960720
      4          1           0        1.658443    2.157072   -0.540301
      5          6           0        3.366080    2.816434    0.588744
      6          8           0        4.243480    2.217367    1.155228
      7          7           0        3.573917    4.010082   -0.000820
      8          1           0        2.817841    4.453678   -0.469542
      9          6           0        4.883859    4.637155   -0.061199
     10          1           0        5.397682    4.369920    0.851851
     11          6           0        5.706124    4.134148   -1.254001
     12          1           0        5.211779    4.369506   -2.186248
     13          1           0        6.685427    4.590513   -1.269338
     14          1           0        5.822034    3.059762   -1.175917
     15          6           0        4.693276    6.162562   -0.070408
     16          8           0        5.116188    6.858655   -0.957447
     17          7           0        4.061435    6.658478    1.007713
     18          1           0        3.760211    6.021874    1.708007
     19          6           0        3.803760    8.070830    1.219757
     20          1           0        4.197300    8.609575    0.376806
     21          1           0        2.740059    8.265126    1.300899
     22          1           0        4.289639    8.421550    2.122881
 ---------------------------------------------------------------------
                    Distance matrix (angstroms):
                    1          2          3          4          5
     1  H    0.000000
     2  C    1.077381   0.000000
     3  H    1.766743   1.085706   0.000000
     4  H    1.766295   1.085387   1.757549   0.000000
     5  C    2.116418   1.513592   2.152399   2.150703   0.000000
     6  O    2.498121   2.386082   3.092236   3.092066   1.204000
     7  N    3.304637   2.418737   2.717462   2.719141   1.347433
     8  H    3.564615   2.525805   2.584668   2.573637   2.025119
     9  C    4.567822   3.799451   4.122285   4.096786   2.457866
    10  H    4.623987   4.042735   4.374994   4.562531   2.570982
    11  C    5.227561   4.536247   5.107302   4.560912   3.256974
    12  H    5.501784   4.708255   5.246349   4.497799   3.676848
    13  H    6.208965   5.553320   6.091035   5.632379   4.197367
    14  H    4.797757   4.287104   5.045456   4.307475   3.033965
    15  C    5.672933   4.781371   4.801939   5.047272   3.659577
    16  O    6.679044   5.747430   5.803876   5.851059   4.668312
    17  N    5.739597   4.881058   4.631915   5.332295   3.926876
    18  H    5.085665   4.323138   4.015711   4.940548   3.418032
    19  C    6.998099   6.116224   5.703905   6.532436   5.310219
    20  H    7.649216   6.710832   6.383684   6.994403   5.856307
    21  H    6.983774   6.083381   5.504880   6.470566   5.530580
    22  H    7.556545   6.763590   6.342743   7.297904   5.884205
                    6          7          8          9         10
     6  O    0.000000
     7  N    2.235752   0.000000
     8  H    3.110211   0.994047   0.000000
     9  C    2.783012   1.453552   2.113963   0.000000
    10  H    2.461241   2.045152   2.899771   1.081244   0.000000
    11  C    3.408484   2.476320   3.009926   1.533594   2.141339
    12  H    4.090815   2.754609   2.947049   2.166795   3.043781
    13  H    4.180126   3.409916   3.951786   2.169659   2.491263
    14  H    2.938656   2.708872   3.386317   2.147309   2.451210
    15  C    4.155606   2.427133   2.568433   1.537294   2.135489
    16  O    5.173643   3.377589   3.362196   2.406720   3.089758
    17  N    4.447288   2.875555   2.930862   2.429959   2.654684
    18  H    3.874712   2.646149   2.844120   2.511996   2.478562
    19  C    5.870311   4.246447   4.112123   3.820679   4.046317
    20  H    6.439597   4.656882   4.459898   4.055038   4.431846
    21  H    6.233529   4.527162   4.203290   4.428697   4.736796
    22  H    6.279361   4.948071   4.962948   4.409642   4.388506
                   11         12         13         14         15
    11  C    0.000000
    12  H    1.081136   0.000000
    13  H    1.080527   1.749630   0.000000
    14  H    1.083439   1.763125   1.759936   0.000000
    15  C    2.557580   2.821466   2.806677   3.481898   0.000000
    16  O    2.803374   2.777581   2.775654   3.870083   1.204259
    17  N    3.767305   4.094395   4.043115   4.562752   1.344433
    18  H    4.015417   4.472426   4.412513   4.619766   2.013247
    19  C    5.023538   5.223331   5.158702   5.909610   2.469262
    20  H    4.996551   5.057331   5.005340   5.987582   2.536507
    21  H    5.691224   5.783204   5.972841   6.536742   3.180615
    22  H    5.638401   5.986484   5.650114   6.479126   3.174345
                   16         17         18         19         20
    16  O    0.000000
    17  N    2.239292   0.000000
    18  H    3.105402   0.993182   0.000000
    19  C    2.816390   1.451240   2.106776   0.000000
    20  H    2.385436   2.055063   2.942675   1.075029   0.000000
    21  H    3.567110   2.100788   2.497723   1.084340   1.759587
    22  H    3.551653   2.098594   2.492159   1.083843   1.758595
                   21         22
    21  H    0.000000
    22  H    1.761056   0.000000
 Stoichiometry    C6H12N2O2
 Framework group  C1[X(C6H12N2O2)]
 Deg. of freedom    60
 Full point group                 C1      NOp   1
 Largest Abelian subgroup         C1      NOp   1
 Largest concise Abelian subgroup C1      NOp   1
                         Standard orientation:                         
 ---------------------------------------------------------------------
 Center     Atomic      Atomic             Coordinates (Angstroms)
 Number     Number       Type             X           Y           Z
 ---------------------------------------------------------------------
      1          1           0        3.924613   -1.410500   -0.260596
      2          6           0        2.979755   -1.267819   -0.758225
      3          1           0        2.500173   -2.230099   -0.909140
      4          1           0        3.147128   -0.818123   -1.731788
      5          6           0        2.118285   -0.369154    0.102723
      6          8           0        2.497248    0.069755    1.157883
      7          7           0        0.893304   -0.100931   -0.390283
      8          1           0        0.637647   -0.475725   -1.274760
      9          6           0       -0.041128    0.792085    0.274679
     10          1           0        0.117304    0.670890    1.337364
     11          6           0        0.205772    2.259701   -0.095531
     12          1           0        0.072788    2.414297   -1.157260
     13          1           0       -0.479873    2.911483    0.426589
     14          1           0        1.219501    2.527669    0.177208
     15          6           0       -1.470899    0.328953   -0.048639
     16          8           0       -2.276528    1.050009   -0.578997
     17          7           0       -1.761692   -0.922256    0.348118
     18          1           0       -1.049498   -1.448310    0.798073
     19          6           0       -3.058700   -1.549151    0.172420
     20          1           0       -3.703368   -0.844092   -0.320513
     21          1           0       -2.980060   -2.444062   -0.434823
     22          1           0       -3.491908   -1.816924    1.129156
 ---------------------------------------------------------------------
 Rotational constants (GHZ):      2.0989129      0.7694565      0.6334788
 Standard basis: 6-31G(d) (6D, 7F)
 There are   174 symmetry adapted basis functions of A   symmetry.
 Integral buffers will be    131072 words long.
 Raffenetti 1 integral format.
 Two-electron integral symmetry is turned on.
   174 basis functions,   328 primitive gaussians,   174 cartesian basis functions
    39 alpha electrons       39 beta electrons
       nuclear repulsion energy       554.5861226233 Hartrees.
 NAtoms=   22 NActive=   22 NUniq=   22 SFac= 7.50D-01 NAtFMM=   80 NAOKFM=F Big=F
 One-electron integrals computed using PRISM.
 NBasis=   174 RedAO= T  NBF=   174
 NBsUse=   174 1.00D-06 NBFU=   174
 Initial guess read from the read-write file.
 B after Tr=     0.000000    0.000000    0.000000
         Rot=    1.000000    0.000000    0.000000    0.000000 Ang=   0.00 deg.
 Initial guess orbital symmetries:
       Occupied  (A) (A) (A) (A) (A) (A) (A) (A) (A) (A) (A) (A)
                 (A) (A) (A) (A) (A) (A) (A) (A) (A) (A) (A) (A)
                 (A) (A) (A) (A) (A) (A) (A) (A) (A) (A) (A) (A)
                 (A) (A) (A)
       Virtual   (A) (A) (A) (A) (A) (A) (A) (A) (A) (A) (A) (A)
                 (A) (A) (A) (A) (A) (A) (A) (A) (A) (A) (A) (A)
                 (A) (A) (A) (A) (A) (A) (A) (A) (A) (A) (A) (A)
                 (A) (A) (A) (A) (A) (A) (A) (A) (A) (A) (A) (A)
                 (A) (A) (A) (A) (A) (A) (A) (A) (A) (A) (A) (A)
                 (A) (A) (A) (A) (A) (A) (A) (A) (A) (A) (A) (A)
                 (A) (A) (A) (A) (A) (A) (A) (A) (A) (A) (A) (A)
                 (A) (A) (A) (A) (A) (A) (A) (A) (A) (A) (A) (A)
                 (A) (A) (A) (A) (A) (A) (A) (A) (A) (A) (A) (A)
                 (A) (A) (A) (A) (A) (A) (A) (A) (A) (A) (A) (A)
                 (A) (A) (A) (A) (A) (A) (A) (A) (A) (A) (A) (A)
                 (A) (A) (A)
 Harris functional with IExCor=  205 diagonalized for initial guess.
 ExpMin= 1.61D-01 ExpMax= 5.48D+03 ExpMxC= 8.25D+02 IAcc=1 IRadAn=         1 AccDes= 0.00D+00
 HarFok:  IExCor=  205 AccDes= 0.00D+00 IRadAn=         1 IDoV= 1
 ScaDFX=  1.000000  1.000000  1.000000  1.000000
 FoFCou: FMM=F IPFlag=           0 FMFlag=      100000 FMFlg1=           0
         NFxFlg=           0 DoJE=T BraDBF=F KetDBF=T FulRan=T
         Omega=  0.000000  0.000000  1.000000  0.000000  0.000000 ICntrl=     500 IOpCl=  0
         NMat0=    1 NMatS0=    1 NMatT0=    0 NMatD0=    1 NMtDS0=    0 NMtDT0=    0
         I1Cent=           4 NGrid=           0.
 Petite list used in FoFCou.
 Requested convergence on RMS density matrix=1.00D-08 within 128 cycles.
 Requested convergence on MAX density matrix=1.00D-06.
 Requested convergence on             energy=1.00D-06.
 No special actions if energy rises.
 Integral accuracy reduced to 1.0D-05 until final iterations.
 Initial convergence to 1.0D-05 achieved.  Increase integral accuracy.
 SCF Done:  E(RHF) =  -492.854244685     A.U. after   14 cycles
             Convg  =    0.4946D-08             -V/T =  2.0015
 Calling FoFJK, ICntrl=      2127 FMM=F ISym2X=0 I1Cent= 0 IOpClX= 0 NMat=1 NMatS=1 NMatT=0.
 ***** Axes restored to original set *****
 -------------------------------------------------------------------
 Center     Atomic                   Forces (Hartrees/Bohr)
 Number     Number              X              Y              Z
 -------------------------------------------------------------------
      1        1          -0.000985418   -0.001491339    0.000609865
      2        6           0.000564964    0.001196098   -0.000357874
      3        1          -0.000058547   -0.000199733   -0.000188151
      4        1          -0.000101623   -0.000047578    0.000167960
      5        6           0.004160803   -0.010104894    0.005903381
      6        8          -0.004438679    0.002371319   -0.002365345
      7        7          -0.000869749    0.008294759    0.000929146
      8        1          -0.000561192   -0.001133234   -0.002574293
      9        6           0.001312748   -0.001010281   -0.006724694
     10        1           0.000172163    0.000444600    0.000887216
     11        6          -0.003785442    0.002689930    0.003833254
     12        1          -0.000627109    0.000717331   -0.001270454
     13        1           0.001292229    0.001231252    0.000429995
     14        1          -0.000297702    0.000336108    0.000667297
     15        6           0.012224039    0.004863038   -0.006761803
     16        8          -0.002932119   -0.006194285    0.001993219
     17        7          -0.006655362    0.002445243    0.006857208
     18        1          -0.000358196   -0.001358386    0.000553799
     19        6           0.001125066   -0.003678028   -0.001218389
     20        1           0.000584431    0.001724957   -0.001323723
     21        1          -0.000288020   -0.000597781   -0.000230597
     22        1           0.000522716   -0.000499094    0.000182984
 -------------------------------------------------------------------
 Cartesian Forces:  Max     0.012224039 RMS     0.003377492

 GradGradGradGradGradGradGradGradGradGradGradGradGradGradGradGradGradGrad
 Berny optimization.
 Using GEDIIS/GDIIS optimizer.
 Internal  Forces:  Max     0.009113451 RMS     0.001957788
 Search for a local minimum.
 Step number   2 out of a maximum of  108
 All quantities printed in internal units (Hartrees-Bohrs-Radians)
 Mixed Optimization -- RFO/linear search
 Update second derivatives using D2CorX and points    1    2
 DE= -7.04D-03 DEPred=-8.00D-03 R= 8.79D-01
 SS=  1.41D+00  RLast= 2.97D-01 DXNew= 5.0454D-01 8.9104D-01
 Trust test= 8.79D-01 RLast= 2.97D-01 DXMaxT set to 5.05D-01
 Use linear search instead of GDIIS.
     Eigenvalues ---    0.00369   0.00435   0.00984   0.01044   0.01241
     Eigenvalues ---    0.01404   0.01650   0.02550   0.02554   0.03533
     Eigenvalues ---    0.05124   0.05622   0.05781   0.06094   0.07141
     Eigenvalues ---    0.07331   0.07440   0.07755   0.15496   0.15848
     Eigenvalues ---    0.15980   0.15999   0.16000   0.16000   0.16000
     Eigenvalues ---    0.16000   0.16000   0.16000   0.16000   0.16367
     Eigenvalues ---    0.17907   0.21984   0.22349   0.24293   0.24996
     Eigenvalues ---    0.25000   0.25644   0.29316   0.29996   0.31287
     Eigenvalues ---    0.34735   0.34810   0.34811   0.34813   0.34815
     Eigenvalues ---    0.34816   0.34817   0.34818   0.34822   0.35932
     Eigenvalues ---    0.38302   0.38771   0.45971   0.46333   0.56113
     Eigenvalues ---    0.58344   0.84251   0.915131000.000001000.00000
     Eigenvalues --- 1000.000001000.000001000.000001000.000001000.00000
     Eigenvalues --- 1000.000001000.000001000.000001000.000001000.00000
     Eigenvalues --- 1000.000001000.000001000.000001000.000001000.00000
     Eigenvalues --- 1000.000001000.000001000.000001000.000001000.00000
     Eigenvalues --- 1000.000001000.000001000.000001000.000001000.00000
     Eigenvalues --- 1000.000001000.000001000.000001000.000001000.00000
     Eigenvalues --- 1000.000001000.000001000.000001000.000001000.00000
     Eigenvalues --- 1000.000001000.000001000.00000
 RFO step:  Lambda=-1.51065759D-03 EMin= 3.68852245D-03
 Quartic linear search produced a step of -0.03513.
 Iteration  1 RMS(Cart)=  0.03048146 RMS(Int)=  0.00073502
 Iteration  2 RMS(Cart)=  0.00088845 RMS(Int)=  0.00020841
 Iteration  3 RMS(Cart)=  0.00000066 RMS(Int)=  0.00020841
 Iteration  1 RMS(Cart)=  0.00004622 RMS(Int)=  0.00001593
 Iteration  2 RMS(Cart)=  0.00002651 RMS(Int)=  0.00001768
 Iteration  3 RMS(Cart)=  0.00001559 RMS(Int)=  0.00002017
 Iteration  4 RMS(Cart)=  0.00000941 RMS(Int)=  0.00002212
 Iteration  5 RMS(Cart)=  0.00000583 RMS(Int)=  0.00002347
 Iteration  6 RMS(Cart)=  0.00000369 RMS(Int)=  0.00002438
 Iteration  7 RMS(Cart)=  0.00000238 RMS(Int)=  0.00002498
 Iteration  8 RMS(Cart)=  0.00000155 RMS(Int)=  0.00002538
 Iteration  9 RMS(Cart)=  0.00000102 RMS(Int)=  0.00002565
 Iteration 10 RMS(Cart)=  0.00000068 RMS(Int)=  0.00002583
 Variable       Old X    -DE/DX   Delta X   Delta X   Delta X     New X
                                 (Linear)    (Quad)   (Total)
    R1        2.03595   0.00164   0.00084   0.00130   0.00214   2.03809
    R2        2.05169  -0.00017   0.00029  -0.00157  -0.00128   2.05040
    R3        2.05108  -0.00013   0.00030  -0.00151  -0.00121   2.04988
    R4        2.86027   0.00072   0.00109  -0.00185  -0.00076   2.85951
    R5        2.27523  -0.00553   0.00166  -0.01217  -0.01051   2.26472
    R6        2.54628   0.00911  -0.00082   0.01818   0.01736   2.56364
    R7        1.87848   0.00113   0.00106  -0.00169  -0.00063   1.87785
    R8        2.74682   0.00263  -0.00030   0.00775   0.00745   2.75426
    R9        2.04325   0.00072   0.00058  -0.00024   0.00034   2.04360
   R10        2.89807  -0.00631  -0.00057  -0.01807  -0.01864   2.87944
   R11        2.90506  -0.00379  -0.00101  -0.00816  -0.00917   2.89589
   R12        2.04305   0.00154   0.00059   0.00199   0.00258   2.04563
   R13        2.04190   0.00169   0.00063   0.00222   0.00285   2.04475
   R14        2.04740  -0.00032   0.00043  -0.00253  -0.00210   2.04530
   R15        2.27572  -0.00608   0.00164  -0.01270  -0.01106   2.26466
   R16        2.54061   0.00552  -0.00062   0.01150   0.01088   2.55149
   R17        1.87684   0.00137   0.00112  -0.00143  -0.00031   1.87653
   R18        2.74245  -0.00369  -0.00015  -0.00865  -0.00880   2.73364
   R19        2.03151   0.00212   0.00099   0.00202   0.00301   2.03452
   R20        2.04911   0.00016   0.00038  -0.00101  -0.00063   2.04847
   R21        2.04817   0.00023   0.00041  -0.00094  -0.00053   2.04763
    A1        1.91157  -0.00057  -0.00002  -0.00253  -0.00257   1.90900
    A2        1.91127  -0.00053   0.00000  -0.00250  -0.00252   1.90875
    A3        1.89131   0.00135   0.00168   0.00230   0.00396   1.89527
    A4        1.88668  -0.00024   0.00082  -0.00603  -0.00518   1.88150
    A5        1.93252   0.00003  -0.00128   0.00477   0.00349   1.93601
    A6        1.93048  -0.00006  -0.00121   0.00387   0.00266   1.93315
    A7        2.13624  -0.00031  -0.00116   0.00327   0.00210   2.13834
    A8        2.01252  -0.00073   0.00079  -0.00586  -0.00508   2.00744
    A9        2.13440   0.00104   0.00037   0.00254   0.00291   2.13731
   A10        2.07638  -0.00049   0.00063  -0.00701  -0.00705   2.06932
   A11        2.14046   0.00009  -0.00045   0.00117   0.00003   2.14050
   A12        2.06389   0.00033  -0.00009   0.00110   0.00032   2.06420
   A13        1.86143  -0.00125   0.00175  -0.00288  -0.00121   1.86022
   A14        1.95412   0.00146  -0.00053   0.00783   0.00738   1.96150
   A15        1.89293   0.00224   0.00162   0.00590   0.00761   1.90055
   A16        1.89751   0.00139  -0.00005   0.00811   0.00800   1.90551
   A17        1.88517  -0.00006   0.00038  -0.00718  -0.00668   1.87848
   A18        1.96846  -0.00372  -0.00306  -0.01191  -0.01500   1.95346
   A19        1.93275   0.00015  -0.00076   0.00424   0.00349   1.93624
   A20        1.93741  -0.00090  -0.00093  -0.00282  -0.00374   1.93366
   A21        1.90346  -0.00080   0.00027  -0.00525  -0.00499   1.89847
   A22        1.88623   0.00027   0.00084  -0.00268  -0.00183   1.88440
   A23        1.90386   0.00057   0.00022   0.00451   0.00474   1.90860
   A24        1.89957   0.00076   0.00037   0.00218   0.00253   1.90210
   A25        2.13463  -0.00217  -0.00111  -0.00330  -0.00522   2.12941
   A26        2.00366  -0.00256   0.00110  -0.01326  -0.01298   1.99068
   A27        2.14422   0.00479   0.00003   0.01910   0.01829   2.16251
   A28        2.06183   0.00061   0.00114  -0.00267  -0.00153   2.06029
   A29        2.16470  -0.00236  -0.00130  -0.00526  -0.00656   2.15813
   A30        2.05660   0.00175   0.00016   0.00789   0.00805   2.06465
   A31        1.88404   0.00145   0.00095   0.00572   0.00668   1.89072
   A32        1.93852  -0.00098  -0.00096  -0.00248  -0.00343   1.93509
   A33        1.93593  -0.00103  -0.00087  -0.00327  -0.00414   1.93179
   A34        1.90497  -0.00008   0.00018  -0.00024  -0.00007   1.90490
   A35        1.90403  -0.00013   0.00021  -0.00106  -0.00084   1.90319
   A36        1.89592   0.00079   0.00050   0.00135   0.00186   1.89778
    D1       -0.00320  -0.00001   0.00012   0.00444   0.00456   0.00136
    D2       -3.13783   0.00009  -0.00013   0.01247   0.01234  -3.12549
    D3        2.09364   0.00016   0.00034   0.00567   0.00603   2.09967
    D4       -1.04099   0.00026   0.00009   0.01370   0.01381  -1.02718
    D5       -2.09844  -0.00016  -0.00017   0.00374   0.00355  -2.09489
    D6        1.05011  -0.00006  -0.00042   0.01177   0.01133   1.06144
    D7       -0.02653  -0.00047   0.00093  -0.03675  -0.03574  -0.06228
    D8       -3.09153   0.00048  -0.00176   0.03717   0.03532  -3.05620
    D9        3.12201  -0.00037   0.00069  -0.02874  -0.02797   3.09404
   D10        0.05702   0.00059  -0.00200   0.04518   0.04310   0.10012
   D11       -0.59153  -0.00029   0.00239  -0.00693  -0.00464  -0.59617
   D12        1.48199   0.00145   0.00312   0.00555   0.00857   1.49056
   D13       -2.61802  -0.00068   0.00000   0.00000   0.00000  -2.61801
   D14        2.62614   0.00070  -0.00028   0.06683   0.06654   2.69268
   D15       -1.58352   0.00243   0.00045   0.07930   0.07974  -1.50378
   D16        0.59965   0.00030  -0.00267   0.07376   0.07118   0.67083
   D17        1.07217   0.00051  -0.00088   0.00277   0.00186   1.07404
   D18       -3.11579   0.00035  -0.00091   0.00035  -0.00060  -3.11639
   D19       -1.02302   0.00021  -0.00085  -0.00207  -0.00295  -1.02597
   D20        3.12423   0.00071   0.00093   0.00900   0.00996   3.13419
   D21       -1.06373   0.00056   0.00089   0.00658   0.00750  -1.05624
   D22        1.02904   0.00042   0.00095   0.00416   0.00514   1.03418
   D23       -1.06865  -0.00077  -0.00043  -0.00203  -0.00246  -1.07111
   D24        1.02657  -0.00092  -0.00047  -0.00445  -0.00492   1.02166
   D25        3.11935  -0.00106  -0.00041  -0.00687  -0.00727   3.11207
   D26       -2.13283   0.00024   0.00135   0.07273   0.07373  -2.05909
   D27        1.04722  -0.00158   0.00000   0.00000   0.00000   1.04723
   D28        2.13928   0.00058  -0.00189   0.07681   0.07474   2.21402
   D29       -0.96386  -0.00124  -0.00324   0.00408   0.00101  -0.96284
   D30        0.04187   0.00119  -0.00028   0.07892   0.07838   0.12024
   D31       -3.06127  -0.00063  -0.00163   0.00618   0.00465  -3.05662
   D32       -0.01370   0.00064   0.00048   0.03092   0.03177   0.01807
   D33        3.11597   0.00059   0.00090   0.02639   0.02767  -3.13954
   D34       -3.11660  -0.00102  -0.00088  -0.04170  -0.04296   3.12363
   D35        0.01307  -0.00107  -0.00046  -0.04623  -0.04706  -0.03399
   D36        0.00555   0.00000  -0.00019   0.00205   0.00186   0.00741
   D37        2.09331   0.00022   0.00004   0.00388   0.00392   2.09723
   D38       -2.07954  -0.00013  -0.00052   0.00170   0.00118  -2.07836
   D39        3.13525  -0.00006   0.00023  -0.00253  -0.00231   3.13294
   D40       -1.06017   0.00017   0.00046  -0.00070  -0.00024  -1.06042
   D41        1.05016  -0.00019  -0.00010  -0.00288  -0.00299   1.04717
         Item               Value     Threshold  Converged?
 Maximum Force            0.009113     0.000450     NO 
 RMS     Force            0.001955     0.000300     NO 
 Maximum Displacement     0.103325     0.001800     NO 
 RMS     Displacement     0.030362     0.001200     NO 
 Predicted change in Energy=-8.021490D-04
 GradGradGradGradGradGradGradGradGradGradGradGradGradGradGradGradGradGrad

                          Input orientation:                          
 ---------------------------------------------------------------------
 Center     Atomic      Atomic             Coordinates (Angstroms)
 Number     Number       Type             X           Y           Z
 ---------------------------------------------------------------------
      1          1           0        1.894070    1.337625    1.007024
      2          6           0        1.949606    2.279274    0.484145
      3          1           0        1.229436    2.970348    0.909648
      4          1           0        1.688508    2.128031   -0.557792
      5          6           0        3.357361    2.819438    0.611395
      6          8           0        4.218383    2.239199    1.209905
      7          7           0        3.568103    4.018434    0.012724
      8          1           0        2.824672    4.429111   -0.503145
      9          6           0        4.883770    4.641639   -0.057445
     10          1           0        5.399069    4.378467    0.856166
     11          6           0        5.695801    4.150279   -1.249475
     12          1           0        5.200862    4.392882   -2.181131
     13          1           0        6.675415    4.609617   -1.262437
     14          1           0        5.811282    3.076809   -1.173581
     15          6           0        4.711497    6.164306   -0.071020
     16          8           0        5.071506    6.836043   -0.995868
     17          7           0        4.087489    6.657382    1.020082
     18          1           0        3.812770    6.018898    1.729271
     19          6           0        3.815036    8.063848    1.220636
     20          1           0        4.183846    8.605362    0.366317
     21          1           0        2.750234    8.240513    1.320906
     22          1           0        4.313484    8.426996    2.111576
 ---------------------------------------------------------------------
                    Distance matrix (angstroms):
                    1          2          3          4          5
     1  H    0.000000
     2  C    1.078513   0.000000
     3  H    1.765505   1.085026   0.000000
     4  H    1.765120   1.084748   1.753176   0.000000
     5  C    2.119791   1.513190   2.154018   2.151769   0.000000
     6  O    2.501285   2.382370   3.091689   3.088265   1.198437
     7  N    3.313270   2.422075   2.715202   2.726167   1.356617
     8  H    3.564256   2.522357   2.582393   2.566870   2.029040
     9  C    4.581256   3.805707   4.133115   4.096128   2.469350
    10  H    4.642682   4.055097   4.401307   4.564209   2.580515
    11  C    5.239844   4.532116   5.099261   4.541619   3.271433
    12  H    5.516684   4.705497   5.229603   4.483459   3.697624
    13  H    6.222351   5.551065   6.088009   5.614627   4.210163
    14  H    4.808778   4.277459   5.034332   4.275118   3.045342
    15  C    5.691829   4.798929   4.825746   5.066253   3.672535
    16  O    6.658849   5.718465   5.773741   5.813945   4.653461
    17  N    5.754222   4.901592   4.666356   5.362817   3.928094
    18  H    5.110515   4.359645   4.079100   4.988185   3.419588
    19  C    6.998415   6.122381   5.720645   6.551247   5.299479
    20  H    7.646802   6.710074   6.385697   7.002606   5.849791
    21  H    6.962859   6.072688   5.500599   6.482222   5.500914
    22  H    7.571841   6.784610   6.382083   7.327549   5.882977
                    6          7          8          9         10
     6  O    0.000000
     7  N    2.240934   0.000000
     8  H    3.110094   0.993713   0.000000
     9  C    2.796540   1.457494   2.117475   0.000000
    10  H    2.468931   2.047793   2.911668   1.081424   0.000000
    11  C    3.447251   2.477424   2.979620   1.523733   2.138654
    12  H    4.135546   2.760274   2.909162   2.161589   3.043792
    13  H    4.215254   3.410414   3.929036   2.159403   2.484144
    14  H    2.986624   2.706628   3.346348   2.134182   2.446244
    15  C    4.158172   2.432926   2.599565   1.532441   2.126417
    16  O    5.169548   3.349089   3.329318   2.394011   3.094674
    17  N    4.424195   2.872033   2.979953   2.420402   2.634495
    18  H    3.836715   2.647310   2.913321   2.497246   2.443291
    19  C    5.838608   4.229113   4.142892   3.806206   4.027907
    20  H    6.421905   4.641559   4.477096   4.047291   4.425309
    21  H    6.179284   4.495130   4.226049   4.404966   4.706135
    22  H    6.253869   4.939250   5.003640   4.399864   4.375515
                   11         12         13         14         15
    11  C    0.000000
    12  H    1.082499   0.000000
    13  H    1.082037   1.750794   0.000000
    14  H    1.082328   1.766301   1.761852   0.000000
    15  C    2.532570   2.798212   2.773717   3.458006   0.000000
    16  O    2.769005   2.718569   2.756910   3.835452   1.198408
    17  N    3.744745   4.076190   4.012554   4.539176   1.350190
    18  H    3.988793   4.456677   4.373914   4.590914   2.017400
    19  C    4.995472   5.193123   5.126318   5.881142   2.465822
    20  H    4.974389   5.026808   4.982643   5.965294   2.535436
    21  H    5.658024   5.751009   5.938360   6.500486   3.177208
    22  H    5.612287   5.957252   5.615609   6.454468   3.168897
                   16         17         18         19         20
    16  O    0.000000
    17  N    2.250391   0.000000
[...]
    13  H    6.265854   5.484988   5.906709   5.510375   4.204884
    14  H    4.898691   4.181654   4.813747   4.042623   3.053997
    15  C    5.655198   4.833029   4.792021   5.271048   3.672553
    16  O    6.664240   5.764802   5.690611   6.055248   4.674999
    17  N    5.694702   5.006382   4.805991   5.670368   3.946058
    18  H    4.969552   4.405344   4.213416   5.201043   3.398721
    19  C    6.922892   6.234948   5.866313   6.909650   5.314129
    20  H    7.758701   7.039264   6.754918   7.645755   5.996823
    21  H    7.066468   6.306389   5.785214   6.916185   5.591628
    22  H    7.132211   6.576154   6.179200   7.369173   5.700225
                    6          7          8          9         10
     6  O    0.000000
     7  N    2.249732   0.000000
     8  H    3.100509   0.997195   0.000000
     9  C    2.794114   1.457012   2.098813   0.000000
    10  H    2.422018   2.040451   2.924414   1.081046   0.000000
    11  C    3.504881   2.480997   2.827834   1.524022   2.142335
    12  H    4.206735   2.765043   2.717370   2.163670   3.048023
    13  H    4.261742   3.412316   3.806801   2.158449   2.492544
    14  H    3.090222   2.725392   3.170730   2.143824   2.456281
    15  C    4.130309   2.432411   2.686471   1.533215   2.130268
    16  O    5.166652   3.374874   3.405523   2.399101   3.087034
    17  N    4.375404   2.884331   3.184099   2.430700   2.648703
    18  H    3.783132   2.599567   3.039783   2.522559   2.532332
    19  C    5.792111   4.222226   4.329741   3.801476   4.050558
    20  H    6.384488   4.849527   4.991381   4.133014   4.350549
    21  H    6.256656   4.430427   4.290915   4.233073   4.696841
    22  H    6.084796   4.786108   4.984318   4.487349   4.540382
                   11         12         13         14         15
    11  C    0.000000
    12  H    1.083730   0.000000
    13  H    1.082518   1.748957   0.000000
    14  H    1.083949   1.767086   1.761604   0.000000
    15  C    2.529564   2.796663   2.763789   3.462856   0.000000
    16  O    2.766363   2.735496   2.723533   3.836929   1.200540
    17  N    3.748178   4.078015   4.006240   4.556012   1.349058
    18  H    4.013077   4.443401   4.422940   4.635156   2.017612
    19  C    4.971106   5.150617   5.095383   5.874904   2.442077
    20  H    5.085599   5.271599   4.985582   6.058902   2.670298
    21  H    5.313099   5.279567   5.546232   6.243148   2.866271
    22  H    5.787938   6.070188   5.925839   6.611022   3.304990
                   16         17         18         19         20
    16  O    0.000000
    17  N    2.240783   0.000000
    18  H    3.102969   0.993786   0.000000
    19  C    2.772001   1.446399   2.113495   0.000000
    20  H    2.622228   2.077101   2.915950   1.080141   0.000000
    21  H    3.003748   2.109233   2.707555   1.085308   1.755587
    22  H    3.796175   2.066174   2.320243   1.081968   1.760020
                   21         22
    21  H    0.000000
    22  H    1.763547   0.000000
 Stoichiometry    C6H12N2O2
 Framework group  C1[X(C6H12N2O2)]
 Deg. of freedom    60
 Full point group                 C1      NOp   1
 Largest Abelian subgroup         C1      NOp   1
 Largest concise Abelian subgroup C1      NOp   1
                         Standard orientation:                         
 ---------------------------------------------------------------------
 Center     Atomic      Atomic             Coordinates (Angstroms)
 Number     Number       Type             X           Y           Z
 ---------------------------------------------------------------------
      1          1           0        3.842409   -1.576746   -0.273813
      2          6           0        3.078862   -1.063402   -0.839755
      3          1           0        2.575645   -1.763237   -1.497248
      4          1           0        3.556026   -0.304161   -1.452392
      5          6           0        2.120672   -0.394824    0.122130
      6          8           0        2.425297   -0.129905    1.250135
      7          7           0        0.884407   -0.123923   -0.389046
      8          1           0        0.782732   -0.189969   -1.378844
      9          6           0       -0.044805    0.763686    0.297684
     10          1           0        0.121897    0.611407    1.354889
     11          6           0        0.182484    2.230890   -0.046255
     12          1           0        0.037096    2.408748   -1.105359
     13          1           0       -0.513707    2.861642    0.491623
     14          1           0        1.192696    2.512868    0.227435
     15          6           0       -1.478191    0.322948   -0.021539
     16          8           0       -2.273325    1.057372   -0.540845
     17          7           0       -1.781065   -0.936417    0.355587
     18          1           0       -1.039520   -1.526931    0.653942
     19          6           0       -3.071599   -1.525254    0.072984
     20          1           0       -3.855686   -0.835200    0.348191
     21          1           0       -3.186212   -1.770712   -0.977972
     22          1           0       -3.177090   -2.429322    0.657952
 ---------------------------------------------------------------------
 Rotational constants (GHZ):      2.1475109      0.7566400      0.6366220

 **********************************************************************

            Population analysis using the SCF density.

 **********************************************************************

 Orbital symmetries:
       Occupied  (A) (A) (A) (A) (A) (A) (A) (A) (A) (A) (A) (A)
                 (A) (A) (A) (A) (A) (A) (A) (A) (A) (A) (A) (A)
                 (A) (A) (A) (A) (A) (A) (A) (A) (A) (A) (A) (A)
                 (A) (A) (A)
       Virtual   (A) (A) (A) (A) (A) (A) (A) (A) (A) (A) (A) (A)
                 (A) (A) (A) (A) (A) (A) (A) (A) (A) (A) (A) (A)
                 (A) (A) (A) (A) (A) (A) (A) (A) (A) (A) (A) (A)
                 (A) (A) (A) (A) (A) (A) (A) (A) (A) (A) (A) (A)
                 (A) (A) (A) (A) (A) (A) (A) (A) (A) (A) (A) (A)
                 (A) (A) (A) (A) (A) (A) (A) (A) (A) (A) (A) (A)
                 (A) (A) (A) (A) (A) (A) (A) (A) (A) (A) (A) (A)
                 (A) (A) (A) (A) (A) (A) (A) (A) (A) (A) (A) (A)
                 (A) (A) (A) (A) (A) (A) (A) (A) (A) (A) (A) (A)
                 (A) (A) (A) (A) (A) (A) (A) (A) (A) (A) (A) (A)
                 (A) (A) (A) (A) (A) (A) (A) (A) (A) (A) (A) (A)
                 (A) (A) (A)
 The electronic state is 1-A.
 Alpha  occ. eigenvalues --  -20.53435 -20.52754 -15.59622 -15.58451 -11.35851
 Alpha  occ. eigenvalues --  -11.34528 -11.27855 -11.25899 -11.24129 -11.21455
 Alpha  occ. eigenvalues --   -1.40334  -1.39435  -1.25175  -1.22830  -1.05571
 Alpha  occ. eigenvalues --   -0.99675  -0.96401  -0.87635  -0.80120  -0.78835
 Alpha  occ. eigenvalues --   -0.73239  -0.67809  -0.65918  -0.65171  -0.62827
 Alpha  occ. eigenvalues --   -0.62095  -0.60199  -0.59288  -0.58070  -0.56305
 Alpha  occ. eigenvalues --   -0.55391  -0.53194  -0.52781  -0.52191  -0.50635
 Alpha  occ. eigenvalues --   -0.43034  -0.42849  -0.39923  -0.38588
 Alpha virt. eigenvalues --    0.19031   0.19294   0.21868   0.23570   0.26561
 Alpha virt. eigenvalues --    0.26936   0.27481   0.29824   0.30874   0.31816
 Alpha virt. eigenvalues --    0.32586   0.33070   0.33748   0.34381   0.37415
 Alpha virt. eigenvalues --    0.39607   0.41581   0.44098   0.45150   0.50298
 Alpha virt. eigenvalues --    0.53286   0.56362   0.60594   0.71217   0.72292
 Alpha virt. eigenvalues --    0.73285   0.74979   0.75432   0.76619   0.78742
 Alpha virt. eigenvalues --    0.80224   0.83060   0.84585   0.87481   0.88506
 Alpha virt. eigenvalues --    0.89214   0.96232   0.96521   0.97294   0.99642
 Alpha virt. eigenvalues --    1.00964   1.02422   1.03408   1.08299   1.08530
 Alpha virt. eigenvalues --    1.09712   1.12619   1.12877   1.15466   1.16696
 Alpha virt. eigenvalues --    1.17616   1.17912   1.18361   1.19226   1.19422
 Alpha virt. eigenvalues --    1.21623   1.22009   1.23094   1.23665   1.25544
 Alpha virt. eigenvalues --    1.26393   1.34109   1.35154   1.37673   1.42813
 Alpha virt. eigenvalues --    1.44448   1.51703   1.53944   1.55370   1.63106
 Alpha virt. eigenvalues --    1.64843   1.67588   1.70009   1.71380   1.73181
 Alpha virt. eigenvalues --    1.76586   1.83274   1.91573   1.94285   1.98117
 Alpha virt. eigenvalues --    2.00770   2.03735   2.07135   2.08878   2.12525
 Alpha virt. eigenvalues --    2.13960   2.16008   2.17291   2.19238   2.21193
 Alpha virt. eigenvalues --    2.23460   2.25537   2.28109   2.29561   2.34086
 Alpha virt. eigenvalues --    2.36334   2.38404   2.41815   2.46334   2.49532
 Alpha virt. eigenvalues --    2.51361   2.53885   2.56585   2.61189   2.61918
 Alpha virt. eigenvalues --    2.67473   2.69464   2.70700   2.75874   2.78052
 Alpha virt. eigenvalues --    2.80368   2.82522   2.90287   2.91030   2.98743
 Alpha virt. eigenvalues --    3.02269   3.02756   3.09287   3.10511   3.26660
 Alpha virt. eigenvalues --    3.32060   3.36823   3.41446   3.53103   3.55997
 Alpha virt. eigenvalues --    4.37529   4.40969   4.47871   4.50985   4.61628
 Alpha virt. eigenvalues --    4.68748   4.71006   4.86332   4.93264   5.03427
          Condensed to atoms (all electrons):
              1          2          3          4          5          6
     1  H    0.459909   0.384306  -0.020579  -0.017203  -0.031791   0.003254
     2  C    0.384306   5.266444   0.375912   0.376100   0.374028  -0.070652
     3  H   -0.020579   0.375912   0.517847  -0.024434  -0.036509   0.002084
     4  H   -0.017203   0.376100  -0.024434   0.492148  -0.027739   0.000247
     5  C   -0.031791   0.374028  -0.036509  -0.027739   4.151606   0.616319
     6  O    0.003254  -0.070652   0.002084   0.000247   0.616319   8.133170
     7  N    0.004156  -0.121545   0.005248   0.000853   0.254157  -0.107753
     8  H    0.000066   0.000057   0.000182   0.000065  -0.020316   0.002366
     9  C   -0.000105   0.004915  -0.000009  -0.000288  -0.023990   0.006200
    10  H    0.000000   0.000436  -0.000027  -0.000013  -0.003274   0.008108
    11  C    0.000000  -0.000283   0.000000   0.000106  -0.001444  -0.000996
    12  H    0.000000  -0.000009   0.000000  -0.000004  -0.000033  -0.000010
    13  H    0.000000   0.000004   0.000000  -0.000001  -0.000031  -0.000030
    14  H    0.000001  -0.000009  -0.000001  -0.000016   0.002135   0.001673
    15  C    0.000002  -0.000089   0.000002  -0.000003   0.002278   0.000142
    16  O    0.000000   0.000000   0.000000   0.000000  -0.000074  -0.000001
    17  N    0.000000  -0.000005  -0.000001   0.000000   0.000206   0.000019
    18  H   -0.000002   0.000007   0.000003   0.000001   0.000421  -0.000026
    19  C    0.000000   0.000000   0.000000   0.000000   0.000003   0.000000
    20  H    0.000000   0.000000   0.000000   0.000000   0.000000   0.000000
    21  H    0.000000   0.000000   0.000000   0.000000  -0.000001   0.000000
    22  H    0.000000   0.000000   0.000000   0.000000   0.000000   0.000000
              7          8          9         10         11         12
     1  H    0.004156   0.000066  -0.000105   0.000000   0.000000   0.000000
     2  C   -0.121545   0.000057   0.004915   0.000436  -0.000283  -0.000009
     3  H    0.005248   0.000182  -0.000009  -0.000027   0.000000   0.000000
     4  H    0.000853   0.000065  -0.000288  -0.000013   0.000106  -0.000004
     5  C    0.254157  -0.020316  -0.023990  -0.003274  -0.001444  -0.000033
     6  O   -0.107753   0.002366   0.006200   0.008108  -0.000996  -0.000010
     7  N    7.438158   0.320774   0.163783  -0.039369  -0.065258  -0.001524
     8  H    0.320774   0.332749  -0.025089   0.003421   0.001117   0.002081
     9  C    0.163783  -0.025089   5.128657   0.405557   0.351862  -0.034240
    10  H   -0.039369   0.003421   0.405557   0.452711  -0.032439   0.003651
    11  C   -0.065258   0.001117   0.351862  -0.032439   5.089555   0.390259
    12  H   -0.001524   0.002081  -0.034240   0.003651   0.390259   0.523547
    13  H    0.004378  -0.000066  -0.033880  -0.000848   0.391025  -0.022192
    14  H   -0.003539  -0.000181  -0.037086  -0.003408   0.390581  -0.027901
    15  C   -0.049535  -0.003628   0.375504  -0.037947  -0.056787  -0.005318
    16  O    0.000193   0.000442  -0.077169   0.001152   0.005143   0.002498
    17  N    0.002616   0.001239  -0.133994   0.001627   0.004559   0.000012
    18  H    0.006113   0.000010  -0.002738   0.000173   0.000198  -0.000008
    19  C   -0.000203  -0.000052   0.004641  -0.000150  -0.000110  -0.000004
    20  H   -0.000010   0.000001   0.000042  -0.000015  -0.000006   0.000000
    21  H    0.000024  -0.000008   0.000002   0.000003   0.000004   0.000000
    22  H   -0.000007   0.000000   0.000000  -0.000008   0.000000   0.000000
             13         14         15         16         17         18
     1  H    0.000000   0.000001   0.000002   0.000000   0.000000  -0.000002
     2  C    0.000004  -0.000009  -0.000089   0.000000  -0.000005   0.000007
     3  H    0.000000  -0.000001   0.000002   0.000000  -0.000001   0.000003
     4  H   -0.000001  -0.000016  -0.000003   0.000000   0.000000   0.000001
     5  C   -0.000031   0.002135   0.002278  -0.000074   0.000206   0.000421
     6  O   -0.000030   0.001673   0.000142  -0.000001   0.000019  -0.000026
     7  N    0.004378  -0.003539  -0.049535   0.000193   0.002616   0.006113
     8  H   -0.000066  -0.000181  -0.003628   0.000442   0.001239   0.000010
     9  C   -0.033880  -0.037086   0.375504  -0.077169  -0.133994  -0.002738
    10  H   -0.000848  -0.003408  -0.037947   0.001152   0.001627   0.000173
    11  C    0.391025   0.390581  -0.056787   0.005143   0.004559   0.000198
    12  H   -0.022192  -0.027901  -0.005318   0.002498   0.000012  -0.000008
    13  H    0.499356  -0.024283  -0.001390   0.001158  -0.000020  -0.000018
    14  H   -0.024283   0.519251   0.004809   0.000323  -0.000031  -0.000009
    15  C   -0.001390   0.004809   4.166349   0.614095   0.289128  -0.022748
    16  O    0.001158   0.000323   0.614095   8.152086  -0.106755   0.002478
    17  N   -0.000020  -0.000031   0.289128  -0.106755   7.320296   0.328403
    18  H   -0.000018  -0.000009  -0.022748   0.002478   0.328403   0.316004
    19  C   -0.000002   0.000001  -0.029038   0.007309   0.202683  -0.022919
    20  H    0.000001   0.000000  -0.003485   0.003949  -0.039318   0.002442
    21  H    0.000000   0.000000  -0.002792   0.001197  -0.048440   0.001296
    22  H    0.000000   0.000000   0.004146   0.000341  -0.038371  -0.004183
             19         20         21         22
     1  H    0.000000   0.000000   0.000000   0.000000
     2  C    0.000000   0.000000   0.000000   0.000000
     3  H    0.000000   0.000000   0.000000   0.000000
     4  H    0.000000   0.000000   0.000000   0.000000
     5  C    0.000003   0.000000  -0.000001   0.000000
     6  O    0.000000   0.000000   0.000000   0.000000
     7  N   -0.000203  -0.000010   0.000024  -0.000007
     8  H   -0.000052   0.000001  -0.000008   0.000000
     9  C    0.004641   0.000042   0.000002   0.000000
    10  H   -0.000150  -0.000015   0.000003  -0.000008
    11  C   -0.000110  -0.000006   0.000004   0.000000
    12  H   -0.000004   0.000000   0.000000   0.000000
    13  H   -0.000002   0.000001   0.000000   0.000000
    14  H    0.000001   0.000000   0.000000   0.000000
    15  C   -0.029038  -0.003485  -0.002792   0.004146
    16  O    0.007309   0.003949   0.001197   0.000341
    17  N    0.202683  -0.039318  -0.048440  -0.038371
    18  H   -0.022919   0.002442   0.001296  -0.004183
    19  C    4.902457   0.404083   0.405172   0.398571
    20  H    0.404083   0.485412  -0.033633  -0.023983
    21  H    0.405172  -0.033633   0.538222  -0.033095
    22  H    0.398571  -0.023983  -0.033095   0.526465
 Mulliken atomic charges:
              1
     1  H    0.217985
     2  C   -0.589615
     3  H    0.180283
     4  H    0.200180
     5  C    0.744049
     6  O   -0.594114
     7  N   -0.811711
     8  H    0.384770
     9  C   -0.072574
    10  H    0.240658
    11  C   -0.467085
    12  H    0.169196
    13  H    0.186839
    14  H    0.177690
    15  C    0.756306
    16  O   -0.608363
    17  N   -0.783852
    18  H    0.395105
    19  C   -0.272441
    20  H    0.204522
    21  H    0.172051
    22  H    0.170122
 Sum of Mulliken atomic charges =   0.00000
 Mulliken charges with hydrogens summed into heavy atoms:
              1
     2  C    0.008833
     5  C    0.744049
     6  O   -0.594114
     7  N   -0.426941
     9  C    0.168084
    11  C    0.066640
    15  C    0.756306
    16  O   -0.608363
    17  N   -0.388747
    19  C    0.274254
 Sum of Mulliken charges with hydrogens summed into heavy atoms =   0.00000
 Electronic spatial extent (au):  <R**2>=           1871.1741
 Charge=              0.0000 electrons
 Dipole moment (field-independent basis, Debye):
    X=              0.8253    Y=             -3.0030    Z=             -2.0884  Tot=              3.7497
 Quadrupole moment (field-independent basis, Debye-Ang):
   XX=            -66.3883   YY=            -57.9387   ZZ=            -62.0192
   XY=              5.7938   XZ=            -11.6425   YZ=              1.7812
 Traceless Quadrupole moment (field-independent basis, Debye-Ang):
   XX=             -4.2729   YY=              4.1767   ZZ=              0.0962
   XY=              5.7938   XZ=            -11.6425   YZ=              1.7812
 Octapole moment (field-independent basis, Debye-Ang**2):
  XXX=              2.2299  YYY=             -8.5963  ZZZ=             -7.7217  XYY=              2.6479
  XXY=            -26.3733  XXZ=            -13.2852  XZZ=             -5.8930  YZZ=             -0.8279
  YYZ=              5.7486  XYZ=             -2.4610
 Hexadecapole moment (field-independent basis, Debye-Ang**3):
 XXXX=          -1616.5212 YYYY=           -562.9159 ZZZZ=           -198.9911 XXXY=             32.7751
 XXXZ=            -63.6388 YYYX=              8.4729 YYYZ=             -3.9942 ZZZX=             -4.9410
 ZZZY=              0.1102 XXYY=           -358.2636 XXZZ=           -334.1654 YYZZ=           -126.2605
 XXYZ=              8.5869 YYXZ=             -4.7022 ZZXY=              1.6655
 N-N= 5.546402208180D+02 E-N=-2.264521980302D+03  KE= 4.921190979142D+02
 1\1\GINC-RODAN\FOpt\RHF\6-31G(d)\C6H12N2O2\STEBOSS\10-Feb-2017\0\\# HF
 /6-31G* Opt=(ModRedundant) geom=nocrowd\\Phi Psi fixed scan\\0,1\H,1.8
 521095964,1.4828140446,1.3002923571\C,2.0109844625,2.2011431613,0.5093
 574329\H,1.2136051854,2.9356197227,0.5142064724\H,1.9852825208,1.67758
 94953,-0.4417937007\C,3.3726486569,2.8366168289,0.6893345909\O,4.24739
 95602,2.311231006,1.3171521957\N,3.5258569937,4.0533871223,0.090139125
 7\H,2.828910355,4.3197649961,-0.5714551556\C,4.8407091727,4.6581008147
 ,-0.0782896371\H,5.4183533751,4.3639923869,0.7868625433\C,5.545810099,
 4.1861091705,-1.3442668769\H,4.9787902366,4.4545977905,-2.2279376119\H
 ,6.5235979628,4.6426851514,-1.4297885248\H,5.6647958469,3.1092454896,-
 1.3103239578\C,4.6915556849,6.1837577501,-0.0487579358\O,5.0411242877,
 6.8791654729,-0.9628182599\N,4.1702635043,6.6801679989,1.0922021265\H,
 3.7811546305,6.0409364119,1.7461046235\C,3.9084697717,8.0931042402,1.2
 569644462\H,4.7693492935,8.6631441979,0.9397162108\H,3.0507484442,8.41
 89585863,0.6772861209\H,3.7206803589,8.292368161,2.3037134144\\Version
 =EM64L-G09RevA.02\State=1-A\HF=-492.856203\RMSD=4.219e-09\RMSF=3.140e-
 04\Dipole=-1.4515041,0.0612756,0.2564483\Quadrupole=4.045229,-3.609649
 ,-0.43558,1.206319,0.8441244,9.3885045\PG=C01 [X(C6H12N2O2)]\\@


 This summer one third of the nation will be ill-housed
 ill-nourished and ill-clad. Only they call it a vacation.
 -- Jonas Salk
 Job cpu time:  0 days  0 hours 24 minutes 19.4 seconds.
 File lengths (MBytes):  RWF=     25 Int=      0 D2E=      0 Chk=      3 Scr=      1
 Normal termination of Gaussian 09 at Fri Feb 10 09:10:22 2017.
