 Entering Gaussian System, Link 0=g09
 Initial command:
 /home/steboss/Software/g09/l1.exe /tmp/Gau-10734.inp -scrdir=/tmp/
 Entering Link 1 = /home/steboss/Software/g09/l1.exe PID=     10736.
  
 Copyright (c) 1988,1990,1992,1993,1995,1998,2003,2009, Gaussian, Inc.
                  All Rights Reserved.
  
 This is part of the Gaussian(R) 09 program.  It is based on
 the Gaussian(R) 03 system (copyright 2003, Gaussian, Inc.),
 the Gaussian(R) 98 system (copyright 1998, Gaussian, Inc.),
 the Gaussian(R) 94 system (copyright 1995, Gaussian, Inc.),
 the Gaussian 92(TM) system (copyright 1992, Gaussian, Inc.),
 the Gaussian 90(TM) system (copyright 1990, Gaussian, Inc.),
 the Gaussian 88(TM) system (copyright 1988, Gaussian, Inc.),
 the Gaussian 86(TM) system (copyright 1986, Carnegie Mellon
 University), and the Gaussian 82(TM) system (copyright 1983,
 Carnegie Mellon University). Gaussian is a federally registered
 trademark of Gaussian, Inc.
  
 This software contains proprietary and confidential information,
 including trade secrets, belonging to Gaussian, Inc.
  
 This software is provided under written license and may be
 used, copied, transmitted, or stored only in accord with that
 written license.
  
 The following legend is applicable only to US Government
 contracts under FAR:
  
                    RESTRICTED RIGHTS LEGEND
  
 Use, reproduction and disclosure by the US Government is
 subject to restrictions as set forth in subparagraphs (a)
 and (c) of the Commercial Computer Software - Restricted
 Rights clause in FAR 52.227-19.
  
 Gaussian, Inc.
 340 Quinnipiac St., Bldg. 40, Wallingford CT 06492
  
  
 ---------------------------------------------------------------
 Warning -- This program may not be used in any manner that
 competes with the business of Gaussian, Inc. or will provide
 assistance to any competitor of Gaussian, Inc.  The licensee
 of this program is prohibited from giving any competitor of
 Gaussian, Inc. access to this program.  By using this program,
 the user acknowledges that Gaussian, Inc. is engaged in the
 business of creating and licensing software in the field of
 computational chemistry and represents and warrants to the
 licensee that it is not a competitor of Gaussian, Inc. and that
 it will not use this program in any manner prohibited above.
 ---------------------------------------------------------------
  

 Cite this work as:
 Gaussian 09, Revision A.02,
 M. J. Frisch, G. W. Trucks, H. B. Schlegel, G. E. Scuseria, 
 M. A. Robb, J. R. Cheeseman, G. Scalmani, V. Barone, B. Mennucci, 
 G. A. Petersson, H. Nakatsuji, M. Caricato, X. Li, H. P. Hratchian, 
 A. F. Izmaylov, J. Bloino, G. Zheng, J. L. Sonnenberg, M. Hada, 
 M. Ehara, K. Toyota, R. Fukuda, J. Hasegawa, M. Ishida, T. Nakajima, 
 Y. Honda, O. Kitao, H. Nakai, T. Vreven, J. A. Montgomery, Jr., 
 J. E. Peralta, F. Ogliaro, M. Bearpark, J. J. Heyd, E. Brothers, 
 K. N. Kudin, V. N. Staroverov, R. Kobayashi, J. Normand, 
 K. Raghavachari, A. Rendell, J. C. Burant, S. S. Iyengar, J. Tomasi, 
 M. Cossi, N. Rega, J. M. Millam, M. Klene, J. E. Knox, J. B. Cross, 
 V. Bakken, C. Adamo, J. Jaramillo, R. Gomperts, R. E. Stratmann, 
 O. Yazyev, A. J. Austin, R. Cammi, C. Pomelli, J. W. Ochterski, 
 R. L. Martin, K. Morokuma, V. G. Zakrzewski, G. A. Voth, 
 P. Salvador, J. J. Dannenberg, S. Dapprich, A. D. Daniels, 
 O. Farkas, J. B. Foresman, J. V. Ortiz, J. Cioslowski, 
 and D. J. Fox, Gaussian, Inc., Wallingford CT, 2009.
 
 ******************************************
 Gaussian 09:  EM64L-G09RevA.02 11-Jun-2009
                10-Feb-2017 
 ******************************************
 %chk=structure_75.chk
 %NProcShared=8
 Will use up to    8 processors via shared memory.
 -------------------------------------------
 # HF/6-31G* Opt=(ModRedundant) geom=nocrowd
 -------------------------------------------
 1/18=120,19=15,38=1/1,3;
 2/9=110,12=1,17=6,18=5,40=1/2;
 3/5=1,6=6,7=1,11=9,16=1,25=1,30=1,71=1/1,2,3;
 4//1;
 5/5=2,38=5/2;
 6/7=2,8=2,9=2,10=2,28=1/1;
 7//1,2,3,16;
 1/18=20,19=15/3(2);
 2/9=110,12=1/2;
 99//99;
 2/9=110,12=1/2;
 3/5=1,6=6,7=1,11=9,16=1,25=1,30=1,71=1/1,2,3;
 4/5=5,16=3/1;
 5/5=2,38=5/2;
 7//1,2,3,16;
 1/18=20,19=15/3(-5);
 2/9=110,12=1/2;
 6/7=2,8=2,9=2,10=2,19=2,28=1/1;
 99/9=1/99;
 ------------------
 Phi Psi fixed scan
 ------------------
 Symbolic Z-matrix:
 Charge =  0 Multiplicity = 1
 H                     1.8827    1.2362    0.9842 
 C                     1.9409    2.209     0.496 
 H                     1.2624    2.9049    0.9895 
 H                     1.658     2.1079   -0.5517 
 C                     3.3599    2.7768    0.5667 
 O                     4.2568    2.1469    1.1227 
 N                     3.5554    3.9697    0. 
 H                     2.7862    4.4492   -0.4455 
 C                     4.8533    4.6139    0. 
 H                     5.4076    4.3155    0.8898 
 C                     5.6613    4.2208   -1.2322 
 H                     5.1233    4.5214   -2.1312 
 H                     6.6305    4.7189   -1.2058 
 H                     5.8085    3.1409   -1.2414 
 C                     4.7127    6.1294    0. 
 O                     4.928     6.7758   -1.0229 
 N                     4.3498    6.6961    1.153 
 H                     4.1839    6.1223    1.9675 
 C                     4.1821    8.1295    1.2823 
 H                     4.3948    8.6084    0.3266 
 H                     3.1567    8.3506    1.5786 
 H                     4.8683    8.5094    2.0392 
 
 The following ModRedundant input section has been read:
 D    5    7    9   15 F                                                       
 D    7    9   15   17 F                                                       

 GradGradGradGradGradGradGradGradGradGradGradGradGradGradGradGradGradGrad
 Berny optimization.
 Initialization pass.
                           ----------------------------
                           !    Initial Parameters    !
                           ! (Angstroms and Degrees)  !
 --------------------------                            --------------------------
 ! Name  Definition              Value          Derivative Info.                !
 --------------------------------------------------------------------------------
 ! R1    R(1,2)                  1.09           estimate D2E/DX2                !
 ! R2    R(2,3)                  1.09           estimate D2E/DX2                !
 ! R3    R(2,4)                  1.0899         estimate D2E/DX2                !
 ! R4    R(2,5)                  1.53           estimate D2E/DX2                !
 ! R5    R(5,6)                  1.229          estimate D2E/DX2                !
 ! R6    R(5,7)                  1.3351         estimate D2E/DX2                !
 ! R7    R(7,8)                  1.01           estimate D2E/DX2                !
 ! R8    R(7,9)                  1.449          estimate D2E/DX2                !
 ! R9    R(9,10)                 1.09           estimate D2E/DX2                !
 ! R10   R(9,11)                 1.525          estimate D2E/DX2                !
 ! R11   R(9,15)                 1.522          estimate D2E/DX2                !
 ! R12   R(11,12)                1.09           estimate D2E/DX2                !
 ! R13   R(11,13)                1.09           estimate D2E/DX2                !
 ! R14   R(11,14)                1.0899         estimate D2E/DX2                !
 ! R15   R(15,16)                1.229          estimate D2E/DX2                !
 ! R16   R(15,17)                1.335          estimate D2E/DX2                !
 ! R17   R(17,18)                1.01           estimate D2E/DX2                !
 ! R18   R(17,19)                1.449          estimate D2E/DX2                !
 ! R19   R(19,20)                1.0899         estimate D2E/DX2                !
 ! R20   R(19,21)                1.09           estimate D2E/DX2                !
 ! R21   R(19,22)                1.09           estimate D2E/DX2                !
 ! A1    A(1,2,3)              109.4976         estimate D2E/DX2                !
 ! A2    A(1,2,4)              109.5057         estimate D2E/DX2                !
 ! A3    A(1,2,5)              111.1022         estimate D2E/DX2                !
 ! A4    A(3,2,4)              109.442          estimate D2E/DX2                !
 ! A5    A(3,2,5)              108.6296         estimate D2E/DX2                !
 ! A6    A(4,2,5)              108.6368         estimate D2E/DX2                !
 ! A7    A(2,5,6)              120.5005         estimate D2E/DX2                !
 ! A8    A(2,5,7)              116.6018         estimate D2E/DX2                !
 ! A9    A(6,5,7)              122.8977         estimate D2E/DX2                !
 ! A10   A(5,7,8)              119.9947         estimate D2E/DX2                !
 ! A11   A(5,7,9)              121.8985         estimate D2E/DX2                !
 ! A12   A(8,7,9)              118.1068         estimate D2E/DX2                !
 ! A13   A(7,9,10)             109.5            estimate D2E/DX2                !
 ! A14   A(7,9,11)             111.0992         estimate D2E/DX2                !
 ! A15   A(7,9,15)             111.0966         estimate D2E/DX2                !
 ! A16   A(10,9,11)            108.6382         estimate D2E/DX2                !
 ! A17   A(10,9,15)            108.6373         estimate D2E/DX2                !
 ! A18   A(11,9,15)            107.7947         estimate D2E/DX2                !
 ! A19   A(9,11,12)            109.5007         estimate D2E/DX2                !
 ! A20   A(9,11,13)            109.4959         estimate D2E/DX2                !
 ! A21   A(9,11,14)            109.4978         estimate D2E/DX2                !
 ! A22   A(12,11,13)           109.441          estimate D2E/DX2                !
 ! A23   A(12,11,14)           109.4482         estimate D2E/DX2                !
 ! A24   A(13,11,14)           109.4436         estimate D2E/DX2                !
 ! A25   A(9,15,16)            120.4983         estimate D2E/DX2                !
 ! A26   A(9,15,17)            116.6018         estimate D2E/DX2                !
 ! A27   A(16,15,17)           122.8999         estimate D2E/DX2                !
 ! A28   A(15,17,18)           119.9973         estimate D2E/DX2                !
 ! A29   A(15,17,19)           121.9018         estimate D2E/DX2                !
 ! A30   A(18,17,19)           118.1009         estimate D2E/DX2                !
 ! A31   A(17,19,20)           109.5017         estimate D2E/DX2                !
 ! A32   A(17,19,21)           109.4995         estimate D2E/DX2                !
 ! A33   A(17,19,22)           109.5054         estimate D2E/DX2                !
 ! A34   A(20,19,21)           109.4395         estimate D2E/DX2                !
 ! A35   A(20,19,22)           109.4443         estimate D2E/DX2                !
 ! A36   A(21,19,22)           109.4369         estimate D2E/DX2                !
 ! D1    D(1,2,5,6)              0.0047         estimate D2E/DX2                !
 ! D2    D(1,2,5,7)           -179.9966         estimate D2E/DX2                !
 ! D3    D(3,2,5,6)            120.5112         estimate D2E/DX2                !
 ! D4    D(3,2,5,7)            -59.4901         estimate D2E/DX2                !
 ! D5    D(4,2,5,6)           -120.5165         estimate D2E/DX2                !
 ! D6    D(4,2,5,7)             59.4823         estimate D2E/DX2                !
 ! D7    D(2,5,7,8)             -0.0022         estimate D2E/DX2                !
 ! D8    D(2,5,7,9)           -179.9961         estimate D2E/DX2                !
 ! D9    D(6,5,7,8)            179.9965         estimate D2E/DX2                !
 ! D10   D(6,5,7,9)              0.0027         estimate D2E/DX2                !
 ! D11   D(5,7,9,10)           -30.0015         estimate D2E/DX2                !
 ! D12   D(5,7,9,11)            90.0011         estimate D2E/DX2                !
 ! D13   D(5,7,9,15)          -150.0013         Frozen                          !
 ! D14   D(8,7,9,10)           150.0045         estimate D2E/DX2                !
 ! D15   D(8,7,9,11)           -89.9929         estimate D2E/DX2                !
 ! D16   D(8,7,9,15)            30.0047         estimate D2E/DX2                !
 ! D17   D(7,9,11,12)           60.0024         estimate D2E/DX2                !
 ! D18   D(7,9,11,13)          179.9986         estimate D2E/DX2                !
 ! D19   D(7,9,11,14)          -60.0038         estimate D2E/DX2                !
 ! D20   D(10,9,11,12)        -179.4843         estimate D2E/DX2                !
 ! D21   D(10,9,11,13)         -59.4881         estimate D2E/DX2                !
 ! D22   D(10,9,11,14)          60.5095         estimate D2E/DX2                !
 ! D23   D(15,9,11,12)         -61.938          estimate D2E/DX2                !
 ! D24   D(15,9,11,13)          58.0582         estimate D2E/DX2                !
 ! D25   D(15,9,11,14)         178.0558         estimate D2E/DX2                !
 ! D26   D(7,9,15,16)         -105.0004         estimate D2E/DX2                !
 ! D27   D(7,9,15,17)           74.9976         Frozen                          !
 ! D28   D(10,9,15,16)         134.4885         estimate D2E/DX2                !
 ! D29   D(10,9,15,17)         -45.5135         estimate D2E/DX2                !
 ! D30   D(11,9,15,16)          16.9416         estimate D2E/DX2                !
 ! D31   D(11,9,15,17)        -163.0604         estimate D2E/DX2                !
 ! D32   D(9,15,17,18)           0.0053         estimate D2E/DX2                !
 ! D33   D(9,15,17,19)         179.9963         estimate D2E/DX2                !
 ! D34   D(16,15,17,18)       -179.9968         estimate D2E/DX2                !
 ! D35   D(16,15,17,19)         -0.0058         estimate D2E/DX2                !
 ! D36   D(15,17,19,20)          0.0081         estimate D2E/DX2                !
 ! D37   D(15,17,19,21)        120.0052         estimate D2E/DX2                !
 ! D38   D(15,17,19,22)       -119.9986         estimate D2E/DX2                !
 ! D39   D(18,17,19,20)        179.9991         estimate D2E/DX2                !
 ! D40   D(18,17,19,21)        -60.0037         estimate D2E/DX2                !
 ! D41   D(18,17,19,22)         59.9925         estimate D2E/DX2                !
 --------------------------------------------------------------------------------
 Trust Radius=3.00D-01 FncErr=1.00D-07 GrdErr=1.00D-07
 Number of steps in this run= 108 maximum allowed number of steps= 132.
 GradGradGradGradGradGradGradGradGradGradGradGradGradGradGradGradGradGrad

                          Input orientation:                          
 ---------------------------------------------------------------------
 Center     Atomic      Atomic             Coordinates (Angstroms)
 Number     Number       Type             X           Y           Z
 ---------------------------------------------------------------------
      1          1           0        1.882700    1.236200    0.984200
      2          6           0        1.940900    2.209000    0.496000
      3          1           0        1.262400    2.904900    0.989500
      4          1           0        1.658000    2.107900   -0.551700
      5          6           0        3.359900    2.776800    0.566700
      6          8           0        4.256800    2.146900    1.122700
      7          7           0        3.555400    3.969700    0.000000
      8          1           0        2.786200    4.449200   -0.445500
      9          6           0        4.853300    4.613900    0.000000
     10          1           0        5.407600    4.315500    0.889800
     11          6           0        5.661300    4.220800   -1.232200
     12          1           0        5.123300    4.521400   -2.131200
     13          1           0        6.630500    4.718900   -1.205800
     14          1           0        5.808500    3.140900   -1.241400
     15          6           0        4.712700    6.129400    0.000000
     16          8           0        4.928000    6.775800   -1.022900
     17          7           0        4.349800    6.696100    1.153000
     18          1           0        4.183900    6.122300    1.967500
     19          6           0        4.182100    8.129500    1.282300
     20          1           0        4.394800    8.608400    0.326600
     21          1           0        3.156700    8.350600    1.578600
     22          1           0        4.868300    8.509400    2.039200
 ---------------------------------------------------------------------
                    Distance matrix (angstroms):
                    1          2          3          4          5
     1  H    0.000000
     2  C    1.089985   0.000000
     3  H    1.780270   1.090037   0.000000
     4  H    1.780264   1.089922   1.779608   0.000000
     5  C    2.174827   1.530018   2.143519   2.143527   0.000000
     6  O    2.546548   2.400000   3.091721   3.091747   1.228959
     7  N    3.352402   2.439814   2.714914   2.714922   1.335058
     8  H    3.630940   2.572829   2.601164   2.601115   2.037303
     9  C    4.604560   3.809414   4.098092   4.098091   2.434405
    10  H    4.681444   4.075589   4.379773   4.583767   2.581679
    11  C    5.300763   4.568959   5.100771   4.577536   3.258469
    12  H    5.567741   4.730438   5.220957   4.508670   3.664952
    13  H    6.282269   5.584628   6.076713   5.654284   4.196467
    14  H    4.898273   4.341120   5.069481   4.332369   3.065524
    15  C    5.737679   4.826844   4.825047   5.080160   3.659391
    16  O    6.632456   5.664405   5.698267   5.718760   4.580149
    17  N    5.993795   5.135028   4.892031   5.585998   4.084674
    18  H    5.489661   4.744500   4.454583   5.370470   3.719353
    19  C    7.272805   6.379151   5.992230   6.781910   5.462554
    20  H    7.816164   6.855847   6.540740   7.107601   5.927582
    21  H    7.251970   6.353695   5.795779   6.764287   5.668552
    22  H    7.932608   7.116613   6.746466   7.615641   6.107883
                    6          7          8          9         10
     6  O    0.000000
     7  N    2.252780   0.000000
     8  H    3.150000   1.009980   0.000000
     9  C    2.775312   1.448978   2.120966   0.000000
    10  H    2.466051   2.083739   2.944935   1.089970   0.000000
    11  C    3.437911   2.452791   2.989526   1.525027   2.139209
    12  H    4.120308   2.702720   2.882505   2.150225   3.041326
    13  H    4.203754   3.386959   3.928032   2.150214   2.459625
    14  H    2.997462   2.702673   3.388127   2.150165   2.466256
    15  C    4.162764   2.450234   2.594792   1.522008   2.136554
    16  O    5.145952   3.287028   3.214617   2.392847   3.153017
    17  N    4.550251   3.064920   3.169954   2.432792   2.618296
    18  H    4.064826   2.983246   3.251984   2.567961   2.433805
    19  C    5.985195   4.397838   4.298655   3.801874   4.025233
    20  H    6.511820   4.725336   4.525779   4.033971   4.446566
    21  H    6.316958   4.673674   4.410802   4.396971   4.671512
    22  H    6.457191   5.146933   5.195585   4.396986   4.381867
                   11         12         13         14         15
    11  C    0.000000
    12  H    1.089957   0.000000
    13  H    1.090023   1.779613   0.000000
    14  H    1.089925   1.779613   1.779617   0.000000
    15  C    2.461892   2.701161   2.668599   3.416575   0.000000
    16  O    2.666376   2.519681   2.676340   3.746401   1.229029
    17  N    3.679174   4.014174   3.830777   4.527737   1.335011
    18  H    4.004559   4.499411   4.245611   4.671735   2.037336
    19  C    4.877364   5.055317   4.880317   5.822402   2.434385
    20  H    4.825444   4.824423   4.740761   5.860949   2.520549
    21  H    5.588279   5.682685   5.745382   6.490410   3.137968
    22  H    5.451880   5.775933   5.291811   6.361376   3.137985
                   16         17         18         19         20
    16  O    0.000000
    17  N    2.252822   0.000000
    18  H    3.150117   1.010039   0.000000
    19  C    2.775395   1.448957   2.120932   0.000000
    20  H    2.337493   2.083711   2.986256   1.089931   0.000000
    21  H    3.519276   2.083745   2.484291   1.090011   1.779566
    22  H    3.519288   2.083807   2.484309   1.089996   1.779607
                   21         22
    21  H    0.000000
    22  H    1.779591   0.000000
 Stoichiometry    C6H12N2O2
 Framework group  C1[X(C6H12N2O2)]
 Deg. of freedom    60
 Full point group                 C1      NOp   1
 Largest Abelian subgroup         C1      NOp   1
 Largest concise Abelian subgroup C1      NOp   1
                         Standard orientation:                         
 ---------------------------------------------------------------------
 Center     Atomic      Atomic             Coordinates (Angstroms)
 Number     Number       Type             X           Y           Z
 ---------------------------------------------------------------------
      1          1           0        4.058725   -1.335910   -0.293946
      2          6           0        3.103766   -1.169854   -0.792489
      3          1           0        2.633851   -2.129615   -1.007476
      4          1           0        3.268962   -0.629886   -1.724730
      5          6           0        2.158554   -0.348989    0.087120
      6          8           0        2.515205    0.032054    1.199750
      7          7           0        0.952774   -0.080536   -0.419247
      8          1           0        0.705486   -0.415748   -1.339324
      9          6           0       -0.032249    0.687743    0.314929
     10          1           0        0.107149    0.530610    1.384467
     11          6           0        0.102299    2.177842    0.019616
     12          1           0       -0.043924    2.352170   -1.046326
     13          1           0       -0.649314    2.729866    0.583972
     14          1           0        1.096264    2.517946    0.309959
     15          6           0       -1.445961    0.265333   -0.058564
     16          8           0       -2.138343    0.976235   -0.783641
     17          7           0       -1.873819   -0.897055    0.439477
     18          1           0       -1.267390   -1.446613    1.031430
     19          6           0       -3.199667   -1.409163    0.157786
     20          1           0       -3.729911   -0.710153   -0.488879
     21          1           0       -3.118292   -2.374784   -0.341291
     22          1           0       -3.749626   -1.528535    1.091268
 ---------------------------------------------------------------------
 Rotational constants (GHZ):      2.2173251      0.7312851      0.6306565
 Standard basis: 6-31G(d) (6D, 7F)
 There are   174 symmetry adapted basis functions of A   symmetry.
 Integral buffers will be    131072 words long.
 Raffenetti 1 integral format.
 Two-electron integral symmetry is turned on.
   174 basis functions,   328 primitive gaussians,   174 cartesian basis functions
    39 alpha electrons       39 beta electrons
       nuclear repulsion energy       553.0906870112 Hartrees.
 NAtoms=   22 NActive=   22 NUniq=   22 SFac= 7.50D-01 NAtFMM=   80 NAOKFM=F Big=F
 One-electron integrals computed using PRISM.
 NBasis=   174 RedAO= T  NBF=   174
 NBsUse=   174 1.00D-06 NBFU=   174
 Harris functional with IExCor=  205 diagonalized for initial guess.
 ExpMin= 1.61D-01 ExpMax= 5.48D+03 ExpMxC= 8.25D+02 IAcc=1 IRadAn=         1 AccDes= 0.00D+00
 HarFok:  IExCor=  205 AccDes= 0.00D+00 IRadAn=         1 IDoV= 1
 ScaDFX=  1.000000  1.000000  1.000000  1.000000
 FoFCou: FMM=F IPFlag=           0 FMFlag=      100000 FMFlg1=           0
         NFxFlg=           0 DoJE=T BraDBF=F KetDBF=T FulRan=T
         Omega=  0.000000  0.000000  1.000000  0.000000  0.000000 ICntrl=     500 IOpCl=  0
         NMat0=    1 NMatS0=    1 NMatT0=    0 NMatD0=    1 NMtDS0=    0 NMtDT0=    0
         I1Cent=           4 NGrid=           0.
 Petite list used in FoFCou.
 Initial guess orbital symmetries:
       Occupied  (A) (A) (A) (A) (A) (A) (A) (A) (A) (A) (A) (A)
                 (A) (A) (A) (A) (A) (A) (A) (A) (A) (A) (A) (A)
                 (A) (A) (A) (A) (A) (A) (A) (A) (A) (A) (A) (A)
                 (A) (A) (A)
       Virtual   (A) (A) (A) (A) (A) (A) (A) (A) (A) (A) (A) (A)
                 (A) (A) (A) (A) (A) (A) (A) (A) (A) (A) (A) (A)
                 (A) (A) (A) (A) (A) (A) (A) (A) (A) (A) (A) (A)
                 (A) (A) (A) (A) (A) (A) (A) (A) (A) (A) (A) (A)
                 (A) (A) (A) (A) (A) (A) (A) (A) (A) (A) (A) (A)
                 (A) (A) (A) (A) (A) (A) (A) (A) (A) (A) (A) (A)
                 (A) (A) (A) (A) (A) (A) (A) (A) (A) (A) (A) (A)
                 (A) (A) (A) (A) (A) (A) (A) (A) (A) (A) (A) (A)
                 (A) (A) (A) (A) (A) (A) (A) (A) (A) (A) (A) (A)
                 (A) (A) (A) (A) (A) (A) (A) (A) (A) (A) (A) (A)
                 (A) (A) (A) (A) (A) (A) (A) (A) (A) (A) (A) (A)
                 (A) (A) (A)
 The electronic state of the initial guess is 1-A.
 Requested convergence on RMS density matrix=1.00D-08 within 128 cycles.
 Requested convergence on MAX density matrix=1.00D-06.
 Requested convergence on             energy=1.00D-06.
 No special actions if energy rises.
 Integral accuracy reduced to 1.0D-05 until final iterations.
 Initial convergence to 1.0D-05 achieved.  Increase integral accuracy.
 SCF Done:  E(RHF) =  -492.847193306     A.U. after   15 cycles
             Convg  =    0.5222D-08             -V/T =  2.0020

 **********************************************************************

            Population analysis using the SCF density.

 **********************************************************************

 Orbital symmetries:
       Occupied  (A) (A) (A) (A) (A) (A) (A) (A) (A) (A) (A) (A)
                 (A) (A) (A) (A) (A) (A) (A) (A) (A) (A) (A) (A)
                 (A) (A) (A) (A) (A) (A) (A) (A) (A) (A) (A) (A)
                 (A) (A) (A)
       Virtual   (A) (A) (A) (A) (A) (A) (A) (A) (A) (A) (A) (A)
                 (A) (A) (A) (A) (A) (A) (A) (A) (A) (A) (A) (A)
                 (A) (A) (A) (A) (A) (A) (A) (A) (A) (A) (A) (A)
                 (A) (A) (A) (A) (A) (A) (A) (A) (A) (A) (A) (A)
                 (A) (A) (A) (A) (A) (A) (A) (A) (A) (A) (A) (A)
                 (A) (A) (A) (A) (A) (A) (A) (A) (A) (A) (A) (A)
                 (A) (A) (A) (A) (A) (A) (A) (A) (A) (A) (A) (A)
                 (A) (A) (A) (A) (A) (A) (A) (A) (A) (A) (A) (A)
                 (A) (A) (A) (A) (A) (A) (A) (A) (A) (A) (A) (A)
                 (A) (A) (A) (A) (A) (A) (A) (A) (A) (A) (A) (A)
                 (A) (A) (A) (A) (A) (A) (A) (A) (A) (A) (A) (A)
                 (A) (A) (A)
 The electronic state is 1-A.
 Alpha  occ. eigenvalues --  -20.52547 -20.52215 -15.60231 -15.60008 -11.35573
 Alpha  occ. eigenvalues --  -11.35250 -11.28104 -11.26572 -11.24194 -11.20867
 Alpha  occ. eigenvalues --   -1.38513  -1.37624  -1.25128  -1.23748  -1.05688
 Alpha  occ. eigenvalues --   -0.99161  -0.96677  -0.87367  -0.80516  -0.79625
 Alpha  occ. eigenvalues --   -0.73788  -0.67093  -0.65483  -0.65189  -0.62987
 Alpha  occ. eigenvalues --   -0.62346  -0.59589  -0.58495  -0.56878  -0.56280
 Alpha  occ. eigenvalues --   -0.55435  -0.53166  -0.52330  -0.51015  -0.49479
 Alpha  occ. eigenvalues --   -0.42710  -0.41735  -0.39931  -0.38737
 Alpha virt. eigenvalues --    0.18222   0.19875   0.21679   0.22110   0.26085
 Alpha virt. eigenvalues --    0.27260   0.27421   0.29942   0.31174   0.31823
 Alpha virt. eigenvalues --    0.31981   0.32832   0.33164   0.34336   0.36423
 Alpha virt. eigenvalues --    0.39346   0.40515   0.43709   0.45992   0.50948
 Alpha virt. eigenvalues --    0.52206   0.57368   0.61146   0.71017   0.72050
 Alpha virt. eigenvalues --    0.73118   0.73913   0.75684   0.77124   0.78767
 Alpha virt. eigenvalues --    0.79858   0.83654   0.84616   0.86531   0.88661
 Alpha virt. eigenvalues --    0.89473   0.94637   0.94800   0.98064   0.98727
 Alpha virt. eigenvalues --    1.00166   1.01402   1.01755   1.07052   1.09527
 Alpha virt. eigenvalues --    1.10312   1.11547   1.14548   1.14594   1.15111
 Alpha virt. eigenvalues --    1.16580   1.17082   1.17974   1.18564   1.19121
 Alpha virt. eigenvalues --    1.19600   1.21069   1.21621   1.23795   1.25763
 Alpha virt. eigenvalues --    1.27582   1.32884   1.36607   1.39484   1.42065
 Alpha virt. eigenvalues --    1.45036   1.53020   1.55317   1.58768   1.61015
 Alpha virt. eigenvalues --    1.62825   1.63747   1.69684   1.73099   1.76236
 Alpha virt. eigenvalues --    1.77999   1.84099   1.88449   1.90345   1.96284
 Alpha virt. eigenvalues --    2.03402   2.04486   2.07532   2.10996   2.12606
 Alpha virt. eigenvalues --    2.15113   2.16003   2.16756   2.19184   2.21171
 Alpha virt. eigenvalues --    2.23141   2.24946   2.27875   2.30722   2.34666
 Alpha virt. eigenvalues --    2.37588   2.39318   2.41310   2.46027   2.49385
 Alpha virt. eigenvalues --    2.51921   2.55263   2.58240   2.61494   2.63065
 Alpha virt. eigenvalues --    2.64164   2.65233   2.70464   2.73626   2.74116
 Alpha virt. eigenvalues --    2.77695   2.79695   2.88509   2.93864   2.98586
 Alpha virt. eigenvalues --    3.00385   3.03583   3.10053   3.12426   3.27341
 Alpha virt. eigenvalues --    3.28604   3.34307   3.38573   3.53238   3.56222
 Alpha virt. eigenvalues --    4.39562   4.41868   4.46695   4.51709   4.62534
 Alpha virt. eigenvalues --    4.65364   4.71112   4.83856   4.88040   5.04463
          Condensed to atoms (all electrons):
              1          2          3          4          5          6
     1  H    0.451901   0.385725  -0.018693  -0.018067  -0.029980   0.003558
     2  C    0.385725   5.253006   0.373085   0.375190   0.376210  -0.068819
     3  H   -0.018693   0.373085   0.518910  -0.024162  -0.035024   0.001332
     4  H   -0.018067   0.375190  -0.024162   0.509571  -0.035432   0.001203
     5  C   -0.029980   0.376210  -0.035024  -0.035432   4.183752   0.598639
     6  O    0.003558  -0.068819   0.001332   0.001203   0.598639   8.184510
     7  N    0.003785  -0.122178   0.003600   0.003676   0.239246  -0.107177
     8  H   -0.000011  -0.000943   0.000666   0.000516  -0.018451   0.002207
     9  C   -0.000079   0.004604  -0.000225  -0.000220  -0.022586   0.008460
    10  H   -0.000002   0.000355  -0.000021  -0.000009  -0.001412   0.006714
    11  C    0.000004  -0.000277   0.000000   0.000054  -0.002460  -0.001964
    12  H    0.000000  -0.000007   0.000000  -0.000001   0.000183  -0.000020
    13  H    0.000000   0.000003   0.000000   0.000000   0.000000  -0.000017
    14  H    0.000000   0.000046   0.000000  -0.000020   0.001865   0.002649
    15  C    0.000000   0.000008   0.000003  -0.000011   0.003099   0.000529
    16  O    0.000000   0.000000   0.000000   0.000000  -0.000077  -0.000001
    17  N    0.000000  -0.000010   0.000001   0.000000   0.000043   0.000002
    18  H    0.000000   0.000003   0.000002   0.000000   0.000136  -0.000029
    19  C    0.000000   0.000000   0.000000   0.000000   0.000002   0.000000
    20  H    0.000000   0.000000   0.000000   0.000000   0.000000   0.000000
    21  H    0.000000   0.000000   0.000000   0.000000   0.000000   0.000000
    22  H    0.000000   0.000000   0.000000   0.000000   0.000000   0.000000
              7          8          9         10         11         12
     1  H    0.003785  -0.000011  -0.000079  -0.000002   0.000004   0.000000
     2  C   -0.122178  -0.000943   0.004604   0.000355  -0.000277  -0.000007
     3  H    0.003600   0.000666  -0.000225  -0.000021   0.000000   0.000000
     4  H    0.003676   0.000516  -0.000220  -0.000009   0.000054  -0.000001
     5  C    0.239246  -0.018451  -0.022586  -0.001412  -0.002460   0.000183
     6  O   -0.107177   0.002207   0.008460   0.006714  -0.001964  -0.000020
     7  N    7.432757   0.321227   0.160329  -0.037868  -0.069271  -0.000697
     8  H    0.321227   0.318111  -0.024783   0.002727   0.001929   0.000896
     9  C    0.160329  -0.024783   5.113228   0.406530   0.359259  -0.033566
    10  H   -0.037868   0.002727   0.406530   0.470546  -0.038461   0.003874
    11  C   -0.069271   0.001929   0.359259  -0.038461   5.100256   0.389960
    12  H   -0.000697   0.000896  -0.033566   0.003874   0.389960   0.509083
    13  H    0.004680  -0.000078  -0.038517  -0.000097   0.390332  -0.019765
    14  H   -0.004187  -0.000122  -0.035628  -0.003456   0.387244  -0.026850
    15  C   -0.038153  -0.003407   0.348162  -0.042139  -0.061810  -0.006812
    16  O    0.000093   0.001054  -0.081089   0.001689  -0.001311   0.003781
    17  N    0.002998   0.001240  -0.121038   0.002127   0.004407   0.000112
    18  H    0.002176   0.000034  -0.000480   0.000483   0.000128  -0.000006
    19  C   -0.000176  -0.000038   0.004138  -0.000160  -0.000114  -0.000002
    20  H   -0.000018  -0.000007   0.000602  -0.000019  -0.000012  -0.000003
    21  H    0.000028  -0.000004  -0.000075  -0.000002   0.000000   0.000000
    22  H   -0.000003   0.000001  -0.000095  -0.000005   0.000004   0.000000
             13         14         15         16         17         18
     1  H    0.000000   0.000000   0.000000   0.000000   0.000000   0.000000
     2  C    0.000003   0.000046   0.000008   0.000000  -0.000010   0.000003
     3  H    0.000000   0.000000   0.000003   0.000000   0.000001   0.000002
     4  H    0.000000  -0.000020  -0.000011   0.000000   0.000000   0.000000
     5  C    0.000000   0.001865   0.003099  -0.000077   0.000043   0.000136
     6  O   -0.000017   0.002649   0.000529  -0.000001   0.000002  -0.000029
     7  N    0.004680  -0.004187  -0.038153   0.000093   0.002998   0.002176
     8  H   -0.000078  -0.000122  -0.003407   0.001054   0.001240   0.000034
     9  C   -0.038517  -0.035628   0.348162  -0.081089  -0.121038  -0.000480
    10  H   -0.000097  -0.003456  -0.042139   0.001689   0.002127   0.000483
    11  C    0.390332   0.387244  -0.061810  -0.001311   0.004407   0.000128
    12  H   -0.019765  -0.026850  -0.006812   0.003781   0.000112  -0.000006
    13  H    0.517109  -0.023988  -0.001273  -0.000144  -0.000084  -0.000016
    14  H   -0.023988   0.515719   0.005604   0.000581  -0.000046  -0.000008
    15  C   -0.001273   0.005604   4.211903   0.585853   0.292482  -0.021205
    16  O   -0.000144   0.000581   0.585853   8.210055  -0.097458   0.002272
    17  N   -0.000084  -0.000046   0.292482  -0.097458   7.315148   0.325916
    18  H   -0.000016  -0.000008  -0.021205   0.002272   0.325916   0.318780
    19  C   -0.000002   0.000002  -0.026129  -0.004804   0.186471  -0.022226
    20  H   -0.000001   0.000000  -0.001639   0.010433  -0.031897   0.002267
    21  H    0.000000   0.000000   0.001023   0.000383  -0.048115  -0.001034
    22  H    0.000000   0.000000   0.000729   0.000378  -0.047226  -0.000996
             19         20         21         22
     1  H    0.000000   0.000000   0.000000   0.000000
     2  C    0.000000   0.000000   0.000000   0.000000
     3  H    0.000000   0.000000   0.000000   0.000000
     4  H    0.000000   0.000000   0.000000   0.000000
     5  C    0.000002   0.000000   0.000000   0.000000
     6  O    0.000000   0.000000   0.000000   0.000000
     7  N   -0.000176  -0.000018   0.000028  -0.000003
     8  H   -0.000038  -0.000007  -0.000004   0.000001
     9  C    0.004138   0.000602  -0.000075  -0.000095
    10  H   -0.000160  -0.000019  -0.000002  -0.000005
    11  C   -0.000114  -0.000012   0.000000   0.000004
    12  H   -0.000002  -0.000003   0.000000   0.000000
    13  H   -0.000002  -0.000001   0.000000   0.000000
    14  H    0.000002   0.000000   0.000000   0.000000
    15  C   -0.026129  -0.001639   0.001023   0.000729
    16  O   -0.004804   0.010433   0.000383   0.000378
    17  N    0.186471  -0.031897  -0.048115  -0.047226
    18  H   -0.022226   0.002267  -0.001034  -0.000996
    19  C    4.955686   0.396274   0.402087   0.403171
    20  H    0.396274   0.431130  -0.022696  -0.022108
    21  H    0.402087  -0.022696   0.535695  -0.036183
    22  H    0.403171  -0.022108  -0.036183   0.527983
 Mulliken atomic charges:
              1
     1  H    0.221859
     2  C   -0.576001
     3  H    0.180525
     4  H    0.187712
     5  C    0.742249
     6  O   -0.631775
     7  N   -0.794866
     8  H    0.397236
     9  C   -0.046930
    10  H    0.228607
    11  C   -0.457897
    12  H    0.179840
    13  H    0.171857
    14  H    0.180597
    15  C    0.753184
    16  O   -0.631687
    17  N   -0.785072
    18  H    0.393805
    19  C   -0.294181
    20  H    0.237694
    21  H    0.168895
    22  H    0.174351
 Sum of Mulliken atomic charges =   0.00000
 Mulliken charges with hydrogens summed into heavy atoms:
              1
     2  C    0.014094
     5  C    0.742249
     6  O   -0.631775
     7  N   -0.397630
     9  C    0.181677
    11  C    0.074397
    15  C    0.753184
    16  O   -0.631687
    17  N   -0.391267
    19  C    0.286759
 Sum of Mulliken charges with hydrogens summed into heavy atoms =   0.00000
 Electronic spatial extent (au):  <R**2>=           1895.5811
 Charge=              0.0000 electrons
 Dipole moment (field-independent basis, Debye):
    X=             -0.5170    Y=             -3.8774    Z=             -1.2206  Tot=              4.0977
 Quadrupole moment (field-independent basis, Debye-Ang):
   XX=            -66.0464   YY=            -58.5477   ZZ=            -62.1952
   XY=              4.1830   XZ=            -13.1387   YZ=              1.6397
 Traceless Quadrupole moment (field-independent basis, Debye-Ang):
   XX=             -3.7833   YY=              3.7154   ZZ=              0.0679
   XY=              4.1830   XZ=            -13.1387   YZ=              1.6397
 Octapole moment (field-independent basis, Debye-Ang**2):
  XXX=            -11.7663  YYY=             -7.9447  ZZZ=             -4.5289  XYY=              2.1892
  XXY=            -27.4304  XXZ=            -13.0899  XZZ=             -6.7466  YZZ=             -4.0774
  YYZ=              5.3881  XYZ=             -2.8909
 Hexadecapole moment (field-independent basis, Debye-Ang**3):
 XXXX=          -1650.6570 YYYY=           -540.5801 ZZZZ=           -206.8335 XXXY=             20.6532
 XXXZ=            -61.7245 YYYX=              7.1951 YYYZ=             -1.3610 ZZZX=            -10.5494
 ZZZY=             -4.2390 XXYY=           -365.4791 XXZZ=           -346.9036 YYZZ=           -123.5198
 XXYZ=              5.8194 YYXZ=             -4.3655 ZZXY=              5.1085
 N-N= 5.530906870112D+02 E-N=-2.261273622051D+03  KE= 4.918433643286D+02
 Calling FoFJK, ICntrl=      2127 FMM=F ISym2X=0 I1Cent= 0 IOpClX= 0 NMat=1 NMatS=1 NMatT=0.
 ***** Axes restored to original set *****
 -------------------------------------------------------------------
 Center     Atomic                   Forces (Hartrees/Bohr)
 Number     Number              X              Y              Z
 -------------------------------------------------------------------
      1        1           0.004476194    0.007896557   -0.002987583
      2        6           0.006043637    0.007303846   -0.002399629
      3        1          -0.001401147   -0.003580434   -0.003550760
      4        1          -0.003195412    0.000302890    0.004073636
      5        6           0.019813678   -0.049953187    0.029787626
      6        8          -0.028488464    0.026104218   -0.019882429
      7        7          -0.011542104    0.023084544   -0.001067548
      8        1           0.010369633   -0.008837157    0.004702138
      9        6           0.016356269   -0.002495882   -0.009234490
     10        1          -0.008521972   -0.001101732   -0.002788549
     11        6           0.001953740   -0.006038333   -0.001697020
     12        1           0.006112985   -0.001531003    0.003971786
     13        1          -0.004093678   -0.003555925   -0.003705143
     14        1           0.000109721    0.004569514    0.000261544
     15        6           0.004214155    0.021062648   -0.038979783
     16        8          -0.009220115   -0.019669456    0.036417582
     17        7          -0.004003158   -0.000901972    0.013143675
     18        1           0.003227809    0.006629076   -0.013331582
     19        6          -0.001236068    0.003449830    0.002842865
     20        1          -0.001549887   -0.006124122    0.008231299
     21        1           0.004463088    0.002227107   -0.000671574
     22        1          -0.003888902    0.001158973   -0.003136062
 -------------------------------------------------------------------
 Cartesian Forces:  Max     0.049953187 RMS     0.013351086

 GradGradGradGradGradGradGradGradGradGradGradGradGradGradGradGradGradGrad
 Berny optimization.
 Internal  Forces:  Max     0.043165794 RMS     0.007924447
 Search for a local minimum.
 Step number   1 out of a maximum of  108
 All quantities printed in internal units (Hartrees-Bohrs-Radians)
 Mixed Optimization -- RFO/linear search
 Second derivative matrix not updated -- first step.
     Eigenvalues ---    0.00369   0.00435   0.00999   0.01044   0.01269
     Eigenvalues ---    0.01422   0.01660   0.02551   0.02551   0.03503
     Eigenvalues ---    0.05232   0.05841   0.05844   0.05844   0.07165
     Eigenvalues ---    0.07464   0.07685   0.07686   0.15421   0.16000
     Eigenvalues ---    0.16000   0.16000   0.16000   0.16000   0.16000
     Eigenvalues ---    0.16000   0.16000   0.16000   0.16000   0.16000
     Eigenvalues ---    0.16180   0.22000   0.22000   0.25000   0.25000
     Eigenvalues ---    0.25000   0.25000   0.29422   0.29887   0.30174
     Eigenvalues ---    0.34808   0.34810   0.34811   0.34813   0.34814
     Eigenvalues ---    0.34816   0.34818   0.34821   0.34821   0.34822
     Eigenvalues ---    0.38379   0.38382   0.45966   0.45976   0.58327
     Eigenvalues ---    0.58338   0.91492   0.915221000.000001000.00000
     Eigenvalues --- 1000.000001000.000001000.000001000.000001000.00000
     Eigenvalues --- 1000.000001000.000001000.000001000.000001000.00000
     Eigenvalues --- 1000.000001000.000001000.000001000.000001000.00000
     Eigenvalues --- 1000.000001000.000001000.000001000.000001000.00000
     Eigenvalues --- 1000.000001000.000001000.000001000.000001000.00000
     Eigenvalues --- 1000.000001000.000001000.000001000.000001000.00000
     Eigenvalues --- 1000.000001000.000001000.000001000.000001000.00000
     Eigenvalues --- 1000.000001000.000001000.00000
 RFO step:  Lambda=-1.42105459D-02 EMin= 3.68861443D-03
 Linear search not attempted -- first point.
 Iteration  1 RMS(Cart)=  0.08729339 RMS(Int)=  0.00233869
 Iteration  2 RMS(Cart)=  0.00375508 RMS(Int)=  0.00051668
 Iteration  3 RMS(Cart)=  0.00000617 RMS(Int)=  0.00051667
 Iteration  4 RMS(Cart)=  0.00000000 RMS(Int)=  0.00051667
 Iteration  1 RMS(Cart)=  0.00042922 RMS(Int)=  0.00010995
 Iteration  2 RMS(Cart)=  0.00022968 RMS(Int)=  0.00012271
 Iteration  3 RMS(Cart)=  0.00012334 RMS(Int)=  0.00013857
 Iteration  4 RMS(Cart)=  0.00006660 RMS(Int)=  0.00014920
 Iteration  5 RMS(Cart)=  0.00003626 RMS(Int)=  0.00015559
 Iteration  6 RMS(Cart)=  0.00001999 RMS(Int)=  0.00015933
 Iteration  7 RMS(Cart)=  0.00001121 RMS(Int)=  0.00016150
 Iteration  8 RMS(Cart)=  0.00000643 RMS(Int)=  0.00016278
 Iteration  9 RMS(Cart)=  0.00000379 RMS(Int)=  0.00016354
 Iteration 10 RMS(Cart)=  0.00000229 RMS(Int)=  0.00016399
 Iteration 11 RMS(Cart)=  0.00000142 RMS(Int)=  0.00016426
 Iteration 12 RMS(Cart)=  0.00000091 RMS(Int)=  0.00016443
 Variable       Old X    -DE/DX   Delta X   Delta X   Delta X     New X
                                 (Linear)    (Quad)   (Total)
    R1        2.05977  -0.00862   0.00000  -0.02380  -0.02380   2.03597
    R2        2.05987  -0.00302   0.00000  -0.00834  -0.00834   2.05153
    R3        2.05965  -0.00311   0.00000  -0.00859  -0.00859   2.05106
    R4        2.89132  -0.00969   0.00000  -0.03143  -0.03143   2.85989
    R5        2.32240  -0.04317   0.00000  -0.04644  -0.04644   2.27595
    R6        2.52289   0.01320   0.00000   0.02209   0.02209   2.54498
    R7        1.90859  -0.01417   0.00000  -0.02989  -0.02989   1.87869
    R8        2.73817   0.00248   0.00000   0.00624   0.00624   2.74441
    R9        2.05975  -0.00631   0.00000  -0.01741  -0.01741   2.04234
   R10        2.88188   0.00480   0.00000   0.01532   0.01532   2.89721
   R11        2.87618   0.00854   0.00000   0.02702   0.02702   2.90320
   R12        2.05972  -0.00672   0.00000  -0.01853  -0.01853   2.04119
   R13        2.05984  -0.00535   0.00000  -0.01478  -0.01478   2.04507
   R14        2.05966  -0.00451   0.00000  -0.01246  -0.01246   2.04720
   R15        2.32253  -0.04227   0.00000  -0.04549  -0.04549   2.27703
   R16        2.52281   0.00966   0.00000   0.01616   0.01616   2.53897
   R17        1.90870  -0.01505   0.00000  -0.03175  -0.03175   1.87694
   R18        2.73813   0.00161   0.00000   0.00404   0.00404   2.74217
   R19        2.05967  -0.01021   0.00000  -0.02817  -0.02817   2.03150
   R20        2.05982  -0.00393   0.00000  -0.01084  -0.01084   2.04898
   R21        2.05979  -0.00422   0.00000  -0.01165  -0.01165   2.04814
    A1        1.91109   0.00040   0.00000   0.00043   0.00081   1.91191
    A2        1.91123   0.00039   0.00000  -0.00021   0.00015   1.91139
    A3        1.93910  -0.00808   0.00000  -0.04854  -0.04816   1.89094
    A4        1.91012  -0.00472   0.00000  -0.02249  -0.02328   1.88684
    A5        1.89594   0.00613   0.00000   0.03639   0.03617   1.93211
    A6        1.89607   0.00591   0.00000   0.03482   0.03458   1.93065
    A7        2.10313   0.00882   0.00000   0.03339   0.03339   2.13652
    A8        2.03508  -0.00617   0.00000  -0.02337  -0.02338   2.01171
    A9        2.14497  -0.00265   0.00000  -0.01002  -0.01003   2.13494
   A10        2.09430  -0.00291   0.00000  -0.01451  -0.01520   2.07910
   A11        2.12753   0.00297   0.00000   0.01269   0.01196   2.13949
   A12        2.06135  -0.00006   0.00000   0.00182   0.00105   2.06240
   A13        1.91114  -0.00114   0.00000  -0.04692  -0.04785   1.86328
   A14        1.93905   0.00235   0.00000   0.01718   0.01844   1.95748
   A15        1.93900  -0.01085   0.00000  -0.05322  -0.05510   1.88390
   A16        1.89609  -0.00266   0.00000   0.00178   0.00123   1.89732
   A17        1.89608  -0.00074   0.00000   0.00265  -0.00061   1.89547
   A18        1.88137   0.01327   0.00000   0.08102   0.08155   1.96292
   A19        1.91115   0.00336   0.00000   0.02001   0.01987   1.93102
   A20        1.91106   0.00467   0.00000   0.02601   0.02588   1.93695
   A21        1.91110  -0.00108   0.00000  -0.00610  -0.00607   1.90502
   A22        1.91011  -0.00404   0.00000  -0.02335  -0.02363   1.88648
   A23        1.91023  -0.00089   0.00000  -0.00349  -0.00347   1.90676
   A24        1.91015  -0.00203   0.00000  -0.01311  -0.01307   1.89708
   A25        2.10309   0.00780   0.00000   0.02952   0.02952   2.13261
   A26        2.03509  -0.00827   0.00000  -0.03130  -0.03130   2.00378
   A27        2.14501   0.00047   0.00000   0.00178   0.00178   2.14679
   A28        2.09435  -0.00664   0.00000  -0.03170  -0.03170   2.06265
   A29        2.12759   0.00876   0.00000   0.03741   0.03740   2.16499
   A30        2.06125  -0.00212   0.00000  -0.00571  -0.00571   2.05554
   A31        1.91117  -0.00435   0.00000  -0.02739  -0.02723   1.88394
   A32        1.91113   0.00455   0.00000   0.02755   0.02738   1.93851
   A33        1.91123   0.00409   0.00000   0.02445   0.02427   1.93549
   A34        1.91008  -0.00056   0.00000  -0.00517  -0.00499   1.90508
   A35        1.91016  -0.00055   0.00000  -0.00606  -0.00591   1.90425
   A36        1.91003  -0.00318   0.00000  -0.01341  -0.01389   1.89614
    D1        0.00008  -0.00013   0.00000  -0.00331  -0.00333  -0.00325
    D2       -3.14153   0.00005   0.00000   0.00338   0.00343  -3.13810
    D3        2.10332  -0.00066   0.00000  -0.00928  -0.00979   2.09352
    D4       -1.03830  -0.00048   0.00000  -0.00259  -0.00303  -1.04133
    D5       -2.10341   0.00056   0.00000   0.00447   0.00489  -2.09851
    D6        1.03816   0.00074   0.00000   0.01116   0.01166   1.04982
    D7       -0.00004  -0.00001   0.00000  -0.02556  -0.02499  -0.02502
    D8       -3.14152   0.00099   0.00000   0.04782   0.04736  -3.09417
    D9        3.14153   0.00017   0.00000  -0.01869  -0.01823   3.12331
   D10        0.00005   0.00117   0.00000   0.05469   0.05412   0.05416
   D11       -0.52362  -0.00168   0.00000  -0.06081  -0.05945  -0.58307
   D12        1.57082  -0.00425   0.00000  -0.07825  -0.07753   1.49329
   D13       -2.61802   0.00683   0.00000   0.00000   0.00000  -2.61802
   D14        2.61807  -0.00070   0.00000   0.01123   0.01224   2.63031
   D15       -1.57067  -0.00327   0.00000  -0.00620  -0.00584  -1.57651
   D16        0.52368   0.00781   0.00000   0.07205   0.07168   0.59536
   D17        1.04724  -0.00039   0.00000   0.01787   0.01851   1.06575
   D18        3.14157  -0.00042   0.00000   0.01748   0.01827  -3.12335
   D19       -1.04726  -0.00070   0.00000   0.01362   0.01432  -1.03295
   D20       -3.13259  -0.00207   0.00000  -0.02842  -0.02862   3.12197
   D21       -1.03826  -0.00210   0.00000  -0.02882  -0.02886  -1.06713
   D22        1.05609  -0.00238   0.00000  -0.03268  -0.03282   1.02327
   D23       -1.08102   0.00289   0.00000   0.02006   0.01941  -1.06162
   D24        1.01331   0.00286   0.00000   0.01966   0.01917   1.03247
   D25        3.10766   0.00258   0.00000   0.01580   0.01521   3.12287
   D26       -1.83260  -0.00386   0.00000   0.00128   0.00152  -1.83109
   D27        1.30895  -0.00455   0.00000   0.00000   0.00000   1.30895
   D28        2.34727   0.00473   0.00000   0.09057   0.09093   2.43820
   D29       -0.79436   0.00405   0.00000   0.08929   0.08941  -0.70495
   D30        0.29569   0.00102   0.00000   0.04266   0.04184   0.33752
   D31       -2.84594   0.00033   0.00000   0.04138   0.04032  -2.80562
   D32        0.00009   0.00049   0.00000   0.00451   0.00461   0.00470
   D33        3.14153   0.00041   0.00000   0.00189   0.00202  -3.13964
   D34       -3.14154  -0.00021   0.00000   0.00320   0.00308  -3.13846
   D35       -0.00010  -0.00029   0.00000   0.00058   0.00049   0.00038
   D36        0.00014  -0.00005   0.00000   0.00019   0.00021   0.00035
   D37        2.09449  -0.00062   0.00000  -0.00605  -0.00630   2.08818
   D38       -2.09437   0.00079   0.00000   0.00942   0.00968  -2.08469
   D39        3.14158  -0.00013   0.00000  -0.00238  -0.00238   3.13920
   D40       -1.04726  -0.00070   0.00000  -0.00862  -0.00889  -1.05615
   D41        1.04707   0.00071   0.00000   0.00685   0.00709   1.05416
         Item               Value     Threshold  Converged?
 Maximum Force            0.043166     0.000450     NO 
 RMS     Force            0.007913     0.000300     NO 
 Maximum Displacement     0.259019     0.001800     NO 
 RMS     Displacement     0.087741     0.001200     NO 
 Predicted change in Energy=-7.693799D-03
 GradGradGradGradGradGradGradGradGradGradGradGradGradGradGradGradGradGrad

                          Input orientation:                          
 ---------------------------------------------------------------------
 Center     Atomic      Atomic             Coordinates (Angstroms)
 Number     Number       Type             X           Y           Z
 ---------------------------------------------------------------------
      1          1           0        1.904940    1.343431    1.004574
      2          6           0        1.949406    2.294239    0.499841
      3          1           0        1.255474    2.986202    0.966987
      4          1           0        1.653870    2.168524   -0.536928
      5          6           0        3.367246    2.815659    0.590360
      6          8           0        4.242926    2.210454    1.153783
      7          7           0        3.579388    4.008912    0.003101
      8          1           0        2.825624    4.459822   -0.462601
      9          6           0        4.891015    4.629666   -0.055342
     10          1           0        5.407682    4.352495    0.852550
     11          6           0        5.709350    4.140204   -1.255868
     12          1           0        5.209974    4.384333   -2.182015
     13          1           0        6.688690    4.600455   -1.270751
     14          1           0        5.831551    3.065902   -1.188403
     15          6           0        4.693646    6.153230   -0.061285
     16          8           0        4.831611    6.814485   -1.059093
     17          7           0        4.355763    6.682546    1.126496
     18          1           0        4.263921    6.070796    1.903571
     19          6           0        4.118790    8.096969    1.347704
     20          1           0        4.261925    8.606994    0.412259
     21          1           0        3.107704    8.272724    1.697648
     22          1           0        4.812604    8.495459    2.078811
 ---------------------------------------------------------------------
                    Distance matrix (angstroms):
                    1          2          3          4          5
     1  H    0.000000
     2  C    1.077389   0.000000
     3  H    1.766894   1.085624   0.000000
     4  H    1.766365   1.085374   1.757578   0.000000
     5  C    2.115979   1.513387   2.151862   2.150632   0.000000
     6  O    2.498034   2.386398   3.092175   3.092487   1.204382
     7  N    3.303258   2.417374   2.715803   2.717771   1.346748
     8  H    3.565411   2.526619   2.584695   2.574602   2.026167
     9  C    4.565020   3.796776   4.118651   4.094905   2.455489
    10  H    4.620258   4.039863   4.372720   4.559768   2.567877
    11  C    5.234985   4.541726   5.109776   4.566323   3.263192
    12  H    5.506786   4.710855   5.244908   4.501332   3.680007
    13  H    6.218487   5.560076   6.093695   5.639343   4.204904
    14  H    4.816049   4.303101   5.058907   4.322351   3.049494
    15  C    5.661016   4.768388   4.786276   5.034318   3.650118
    16  O    6.538850   5.583011   5.616895   5.652932   4.566801
    17  N    5.876015   5.043857   4.827027   5.517572   4.027087
    18  H    5.359195   4.646485   4.409383   5.291137   3.622771
    19  C    7.115416   6.252741   5.870559   6.691347   5.388007
    20  H    7.659345   6.723563   6.398420   7.011191   5.862741
    21  H    7.066972   6.206342   5.649065   6.660948   5.574317
    22  H    7.794870   7.010433   6.651408   7.539880   6.046873
                    6          7          8          9         10
     6  O    0.000000
     7  N    2.235801   0.000000
     8  H    3.111447   0.994162   0.000000
     9  C    2.781113   1.452279   2.112001   0.000000
    10  H    2.456774   2.045060   2.899684   1.080758   0.000000
    11  C    3.417711   2.477696   3.007873   1.533136   2.140443
    12  H    4.097375   2.752178   2.940614   2.164408   3.041166
    13  H    4.191925   3.411800   3.949198   2.170186   2.492162
    14  H    2.956578   2.716834   3.391961   2.147974   2.449587
    15  C    4.150304   2.417398   2.553076   1.536306   2.141865
    16  O    5.142031   3.250778   3.150274   2.405095   3.169800
    17  N    4.473599   3.002182   3.131623   2.428488   2.571132
    18  H    3.932539   2.886475   3.203546   2.511463   2.316332
    19  C    5.891016   4.337179   4.263605   3.819301   3.990927
    20  H    6.439406   4.666436   4.475196   4.053831   4.428022
    21  H    6.191579   4.612382   4.391409   4.418716   4.623017
    22  H    6.378205   5.094948   5.166550   4.416460   4.361419
                   11         12         13         14         15
    11  C    0.000000
    12  H    1.080150   0.000000
    13  H    1.082202   1.750347   0.000000
    14  H    1.083333   1.764054   1.759637   0.000000
    15  C    2.551658   2.809464   2.802520   3.478048   0.000000
    16  O    2.821511   2.703655   2.897494   3.881814   1.204954
    17  N    3.737828   4.117974   3.940107   4.540575   1.343564
    18  H    3.974733   4.520087   4.256492   4.587718   2.012987
    19  C    4.996444   5.237677   5.068165   5.888720   2.468568
    20  H    4.982961   5.045783   4.977355   5.977420   2.536057
    21  H    5.706973   5.881404   5.926247   6.546727   3.178256
    22  H    5.558100   5.934130   5.469032   6.418180   3.174933
                   16         17         18         19         20
    16  O    0.000000
    17  N    2.240679   0.000000
    18  H    3.106884   0.993236   0.000000
    19  C    2.818786   1.451096   2.106045   0.000000
    20  H    2.387993   2.054858   2.942162   1.075022   0.000000
    21  H    3.563417   2.100603   2.495542   1.084272   1.759599
    22  H    3.559842   2.098156   2.492138   1.083830   1.758716
                   21         22
    21  H    0.000000
    22  H    1.761130   0.000000
 Stoichiometry    C6H12N2O2
 Framework group  C1[X(C6H12N2O2)]
 Deg. of freedom    60
 Full point group                 C1      NOp   1
 Largest Abelian subgroup         C1      NOp   1
 Largest concise Abelian subgroup C1      NOp   1
                         Standard orientation:                         
 ---------------------------------------------------------------------
 Center     Atomic      Atomic             Coordinates (Angstroms)
 Number     Number       Type             X           Y           Z
 ---------------------------------------------------------------------
      1          1           0        3.943087   -1.399771   -0.309244
      2          6           0        3.010925   -1.214793   -0.816812
      3          1           0        2.535562   -2.160223   -1.059246
      4          1           0        3.202254   -0.685628   -1.744935
      5          6           0        2.127865   -0.390162    0.094523
      6          8           0        2.479995   -0.041392    1.192202
      7          7           0        0.916336   -0.080282   -0.405378
      8          1           0        0.680852   -0.379561   -1.323712
      9          6           0       -0.035126    0.752064    0.309490
     10          1           0        0.100844    0.547314    1.361928
     11          6           0        0.205145    2.246246    0.064143
     12          1           0        0.096175    2.482279   -0.984255
     13          1           0       -0.501895    2.848674    0.619422
     14          1           0        1.207440    2.502500    0.385624
     15          6           0       -1.449285    0.310312   -0.097015
     16          8           0       -2.132197    0.957117   -0.850135
     17          7           0       -1.857405   -0.847040    0.449922
     18          1           0       -1.236567   -1.320297    1.064013
     19          6           0       -3.153756   -1.450133    0.202063
     20          1           0       -3.691860   -0.811904   -0.475270
     21          1           0       -3.047657   -2.432868   -0.243607
     22          1           0       -3.717749   -1.546257    1.122584
 ---------------------------------------------------------------------
 Rotational constants (GHZ):      2.1216050      0.7497134      0.6395995
 Standard basis: 6-31G(d) (6D, 7F)
 There are   174 symmetry adapted basis functions of A   symmetry.
 Integral buffers will be    131072 words long.
 Raffenetti 1 integral format.
 Two-electron integral symmetry is turned on.
   174 basis functions,   328 primitive gaussians,   174 cartesian basis functions
    39 alpha electrons       39 beta electrons
       nuclear repulsion energy       553.9762895337 Hartrees.
 NAtoms=   22 NActive=   22 NUniq=   22 SFac= 7.50D-01 NAtFMM=   80 NAOKFM=F Big=F
 One-electron integrals computed using PRISM.
 NBasis=   174 RedAO= T  NBF=   174
 NBsUse=   174 1.00D-06 NBFU=   174
 Initial guess read from the read-write file.
 B after Tr=     0.000000    0.000000    0.000000
         Rot=    1.000000    0.000000    0.000000    0.000000 Ang=   0.00 deg.
 Initial guess orbital symmetries:
       Occupied  (A) (A) (A) (A) (A) (A) (A) (A) (A) (A) (A) (A)
                 (A) (A) (A) (A) (A) (A) (A) (A) (A) (A) (A) (A)
                 (A) (A) (A) (A) (A) (A) (A) (A) (A) (A) (A) (A)
                 (A) (A) (A)
       Virtual   (A) (A) (A) (A) (A) (A) (A) (A) (A) (A) (A) (A)
                 (A) (A) (A) (A) (A) (A) (A) (A) (A) (A) (A) (A)
                 (A) (A) (A) (A) (A) (A) (A) (A) (A) (A) (A) (A)
                 (A) (A) (A) (A) (A) (A) (A) (A) (A) (A) (A) (A)
                 (A) (A) (A) (A) (A) (A) (A) (A) (A) (A) (A) (A)
                 (A) (A) (A) (A) (A) (A) (A) (A) (A) (A) (A) (A)
                 (A) (A) (A) (A) (A) (A) (A) (A) (A) (A) (A) (A)
                 (A) (A) (A) (A) (A) (A) (A) (A) (A) (A) (A) (A)
                 (A) (A) (A) (A) (A) (A) (A) (A) (A) (A) (A) (A)
                 (A) (A) (A) (A) (A) (A) (A) (A) (A) (A) (A) (A)
                 (A) (A) (A) (A) (A) (A) (A) (A) (A) (A) (A) (A)
                 (A) (A) (A)
 Harris functional with IExCor=  205 diagonalized for initial guess.
 ExpMin= 1.61D-01 ExpMax= 5.48D+03 ExpMxC= 8.25D+02 IAcc=1 IRadAn=         1 AccDes= 0.00D+00
 HarFok:  IExCor=  205 AccDes= 0.00D+00 IRadAn=         1 IDoV= 1
 ScaDFX=  1.000000  1.000000  1.000000  1.000000
 FoFCou: FMM=F IPFlag=           0 FMFlag=      100000 FMFlg1=           0
         NFxFlg=           0 DoJE=T BraDBF=F KetDBF=T FulRan=T
         Omega=  0.000000  0.000000  1.000000  0.000000  0.000000 ICntrl=     500 IOpCl=  0
         NMat0=    1 NMatS0=    1 NMatT0=    0 NMatD0=    1 NMtDS0=    0 NMtDT0=    0
         I1Cent=           4 NGrid=           0.
 Petite list used in FoFCou.
 Requested convergence on RMS density matrix=1.00D-08 within 128 cycles.
 Requested convergence on MAX density matrix=1.00D-06.
 Requested convergence on             energy=1.00D-06.
 No special actions if energy rises.
 Integral accuracy reduced to 1.0D-05 until final iterations.
 Initial convergence to 1.0D-05 achieved.  Increase integral accuracy.
 SCF Done:  E(RHF) =  -492.854205127     A.U. after   14 cycles
             Convg  =    0.5600D-08             -V/T =  2.0015
 Calling FoFJK, ICntrl=      2127 FMM=F ISym2X=0 I1Cent= 0 IOpClX= 0 NMat=1 NMatS=1 NMatT=0.
 ***** Axes restored to original set *****
 -------------------------------------------------------------------
 Center     Atomic                   Forces (Hartrees/Bohr)
 Number     Number              X              Y              Z
 -------------------------------------------------------------------
      1        1          -0.001034618   -0.001510916    0.000606279
      2        6           0.000545343    0.001103472   -0.000301400
      3        1          -0.000039744   -0.000185805   -0.000171638
      4        1          -0.000080020   -0.000037839    0.000166200
      5        6           0.003924075   -0.009702852    0.006102723
      6        8          -0.004368143    0.002362410   -0.002371416
      7        7          -0.001015703    0.008712907   -0.000200385
      8        1          -0.000496805   -0.001052377   -0.002682280
      9        6           0.004028029   -0.000470408   -0.004566393
     10        1          -0.000136605   -0.000278785    0.000648451
     11        6          -0.003494643    0.002363460    0.003787121
     12        1          -0.000739805    0.000773118   -0.001433984
     13        1           0.000987708    0.000923666    0.000471638
     14        1          -0.000283348    0.000211466    0.000578400
     15        6           0.005671240    0.003943380   -0.009993871
     16        8          -0.001498365   -0.005639852    0.003292738
     17        7          -0.002645690    0.002792808    0.008172692
     18        1          -0.000134020   -0.001217181    0.000761269
     19        6           0.000456872   -0.003680573   -0.001245232
     20        1           0.000155374    0.001676103   -0.001527259
     21        1          -0.000337314   -0.000602978   -0.000167722
     22        1           0.000536183   -0.000483223    0.000074068
 -------------------------------------------------------------------
 Cartesian Forces:  Max     0.009993871 RMS     0.003117314

 GradGradGradGradGradGradGradGradGradGradGradGradGradGradGradGradGradGrad
 Berny optimization.
 Using GEDIIS/GDIIS optimizer.
 Internal  Forces:  Max     0.008986500 RMS     0.001821863
 Search for a local minimum.
 Step number   2 out of a maximum of  108
 All quantities printed in internal units (Hartrees-Bohrs-Radians)
 Mixed Optimization -- RFO/linear search
 Update second derivatives using D2CorX and points    1    2
 DE= -7.01D-03 DEPred=-7.69D-03 R= 9.11D-01
 SS=  1.41D+00  RLast= 2.93D-01 DXNew= 5.0454D-01 8.7855D-01
 Trust test= 9.11D-01 RLast= 2.93D-01 DXMaxT set to 5.05D-01
 Use linear search instead of GDIIS.
     Eigenvalues ---    0.00369   0.00435   0.00983   0.01044   0.01241
     Eigenvalues ---    0.01403   0.01650   0.02551   0.02554   0.03580
     Eigenvalues ---    0.05062   0.05633   0.05774   0.06047   0.07144
     Eigenvalues ---    0.07334   0.07443   0.07757   0.15319   0.15863
     Eigenvalues ---    0.15979   0.16000   0.16000   0.16000   0.16000
     Eigenvalues ---    0.16000   0.16000   0.16000   0.16000   0.16418
     Eigenvalues ---    0.17425   0.21982   0.22361   0.24331   0.25000
     Eigenvalues ---    0.25000   0.25557   0.29331   0.30003   0.31178
     Eigenvalues ---    0.34738   0.34809   0.34811   0.34812   0.34814
     Eigenvalues ---    0.34816   0.34818   0.34819   0.34822   0.35960
     Eigenvalues ---    0.38334   0.38766   0.45971   0.46469   0.56323
     Eigenvalues ---    0.58346   0.84737   0.915131000.000001000.00000
     Eigenvalues --- 1000.000001000.000001000.000001000.000001000.00000
     Eigenvalues --- 1000.000001000.000001000.000001000.000001000.00000
     Eigenvalues --- 1000.000001000.000001000.000001000.000001000.00000
     Eigenvalues --- 1000.000001000.000001000.000001000.000001000.00000
     Eigenvalues --- 1000.000001000.000001000.000001000.000001000.00000
     Eigenvalues --- 1000.000001000.000001000.000001000.000001000.00000
     Eigenvalues --- 1000.000001000.000001000.000001000.000001000.00000
     Eigenvalues --- 1000.000001000.000001000.00000
 RFO step:  Lambda=-1.34281930D-03 EMin= 3.68854065D-03
 Quartic linear search produced a step of -0.00591.
 Iteration  1 RMS(Cart)=  0.03201106 RMS(Int)=  0.00069979
 Iteration  2 RMS(Cart)=  0.00094981 RMS(Int)=  0.00018394
 Iteration  3 RMS(Cart)=  0.00000069 RMS(Int)=  0.00018394
 Iteration  1 RMS(Cart)=  0.00004345 RMS(Int)=  0.00001189
 Iteration  2 RMS(Cart)=  0.00002386 RMS(Int)=  0.00001324
 Iteration  3 RMS(Cart)=  0.00001326 RMS(Int)=  0.00001502
 Iteration  4 RMS(Cart)=  0.00000748 RMS(Int)=  0.00001630
 Iteration  5 RMS(Cart)=  0.00000430 RMS(Int)=  0.00001712
 Iteration  6 RMS(Cart)=  0.00000253 RMS(Int)=  0.00001764
 Iteration  7 RMS(Cart)=  0.00000152 RMS(Int)=  0.00001797
 Iteration  8 RMS(Cart)=  0.00000094 RMS(Int)=  0.00001818
 Variable       Old X    -DE/DX   Delta X   Delta X   Delta X     New X
                                 (Linear)    (Quad)   (Total)
    R1        2.03597   0.00166   0.00014   0.00263   0.00277   2.03874
    R2        2.05153  -0.00017   0.00005  -0.00121  -0.00116   2.05038
    R3        2.05106  -0.00013   0.00005  -0.00113  -0.00108   2.04998
    R4        2.85989   0.00077   0.00019  -0.00017   0.00002   2.85990
    R5        2.27595  -0.00547   0.00027  -0.01000  -0.00973   2.26622
    R6        2.54498   0.00899  -0.00013   0.01720   0.01706   2.56205
    R7        1.87869   0.00116   0.00018  -0.00013   0.00004   1.87874
    R8        2.74441   0.00250  -0.00004   0.00698   0.00694   2.75135
    R9        2.04234   0.00055   0.00010   0.00004   0.00014   2.04248
   R10        2.89721  -0.00591  -0.00009  -0.01820  -0.01829   2.87891
   R11        2.90320  -0.00347  -0.00016  -0.00898  -0.00914   2.89406
   R12        2.04119   0.00175   0.00011   0.00333   0.00344   2.04463
   R13        2.04507   0.00128   0.00009   0.00234   0.00243   2.04749
   R14        2.04720  -0.00021   0.00007  -0.00168  -0.00160   2.04560
   R15        2.27703  -0.00599   0.00027  -0.01049  -0.01022   2.26682
   R16        2.53897   0.00526  -0.00010   0.01035   0.01026   2.54922
   R17        1.87694   0.00136   0.00019   0.00014   0.00032   1.87727
   R18        2.74217  -0.00358  -0.00002  -0.00888  -0.00890   2.73327
   R19        2.03150   0.00214   0.00017   0.00362   0.00379   2.03528
   R20        2.04898   0.00016   0.00006  -0.00049  -0.00043   2.04855
   R21        2.04814   0.00022   0.00007  -0.00041  -0.00034   2.04780
    A1        1.91191  -0.00058   0.00000  -0.00261  -0.00263   1.90928
    A2        1.91139  -0.00054   0.00000  -0.00255  -0.00256   1.90883
    A3        1.89094   0.00142   0.00028   0.00539   0.00566   1.89660
    A4        1.88684  -0.00021   0.00014  -0.00495  -0.00481   1.88204
    A5        1.93211  -0.00002  -0.00021   0.00264   0.00243   1.93454
    A6        1.93065  -0.00010  -0.00020   0.00195   0.00174   1.93239
    A7        2.13652  -0.00035  -0.00020   0.00153   0.00133   2.13784
    A8        2.01171  -0.00061   0.00014  -0.00448  -0.00435   2.00736
    A9        2.13494   0.00096   0.00006   0.00290   0.00295   2.13789
   A10        2.07910  -0.00043   0.00009  -0.00549  -0.00610   2.07301
   A11        2.13949   0.00023  -0.00007   0.00115   0.00038   2.13987
   A12        2.06240   0.00015  -0.00001   0.00001  -0.00071   2.06169
   A13        1.86328  -0.00076   0.00028  -0.00202  -0.00183   1.86146
   A14        1.95748   0.00131  -0.00011   0.00576   0.00564   1.96313
   A15        1.88390   0.00059   0.00033  -0.00551  -0.00520   1.87870
   A16        1.89732   0.00093  -0.00001   0.01028   0.01028   1.90760
   A17        1.89547   0.00038   0.00000   0.00343   0.00348   1.89895
   A18        1.96292  -0.00240  -0.00048  -0.01155  -0.01201   1.95091
   A19        1.93102   0.00012  -0.00012   0.00294   0.00283   1.93385
   A20        1.93695  -0.00083  -0.00015  -0.00374  -0.00390   1.93304
   A21        1.90502  -0.00070   0.00004  -0.00445  -0.00442   1.90060
   A22        1.88648   0.00028   0.00014  -0.00111  -0.00097   1.88551
   A23        1.90676   0.00052   0.00002   0.00468   0.00470   1.91146
   A24        1.89708   0.00066   0.00008   0.00187   0.00193   1.89901
   A25        2.13261  -0.00172  -0.00017  -0.00423  -0.00504   2.12758
   A26        2.00378  -0.00253   0.00018  -0.01278  -0.01325   1.99054
   A27        2.14679   0.00425  -0.00001   0.01692   0.01622   2.16301
   A28        2.06265   0.00069   0.00019  -0.00041  -0.00023   2.06241
   A29        2.16499  -0.00226  -0.00022  -0.00686  -0.00709   2.15790
   A30        2.05554   0.00157   0.00003   0.00729   0.00731   2.06286
   A31        1.88394   0.00142   0.00016   0.00711   0.00727   1.89121
   A32        1.93851  -0.00098  -0.00016  -0.00402  -0.00418   1.93433
   A33        1.93549  -0.00100  -0.00014  -0.00446  -0.00461   1.93089
   A34        1.90508  -0.00010   0.00003  -0.00024  -0.00021   1.90488
   A35        1.90425  -0.00011   0.00003  -0.00051  -0.00047   1.90378
   A36        1.89614   0.00079   0.00008   0.00219   0.00226   1.89840
    D1       -0.00325  -0.00001   0.00002   0.00440   0.00442   0.00116
    D2       -3.13810   0.00008  -0.00002   0.01160   0.01158  -3.12653
    D3        2.09352   0.00017   0.00006   0.00618   0.00625   2.09977
    D4       -1.04133   0.00026   0.00002   0.01338   0.01340  -1.02792
    D5       -2.09851  -0.00017  -0.00003   0.00297   0.00294  -2.09557
    D6        1.04982  -0.00008  -0.00007   0.01018   0.01010   1.05992
    D7       -0.02502  -0.00043   0.00015  -0.03759  -0.03736  -0.06238
    D8       -3.09417   0.00037  -0.00028   0.03402   0.03366  -3.06051
    D9        3.12331  -0.00034   0.00011  -0.03039  -0.03020   3.09311
   D10        0.05416   0.00046  -0.00032   0.04122   0.04082   0.09498
   D11       -0.58307   0.00004   0.00035   0.00021   0.00053  -0.58254
   D12        1.49329   0.00144   0.00046   0.01477   0.01520   1.50849
   D13       -2.61802  -0.00031   0.00000   0.00000   0.00000  -2.61801
   D14        2.63031   0.00086  -0.00007   0.07138   0.07132   2.70163
   D15       -1.57651   0.00226   0.00003   0.08594   0.08599  -1.49052
   D16        0.59536   0.00051  -0.00042   0.07117   0.07080   0.66616
   D17        1.06575   0.00001  -0.00011   0.00323   0.00311   1.06886
   D18       -3.12335  -0.00010  -0.00011   0.00132   0.00119  -3.12216
   D19       -1.03295  -0.00025  -0.00008  -0.00154  -0.00163  -1.03458
   D20        3.12197   0.00045   0.00017   0.01075   0.01095   3.13291
   D21       -1.06713   0.00034   0.00017   0.00884   0.00903  -1.05810
   D22        1.02327   0.00019   0.00019   0.00598   0.00621   1.02948
   D23       -1.06162   0.00004  -0.00011   0.01469   0.01457  -1.04705
   D24        1.03247  -0.00007  -0.00011   0.01278   0.01265   1.04512
   D25        3.12287  -0.00022  -0.00009   0.00992   0.00983   3.13270
   D26       -1.83109   0.00034  -0.00001   0.06518   0.06486  -1.76622
   D27        1.30895  -0.00070   0.00000   0.00000   0.00001   1.30896
   D28        2.43820   0.00072  -0.00054   0.06867   0.06795   2.50615
   D29       -0.70495  -0.00031  -0.00053   0.00349   0.00310  -0.70185
   D30        0.33752   0.00081  -0.00025   0.06077   0.06036   0.39788
   D31       -2.80562  -0.00022  -0.00024  -0.00441  -0.00450  -2.81012
   D32        0.00470   0.00051  -0.00003   0.03132   0.03161   0.03631
   D33       -3.13964   0.00066  -0.00001   0.03958   0.03986  -3.09979
   D34       -3.13846  -0.00054  -0.00002  -0.03447  -0.03478   3.10995
   D35        0.00038  -0.00038   0.00000  -0.02622  -0.02653  -0.02615
   D36        0.00035  -0.00010   0.00000  -0.00578  -0.00579  -0.00544
   D37        2.08818   0.00008   0.00004  -0.00400  -0.00397   2.08421
   D38       -2.08469  -0.00026  -0.00006  -0.00696  -0.00701  -2.09170
   D39        3.13920   0.00005   0.00001   0.00243   0.00245  -3.14153
   D40       -1.05615   0.00023   0.00005   0.00422   0.00427  -1.05188
   D41        1.05416  -0.00011  -0.00004   0.00126   0.00123   1.05539
         Item               Value     Threshold  Converged?
 Maximum Force            0.008986     0.000450     NO 
 RMS     Force            0.001836     0.000300     NO 
 Maximum Displacement     0.120541     0.001800     NO 
 RMS     Displacement     0.032070     0.001200     NO 
 Predicted change in Energy=-7.004005D-04
 GradGradGradGradGradGradGradGradGradGradGradGradGradGradGradGradGradGrad

                          Input orientation:                          
 ---------------------------------------------------------------------
 Center     Atomic      Atomic             Coordinates (Angstroms)
 Number     Number       Type             X           Y           Z
 ---------------------------------------------------------------------
      1          1           0        1.880296    1.362507    1.015443
      2          6           0        1.946584    2.304507    0.493746
      3          1           0        1.237874    3.004873    0.923248
      4          1           0        1.679896    2.158583   -0.547590
      5          6           0        3.361548    2.827323    0.615844
      6          8           0        4.218021    2.235074    1.210703
      7          7           0        3.584515    4.023121    0.017106
      8          1           0        2.846047    4.446036   -0.496909
      9          6           0        4.905509    4.631306   -0.052799
     10          1           0        5.423469    4.352012    0.853794
     11          6           0        5.704796    4.151173   -1.257593
     12          1           0        5.202683    4.410982   -2.180114
     13          1           0        6.688351    4.605447   -1.271636
     14          1           0        5.817723    3.076268   -1.197599
     15          6           0        4.716716    6.151044   -0.065194
     16          8           0        4.788198    6.790467   -1.077589
     17          7           0        4.388112    6.673995    1.134106
     18          1           0        4.327708    6.060039    1.912739
     19          6           0        4.112514    8.077717    1.347745
     20          1           0        4.222746    8.591940    0.407848
     21          1           0        3.102601    8.220740    1.714869
     22          1           0        4.807194    8.498346    2.065233
 ---------------------------------------------------------------------
                    Distance matrix (angstroms):
                    1          2          3          4          5
     1  H    0.000000
     2  C    1.078854   0.000000
     3  H    1.765947   1.085013   0.000000
     4  H    1.765493   1.084803   1.753554   0.000000
     5  C    2.121195   1.513396   2.153139   2.151451   0.000000
     6  O    2.502889   2.382913   3.091358   3.088611   1.199234
     7  N    3.313594   2.421495   2.713788   2.724510   1.355778
     8  H    3.567637   2.525188   2.584573   2.568057   2.030810
     9  C    4.580186   3.803675   4.129104   4.094356   2.466831
    10  H    4.638679   4.051005   4.397591   4.559533   2.575426
    11  C    5.250728   4.538890   5.101320   4.546904   3.279201
    12  H    5.526576   4.710515   5.227591   4.488704   3.703396
    13  H    6.234162   5.558350   6.089914   5.621032   4.218048
    14  H    4.830927   4.294413   5.047584   4.287921   3.063225
    15  C    5.669492   4.773038   4.793511   5.039318   3.653412
    16  O    6.503801   5.537843   5.562272   5.603284   4.539776
    17  N    5.874957   5.046141   4.840548   5.527338   4.014886
    18  H    5.372315   4.667688   4.456479   5.318410   3.614673
    19  C    7.084297   6.224992   5.846153   6.674285   5.354090
    20  H    7.623709   6.687308   6.355345   6.983339   5.832301
    21  H    7.001327   6.150555   5.595457   6.625145   5.510341
    22  H    7.783893   7.001164   6.649994   7.536540   6.029190
                    6          7          8          9         10
     6  O    0.000000
     7  N    2.241231   0.000000
     8  H    3.112330   0.994185   0.000000
     9  C    2.794818   1.455954   2.114933   0.000000
    10  H    2.462096   2.046940   2.911415   1.080832   0.000000
    11  C    3.460408   2.477266   2.972882   1.523455   2.139494
    12  H    4.147503   2.756208   2.896229   2.159241   3.042502
    13  H    4.228854   3.410829   3.922870   2.159804   2.486284
    14  H    3.011076   2.712795   3.346354   2.135613   2.447688
    15  C    4.148666   2.411786   2.567651   1.531470   2.140223
    16  O    5.129619   3.210205   3.099274   2.392893   3.174881
    17  N    4.442838   2.986735   3.162589   2.418475   2.557761
    18  H    3.890404   2.880068   3.256797   2.497693   2.288976
    19  C    5.845203   4.299899   4.265653   3.803698   3.980386
    20  H    6.407366   4.629700   4.461211   4.045366   4.429174
    21  H    6.109545   4.553531   4.382485   4.388526   4.592921
    22  H    6.348695   5.071233   5.179951   4.410185   4.363424
                   11         12         13         14         15
    11  C    0.000000
    12  H    1.081972   0.000000
    13  H    1.083486   1.752243   0.000000
    14  H    1.082485   1.767788   1.761211   0.000000
    15  C    2.529349   2.781523   2.780596   3.456705   0.000000
    16  O    2.799720   2.655054   2.902162   3.856113   1.199548
    17  N    3.717326   4.094973   3.918875   4.519323   1.348991
    18  H    3.948563   4.498490   4.222406   4.560399   2.017877
    19  C    4.974023   5.203769   5.054973   5.865238   2.464453
    20  H    4.968962   5.013804   4.979156   5.961883   2.534905
    21  H    5.671713   5.839134   5.903148   6.505379   3.171376
    22  H    5.544798   5.906431   5.461512   6.408290   3.171235
                   16         17         18         19         20
    16  O    0.000000
    17  N    2.250606   0.000000
    18  H    3.112497   0.993408   0.000000
    19  C    2.827686   1.446387   2.106313   0.000000
[...]
    13  H    6.280533   5.497337   5.909931   5.531428   4.214018
    14  H    4.926754   4.203599   4.826477   4.068517   3.071604
    15  C    5.625374   4.804832   4.753252   5.252386   3.653098
    16  O    6.505741   5.586693   5.458753   5.877539   4.565615
    17  N    5.803621   5.139752   4.979485   5.811389   4.029152
    18  H    5.199821   4.681863   4.578487   5.478304   3.568601
    19  C    6.965718   6.298887   5.955209   6.989085   5.346166
    20  H    7.795713   7.065784   6.774036   7.662154   6.032923
    21  H    6.933373   6.222992   5.707543   6.889865   5.497786
    22  H    7.313924   6.777860   6.443910   7.573864   5.822486
                    6          7          8          9         10
     6  O    0.000000
     7  N    2.248702   0.000000
     8  H    3.103420   0.997106   0.000000
     9  C    2.794524   1.456723   2.098056   0.000000
    10  H    2.422011   2.040771   2.923558   1.080287   0.000000
    11  C    3.515804   2.482078   2.832385   1.523729   2.142581
    12  H    4.216518   2.764095   2.720854   2.161404   3.046197
    13  H    4.272333   3.413999   3.810946   2.158951   2.492350
    14  H    3.109060   2.729958   3.181192   2.144532   2.457970
    15  C    4.122533   2.410322   2.648439   1.531808   2.142427
    16  O    5.134801   3.236359   3.173310   2.397331   3.170617
    17  N    4.394677   2.996944   3.341726   2.429597   2.572644
    18  H    3.808962   2.822320   3.353140   2.519171   2.364364
    19  C    5.787440   4.273679   4.409236   3.798105   4.005882
    20  H    6.440294   4.867565   4.973646   4.138976   4.394631
    21  H    6.127772   4.392841   4.302544   4.212068   4.606899
    22  H    6.131461   4.920549   5.172680   4.489924   4.473086
                   11         12         13         14         15
    11  C    0.000000
    12  H    1.082844   0.000000
    13  H    1.083860   1.750224   0.000000
    14  H    1.083913   1.768122   1.760510   0.000000
    15  C    2.528607   2.781452   2.776108   3.462537   0.000000
    16  O    2.793790   2.660859   2.872116   3.856572   1.200968
    17  N    3.723349   4.098940   3.918172   4.536558   1.349163
    18  H    3.985020   4.504605   4.289963   4.609918   2.017437
    19  C    4.959084   5.166862   5.047454   5.864322   2.441996
    20  H    5.044096   5.194266   4.933286   6.034353   2.664080
    21  H    5.359197   5.383580   5.597095   6.266347   2.870178
    22  H    5.751591   6.082821   5.806447   6.583410   3.304546
                   16         17         18         19         20
    16  O    0.000000
    17  N    2.242201   0.000000
    18  H    3.103337   0.994197   0.000000
    19  C    2.774348   1.446695   2.110081   0.000000
    20  H    2.609524   2.075174   2.920015   1.079867   0.000000
    21  H    3.021055   2.109835   2.688822   1.085433   1.756089
    22  H    3.795020   2.066980   2.324671   1.081953   1.759890
                   21         22
    21  H    0.000000
    22  H    1.763960   0.000000
 Stoichiometry    C6H12N2O2
 Framework group  C1[X(C6H12N2O2)]
 Deg. of freedom    60
 Full point group                 C1      NOp   1
 Largest Abelian subgroup         C1      NOp   1
 Largest concise Abelian subgroup C1      NOp   1
                         Standard orientation:                         
 ---------------------------------------------------------------------
 Center     Atomic      Atomic             Coordinates (Angstroms)
 Number     Number       Type             X           Y           Z
 ---------------------------------------------------------------------
      1          1           0        3.822860   -1.600482   -0.363647
      2          6           0        3.080281   -1.024631   -0.896466
      3          1           0        2.576335   -1.654745   -1.620404
      4          1           0        3.583829   -0.225630   -1.432580
      5          6           0        2.117444   -0.420857    0.102786
      6          8           0        2.410332   -0.250034    1.252642
      7          7           0        0.893906   -0.092674   -0.400340
      8          1           0        0.795632   -0.086313   -1.392571
      9          6           0       -0.040526    0.739671    0.345367
     10          1           0        0.112357    0.502997    1.388263
     11          6           0        0.188992    2.229286    0.121493
     12          1           0        0.053721    2.488629   -0.921097
     13          1           0       -0.513840    2.815705    0.701918
     14          1           0        1.194820    2.490631    0.429513
     15          6           0       -1.456529    0.317856   -0.058911
     16          8           0       -2.133889    0.978849   -0.798232
     17          7           0       -1.871774   -0.852242    0.468996
     18          1           0       -1.204740   -1.410988    0.949928
     19          6           0       -3.127167   -1.457716    0.081289
     20          1           0       -3.908427   -0.712386    0.096394
     21          1           0       -3.082643   -1.886999   -0.914652
     22          1           0       -3.371344   -2.238183    0.789718
 ---------------------------------------------------------------------
 Rotational constants (GHZ):      2.1430039      0.7472397      0.6450431

 **********************************************************************

            Population analysis using the SCF density.

 **********************************************************************

 Orbital symmetries:
       Occupied  (A) (A) (A) (A) (A) (A) (A) (A) (A) (A) (A) (A)
                 (A) (A) (A) (A) (A) (A) (A) (A) (A) (A) (A) (A)
                 (A) (A) (A) (A) (A) (A) (A) (A) (A) (A) (A) (A)
                 (A) (A) (A)
       Virtual   (A) (A) (A) (A) (A) (A) (A) (A) (A) (A) (A) (A)
                 (A) (A) (A) (A) (A) (A) (A) (A) (A) (A) (A) (A)
                 (A) (A) (A) (A) (A) (A) (A) (A) (A) (A) (A) (A)
                 (A) (A) (A) (A) (A) (A) (A) (A) (A) (A) (A) (A)
                 (A) (A) (A) (A) (A) (A) (A) (A) (A) (A) (A) (A)
                 (A) (A) (A) (A) (A) (A) (A) (A) (A) (A) (A) (A)
                 (A) (A) (A) (A) (A) (A) (A) (A) (A) (A) (A) (A)
                 (A) (A) (A) (A) (A) (A) (A) (A) (A) (A) (A) (A)
                 (A) (A) (A) (A) (A) (A) (A) (A) (A) (A) (A) (A)
                 (A) (A) (A) (A) (A) (A) (A) (A) (A) (A) (A) (A)
                 (A) (A) (A) (A) (A) (A) (A) (A) (A) (A) (A) (A)
                 (A) (A) (A)
 The electronic state is 1-A.
 Alpha  occ. eigenvalues --  -20.53228 -20.52851 -15.59450 -15.58631 -11.35693
 Alpha  occ. eigenvalues --  -11.34609 -11.27845 -11.25933 -11.23958 -11.21516
 Alpha  occ. eigenvalues --   -1.40176  -1.39479  -1.24955  -1.23034  -1.05561
 Alpha  occ. eigenvalues --   -0.99599  -0.96426  -0.87695  -0.79991  -0.78966
 Alpha  occ. eigenvalues --   -0.73143  -0.67664  -0.65778  -0.65264  -0.62799
 Alpha  occ. eigenvalues --   -0.62133  -0.60234  -0.59123  -0.57955  -0.56509
 Alpha  occ. eigenvalues --   -0.55407  -0.53284  -0.52783  -0.51972  -0.50737
 Alpha  occ. eigenvalues --   -0.42975  -0.42712  -0.39814  -0.38713
 Alpha virt. eigenvalues --    0.19033   0.19892   0.21881   0.22982   0.26450
 Alpha virt. eigenvalues --    0.26960   0.27593   0.29987   0.31019   0.31911
 Alpha virt. eigenvalues --    0.32514   0.33002   0.33709   0.34791   0.37467
 Alpha virt. eigenvalues --    0.40007   0.41313   0.43660   0.44854   0.50239
 Alpha virt. eigenvalues --    0.52400   0.57084   0.61553   0.71335   0.72047
 Alpha virt. eigenvalues --    0.73474   0.74844   0.75582   0.76852   0.79185
 Alpha virt. eigenvalues --    0.80068   0.83094   0.84504   0.86724   0.88010
 Alpha virt. eigenvalues --    0.88698   0.96413   0.96941   0.98356   0.99391
 Alpha virt. eigenvalues --    1.00903   1.02869   1.03645   1.08534   1.08924
 Alpha virt. eigenvalues --    1.09082   1.11900   1.13004   1.15047   1.16317
 Alpha virt. eigenvalues --    1.16968   1.18109   1.18933   1.19385   1.19662
 Alpha virt. eigenvalues --    1.21450   1.22087   1.22830   1.24179   1.25119
 Alpha virt. eigenvalues --    1.26907   1.33187   1.35444   1.37801   1.41416
 Alpha virt. eigenvalues --    1.44155   1.49996   1.54445   1.54825   1.63136
 Alpha virt. eigenvalues --    1.65900   1.67348   1.70908   1.71713   1.75527
 Alpha virt. eigenvalues --    1.76988   1.82237   1.91066   1.94738   1.96694
 Alpha virt. eigenvalues --    1.99419   2.03606   2.07151   2.10335   2.12997
 Alpha virt. eigenvalues --    2.14850   2.16067   2.17669   2.19168   2.21201
 Alpha virt. eigenvalues --    2.23064   2.27137   2.28867   2.29175   2.33520
 Alpha virt. eigenvalues --    2.36883   2.38519   2.41486   2.48324   2.49263
 Alpha virt. eigenvalues --    2.51518   2.54661   2.57167   2.61147   2.62103
 Alpha virt. eigenvalues --    2.67926   2.69403   2.69974   2.76210   2.78320
 Alpha virt. eigenvalues --    2.79451   2.81931   2.89076   2.92412   2.97790
 Alpha virt. eigenvalues --    3.02208   3.02964   3.10890   3.12391   3.28239
 Alpha virt. eigenvalues --    3.30688   3.37044   3.40447   3.53511   3.55293
 Alpha virt. eigenvalues --    4.37789   4.40021   4.48269   4.53331   4.62137
 Alpha virt. eigenvalues --    4.68846   4.71778   4.85219   4.91249   5.03581
          Condensed to atoms (all electrons):
              1          2          3          4          5          6
     1  H    0.461364   0.384202  -0.020655  -0.017352  -0.031792   0.003217
     2  C    0.384202   5.266370   0.375953   0.376104   0.373358  -0.070972
     3  H   -0.020655   0.375953   0.516848  -0.024295  -0.036394   0.002106
     4  H   -0.017352   0.376104  -0.024295   0.492256  -0.027585   0.000251
     5  C   -0.031792   0.373358  -0.036394  -0.027585   4.144985   0.615323
     6  O    0.003217  -0.070972   0.002106   0.000251   0.615323   8.138876
     7  N    0.004144  -0.121004   0.005190   0.000755   0.259241  -0.106973
     8  H    0.000063  -0.000004   0.000246   0.000064  -0.019743   0.002319
     9  C   -0.000105   0.004927   0.000011  -0.000287  -0.023168   0.005517
    10  H    0.000000   0.000451  -0.000027  -0.000013  -0.002678   0.008048
    11  C    0.000000  -0.000291  -0.000001   0.000100  -0.001381  -0.000989
    12  H    0.000000  -0.000009   0.000000  -0.000004   0.000003  -0.000012
    13  H    0.000000   0.000004   0.000000  -0.000001  -0.000034  -0.000029
    14  H    0.000001  -0.000005  -0.000001  -0.000015   0.001984   0.001635
    15  C    0.000002  -0.000080  -0.000006  -0.000003   0.002540   0.000213
    16  O    0.000000   0.000000   0.000000   0.000000  -0.000073  -0.000001
    17  N    0.000000  -0.000005   0.000000   0.000000   0.000062  -0.000001
    18  H   -0.000001   0.000007  -0.000001   0.000000   0.000350   0.000014
    19  C    0.000000   0.000000   0.000000   0.000000   0.000000   0.000000
    20  H    0.000000   0.000000   0.000000   0.000000   0.000000   0.000000
    21  H    0.000000   0.000000   0.000000   0.000000   0.000000   0.000000
    22  H    0.000000   0.000000   0.000000   0.000000   0.000000   0.000000
              7          8          9         10         11         12
     1  H    0.004144   0.000063  -0.000105   0.000000   0.000000   0.000000
     2  C   -0.121004  -0.000004   0.004927   0.000451  -0.000291  -0.000009
     3  H    0.005190   0.000246   0.000011  -0.000027  -0.000001   0.000000
     4  H    0.000755   0.000064  -0.000287  -0.000013   0.000100  -0.000004
     5  C    0.259241  -0.019743  -0.023168  -0.002678  -0.001381   0.000003
     6  O   -0.106973   0.002319   0.005517   0.008048  -0.000989  -0.000012
     7  N    7.425330   0.320215   0.170918  -0.039717  -0.064103  -0.001465
     8  H    0.320215   0.328917  -0.025181   0.003493   0.000957   0.002005
     9  C    0.170918  -0.025181   5.115298   0.406807   0.352430  -0.033397
    10  H   -0.039717   0.003493   0.406807   0.462229  -0.034257   0.003678
    11  C   -0.064103   0.000957   0.352430  -0.034257   5.094297   0.390015
    12  H   -0.001465   0.002005  -0.033397   0.003678   0.390015   0.511743
    13  H    0.004363  -0.000063  -0.035189  -0.000589   0.390088  -0.022311
    14  H   -0.003320  -0.000205  -0.037079  -0.003610   0.391248  -0.027287
    15  C   -0.051852  -0.003404   0.366715  -0.042199  -0.055125  -0.005834
    16  O   -0.000365   0.001466  -0.079008   0.001771   0.004607   0.003973
    17  N    0.003359   0.000582  -0.123933   0.003227   0.004138   0.000108
    18  H    0.002888  -0.000029  -0.001507   0.000294   0.000192  -0.000008
    19  C   -0.000311  -0.000024   0.004907  -0.000087  -0.000123  -0.000003
    20  H   -0.000011  -0.000001   0.000086  -0.000023   0.000004  -0.000001
    21  H    0.000068   0.000004  -0.000104   0.000008  -0.000001   0.000000
    22  H   -0.000005   0.000000   0.000000  -0.000016   0.000001   0.000000
             13         14         15         16         17         18
     1  H    0.000000   0.000001   0.000002   0.000000   0.000000  -0.000001
     2  C    0.000004  -0.000005  -0.000080   0.000000  -0.000005   0.000007
     3  H    0.000000  -0.000001  -0.000006   0.000000   0.000000  -0.000001
     4  H   -0.000001  -0.000015  -0.000003   0.000000   0.000000   0.000000
     5  C   -0.000034   0.001984   0.002540  -0.000073   0.000062   0.000350
     6  O   -0.000029   0.001635   0.000213  -0.000001  -0.000001   0.000014
     7  N    0.004363  -0.003320  -0.051852  -0.000365   0.003359   0.002888
     8  H   -0.000063  -0.000205  -0.003404   0.001466   0.000582  -0.000029
     9  C   -0.035189  -0.037079   0.366715  -0.079008  -0.123933  -0.001507
    10  H   -0.000589  -0.003610  -0.042199   0.001771   0.003227   0.000294
    11  C    0.390088   0.391248  -0.055125   0.004607   0.004138   0.000192
    12  H   -0.022311  -0.027287  -0.005834   0.003973   0.000108  -0.000008
    13  H    0.511173  -0.024309  -0.001490   0.000415  -0.000060  -0.000018
    14  H   -0.024309   0.516787   0.004861   0.000255  -0.000037  -0.000009
    15  C   -0.001490   0.004861   4.180464   0.606427   0.290844  -0.022590
    16  O    0.000415   0.000255   0.606427   8.158717  -0.104707   0.002454
    17  N   -0.000060  -0.000037   0.290844  -0.104707   7.306402   0.328942
    18  H   -0.000018  -0.000009  -0.022590   0.002454   0.328942   0.319956
    19  C   -0.000003   0.000001  -0.029344   0.007001   0.202431  -0.023490
    20  H    0.000000   0.000000  -0.003752   0.004086  -0.038252   0.002623
    21  H    0.000000   0.000000  -0.002250   0.001169  -0.048965   0.001034
    22  H    0.000000   0.000000   0.004039   0.000329  -0.038334  -0.004059
             19         20         21         22
     1  H    0.000000   0.000000   0.000000   0.000000
     2  C    0.000000   0.000000   0.000000   0.000000
     3  H    0.000000   0.000000   0.000000   0.000000
     4  H    0.000000   0.000000   0.000000   0.000000
     5  C    0.000000   0.000000   0.000000   0.000000
     6  O    0.000000   0.000000   0.000000   0.000000
     7  N   -0.000311  -0.000011   0.000068  -0.000005
     8  H   -0.000024  -0.000001   0.000004   0.000000
     9  C    0.004907   0.000086  -0.000104   0.000000
    10  H   -0.000087  -0.000023   0.000008  -0.000016
    11  C   -0.000123   0.000004  -0.000001   0.000001
    12  H   -0.000003  -0.000001   0.000000   0.000000
    13  H   -0.000003   0.000000   0.000000   0.000000
    14  H    0.000001   0.000000   0.000000   0.000000
    15  C   -0.029344  -0.003752  -0.002250   0.004039
    16  O    0.007001   0.004086   0.001169   0.000329
    17  N    0.202431  -0.038252  -0.048965  -0.038334
    18  H   -0.023490   0.002623   0.001034  -0.004059
    19  C    4.906553   0.403560   0.405049   0.398724
    20  H    0.403560   0.482271  -0.033027  -0.023821
    21  H    0.405049  -0.033027   0.538271  -0.033217
    22  H    0.398724  -0.023821  -0.033217   0.525307
 Mulliken atomic charges:
              1
     1  H    0.216911
     2  C   -0.589006
     3  H    0.181025
     4  H    0.200025
     5  C    0.745002
     6  O   -0.598544
     7  N   -0.807346
     8  H    0.388323
     9  C   -0.068657
    10  H    0.233212
    11  C   -0.471804
    12  H    0.178806
    13  H    0.178053
    14  H    0.179105
    15  C    0.761824
    16  O   -0.608516
    17  N   -0.785801
    18  H    0.392958
    19  C   -0.274841
    20  H    0.206259
    21  H    0.171961
    22  H    0.171050
 Sum of Mulliken atomic charges =   0.00000
 Mulliken charges with hydrogens summed into heavy atoms:
              1
     2  C    0.008955
     5  C    0.745002
     6  O   -0.598544
     7  N   -0.419022
     9  C    0.164555
    11  C    0.064160
    15  C    0.761824
    16  O   -0.608516
    17  N   -0.392843
    19  C    0.274430
 Sum of Mulliken charges with hydrogens summed into heavy atoms =   0.00000
 Electronic spatial extent (au):  <R**2>=           1870.7442
 Charge=              0.0000 electrons
 Dipole moment (field-independent basis, Debye):
    X=              0.4615    Y=             -2.5555    Z=             -1.4860  Tot=              2.9920
 Quadrupole moment (field-independent basis, Debye-Ang):
   XX=            -64.7541   YY=            -57.9880   ZZ=            -62.5620
   XY=              5.9774   XZ=            -12.8869   YZ=              2.1327
 Traceless Quadrupole moment (field-independent basis, Debye-Ang):
   XX=             -2.9861   YY=              3.7800   ZZ=             -0.7939
   XY=              5.9774   XZ=            -12.8869   YZ=              2.1327
 Octapole moment (field-independent basis, Debye-Ang**2):
  XXX=             -3.1240  YYY=             -7.2091  ZZZ=             -6.7491  XYY=              1.2027
  XXY=            -22.4608  XXZ=            -12.6607  XZZ=             -4.0756  YZZ=             -2.3619
  YYZ=              6.0816  XYZ=             -1.6799
 Hexadecapole moment (field-independent basis, Debye-Ang**3):
 XXXX=          -1599.5267 YYYY=           -543.3877 ZZZZ=           -222.7540 XXXY=             30.2481
 XXXZ=            -63.3150 YYYX=              5.6648 YYYZ=             -5.8717 ZZZX=             -7.7177
 ZZZY=             -1.9815 XXYY=           -349.9076 XXZZ=           -343.8102 YYZZ=           -124.4814
 XXYZ=             11.0221 YYXZ=             -6.8105 ZZXY=              7.0036
 N-N= 5.544398423101D+02 E-N=-2.264142625930D+03  KE= 4.921226033700D+02
 1\1\GINC-RODAN\FOpt\RHF\6-31G(d)\C6H12N2O2\STEBOSS\10-Feb-2017\0\\# HF
 /6-31G* Opt=(ModRedundant) geom=nocrowd\\Phi Psi fixed scan\\0,1\H,1.8
 284587796,1.5357163227,1.3188523781\C,1.9998401175,2.2447799078,0.5221
 208872\H,1.2192660568,2.9969677574,0.5252306288\H,1.9584177889,1.71499
 53164,-0.424977097\C,3.3764069121,2.8501609826,0.6914700078\O,4.245451
 7554,2.3034453359,1.3103360522\N,3.5510556359,4.0629170907,0.094303878
 4\H,2.8529431179,4.3566184257,-0.5542317812\C,4.8744346613,4.648014698
 7,-0.0741281955\H,5.452304549,4.3362546148,0.7837130783\C,5.5656445809
 ,4.1844179882,-1.3504735989\H,4.9970774606,4.4748186609,-2.2250881146\
 H,6.5509164892,4.6282235694,-1.4343075324\H,5.6724554521,3.1059263291,
 -1.3327567314\C,4.7123621073,6.1708188704,-0.0389963768\O,4.766277409,
 6.8425271789,-1.0330915776\N,4.493899678,6.6893665989,1.1872272164\H,4
 .316042524,6.0600030796,1.9360232596\C,4.1857118161,8.0902053536,1.375
 9023557\H,4.8754063029,8.6928091146,0.8037986226\H,3.1759320835,8.3319
 465044,1.0595630236\H,4.2927947218,8.3325662994,2.4249096166\\Version=
 EM64L-G09RevA.02\State=1-A\HF=-492.856113\RMSD=7.151e-09\RMSF=2.991e-0
 4\Dipole=-1.1014743,0.1386193,0.3913664\Quadrupole=4.4221224,-3.906865
 2,-0.5152572,2.5592851,0.7551532,9.7973028\PG=C01 [X(C6H12N2O2)]\\@


 HERE WE GO......
 SLIDING DOWN THE RAZOR BLADE OF LIFE......
                                 TOM LEHRER
 Job cpu time:  0 days  0 hours 23 minutes  9.9 seconds.
 File lengths (MBytes):  RWF=     25 Int=      0 D2E=      0 Chk=      3 Scr=      1
 Normal termination of Gaussian 09 at Fri Feb 10 09:13:19 2017.
