 Entering Gaussian System, Link 0=g09
 Initial command:
 /home/steboss/Software/g09/l1.exe /tmp/Gau-25475.inp -scrdir=/tmp/
 Entering Link 1 = /home/steboss/Software/g09/l1.exe PID=     25477.
  
 Copyright (c) 1988,1990,1992,1993,1995,1998,2003,2009, Gaussian, Inc.
                  All Rights Reserved.
  
 This is part of the Gaussian(R) 09 program.  It is based on
 the Gaussian(R) 03 system (copyright 2003, Gaussian, Inc.),
 the Gaussian(R) 98 system (copyright 1998, Gaussian, Inc.),
 the Gaussian(R) 94 system (copyright 1995, Gaussian, Inc.),
 the Gaussian 92(TM) system (copyright 1992, Gaussian, Inc.),
 the Gaussian 90(TM) system (copyright 1990, Gaussian, Inc.),
 the Gaussian 88(TM) system (copyright 1988, Gaussian, Inc.),
 the Gaussian 86(TM) system (copyright 1986, Carnegie Mellon
 University), and the Gaussian 82(TM) system (copyright 1983,
 Carnegie Mellon University). Gaussian is a federally registered
 trademark of Gaussian, Inc.
  
 This software contains proprietary and confidential information,
 including trade secrets, belonging to Gaussian, Inc.
  
 This software is provided under written license and may be
 used, copied, transmitted, or stored only in accord with that
 written license.
  
 The following legend is applicable only to US Government
 contracts under FAR:
  
                    RESTRICTED RIGHTS LEGEND
  
 Use, reproduction and disclosure by the US Government is
 subject to restrictions as set forth in subparagraphs (a)
 and (c) of the Commercial Computer Software - Restricted
 Rights clause in FAR 52.227-19.
  
 Gaussian, Inc.
 340 Quinnipiac St., Bldg. 40, Wallingford CT 06492
  
  
 ---------------------------------------------------------------
 Warning -- This program may not be used in any manner that
 competes with the business of Gaussian, Inc. or will provide
 assistance to any competitor of Gaussian, Inc.  The licensee
 of this program is prohibited from giving any competitor of
 Gaussian, Inc. access to this program.  By using this program,
 the user acknowledges that Gaussian, Inc. is engaged in the
 business of creating and licensing software in the field of
 computational chemistry and represents and warrants to the
 licensee that it is not a competitor of Gaussian, Inc. and that
 it will not use this program in any manner prohibited above.
 ---------------------------------------------------------------
  

 Cite this work as:
 Gaussian 09, Revision A.02,
 M. J. Frisch, G. W. Trucks, H. B. Schlegel, G. E. Scuseria, 
 M. A. Robb, J. R. Cheeseman, G. Scalmani, V. Barone, B. Mennucci, 
 G. A. Petersson, H. Nakatsuji, M. Caricato, X. Li, H. P. Hratchian, 
 A. F. Izmaylov, J. Bloino, G. Zheng, J. L. Sonnenberg, M. Hada, 
 M. Ehara, K. Toyota, R. Fukuda, J. Hasegawa, M. Ishida, T. Nakajima, 
 Y. Honda, O. Kitao, H. Nakai, T. Vreven, J. A. Montgomery, Jr., 
 J. E. Peralta, F. Ogliaro, M. Bearpark, J. J. Heyd, E. Brothers, 
 K. N. Kudin, V. N. Staroverov, R. Kobayashi, J. Normand, 
 K. Raghavachari, A. Rendell, J. C. Burant, S. S. Iyengar, J. Tomasi, 
 M. Cossi, N. Rega, J. M. Millam, M. Klene, J. E. Knox, J. B. Cross, 
 V. Bakken, C. Adamo, J. Jaramillo, R. Gomperts, R. E. Stratmann, 
 O. Yazyev, A. J. Austin, R. Cammi, C. Pomelli, J. W. Ochterski, 
 R. L. Martin, K. Morokuma, V. G. Zakrzewski, G. A. Voth, 
 P. Salvador, J. J. Dannenberg, S. Dapprich, A. D. Daniels, 
 O. Farkas, J. B. Foresman, J. V. Ortiz, J. Cioslowski, 
 and D. J. Fox, Gaussian, Inc., Wallingford CT, 2009.
 
 ******************************************
 Gaussian 09:  EM64L-G09RevA.02 11-Jun-2009
                10-Feb-2017 
 ******************************************
 %chk=structure_135.chk
 %NProcShared=8
 Will use up to    8 processors via shared memory.
 -------------------------------------------
 # HF/6-31G* Opt=(ModRedundant) geom=nocrowd
 -------------------------------------------
 1/18=120,19=15,38=1/1,3;
 2/9=110,12=1,17=6,18=5,40=1/2;
 3/5=1,6=6,7=1,11=9,16=1,25=1,30=1,71=1/1,2,3;
 4//1;
 5/5=2,38=5/2;
 6/7=2,8=2,9=2,10=2,28=1/1;
 7//1,2,3,16;
 1/18=20,19=15/3(2);
 2/9=110,12=1/2;
 99//99;
 2/9=110,12=1/2;
 3/5=1,6=6,7=1,11=9,16=1,25=1,30=1,71=1/1,2,3;
 4/5=5,16=3/1;
 5/5=2,38=5/2;
 7//1,2,3,16;
 1/18=20,19=15/3(-5);
 2/9=110,12=1/2;
 6/7=2,8=2,9=2,10=2,19=2,28=1/1;
 99/9=1/99;
 ------------------
 Phi Psi fixed scan
 ------------------
 Symbolic Z-matrix:
 Charge =  0 Multiplicity = 1
 H                     1.8827    1.2362    0.9842 
 C                     1.9409    2.209     0.496 
 H                     1.2624    2.9049    0.9895 
 H                     1.658     2.1079   -0.5517 
 C                     3.3599    2.7768    0.5667 
 O                     4.2568    2.1469    1.1227 
 N                     3.5554    3.9697    0. 
 H                     2.7862    4.4492   -0.4455 
 C                     4.8533    4.6139    0. 
 H                     5.4076    4.3155    0.8898 
 C                     5.6613    4.2208   -1.2322 
 H                     5.1233    4.5214   -2.1312 
 H                     6.6305    4.7189   -1.2058 
 H                     5.8085    3.1409   -1.2414 
 C                     4.7127    6.1294    0. 
 O                     3.9095    6.6814   -0.7488 
 N                     5.4979    6.8026    0.8441 
 H                     6.143     6.3041    1.4403 
 C                     5.4589    8.248     0.9387 
 H                     4.72      8.6386    0.2391 
 H                     5.1871    8.5389    1.9534 
 H                     6.4402    8.6552    0.695 
 
 The following ModRedundant input section has been read:
 D    5    7    9   15 F                                                       
 D    7    9   15   17 F                                                       

 GradGradGradGradGradGradGradGradGradGradGradGradGradGradGradGradGradGrad
 Berny optimization.
 Initialization pass.
                           ----------------------------
                           !    Initial Parameters    !
                           ! (Angstroms and Degrees)  !
 --------------------------                            --------------------------
 ! Name  Definition              Value          Derivative Info.                !
 --------------------------------------------------------------------------------
 ! R1    R(1,2)                  1.09           estimate D2E/DX2                !
 ! R2    R(2,3)                  1.09           estimate D2E/DX2                !
 ! R3    R(2,4)                  1.0899         estimate D2E/DX2                !
 ! R4    R(2,5)                  1.53           estimate D2E/DX2                !
 ! R5    R(5,6)                  1.229          estimate D2E/DX2                !
 ! R6    R(5,7)                  1.3351         estimate D2E/DX2                !
 ! R7    R(7,8)                  1.01           estimate D2E/DX2                !
 ! R8    R(7,9)                  1.449          estimate D2E/DX2                !
 ! R9    R(9,10)                 1.09           estimate D2E/DX2                !
 ! R10   R(9,11)                 1.525          estimate D2E/DX2                !
 ! R11   R(9,15)                 1.522          estimate D2E/DX2                !
 ! R12   R(11,12)                1.09           estimate D2E/DX2                !
 ! R13   R(11,13)                1.09           estimate D2E/DX2                !
 ! R14   R(11,14)                1.0899         estimate D2E/DX2                !
 ! R15   R(15,16)                1.229          estimate D2E/DX2                !
 ! R16   R(15,17)                1.335          estimate D2E/DX2                !
 ! R17   R(17,18)                1.01           estimate D2E/DX2                !
 ! R18   R(17,19)                1.449          estimate D2E/DX2                !
 ! R19   R(19,20)                1.0899         estimate D2E/DX2                !
 ! R20   R(19,21)                1.09           estimate D2E/DX2                !
 ! R21   R(19,22)                1.09           estimate D2E/DX2                !
 ! A1    A(1,2,3)              109.4976         estimate D2E/DX2                !
 ! A2    A(1,2,4)              109.5057         estimate D2E/DX2                !
 ! A3    A(1,2,5)              111.1022         estimate D2E/DX2                !
 ! A4    A(3,2,4)              109.442          estimate D2E/DX2                !
 ! A5    A(3,2,5)              108.6296         estimate D2E/DX2                !
 ! A6    A(4,2,5)              108.6368         estimate D2E/DX2                !
 ! A7    A(2,5,6)              120.5005         estimate D2E/DX2                !
 ! A8    A(2,5,7)              116.6018         estimate D2E/DX2                !
 ! A9    A(6,5,7)              122.8977         estimate D2E/DX2                !
 ! A10   A(5,7,8)              119.9947         estimate D2E/DX2                !
 ! A11   A(5,7,9)              121.8985         estimate D2E/DX2                !
 ! A12   A(8,7,9)              118.1068         estimate D2E/DX2                !
 ! A13   A(7,9,10)             109.5            estimate D2E/DX2                !
 ! A14   A(7,9,11)             111.0992         estimate D2E/DX2                !
 ! A15   A(7,9,15)             111.0966         estimate D2E/DX2                !
 ! A16   A(10,9,11)            108.6382         estimate D2E/DX2                !
 ! A17   A(10,9,15)            108.6373         estimate D2E/DX2                !
 ! A18   A(11,9,15)            107.7947         estimate D2E/DX2                !
 ! A19   A(9,11,12)            109.5007         estimate D2E/DX2                !
 ! A20   A(9,11,13)            109.4959         estimate D2E/DX2                !
 ! A21   A(9,11,14)            109.4978         estimate D2E/DX2                !
 ! A22   A(12,11,13)           109.441          estimate D2E/DX2                !
 ! A23   A(12,11,14)           109.4482         estimate D2E/DX2                !
 ! A24   A(13,11,14)           109.4436         estimate D2E/DX2                !
 ! A25   A(9,15,16)            120.5029         estimate D2E/DX2                !
 ! A26   A(9,15,17)            116.6012         estimate D2E/DX2                !
 ! A27   A(16,15,17)           122.8959         estimate D2E/DX2                !
 ! A28   A(15,17,18)           120.0006         estimate D2E/DX2                !
 ! A29   A(15,17,19)           121.9013         estimate D2E/DX2                !
 ! A30   A(18,17,19)           118.0981         estimate D2E/DX2                !
 ! A31   A(17,19,20)           109.5004         estimate D2E/DX2                !
 ! A32   A(17,19,21)           109.4935         estimate D2E/DX2                !
 ! A33   A(17,19,22)           109.5003         estimate D2E/DX2                !
 ! A34   A(20,19,21)           109.441          estimate D2E/DX2                !
 ! A35   A(20,19,22)           109.4464         estimate D2E/DX2                !
 ! A36   A(21,19,22)           109.4457         estimate D2E/DX2                !
 ! D1    D(1,2,5,6)              0.0047         estimate D2E/DX2                !
 ! D2    D(1,2,5,7)           -179.9966         estimate D2E/DX2                !
 ! D3    D(3,2,5,6)            120.5112         estimate D2E/DX2                !
 ! D4    D(3,2,5,7)            -59.4901         estimate D2E/DX2                !
 ! D5    D(4,2,5,6)           -120.5165         estimate D2E/DX2                !
 ! D6    D(4,2,5,7)             59.4823         estimate D2E/DX2                !
 ! D7    D(2,5,7,8)             -0.0022         estimate D2E/DX2                !
 ! D8    D(2,5,7,9)           -179.9961         estimate D2E/DX2                !
 ! D9    D(6,5,7,8)            179.9965         estimate D2E/DX2                !
 ! D10   D(6,5,7,9)              0.0027         estimate D2E/DX2                !
 ! D11   D(5,7,9,10)           -30.0015         estimate D2E/DX2                !
 ! D12   D(5,7,9,11)            90.0011         estimate D2E/DX2                !
 ! D13   D(5,7,9,15)          -150.0013         Frozen                          !
 ! D14   D(8,7,9,10)           150.0045         estimate D2E/DX2                !
 ! D15   D(8,7,9,11)           -89.9929         estimate D2E/DX2                !
 ! D16   D(8,7,9,15)            30.0047         estimate D2E/DX2                !
 ! D17   D(7,9,11,12)           60.0024         estimate D2E/DX2                !
 ! D18   D(7,9,11,13)          179.9986         estimate D2E/DX2                !
 ! D19   D(7,9,11,14)          -60.0038         estimate D2E/DX2                !
 ! D20   D(10,9,11,12)        -179.4843         estimate D2E/DX2                !
 ! D21   D(10,9,11,13)         -59.4881         estimate D2E/DX2                !
 ! D22   D(10,9,11,14)          60.5095         estimate D2E/DX2                !
 ! D23   D(15,9,11,12)         -61.938          estimate D2E/DX2                !
 ! D24   D(15,9,11,13)          58.0582         estimate D2E/DX2                !
 ! D25   D(15,9,11,14)         178.0558         estimate D2E/DX2                !
 ! D26   D(7,9,15,16)          -45.001          estimate D2E/DX2                !
 ! D27   D(7,9,15,17)          134.9977         Frozen                          !
 ! D28   D(10,9,15,16)        -165.5121         estimate D2E/DX2                !
 ! D29   D(10,9,15,17)          14.4866         estimate D2E/DX2                !
 ! D30   D(11,9,15,16)          76.941          estimate D2E/DX2                !
 ! D31   D(11,9,15,17)        -103.0603         estimate D2E/DX2                !
 ! D32   D(9,15,17,18)           0.0065         estimate D2E/DX2                !
 ! D33   D(9,15,17,19)         179.9968         estimate D2E/DX2                !
 ! D34   D(16,15,17,18)       -179.9949         estimate D2E/DX2                !
 ! D35   D(16,15,17,19)         -0.0045         estimate D2E/DX2                !
 ! D36   D(15,17,19,20)          0.0072         estimate D2E/DX2                !
 ! D37   D(15,17,19,21)        120.0017         estimate D2E/DX2                !
 ! D38   D(15,17,19,22)       -119.9981         estimate D2E/DX2                !
 ! D39   D(18,17,19,20)        179.9977         estimate D2E/DX2                !
 ! D40   D(18,17,19,21)        -60.0078         estimate D2E/DX2                !
 ! D41   D(18,17,19,22)         59.9924         estimate D2E/DX2                !
 --------------------------------------------------------------------------------
 Trust Radius=3.00D-01 FncErr=1.00D-07 GrdErr=1.00D-07
 Number of steps in this run= 108 maximum allowed number of steps= 132.
 GradGradGradGradGradGradGradGradGradGradGradGradGradGradGradGradGradGrad

                          Input orientation:                          
 ---------------------------------------------------------------------
 Center     Atomic      Atomic             Coordinates (Angstroms)
 Number     Number       Type             X           Y           Z
 ---------------------------------------------------------------------
      1          1           0        1.882700    1.236200    0.984200
      2          6           0        1.940900    2.209000    0.496000
      3          1           0        1.262400    2.904900    0.989500
      4          1           0        1.658000    2.107900   -0.551700
      5          6           0        3.359900    2.776800    0.566700
      6          8           0        4.256800    2.146900    1.122700
      7          7           0        3.555400    3.969700    0.000000
      8          1           0        2.786200    4.449200   -0.445500
      9          6           0        4.853300    4.613900    0.000000
     10          1           0        5.407600    4.315500    0.889800
     11          6           0        5.661300    4.220800   -1.232200
     12          1           0        5.123300    4.521400   -2.131200
     13          1           0        6.630500    4.718900   -1.205800
     14          1           0        5.808500    3.140900   -1.241400
     15          6           0        4.712700    6.129400    0.000000
     16          8           0        3.909500    6.681400   -0.748800
     17          7           0        5.497900    6.802600    0.844100
     18          1           0        6.143000    6.304100    1.440300
     19          6           0        5.458900    8.248000    0.938700
     20          1           0        4.720000    8.638600    0.239100
     21          1           0        5.187100    8.538900    1.953400
     22          1           0        6.440200    8.655200    0.695000
 ---------------------------------------------------------------------
                    Distance matrix (angstroms):
                    1          2          3          4          5
     1  H    0.000000
     2  C    1.089985   0.000000
     3  H    1.780270   1.090037   0.000000
     4  H    1.780264   1.089922   1.779608   0.000000
     5  C    2.174827   1.530018   2.143519   2.143527   0.000000
     6  O    2.546548   2.400000   3.091721   3.091747   1.228959
     7  N    3.352402   2.439814   2.714914   2.714922   1.335058
     8  H    3.630940   2.572829   2.601164   2.601115   2.037303
     9  C    4.604560   3.809414   4.098092   4.098091   2.434405
    10  H    4.681444   4.075589   4.379773   4.583767   2.581679
    11  C    5.300763   4.568959   5.100771   4.577536   3.258469
    12  H    5.567741   4.730438   5.220957   4.508670   3.664952
    13  H    6.282269   5.584628   6.076713   5.654284   4.196467
    14  H    4.898273   4.341120   5.069481   4.332369   3.065524
    15  C    5.737679   4.826844   4.825047   5.080160   3.659391
    16  O    6.063119   5.042546   4.928567   5.101471   4.156742
    17  N    6.638833   5.820188   5.757835   6.223608   4.566734
    18  H    6.636399   5.942995   5.964733   6.456887   4.577190
    19  C    7.871253   7.002987   6.794256   7.373531   5.871815
    20  H    7.962473   7.009219   6.737463   7.256118   6.026433
    21  H    8.073898   7.261506   6.933565   7.751634   6.201886
    22  H    8.711831   7.863638   7.743532   8.203099   6.637793
                    6          7          8          9         10
     6  O    0.000000
     7  N    2.252780   0.000000
     8  H    3.150000   1.009980   0.000000
     9  C    2.775312   1.448978   2.120966   0.000000
    10  H    2.466051   2.083739   2.944935   1.089970   0.000000
    11  C    3.437911   2.452791   2.989526   1.525027   2.139209
    12  H    4.120308   2.702720   2.882505   2.150225   3.041326
    13  H    4.203754   3.386959   3.928032   2.150214   2.459625
    14  H    2.997462   2.702673   3.388127   2.150165   2.466256
    15  C    4.162764   2.450234   2.594792   1.522008   2.136554
    16  O    4.917806   2.835384   2.517243   2.392910   3.244502
    17  N    4.826333   3.537108   3.815085   2.432781   2.489158
    18  H    4.576126   3.770883   4.273757   2.567989   2.190524
    19  C    6.221119   4.775806   4.846671   3.801919   3.933139
    20  H    6.567912   4.817893   4.664690   4.033999   4.425539
    21  H    6.512541   5.230278   5.314573   4.396910   4.360845
    22  H    6.878091   5.546080   5.687081   4.396974   4.465110
                   11         12         13         14         15
    11  C    0.000000
    12  H    1.089957   0.000000
    13  H    1.090023   1.779613   0.000000
    14  H    1.089925   1.779613   1.779617   0.000000
    15  C    2.461892   2.701161   2.668599   3.416575   0.000000
    16  O    3.058926   2.837242   3.385867   4.047715   1.229039
    17  N    3.317139   3.767839   3.134753   4.225379   1.335006
    18  H    3.422635   4.119881   3.122877   4.160437   2.037337
    19  C    4.579532   4.839882   4.292560   5.563949   2.434428
    20  H    4.750550   4.767841   4.593669   5.796673   2.520577
    21  H    5.386919   5.729602   5.162979   6.303276   3.137916
    22  H    4.897417   5.177831   4.375353   5.878452   3.137985
                   16         17         18         19         20
    16  O    0.000000
    17  N    2.252784   0.000000
    18  H    3.150085   1.010005   0.000000
    19  C    2.775344   1.449017   2.120930   0.000000
    20  H    2.337411   2.083758   2.986252   1.089946   0.000000
    21  H    3.519155   2.083718   2.484220   1.090006   1.779592
    22  H    3.519217   2.083815   2.484245   1.090023   1.779665
                   21         22
    21  H    0.000000
    22  H    1.779707   0.000000
 Stoichiometry    C6H12N2O2
 Framework group  C1[X(C6H12N2O2)]
 Deg. of freedom    60
 Full point group                 C1      NOp   1
 Largest Abelian subgroup         C1      NOp   1
 Largest concise Abelian subgroup C1      NOp   1
                         Standard orientation:                         
 ---------------------------------------------------------------------
 Center     Atomic      Atomic             Coordinates (Angstroms)
 Number     Number       Type             X           Y           Z
 ---------------------------------------------------------------------
      1          1           0       -4.264646   -1.001029   -0.391398
      2          6           0       -3.343363   -1.150736    0.171532
      3          1           0       -2.988789   -2.170935    0.024378
      4          1           0       -3.533015   -0.981919    1.231467
      5          6           0       -2.252201   -0.182679   -0.290191
      6          8           0       -2.475301    0.626478   -1.187872
      7          7           0       -1.072874   -0.271695    0.329199
      8          1           0       -0.937587   -0.953510    1.061923
      9          6           0        0.040427    0.588872   -0.016524
     10          1           0       -0.023202    0.860508   -1.070184
     11          6           0        0.027139    1.865509    0.817580
     12          1           0        0.099511    1.610197    1.874738
     13          1           0        0.873654    2.492246    0.536936
     14          1           0       -0.901086    2.407785    0.637935
     15          6           0        1.369918   -0.111284    0.225848
     16          8           0        1.562730   -0.742330    1.262738
     17          7           0        2.289003    0.001548   -0.735813
     18          1           0        2.083778    0.531343   -1.570864
     19          6           0        3.593855   -0.618636   -0.624526
     20          1           0        3.664192   -1.150480    0.324250
     21          1           0        3.733694   -1.321618   -1.445730
     22          1           0        4.366503    0.148984   -0.668403
 ---------------------------------------------------------------------
 Rotational constants (GHZ):      2.5999174      0.6500262      0.6293460
 Standard basis: 6-31G(d) (6D, 7F)
 There are   174 symmetry adapted basis functions of A   symmetry.
 Integral buffers will be    131072 words long.
 Raffenetti 1 integral format.
 Two-electron integral symmetry is turned on.
   174 basis functions,   328 primitive gaussians,   174 cartesian basis functions
    39 alpha electrons       39 beta electrons
       nuclear repulsion energy       550.9788933084 Hartrees.
 NAtoms=   22 NActive=   22 NUniq=   22 SFac= 7.50D-01 NAtFMM=   80 NAOKFM=F Big=F
 One-electron integrals computed using PRISM.
 NBasis=   174 RedAO= T  NBF=   174
 NBsUse=   174 1.00D-06 NBFU=   174
 Harris functional with IExCor=  205 diagonalized for initial guess.
 ExpMin= 1.61D-01 ExpMax= 5.48D+03 ExpMxC= 8.25D+02 IAcc=1 IRadAn=         1 AccDes= 0.00D+00
 HarFok:  IExCor=  205 AccDes= 0.00D+00 IRadAn=         1 IDoV= 1
 ScaDFX=  1.000000  1.000000  1.000000  1.000000
 FoFCou: FMM=F IPFlag=           0 FMFlag=      100000 FMFlg1=           0
         NFxFlg=           0 DoJE=T BraDBF=F KetDBF=T FulRan=T
         Omega=  0.000000  0.000000  1.000000  0.000000  0.000000 ICntrl=     500 IOpCl=  0
         NMat0=    1 NMatS0=    1 NMatT0=    0 NMatD0=    1 NMtDS0=    0 NMtDT0=    0
         I1Cent=           4 NGrid=           0.
 Petite list used in FoFCou.
 Initial guess orbital symmetries:
       Occupied  (A) (A) (A) (A) (A) (A) (A) (A) (A) (A) (A) (A)
                 (A) (A) (A) (A) (A) (A) (A) (A) (A) (A) (A) (A)
                 (A) (A) (A) (A) (A) (A) (A) (A) (A) (A) (A) (A)
                 (A) (A) (A)
       Virtual   (A) (A) (A) (A) (A) (A) (A) (A) (A) (A) (A) (A)
                 (A) (A) (A) (A) (A) (A) (A) (A) (A) (A) (A) (A)
                 (A) (A) (A) (A) (A) (A) (A) (A) (A) (A) (A) (A)
                 (A) (A) (A) (A) (A) (A) (A) (A) (A) (A) (A) (A)
                 (A) (A) (A) (A) (A) (A) (A) (A) (A) (A) (A) (A)
                 (A) (A) (A) (A) (A) (A) (A) (A) (A) (A) (A) (A)
                 (A) (A) (A) (A) (A) (A) (A) (A) (A) (A) (A) (A)
                 (A) (A) (A) (A) (A) (A) (A) (A) (A) (A) (A) (A)
                 (A) (A) (A) (A) (A) (A) (A) (A) (A) (A) (A) (A)
                 (A) (A) (A) (A) (A) (A) (A) (A) (A) (A) (A) (A)
                 (A) (A) (A) (A) (A) (A) (A) (A) (A) (A) (A) (A)
                 (A) (A) (A)
 The electronic state of the initial guess is 1-A.
 Requested convergence on RMS density matrix=1.00D-08 within 128 cycles.
 Requested convergence on MAX density matrix=1.00D-06.
 Requested convergence on             energy=1.00D-06.
 No special actions if energy rises.
 Integral accuracy reduced to 1.0D-05 until final iterations.
 Initial convergence to 1.0D-05 achieved.  Increase integral accuracy.
 SCF Done:  E(RHF) =  -492.853664110     A.U. after   15 cycles
             Convg  =    0.4433D-08             -V/T =  2.0021

 **********************************************************************

            Population analysis using the SCF density.

 **********************************************************************

 Orbital symmetries:
       Occupied  (A) (A) (A) (A) (A) (A) (A) (A) (A) (A) (A) (A)
                 (A) (A) (A) (A) (A) (A) (A) (A) (A) (A) (A) (A)
                 (A) (A) (A) (A) (A) (A) (A) (A) (A) (A) (A) (A)
                 (A) (A) (A)
       Virtual   (A) (A) (A) (A) (A) (A) (A) (A) (A) (A) (A) (A)
                 (A) (A) (A) (A) (A) (A) (A) (A) (A) (A) (A) (A)
                 (A) (A) (A) (A) (A) (A) (A) (A) (A) (A) (A) (A)
                 (A) (A) (A) (A) (A) (A) (A) (A) (A) (A) (A) (A)
                 (A) (A) (A) (A) (A) (A) (A) (A) (A) (A) (A) (A)
                 (A) (A) (A) (A) (A) (A) (A) (A) (A) (A) (A) (A)
                 (A) (A) (A) (A) (A) (A) (A) (A) (A) (A) (A) (A)
                 (A) (A) (A) (A) (A) (A) (A) (A) (A) (A) (A) (A)
                 (A) (A) (A) (A) (A) (A) (A) (A) (A) (A) (A) (A)
                 (A) (A) (A) (A) (A) (A) (A) (A) (A) (A) (A) (A)
                 (A) (A) (A) (A) (A) (A) (A) (A) (A) (A) (A) (A)
                 (A) (A) (A)
 The electronic state is 1-A.
 Alpha  occ. eigenvalues --  -20.52612 -20.51436 -15.60370 -15.59086 -11.35537
 Alpha  occ. eigenvalues --  -11.34807 -11.28365 -11.26655 -11.23458 -11.22347
 Alpha  occ. eigenvalues --   -1.38594  -1.36957  -1.24380  -1.23797  -1.06025
 Alpha  occ. eigenvalues --   -0.98936  -0.96548  -0.87941  -0.80509  -0.78983
 Alpha  occ. eigenvalues --   -0.73408  -0.67129  -0.65243  -0.64061  -0.63303
 Alpha  occ. eigenvalues --   -0.62078  -0.59780  -0.58288  -0.56962  -0.56191
 Alpha  occ. eigenvalues --   -0.55629  -0.54097  -0.52531  -0.51800  -0.49365
 Alpha  occ. eigenvalues --   -0.42669  -0.41027  -0.39736  -0.38475
 Alpha virt. eigenvalues --    0.18722   0.20809   0.21152   0.23122   0.26225
 Alpha virt. eigenvalues --    0.27718   0.28772   0.30275   0.30866   0.31955
 Alpha virt. eigenvalues --    0.32085   0.32184   0.32575   0.34649   0.36134
 Alpha virt. eigenvalues --    0.39513   0.40465   0.42544   0.46450   0.51131
 Alpha virt. eigenvalues --    0.51869   0.58981   0.61637   0.70676   0.72300
 Alpha virt. eigenvalues --    0.73459   0.74001   0.76107   0.77298   0.78249
 Alpha virt. eigenvalues --    0.80807   0.82002   0.84703   0.86987   0.89457
 Alpha virt. eigenvalues --    0.89858   0.94127   0.95005   0.96603   0.98440
 Alpha virt. eigenvalues --    1.01241   1.01815   1.04323   1.07628   1.08390
 Alpha virt. eigenvalues --    1.10554   1.11556   1.13111   1.14608   1.15646
 Alpha virt. eigenvalues --    1.16333   1.17716   1.18085   1.18288   1.19748
 Alpha virt. eigenvalues --    1.20544   1.21410   1.21982   1.22892   1.24383
 Alpha virt. eigenvalues --    1.28958   1.34532   1.37405   1.37541   1.38819
 Alpha virt. eigenvalues --    1.43231   1.50097   1.54637   1.60074   1.60232
 Alpha virt. eigenvalues --    1.64208   1.66731   1.69877   1.72826   1.77014
 Alpha virt. eigenvalues --    1.79241   1.81380   1.87070   1.91500   1.94336
 Alpha virt. eigenvalues --    2.03093   2.04880   2.06670   2.11207   2.12167
 Alpha virt. eigenvalues --    2.13592   2.14249   2.16373   2.20104   2.22446
 Alpha virt. eigenvalues --    2.24173   2.25998   2.28481   2.31103   2.33706
 Alpha virt. eigenvalues --    2.36547   2.40093   2.44850   2.46179   2.48825
 Alpha virt. eigenvalues --    2.52399   2.55485   2.58090   2.61235   2.62841
 Alpha virt. eigenvalues --    2.63616   2.65064   2.69271   2.71358   2.76002
 Alpha virt. eigenvalues --    2.77920   2.81828   2.85037   2.94867   2.97830
 Alpha virt. eigenvalues --    3.04285   3.05094   3.07747   3.11799   3.23110
 Alpha virt. eigenvalues --    3.29992   3.34614   3.37936   3.52278   3.57504
 Alpha virt. eigenvalues --    4.38020   4.43273   4.47229   4.61342   4.63211
 Alpha virt. eigenvalues --    4.66932   4.69313   4.82586   4.87780   5.07186
          Condensed to atoms (all electrons):
              1          2          3          4          5          6
     1  H    0.456963   0.385587  -0.018729  -0.018646  -0.030375   0.003567
     2  C    0.385587   5.251792   0.373646   0.374781   0.375654  -0.069259
     3  H   -0.018729   0.373646   0.512251  -0.023721  -0.034124   0.001323
     4  H   -0.018646   0.374781  -0.023721   0.512070  -0.035228   0.001247
     5  C   -0.030375   0.375654  -0.034124  -0.035228   4.180953   0.595547
     6  O    0.003567  -0.069259   0.001323   0.001247   0.595547   8.196695
     7  N    0.003796  -0.119983   0.003423   0.003713   0.245072  -0.106842
     8  H   -0.000012  -0.001142   0.000590   0.000519  -0.016612   0.002037
     9  C   -0.000079   0.004819  -0.000196  -0.000255  -0.027228   0.007357
    10  H   -0.000002   0.000374  -0.000024  -0.000010  -0.000578   0.008368
    11  C    0.000003  -0.000303   0.000001   0.000055  -0.003131  -0.002324
    12  H    0.000000  -0.000009   0.000000  -0.000001   0.000184  -0.000016
    13  H    0.000000   0.000003   0.000000   0.000000   0.000041  -0.000024
    14  H    0.000000   0.000060   0.000000  -0.000022   0.001763   0.002938
    15  C    0.000000  -0.000018  -0.000003  -0.000005   0.003552   0.000565
    16  O    0.000000  -0.000015   0.000000  -0.000001   0.000279  -0.000002
    17  N    0.000000  -0.000001   0.000000   0.000000  -0.000119  -0.000006
    18  H    0.000000   0.000000   0.000000   0.000000  -0.000015  -0.000011
    19  C    0.000000   0.000000   0.000000   0.000000   0.000001   0.000000
    20  H    0.000000   0.000000   0.000000   0.000000   0.000000   0.000000
    21  H    0.000000   0.000000   0.000000   0.000000   0.000000   0.000000
    22  H    0.000000   0.000000   0.000000   0.000000   0.000000   0.000000
              7          8          9         10         11         12
     1  H    0.003796  -0.000012  -0.000079  -0.000002   0.000003   0.000000
     2  C   -0.119983  -0.001142   0.004819   0.000374  -0.000303  -0.000009
     3  H    0.003423   0.000590  -0.000196  -0.000024   0.000001   0.000000
     4  H    0.003713   0.000519  -0.000255  -0.000010   0.000055  -0.000001
     5  C    0.245072  -0.016612  -0.027228  -0.000578  -0.003131   0.000184
     6  O   -0.106842   0.002037   0.007357   0.008368  -0.002324  -0.000016
     7  N    7.408132   0.315161   0.185536  -0.037517  -0.069770  -0.000678
     8  H    0.315161   0.299388  -0.026213   0.002494   0.002100   0.000868
     9  C    0.185536  -0.026213   5.072424   0.409249   0.341186  -0.038057
    10  H   -0.037517   0.002494   0.409249   0.479152  -0.038357   0.003893
    11  C   -0.069770   0.002100   0.341186  -0.038357   5.152487   0.388907
    12  H   -0.000678   0.000868  -0.038057   0.003893   0.388907   0.504242
    13  H    0.005234  -0.000049  -0.040973   0.000247   0.381267  -0.022357
    14  H   -0.004654  -0.000207  -0.032466  -0.003706   0.391784  -0.023055
    15  C   -0.035161  -0.004081   0.340350  -0.052403  -0.056265  -0.005728
    16  O   -0.000822   0.012666  -0.083112   0.002443   0.000090   0.004304
    17  N    0.001241   0.000567  -0.092485   0.006197  -0.001828   0.000531
    18  H    0.000003  -0.000017   0.001171   0.002266   0.000056  -0.000012
    19  C   -0.000101  -0.000004   0.004507   0.000004  -0.000273   0.000005
    20  H   -0.000006  -0.000008   0.000541  -0.000022  -0.000021  -0.000005
    21  H    0.000008   0.000000  -0.000091  -0.000015  -0.000005   0.000000
    22  H   -0.000001   0.000000  -0.000133  -0.000007   0.000044  -0.000001
             13         14         15         16         17         18
     1  H    0.000000   0.000000   0.000000   0.000000   0.000000   0.000000
     2  C    0.000003   0.000060  -0.000018  -0.000015  -0.000001   0.000000
     3  H    0.000000   0.000000  -0.000003   0.000000   0.000000   0.000000
     4  H    0.000000  -0.000022  -0.000005  -0.000001   0.000000   0.000000
     5  C    0.000041   0.001763   0.003552   0.000279  -0.000119  -0.000015
     6  O   -0.000024   0.002938   0.000565  -0.000002  -0.000006  -0.000011
     7  N    0.005234  -0.004654  -0.035161  -0.000822   0.001241   0.000003
     8  H   -0.000049  -0.000207  -0.004081   0.012666   0.000567  -0.000017
     9  C   -0.040973  -0.032466   0.340350  -0.083112  -0.092485   0.001171
    10  H    0.000247  -0.003706  -0.052403   0.002443   0.006197   0.002266
    11  C    0.381267   0.391784  -0.056265   0.000090  -0.001828   0.000056
    12  H   -0.022357  -0.023055  -0.005728   0.004304   0.000531  -0.000012
    13  H    0.539283  -0.021941  -0.002102  -0.000091   0.001723   0.000094
    14  H   -0.021941   0.484588   0.005013  -0.000034  -0.000092  -0.000014
    15  C   -0.002102   0.005013   4.210271   0.572853   0.290504  -0.018183
    16  O   -0.000091  -0.000034   0.572853   8.238626  -0.097356   0.002331
    17  N    0.001723  -0.000092   0.290504  -0.097356   7.300209   0.322453
    18  H    0.000094  -0.000014  -0.018183   0.002331   0.322453   0.317941
    19  C   -0.000053   0.000004  -0.029084  -0.004771   0.185432  -0.021698
    20  H   -0.000001   0.000000  -0.001836   0.010243  -0.031643   0.002276
    21  H    0.000002   0.000000   0.000728   0.000379  -0.046863  -0.001017
    22  H   -0.000014   0.000000   0.001433   0.000376  -0.047549  -0.001132
             19         20         21         22
     1  H    0.000000   0.000000   0.000000   0.000000
     2  C    0.000000   0.000000   0.000000   0.000000
     3  H    0.000000   0.000000   0.000000   0.000000
     4  H    0.000000   0.000000   0.000000   0.000000
     5  C    0.000001   0.000000   0.000000   0.000000
     6  O    0.000000   0.000000   0.000000   0.000000
     7  N   -0.000101  -0.000006   0.000008  -0.000001
     8  H   -0.000004  -0.000008   0.000000   0.000000
     9  C    0.004507   0.000541  -0.000091  -0.000133
    10  H    0.000004  -0.000022  -0.000015  -0.000007
    11  C   -0.000273  -0.000021  -0.000005   0.000044
    12  H    0.000005  -0.000005   0.000000  -0.000001
    13  H   -0.000053  -0.000001   0.000002  -0.000014
    14  H    0.000004   0.000000   0.000000   0.000000
    15  C   -0.029084  -0.001836   0.000728   0.001433
    16  O   -0.004771   0.010243   0.000379   0.000376
    17  N    0.185432  -0.031643  -0.046863  -0.047549
    18  H   -0.021698   0.002276  -0.001017  -0.001132
    19  C    4.960703   0.396281   0.402369   0.401952
    20  H    0.396281   0.430479  -0.022227  -0.022327
    21  H    0.402369  -0.022227   0.527937  -0.035904
    22  H    0.401952  -0.022327  -0.035904   0.530286
 Mulliken atomic charges:
              1
     1  H    0.217926
     2  C   -0.575985
     3  H    0.185562
     4  H    0.185504
     5  C    0.744365
     6  O   -0.641159
     7  N   -0.795783
     8  H    0.411953
     9  C   -0.025853
    10  H    0.217953
    11  C   -0.485703
    12  H    0.186984
    13  H    0.159713
    14  H    0.200040
    15  C    0.779600
    16  O   -0.658386
    17  N   -0.790915
    18  H    0.393508
    19  C   -0.295275
    20  H    0.238276
    21  H    0.174698
    22  H    0.172976
 Sum of Mulliken atomic charges =   0.00000
 Mulliken charges with hydrogens summed into heavy atoms:
              1
     2  C    0.013007
     5  C    0.744365
     6  O   -0.641159
     7  N   -0.383830
     9  C    0.192100
    11  C    0.061035
    15  C    0.779600
    16  O   -0.658386
    17  N   -0.397407
    19  C    0.290676
 Sum of Mulliken charges with hydrogens summed into heavy atoms =   0.00000
 Electronic spatial extent (au):  <R**2>=           1954.0330
 Charge=              0.0000 electrons
 Dipole moment (field-independent basis, Debye):
    X=              1.9844    Y=             -0.5628    Z=             -0.5704  Tot=              2.1401
 Quadrupole moment (field-independent basis, Debye-Ang):
   XX=            -57.0178   YY=            -59.9995   ZZ=            -64.2519
   XY=              8.3208   XZ=            -14.3862   YZ=              2.5901
 Traceless Quadrupole moment (field-independent basis, Debye-Ang):
   XX=              3.4052   YY=              0.4236   ZZ=             -3.8288
   XY=              8.3208   XZ=            -14.3862   YZ=              2.5901
 Octapole moment (field-independent basis, Debye-Ang**2):
  XXX=             28.1825  YYY=             -2.8589  ZZZ=             -4.7498  XYY=              0.2348
  XXY=            -18.7763  XXZ=              2.6311  XZZ=              7.1109  YZZ=              0.6367
  YYZ=             -0.7999  XYZ=             -3.0750
 Hexadecapole moment (field-independent basis, Debye-Ang**3):
 XXXX=          -1753.6688 YYYY=           -376.0300 ZZZZ=           -269.0544 XXXY=             24.6410
 XXXZ=            -59.1365 YYYX=             -3.5343 YYYZ=             -5.9008 ZZZX=            -26.8089
 ZZZY=             -4.4782 XXYY=           -374.0157 XXZZ=           -378.2214 YYZZ=           -109.6532
 XXYZ=             16.2498 YYXZ=             -5.8385 ZZXY=             13.3711
 N-N= 5.509788933084D+02 E-N=-2.257103255084D+03  KE= 4.918203446339D+02
 Calling FoFJK, ICntrl=      2127 FMM=F ISym2X=0 I1Cent= 0 IOpClX= 0 NMat=1 NMatS=1 NMatT=0.
 ***** Axes restored to original set *****
 -------------------------------------------------------------------
 Center     Atomic                   Forces (Hartrees/Bohr)
 Number     Number              X              Y              Z
 -------------------------------------------------------------------
      1        1           0.004546498    0.007815228   -0.002943761
      2        6           0.005927204    0.007597626   -0.002262774
      3        1          -0.001195701   -0.003593647   -0.003668537
      4        1          -0.003207099    0.000383762    0.004066480
      5        6           0.020605183   -0.044724086    0.028581499
      6        8          -0.026144172    0.023504836   -0.019053509
      7        7          -0.009468584    0.020541954   -0.004530763
      8        1           0.012463694   -0.003809988    0.004806854
      9        6           0.011073842    0.000506533    0.002147009
     10        1          -0.008556000   -0.003389613   -0.004424129
     11        6           0.002255047   -0.003100093   -0.003685482
     12        1           0.004253497   -0.001300946    0.002938917
     13        1          -0.001506966   -0.003225899   -0.003475259
     14        1           0.000607466    0.005404183   -0.000503887
     15        6          -0.038478269    0.011541365   -0.021155971
     16        8           0.022263767   -0.019502940    0.021167997
     17        7           0.009861715   -0.002524525    0.007198341
     18        1          -0.011230473    0.006449256   -0.009138364
     19        6           0.002620357    0.004387044    0.000877051
     20        1           0.006527595   -0.005421130    0.005960150
     21        1           0.001534318    0.001169036   -0.004582963
     22        1          -0.004752918    0.001292043    0.001681102
 -------------------------------------------------------------------
 Cartesian Forces:  Max     0.044724086 RMS     0.012389169

 GradGradGradGradGradGradGradGradGradGradGradGradGradGradGradGradGradGrad
 Berny optimization.
 Internal  Forces:  Max     0.039747595 RMS     0.007106874
 Search for a local minimum.
 Step number   1 out of a maximum of  108
 All quantities printed in internal units (Hartrees-Bohrs-Radians)
 Mixed Optimization -- RFO/linear search
 Second derivative matrix not updated -- first step.
     Eigenvalues ---    0.00369   0.00435   0.00999   0.01043   0.01269
     Eigenvalues ---    0.01422   0.01660   0.02551   0.02552   0.03503
     Eigenvalues ---    0.05232   0.05841   0.05844   0.05844   0.07165
     Eigenvalues ---    0.07464   0.07685   0.07686   0.15421   0.16000
     Eigenvalues ---    0.16000   0.16000   0.16000   0.16000   0.16000
     Eigenvalues ---    0.16000   0.16000   0.16000   0.16000   0.16000
     Eigenvalues ---    0.16180   0.22000   0.22000   0.25000   0.25000
     Eigenvalues ---    0.25000   0.25000   0.29422   0.29887   0.30174
     Eigenvalues ---    0.34808   0.34810   0.34810   0.34812   0.34814
     Eigenvalues ---    0.34816   0.34818   0.34819   0.34821   0.34822
     Eigenvalues ---    0.38374   0.38379   0.45972   0.45976   0.58327
     Eigenvalues ---    0.58339   0.91488   0.915221000.000001000.00000
     Eigenvalues --- 1000.000001000.000001000.000001000.000001000.00000
     Eigenvalues --- 1000.000001000.000001000.000001000.000001000.00000
     Eigenvalues --- 1000.000001000.000001000.000001000.000001000.00000
     Eigenvalues --- 1000.000001000.000001000.000001000.000001000.00000
     Eigenvalues --- 1000.000001000.000001000.000001000.000001000.00000
     Eigenvalues --- 1000.000001000.000001000.000001000.000001000.00000
     Eigenvalues --- 1000.000001000.000001000.000001000.000001000.00000
     Eigenvalues --- 1000.000001000.000001000.00000
 RFO step:  Lambda=-1.17553021D-02 EMin= 3.68861443D-03
 Linear search not attempted -- first point.
 Iteration  1 RMS(Cart)=  0.05872300 RMS(Int)=  0.00117013
 Iteration  2 RMS(Cart)=  0.00215692 RMS(Int)=  0.00046047
 Iteration  3 RMS(Cart)=  0.00000158 RMS(Int)=  0.00046047
 Iteration  4 RMS(Cart)=  0.00000000 RMS(Int)=  0.00046047
 Iteration  1 RMS(Cart)=  0.00019881 RMS(Int)=  0.00009351
 Iteration  2 RMS(Cart)=  0.00011489 RMS(Int)=  0.00010358
 Iteration  3 RMS(Cart)=  0.00006827 RMS(Int)=  0.00011868
 Iteration  4 RMS(Cart)=  0.00004175 RMS(Int)=  0.00013087
 Iteration  5 RMS(Cart)=  0.00002621 RMS(Int)=  0.00013958
 Iteration  6 RMS(Cart)=  0.00001681 RMS(Int)=  0.00014556
 Iteration  7 RMS(Cart)=  0.00001096 RMS(Int)=  0.00014961
 Iteration  8 RMS(Cart)=  0.00000722 RMS(Int)=  0.00015232
 Iteration  9 RMS(Cart)=  0.00000479 RMS(Int)=  0.00015414
 Iteration 10 RMS(Cart)=  0.00000319 RMS(Int)=  0.00015536
 Iteration 11 RMS(Cart)=  0.00000214 RMS(Int)=  0.00015617
 Iteration 12 RMS(Cart)=  0.00000143 RMS(Int)=  0.00015671
 Iteration 13 RMS(Cart)=  0.00000096 RMS(Int)=  0.00015707
 Variable       Old X    -DE/DX   Delta X   Delta X   Delta X     New X
                                 (Linear)    (Quad)   (Total)
    R1        2.05977  -0.00854   0.00000  -0.02372  -0.02372   2.03605
    R2        2.05987  -0.00321   0.00000  -0.00892  -0.00892   2.05095
    R3        2.05965  -0.00311   0.00000  -0.00865  -0.00865   2.05101
    R4        2.89132  -0.00994   0.00000  -0.03248  -0.03248   2.85884
    R5        2.32240  -0.03975   0.00000  -0.04288  -0.04288   2.27952
    R6        2.52289   0.00998   0.00000   0.01678   0.01678   2.53967
    R7        1.90859  -0.01342   0.00000  -0.02846  -0.02846   1.88012
    R8        2.73817  -0.00659   0.00000  -0.01666  -0.01666   2.72151
    R9        2.05975  -0.00703   0.00000  -0.01955  -0.01955   2.04020
   R10        2.88188   0.00736   0.00000   0.02370   0.02370   2.90559
   R11        2.87618  -0.00152   0.00000  -0.00486  -0.00486   2.87132
   R12        2.05972  -0.00488   0.00000  -0.01356  -0.01356   2.04615
   R13        2.05984  -0.00290   0.00000  -0.00805  -0.00805   2.05179
   R14        2.05966  -0.00527   0.00000  -0.01464  -0.01464   2.04502
   R15        2.32255  -0.03621   0.00000  -0.03907  -0.03907   2.28347
   R16        2.52280   0.00664   0.00000   0.01116   0.01116   2.53396
   R17        1.90863  -0.01575   0.00000  -0.03341  -0.03341   1.87523
   R18        2.73825   0.00152   0.00000   0.00385   0.00385   2.74209
   R19        2.05970  -0.01019   0.00000  -0.02832  -0.02832   2.03138
   R20        2.05981  -0.00434   0.00000  -0.01205  -0.01205   2.04776
   R21        2.05985  -0.00417   0.00000  -0.01159  -0.01159   2.04825
    A1        1.91109   0.00053   0.00000   0.00117   0.00156   1.91265
    A2        1.91123   0.00047   0.00000   0.00040   0.00077   1.91201
    A3        1.93910  -0.00813   0.00000  -0.04944  -0.04906   1.89004
    A4        1.91012  -0.00470   0.00000  -0.02286  -0.02364   1.88648
    A5        1.89594   0.00595   0.00000   0.03576   0.03554   1.93148
    A6        1.89607   0.00591   0.00000   0.03536   0.03514   1.93121
    A7        2.10313   0.00856   0.00000   0.03271   0.03271   2.13584
    A8        2.03508  -0.00697   0.00000  -0.02662  -0.02662   2.00846
    A9        2.14497  -0.00160   0.00000  -0.00609  -0.00610   2.13887
   A10        2.09430   0.00220   0.00000   0.01465   0.01463   2.10893
   A11        2.12753   0.00240   0.00000   0.01035   0.01034   2.13787
   A12        2.06135  -0.00460   0.00000  -0.02500  -0.02502   2.03633
   A13        1.91114  -0.00142   0.00000  -0.04024  -0.03997   1.87117
   A14        1.93905   0.00576   0.00000   0.02822   0.02889   1.96794
   A15        1.93900  -0.01161   0.00000  -0.07572  -0.07601   1.86299
   A16        1.89609  -0.00229   0.00000   0.01365   0.01268   1.90878
   A17        1.89608   0.00431   0.00000   0.04196   0.03908   1.93516
   A18        1.88137   0.00550   0.00000   0.03551   0.03595   1.91732
   A19        1.91115   0.00183   0.00000   0.01133   0.01121   1.92235
   A20        1.91106   0.00518   0.00000   0.03015   0.03001   1.94107
   A21        1.91110   0.00036   0.00000   0.00139   0.00136   1.91246
   A22        1.91011  -0.00330   0.00000  -0.01788  -0.01811   1.89199
   A23        1.91023  -0.00109   0.00000  -0.00635  -0.00636   1.90387
   A24        1.91015  -0.00297   0.00000  -0.01869  -0.01873   1.89142
   A25        2.10317  -0.00320   0.00000  -0.01223  -0.01233   2.09084
   A26        2.03507  -0.00195   0.00000  -0.00744  -0.00755   2.02753
   A27        2.14494   0.00515   0.00000   0.01968   0.01956   2.16450
   A28        2.09441  -0.00511   0.00000  -0.02412  -0.02412   2.07028
   A29        2.12758   0.00745   0.00000   0.03213   0.03212   2.15970
   A30        2.06120  -0.00234   0.00000  -0.00801  -0.00801   2.05319
   A31        1.91114  -0.00433   0.00000  -0.02774  -0.02759   1.88356
   A32        1.91102   0.00340   0.00000   0.02075   0.02057   1.93159
   A33        1.91114   0.00464   0.00000   0.02860   0.02845   1.93959
   A34        1.91011  -0.00025   0.00000  -0.00457  -0.00445   1.90565
   A35        1.91020  -0.00059   0.00000  -0.00532  -0.00513   1.90507
   A36        1.91019  -0.00288   0.00000  -0.01175  -0.01219   1.89800
    D1        0.00008   0.00002   0.00000   0.00178   0.00181   0.00189
    D2       -3.14153  -0.00008   0.00000  -0.00226  -0.00228   3.13937
    D3        2.10332  -0.00050   0.00000  -0.00423  -0.00468   2.09863
    D4       -1.03830  -0.00060   0.00000  -0.00828  -0.00877  -1.04707
    D5       -2.10341   0.00064   0.00000   0.00902   0.00951  -2.09390
    D6        1.03816   0.00054   0.00000   0.00497   0.00542   1.04358
    D7       -0.00004  -0.00007   0.00000  -0.00476  -0.00456  -0.00460
    D8       -3.14152   0.00011   0.00000   0.00727   0.00701  -3.13452
    D9        3.14153  -0.00017   0.00000  -0.00891  -0.00865   3.13288
   D10        0.00005   0.00000   0.00000   0.00311   0.00291   0.00296
   D11       -0.52362  -0.00099   0.00000  -0.02178  -0.01981  -0.54344
   D12        1.57082  -0.00113   0.00000  -0.01312  -0.01252   1.55829
   D13       -2.61802   0.00191   0.00000   0.00000   0.00000  -2.61802
   D14        2.61807  -0.00082   0.00000  -0.00997  -0.00870   2.60937
   D15       -1.57067  -0.00096   0.00000  -0.00131  -0.00141  -1.57208
   D16        0.52368   0.00208   0.00000   0.01181   0.01111   0.53479
   D17        1.04724  -0.00254   0.00000  -0.00829  -0.00833   1.03891
   D18        3.14157  -0.00230   0.00000  -0.00475  -0.00468   3.13689
   D19       -1.04726  -0.00255   0.00000  -0.00831  -0.00827  -1.05554
   D20       -3.13259  -0.00223   0.00000  -0.03180  -0.03165   3.11894
   D21       -1.03826  -0.00198   0.00000  -0.02826  -0.02801  -1.06627
   D22        1.05609  -0.00223   0.00000  -0.03181  -0.03160   1.02449
   D23       -1.08102   0.00466   0.00000   0.04470   0.04442  -1.03660
   D24        1.01331   0.00490   0.00000   0.04824   0.04806   1.06137
   D25        3.10766   0.00465   0.00000   0.04469   0.04447  -3.13105
   D26       -0.78542  -0.00311   0.00000  -0.02618  -0.02620  -0.81162
   D27        2.35615  -0.00182   0.00000   0.00000   0.00000   2.35615
   D28       -2.88873   0.00305   0.00000   0.04335   0.04469  -2.84404
   D29        0.25284   0.00434   0.00000   0.06953   0.07089   0.32373
   D30        1.34287   0.00043   0.00000  -0.01485  -0.01557   1.32730
   D31       -1.79874   0.00172   0.00000   0.01133   0.01063  -1.78811
   D32        0.00011  -0.00162   0.00000  -0.03851  -0.03880  -0.03869
   D33        3.14154  -0.00177   0.00000  -0.04383  -0.04410   3.09744
   D34       -3.14150  -0.00030   0.00000  -0.01164  -0.01138   3.13031
   D35       -0.00008  -0.00045   0.00000  -0.01697  -0.01667  -0.01675
   D36        0.00013   0.00019   0.00000   0.00380   0.00378   0.00391
   D37        2.09442  -0.00069   0.00000  -0.00608  -0.00629   2.08814
   D38       -2.09436   0.00072   0.00000   0.00980   0.01006  -2.08431
   D39        3.14155   0.00004   0.00000  -0.00142  -0.00146   3.14009
   D40       -1.04733  -0.00084   0.00000  -0.01130  -0.01153  -1.05887
   D41        1.04706   0.00057   0.00000   0.00457   0.00481   1.05188
         Item               Value     Threshold  Converged?
 Maximum Force            0.039748     0.000450     NO 
 RMS     Force            0.007170     0.000300     NO 
 Maximum Displacement     0.177863     0.001800     NO 
 RMS     Displacement     0.059664     0.001200     NO 
 Predicted change in Energy=-6.231506D-03
 GradGradGradGradGradGradGradGradGradGradGradGradGradGradGradGradGradGrad

                          Input orientation:                          
 ---------------------------------------------------------------------
 Center     Atomic      Atomic             Coordinates (Angstroms)
 Number     Number       Type             X           Y           Z
 ---------------------------------------------------------------------
      1          1           0        1.891173    1.322253    0.983485
      2          6           0        1.943162    2.287290    0.507184
      3          1           0        1.277077    2.978998    1.012931
      4          1           0        1.618766    2.200841   -0.524936
      5          6           0        3.373412    2.775203    0.577816
      6          8           0        4.251029    2.130223    1.096345
      7          7           0        3.593898    3.976236    0.016507
      8          1           0        2.852198    4.483250   -0.410902
      9          6           0        4.897153    4.588329   -0.014098
     10          1           0        5.423022    4.264524    0.871456
     11          6           0        5.708553    4.197663   -1.260346
     12          1           0        5.181098    4.496569   -2.157484
     13          1           0        6.683306    4.675923   -1.260382
     14          1           0        5.854699    3.125518   -1.276452
     15          6           0        4.675393    6.091349    0.007050
     16          8           0        3.852589    6.587279   -0.725881
     17          7           0        5.454514    6.792358    0.843474
     18          1           0        6.097858    6.301348    1.417696
     19          6           0        5.418811    8.238537    0.956805
     20          1           0        4.676396    8.605769    0.271606
     21          1           0        5.152488    8.536864    1.963942
     22          1           0        6.379507    8.673873    0.707084
 ---------------------------------------------------------------------
                    Distance matrix (angstroms):
                    1          2          3          4          5
     1  H    0.000000
     2  C    1.077433   0.000000
     3  H    1.767140   1.085315   0.000000
     4  H    1.766764   1.085347   1.757075   0.000000
     5  C    2.114868   1.512833   2.150693   2.150520   0.000000
     6  O    2.496893   2.387055   3.093828   3.092304   1.206268
     7  N    3.298173   2.412101   2.712011   2.710412   1.343935
     8  H    3.586054   2.547836   2.602130   2.596873   2.041238
     9  C    4.549543   3.780552   4.092638   4.087649   2.441224
    10  H    4.598202   4.018901   4.342977   4.547643   2.550529
    11  C    5.279692   4.577319   5.127466   4.610258   3.294710
    12  H    5.546672   4.739788   5.253183   4.541562   3.703065
    13  H    6.264709   5.594534   6.105311   5.684758   4.236402
    14  H    4.905978   4.379966   5.120290   4.400333   3.117341
    15  C    5.607993   4.710211   4.716681   4.976146   3.608012
    16  O    5.872783   4.863770   4.761977   4.926579   4.057235
    17  N    6.529858   5.721741   5.658746   6.137388   4.532007
    18  H    6.532697   5.848349   5.868712   6.375754   4.534501
    19  C    7.764015   6.906492   6.694764   7.286266   5.845965
    20  H    7.830316   6.888341   6.615549   7.141896   5.982226
    21  H    7.977974   7.174892   6.842010   7.669868   6.187341
    22  H    8.617880   7.778789   7.652446   8.129124   6.621754
                    6          7          8          9         10
     6  O    0.000000
     7  N    2.237328   0.000000
     8  H    3.124941   0.994917   0.000000
     9  C    2.773598   1.440162   2.085745   0.000000
    10  H    2.445278   2.039545   2.881218   1.079627   0.000000
    11  C    3.457264   2.480151   2.993639   1.537571   2.151878
    12  H    4.129410   2.741567   2.911099   2.164058   3.047434
    13  H    4.236829   3.415326   3.928883   2.179734   2.510438
    14  H    3.031919   2.739833   3.406996   2.156444   2.469249
    15  C    4.130033   2.375590   2.466720   1.519439   2.154864
    16  O    4.831626   2.726831   2.350943   2.365068   3.226908
    17  N    4.821600   3.475098   3.698308   2.429778   2.528185
    18  H    4.573000   3.693141   4.145305   2.534987   2.214144
    19  C    6.220505   4.730928   4.749769   3.812977   3.974932
    20  H    6.541700   4.761245   4.559460   4.033632   4.445637
    21  H    6.527664   5.198176   5.230966   4.423659   4.418099
    22  H    6.892119   5.504935   5.590449   4.405581   4.514891
                   11         12         13         14         15
    11  C    0.000000
    12  H    1.082779   0.000000
    13  H    1.085761   1.758860   0.000000
    14  H    1.082180   1.763445   1.758012   0.000000
    15  C    2.501951   2.735739   2.764331   3.440101   0.000000
    16  O    3.072542   2.861030   3.457156   4.036751   1.208362
    17  N    3.350080   3.788291   3.227295   4.254404   1.340913
    18  H    3.427675   4.108478   3.186982   4.171745   2.014306
    19  C    4.618265   4.874180   4.382588   5.596463   2.462746
    20  H    4.779500   4.800076   4.671013   5.815328   2.528300
    21  H    5.434510   5.771564   5.257997   6.346331   3.168215
    22  H    4.935323   5.204979   4.466186   5.915580   3.172299
                   16         17         18         19         20
    16  O    0.000000
    17  N    2.251909   0.000000
    18  H    3.117356   0.992327   0.000000
    19  C    2.830395   1.451052   2.103860   0.000000
    20  H    2.397487   2.054498   2.940142   1.074960   0.000000
    21  H    3.567319   2.095225   2.487899   1.083629   1.759379
    22  H    3.576671   2.101027   2.492623   1.083888   1.759223
                   21         22
    21  H    0.000000
    22  H    1.761829   0.000000
 Stoichiometry    C6H12N2O2
 Framework group  C1[X(C6H12N2O2)]
 Deg. of freedom    60
 Full point group                 C1      NOp   1
 Largest Abelian subgroup         C1      NOp   1
 Largest concise Abelian subgroup C1      NOp   1
                         Standard orientation:                         
 ---------------------------------------------------------------------
 Center     Atomic      Atomic             Coordinates (Angstroms)
 Number     Number       Type             X           Y           Z
 ---------------------------------------------------------------------
      1          1           0       -4.163180   -1.070104   -0.337945
      2          6           0       -3.251510   -1.194820    0.222560
      3          1           0       -2.889318   -2.211329    0.106650
      4          1           0       -3.447043   -1.024899    1.276539
      5          6           0       -2.234619   -0.203083   -0.298067
      6          8           0       -2.482614    0.566599   -1.193149
      7          7           0       -1.038276   -0.240031    0.313128
      8          1           0       -0.863741   -0.880697    1.054036
      9          6           0        0.043120    0.639311   -0.049373
     10          1           0       -0.055317    0.848815   -1.103893
     11          6           0        0.024325    1.960535    0.736844
     12          1           0        0.099445    1.763533    1.798897
     13          1           0        0.851606    2.601565    0.447770
     14          1           0       -0.900285    2.486973    0.539170
     15          6           0        1.332599   -0.112293    0.235286
     16          8           0        1.468506   -0.695510    1.284822
     17          7           0        2.275483   -0.050480   -0.716132
     18          1           0        2.074533    0.443342   -1.553074
     19          6           0        3.585872   -0.661467   -0.593138
     20          1           0        3.635224   -1.148475    0.363902
     21          1           0        3.740417   -1.395869   -1.374817
     22          1           0        4.371359    0.082903   -0.654273
 ---------------------------------------------------------------------
 Rotational constants (GHZ):      2.5359989      0.6670567      0.6389219
 Standard basis: 6-31G(d) (6D, 7F)
 There are   174 symmetry adapted basis functions of A   symmetry.
 Integral buffers will be    131072 words long.
 Raffenetti 1 integral format.
 Two-electron integral symmetry is turned on.
   174 basis functions,   328 primitive gaussians,   174 cartesian basis functions
    39 alpha electrons       39 beta electrons
       nuclear repulsion energy       553.6719674800 Hartrees.
 NAtoms=   22 NActive=   22 NUniq=   22 SFac= 7.50D-01 NAtFMM=   80 NAOKFM=F Big=F
 One-electron integrals computed using PRISM.
 NBasis=   174 RedAO= T  NBF=   174
 NBsUse=   174 1.00D-06 NBFU=   174
 Initial guess read from the read-write file.
 B after Tr=     0.000000    0.000000    0.000000
         Rot=    1.000000    0.000000    0.000000    0.000000 Ang=   0.00 deg.
 Initial guess orbital symmetries:
       Occupied  (A) (A) (A) (A) (A) (A) (A) (A) (A) (A) (A) (A)
                 (A) (A) (A) (A) (A) (A) (A) (A) (A) (A) (A) (A)
                 (A) (A) (A) (A) (A) (A) (A) (A) (A) (A) (A) (A)
                 (A) (A) (A)
       Virtual   (A) (A) (A) (A) (A) (A) (A) (A) (A) (A) (A) (A)
                 (A) (A) (A) (A) (A) (A) (A) (A) (A) (A) (A) (A)
                 (A) (A) (A) (A) (A) (A) (A) (A) (A) (A) (A) (A)
                 (A) (A) (A) (A) (A) (A) (A) (A) (A) (A) (A) (A)
                 (A) (A) (A) (A) (A) (A) (A) (A) (A) (A) (A) (A)
                 (A) (A) (A) (A) (A) (A) (A) (A) (A) (A) (A) (A)
                 (A) (A) (A) (A) (A) (A) (A) (A) (A) (A) (A) (A)
                 (A) (A) (A) (A) (A) (A) (A) (A) (A) (A) (A) (A)
                 (A) (A) (A) (A) (A) (A) (A) (A) (A) (A) (A) (A)
                 (A) (A) (A) (A) (A) (A) (A) (A) (A) (A) (A) (A)
                 (A) (A) (A) (A) (A) (A) (A) (A) (A) (A) (A) (A)
                 (A) (A) (A)
 Harris functional with IExCor=  205 diagonalized for initial guess.
 ExpMin= 1.61D-01 ExpMax= 5.48D+03 ExpMxC= 8.25D+02 IAcc=1 IRadAn=         1 AccDes= 0.00D+00
 HarFok:  IExCor=  205 AccDes= 0.00D+00 IRadAn=         1 IDoV= 1
 ScaDFX=  1.000000  1.000000  1.000000  1.000000
 FoFCou: FMM=F IPFlag=           0 FMFlag=      100000 FMFlg1=           0
         NFxFlg=           0 DoJE=T BraDBF=F KetDBF=T FulRan=T
         Omega=  0.000000  0.000000  1.000000  0.000000  0.000000 ICntrl=     500 IOpCl=  0
         NMat0=    1 NMatS0=    1 NMatT0=    0 NMatD0=    1 NMtDS0=    0 NMtDT0=    0
         I1Cent=           4 NGrid=           0.
 Petite list used in FoFCou.
 Requested convergence on RMS density matrix=1.00D-08 within 128 cycles.
 Requested convergence on MAX density matrix=1.00D-06.
 Requested convergence on             energy=1.00D-06.
 No special actions if energy rises.
 Integral accuracy reduced to 1.0D-05 until final iterations.
 Initial convergence to 1.0D-05 achieved.  Increase integral accuracy.
 SCF Done:  E(RHF) =  -492.859304121     A.U. after   13 cycles
             Convg  =    0.5616D-08             -V/T =  2.0014
 Calling FoFJK, ICntrl=      2127 FMM=F ISym2X=0 I1Cent= 0 IOpClX= 0 NMat=1 NMatS=1 NMatT=0.
 ***** Axes restored to original set *****
 -------------------------------------------------------------------
 Center     Atomic                   Forces (Hartrees/Bohr)
 Number     Number              X              Y              Z
 -------------------------------------------------------------------
      1        1          -0.001246052   -0.001623504    0.000587834
      2        6           0.000419970    0.000752208    0.000352926
      3        1          -0.000102648   -0.000124009   -0.000158896
      4        1           0.000056126    0.000062824    0.000162890
      5        6           0.003466240   -0.008784753    0.003292618
      6        8          -0.004103371    0.002744179   -0.001980018
      7        7          -0.001512358    0.003418717   -0.002587510
      8        1          -0.000322788    0.000052867   -0.001359208
      9        6           0.004400509   -0.000391918   -0.000224556
     10        1           0.001069088   -0.000336443    0.000348847
     11        6          -0.001719015    0.000636150    0.002003421
     12        1          -0.000421018    0.000207559   -0.000325299
     13        1           0.000062926    0.000310461    0.000658273
     14        1          -0.000240256   -0.000598674    0.000477624
     15        6          -0.003557350    0.003151221   -0.007187622
     16        8           0.001969633   -0.000646714    0.004737419
     17        7           0.003103030    0.005482402    0.001834079
     18        1           0.000407807   -0.001838107    0.000806720
     19        6          -0.000481557   -0.002906984   -0.000178595
     20        1          -0.001412890    0.001467109   -0.001151611
     21        1          -0.000265552   -0.000192613    0.000256205
     22        1           0.000429526   -0.000841978   -0.000365540
 -------------------------------------------------------------------
 Cartesian Forces:  Max     0.008784753 RMS     0.002302412

 GradGradGradGradGradGradGradGradGradGradGradGradGradGradGradGradGradGrad
 Berny optimization.
 Using GEDIIS/GDIIS optimizer.
 Internal  Forces:  Max     0.007422104 RMS     0.001507534
 Search for a local minimum.
 Step number   2 out of a maximum of  108
 All quantities printed in internal units (Hartrees-Bohrs-Radians)
 Mixed Optimization -- RFO/linear search
 Update second derivatives using D2CorX and points    1    2
 DE= -5.64D-03 DEPred=-6.23D-03 R= 9.05D-01
 SS=  1.41D+00  RLast= 2.42D-01 DXNew= 5.0454D-01 7.2542D-01
 Trust test= 9.05D-01 RLast= 2.42D-01 DXMaxT set to 5.05D-01
 Use linear search instead of GDIIS.
     Eigenvalues ---    0.00369   0.00435   0.01017   0.01043   0.01244
     Eigenvalues ---    0.01434   0.01654   0.02549   0.02555   0.03698
     Eigenvalues ---    0.05015   0.05628   0.05760   0.06147   0.07154
     Eigenvalues ---    0.07339   0.07458   0.07769   0.14674   0.15769
     Eigenvalues ---    0.15999   0.16000   0.16000   0.16000   0.16000
     Eigenvalues ---    0.16000   0.16000   0.16000   0.16000   0.16278
     Eigenvalues ---    0.17426   0.21928   0.22252   0.24832   0.24998
     Eigenvalues ---    0.25000   0.25367   0.29371   0.30021   0.30763
     Eigenvalues ---    0.34738   0.34809   0.34810   0.34811   0.34815
     Eigenvalues ---    0.34816   0.34817   0.34819   0.34821   0.35529
     Eigenvalues ---    0.38365   0.39466   0.45957   0.46483   0.57101
     Eigenvalues ---    0.58392   0.84443   0.915051000.000001000.00000
     Eigenvalues --- 1000.000001000.000001000.000001000.000001000.00000
     Eigenvalues --- 1000.000001000.000001000.000001000.000001000.00000
     Eigenvalues --- 1000.000001000.000001000.000001000.000001000.00000
     Eigenvalues --- 1000.000001000.000001000.000001000.000001000.00000
     Eigenvalues --- 1000.000001000.000001000.000001000.000001000.00000
     Eigenvalues --- 1000.000001000.000001000.000001000.000001000.00000
     Eigenvalues --- 1000.000001000.000001000.000001000.000001000.00000
     Eigenvalues --- 1000.000001000.000001000.00000
 RFO step:  Lambda=-7.97446646D-04 EMin= 3.68859527D-03
 Quartic linear search produced a step of -0.05037.
 Iteration  1 RMS(Cart)=  0.02069409 RMS(Int)=  0.00050803
 Iteration  2 RMS(Cart)=  0.00065784 RMS(Int)=  0.00016025
 Iteration  3 RMS(Cart)=  0.00000034 RMS(Int)=  0.00016025
 Iteration  1 RMS(Cart)=  0.00003261 RMS(Int)=  0.00000778
 Iteration  2 RMS(Cart)=  0.00001748 RMS(Int)=  0.00000869
 Iteration  3 RMS(Cart)=  0.00000938 RMS(Int)=  0.00000980
 Iteration  4 RMS(Cart)=  0.00000505 RMS(Int)=  0.00001053
 Iteration  5 RMS(Cart)=  0.00000272 RMS(Int)=  0.00001095
 Iteration  6 RMS(Cart)=  0.00000147 RMS(Int)=  0.00001119
 Iteration  7 RMS(Cart)=  0.00000080 RMS(Int)=  0.00001132
 Variable       Old X    -DE/DX   Delta X   Delta X   Delta X     New X
                                 (Linear)    (Quad)   (Total)
    R1        2.03605   0.00177   0.00119   0.00188   0.00307   2.03913
    R2        2.05095  -0.00009   0.00045  -0.00135  -0.00091   2.05004
    R3        2.05101  -0.00018   0.00044  -0.00156  -0.00112   2.04989
    R4        2.85884   0.00108   0.00164  -0.00057   0.00106   2.85990
    R5        2.27952  -0.00530   0.00216  -0.01076  -0.00860   2.27092
    R6        2.53967   0.00742  -0.00084   0.01414   0.01329   2.55296
    R7        1.88012   0.00085   0.00143  -0.00176  -0.00033   1.87979
    R8        2.72151   0.00448   0.00084   0.00899   0.00983   2.73135
    R9        2.04020   0.00091   0.00098   0.00004   0.00103   2.04122
   R10        2.90559  -0.00364  -0.00119  -0.00859  -0.00979   2.89580
   R11        2.87132   0.00359   0.00024   0.01066   0.01091   2.88223
   R12        2.04615   0.00053   0.00068  -0.00024   0.00044   2.04660
   R13        2.05179   0.00019   0.00041  -0.00048  -0.00007   2.05172
   R14        2.04502   0.00055   0.00074  -0.00031   0.00042   2.04545
   R15        2.28347  -0.00448   0.00197  -0.00944  -0.00747   2.27600
   R16        2.53396   0.00240  -0.00056   0.00527   0.00471   2.53867
   R17        1.87523   0.00164   0.00168  -0.00075   0.00093   1.87616
   R18        2.74209  -0.00254  -0.00019  -0.00579  -0.00598   2.73611
   R19        2.03138   0.00221   0.00143   0.00250   0.00392   2.03530
   R20        2.04776   0.00025   0.00061  -0.00082  -0.00021   2.04755
   R21        2.04825   0.00013   0.00058  -0.00110  -0.00051   2.04774
    A1        1.91265  -0.00066  -0.00008  -0.00240  -0.00251   1.91014
    A2        1.91201  -0.00055  -0.00004  -0.00231  -0.00237   1.90963
    A3        1.89004   0.00178   0.00247   0.00534   0.00778   1.89782
    A4        1.88648  -0.00017   0.00119  -0.00613  -0.00490   1.88158
    A5        1.93148  -0.00002  -0.00179   0.00393   0.00215   1.93363
    A6        1.93121  -0.00040  -0.00177   0.00145  -0.00031   1.93090
    A7        2.13584  -0.00041  -0.00165   0.00256   0.00082   2.13666
    A8        2.00846   0.00016   0.00134  -0.00270  -0.00145   2.00701
    A9        2.13887   0.00025   0.00031   0.00023   0.00044   2.13931
   A10        2.10893  -0.00033  -0.00074   0.00058  -0.00024   2.10870
   A11        2.13787   0.00095  -0.00052   0.00534   0.00474   2.14260
   A12        2.03633  -0.00062   0.00126  -0.00616  -0.00497   2.03136
   A13        1.87117   0.00086   0.00201  -0.00171   0.00029   1.87146
   A14        1.96794  -0.00217  -0.00146  -0.00414  -0.00569   1.96225
   A15        1.86299   0.00183   0.00383   0.00199   0.00585   1.86884
   A16        1.90878   0.00001  -0.00064  -0.00439  -0.00500   1.90378
   A17        1.93516  -0.00031  -0.00197   0.00399   0.00216   1.93732
   A18        1.91732  -0.00017  -0.00181   0.00440   0.00259   1.91991
   A19        1.92235   0.00003  -0.00056   0.00218   0.00162   1.92397
   A20        1.94107  -0.00085  -0.00151  -0.00142  -0.00293   1.93814
   A21        1.91246  -0.00066  -0.00007  -0.00407  -0.00415   1.90831
   A22        1.89199   0.00050   0.00091   0.00125   0.00218   1.89417
   A23        1.90387   0.00038   0.00032   0.00190   0.00223   1.90610
   A24        1.89142   0.00064   0.00094   0.00026   0.00120   1.89262
   A25        2.09084   0.00213   0.00062   0.00701   0.00675   2.09759
   A26        2.02753  -0.00069   0.00038  -0.00296  -0.00345   2.02408
   A27        2.16450  -0.00143  -0.00099  -0.00224  -0.00409   2.16041
   A28        2.07028  -0.00033   0.00122  -0.00619  -0.00498   2.06530
   A29        2.15970  -0.00149  -0.00162  -0.00235  -0.00397   2.15573
   A30        2.05319   0.00182   0.00040   0.00856   0.00896   2.06215
   A31        1.88356   0.00143   0.00139   0.00560   0.00699   1.89055
   A32        1.93159  -0.00030  -0.00104   0.00078  -0.00026   1.93133
   A33        1.93959  -0.00161  -0.00143  -0.00654  -0.00797   1.93162
   A34        1.90565  -0.00030   0.00022  -0.00102  -0.00081   1.90485
   A35        1.90507   0.00005   0.00026  -0.00029  -0.00003   1.90504
   A36        1.89800   0.00074   0.00061   0.00151   0.00214   1.90014
    D1        0.00189  -0.00019  -0.00009  -0.00743  -0.00753  -0.00564
    D2        3.13937   0.00017   0.00011   0.01751   0.01762  -3.12620
    D3        2.09863   0.00011   0.00024  -0.00465  -0.00439   2.09425
    D4       -1.04707   0.00046   0.00044   0.02028   0.02076  -1.02631
    D5       -2.09390  -0.00038  -0.00048  -0.00881  -0.00932  -2.10322
    D6        1.04358  -0.00002  -0.00027   0.01612   0.01582   1.05940
    D7       -0.00460  -0.00058   0.00023  -0.03060  -0.03040  -0.03499
    D8       -3.13452  -0.00008  -0.00035  -0.00553  -0.00585  -3.14037
    D9        3.13288  -0.00022   0.00044  -0.00562  -0.00521   3.12767
   D10        0.00296   0.00028  -0.00015   0.01946   0.01933   0.02229
   D11       -0.54344   0.00045   0.00100   0.00480   0.00574  -0.53770
   D12        1.55829  -0.00029   0.00063  -0.00430  -0.00367   1.55462
   D13       -2.61802  -0.00058   0.00000   0.00000   0.00000  -2.61802
   D14        2.60937   0.00092   0.00044   0.02886   0.02924   2.63861
   D15       -1.57208   0.00019   0.00007   0.01976   0.01983  -1.55225
   D16        0.53479  -0.00010  -0.00056   0.02406   0.02350   0.55829
   D17        1.03891   0.00038   0.00042   0.00832   0.00872   1.04764
   D18        3.13689   0.00047   0.00024   0.01041   0.01062  -3.13568
   D19       -1.05554   0.00031   0.00042   0.00718   0.00758  -1.04795
   D20        3.11894   0.00008   0.00159   0.00057   0.00217   3.12111
   D21       -1.06627   0.00017   0.00141   0.00265   0.00406  -1.06221
   D22        1.02449   0.00001   0.00159  -0.00057   0.00103   1.02551
   D23       -1.03660  -0.00041  -0.00224   0.00549   0.00327  -1.03333
   D24        1.06137  -0.00032  -0.00242   0.00758   0.00516   1.06654
   D25       -3.13105  -0.00048  -0.00224   0.00435   0.00213  -3.12892
   D26       -0.81162   0.00218   0.00132   0.07340   0.07487  -0.73675
   D27        2.35615   0.00170   0.00000   0.00000   0.00000   2.35615
   D28       -2.84404   0.00027  -0.00225   0.07220   0.06998  -2.77406
   D29        0.32373  -0.00021  -0.00357  -0.00120  -0.00489   0.31884
   D30        1.32730   0.00058   0.00078   0.07219   0.07312   1.40042
   D31       -1.78811   0.00009  -0.00054  -0.00121  -0.00175  -1.78986
   D32       -0.03869   0.00001   0.00195   0.02401   0.02581  -0.01288
   D33        3.09744   0.00011   0.00222   0.02824   0.03028   3.12772
   D34        3.13031  -0.00056   0.00057  -0.05299  -0.05224   3.07807
   D35       -0.01675  -0.00046   0.00084  -0.04876  -0.04776  -0.06451
   D36        0.00391  -0.00014  -0.00019  -0.00233  -0.00254   0.00137
   D37        2.08814   0.00019   0.00032   0.00033   0.00065   2.08879
   D38       -2.08431  -0.00015  -0.00051  -0.00163  -0.00214  -2.08645
   D39        3.14009  -0.00005   0.00007   0.00182   0.00189  -3.14120
   D40       -1.05887   0.00028   0.00058   0.00448   0.00508  -1.05379
   D41        1.05188  -0.00006  -0.00024   0.00252   0.00228   1.05416
         Item               Value     Threshold  Converged?
 Maximum Force            0.007422     0.000450     NO 
 RMS     Force            0.001498     0.000300     NO 
 Maximum Displacement     0.084692     0.001800     NO 
 RMS     Displacement     0.020629     0.001200     NO 
 Predicted change in Energy=-4.277307D-04
 GradGradGradGradGradGradGradGradGradGradGradGradGradGradGradGradGradGrad

                          Input orientation:                          
 ---------------------------------------------------------------------
 Center     Atomic      Atomic             Coordinates (Angstroms)
 Number     Number       Type             X           Y           Z
 ---------------------------------------------------------------------
      1          1           0        1.871799    1.330145    1.000029
      2          6           0        1.940124    2.287657    0.507206
      3          1           0        1.273695    2.992305    0.993224
      4          1           0        1.620259    2.185899   -0.524308
      5          6           0        3.373378    2.768700    0.576108
      6          8           0        4.240472    2.134999    1.115271
      7          7           0        3.598816    3.974001    0.009061
      8          1           0        2.863940    4.470997   -0.440898
      9          6           0        4.905079    4.591914   -0.021666
     10          1           0        5.432873    4.268460    0.863533
     11          6           0        5.712513    4.190946   -1.260818
     12          1           0        5.189417    4.488566   -2.161213
     13          1           0        6.690567    4.662327   -1.258240
     14          1           0        5.849926    3.117318   -1.267125
     15          6           0        4.686959    6.101376   -0.007037
     16          8           0        3.819048    6.594344   -0.681064
     17          7           0        5.470175    6.800872    0.830825
     18          1           0        6.124370    6.304722    1.389000
     19          6           0        5.412857    8.241532    0.963465
     20          1           0        4.656728    8.613449    0.292680
     21          1           0        5.156673    8.522068    1.978197
     22          1           0        6.366431    8.687601    0.706668
 ---------------------------------------------------------------------
                    Distance matrix (angstroms):
                    1          2          3          4          5
     1  H    0.000000
     2  C    1.079060   0.000000
     3  H    1.766508   1.084837   0.000000
     4  H    1.766124   1.084754   1.753084   0.000000
     5  C    2.122237   1.513396   2.152360   2.150349   0.000000
     6  O    2.504332   2.384250   3.090572   3.091331   1.201718
     7  N    3.309770   2.417264   2.708965   2.719647   1.350968
     8  H    3.595214   2.553294   2.602329   2.602954   2.047350
     9  C    4.569878   3.792132   4.095815   4.102633   2.455107
    10  H    4.618828   4.031110   4.352488   4.560613   2.563867
    11  C    5.295913   4.580321   5.120601   4.616190   3.296761
    12  H    5.565578   4.745773   5.246155   4.551990   3.707945
    13  H    6.278833   5.596657   6.099227   5.690288   4.237263
    14  H    4.915227   4.373001   5.105555   4.394246   3.106820
    15  C    5.630626   4.728002   4.724110   5.000318   3.629364
    16  O    5.859150   4.846637   4.717705   4.928856   4.051500
    17  N    6.550251   5.738911   5.669391   6.160861   4.551906
    18  H    6.556072   5.867051   5.887087   6.396286   4.553263
    19  C    7.765802   6.907725   6.684903   7.298490   5.853324
    20  H    7.829603   6.887787   6.597949   7.155488   5.990693
    21  H    7.966866   7.167837   6.828321   7.675662   6.184435
    22  H    8.626699   7.784039   7.645552   8.143315   6.633913
                    6          7          8          9         10
     6  O    0.000000
     7  N    2.239945   0.000000
     8  H    3.126242   0.994742   0.000000
     9  C    2.787609   1.445366   2.087253   0.000000
    10  H    2.457000   2.044650   2.888248   1.080170   0.000000
    11  C    3.469816   2.475353   2.977426   1.532391   2.144078
    12  H    4.144288   2.739503   2.892686   2.160831   3.042499
    13  H    4.245458   3.411564   3.917618   2.173026   2.497768
    14  H    3.038273   2.725812   3.381007   2.149032   2.457390
    15  C    4.146212   2.389568   2.483902   1.525210   2.161911
    16  O    4.825990   2.718634   2.340622   2.371496   3.224895
    17  N    4.833576   3.488335   3.719954   2.434249   2.532898
    18  H    4.583731   3.703365   4.164310   2.531869   2.213740
    19  C    6.219910   4.734284   4.762997   3.814188   3.974378
    20  H    6.543718   4.766980   4.572979   4.041439   4.450528
    21  H    6.509894   5.195125   5.245934   4.416883   4.405898
    22  H    6.900961   5.510388   5.600366   4.409158   4.519396
                   11         12         13         14         15
    11  C    0.000000
    12  H    1.083014   0.000000
    13  H    1.085724   1.760399   0.000000
    14  H    1.082405   1.765216   1.758924   0.000000
    15  C    2.504690   2.737534   2.766011   3.441645   0.000000
    16  O    3.114104   2.915999   3.508767   4.069108   1.204409
    17  N    3.353417   3.791816   3.229075   4.256075   1.343404
    18  H    3.414558   4.095921   3.166373   4.158109   2.014055
    19  C    4.630818   4.888588   4.402184   5.605723   2.459485
    20  H    4.804849   4.829079   4.706721   5.836452   2.530070
    21  H    5.436800   5.779699   5.265449   6.342243   3.165681
    22  H    4.951618   5.219387   4.490965   5.932175   3.165211
                   16         17         18         19         20
    16  O    0.000000
    17  N    2.248262   0.000000
    18  H    3.111841   0.992822   0.000000
    19  C    2.820981   1.447888   2.106789   0.000000
[...]
    14  H    5.099725   4.339472   4.868334   4.322419   3.104951
    15  C    5.478711   4.747082   4.638103   5.347502   3.626211
    16  O    5.746274   4.909639   4.563700   5.444504   4.083531
    17  N    6.355165   5.768661   5.709510   6.462606   4.553300
    18  H    6.336472   5.866718   5.965246   6.581146   4.536005
    19  C    7.499542   6.917384   6.693936   7.651246   5.835784
    20  H    8.016446   7.321132   7.038292   7.956412   6.285562
    21  H    7.356816   6.838731   6.488390   7.656098   5.928254
    22  H    8.237665   7.726361   7.583912   8.480246   6.557635
                    6          7          8          9         10
     6  O    0.000000
     7  N    2.241451   0.000000
     8  H    3.127477   0.995353   0.000000
     9  C    2.784654   1.445595   2.089251   0.000000
    10  H    2.449395   2.044446   2.896931   1.080690   0.000000
    11  C    3.472101   2.476545   2.958134   1.531448   2.145036
    12  H    4.151529   2.743398   2.867352   2.161641   3.044687
    13  H    4.244070   3.411596   3.903415   2.170880   2.496459
    14  H    3.045443   2.728701   3.357156   2.150008   2.461228
    15  C    4.139571   2.388262   2.500676   1.524197   2.158662
    16  O    4.849426   2.747549   2.391594   2.375583   3.232281
    17  N    4.829800   3.490993   3.744393   2.438840   2.536750
    18  H    4.565220   3.696542   4.175340   2.555358   2.226319
    19  C    6.206513   4.712698   4.757034   3.806123   3.977617
    20  H    6.751407   5.045428   4.951957   4.130461   4.517259
    21  H    6.405477   4.853060   4.778736   4.231748   4.419345
    22  H    6.770473   5.527210   5.692338   4.496367   4.459346
                   11         12         13         14         15
    11  C    0.000000
    12  H    1.083732   0.000000
    13  H    1.085935   1.760841   0.000000
    14  H    1.083038   1.765492   1.759894   0.000000
    15  C    2.504272   2.739041   2.764054   3.442335   0.000000
    16  O    3.090450   2.885407   3.472080   4.054283   1.204588
    17  N    3.356523   3.794104   3.229736   4.261561   1.343643
    18  H    3.476418   4.155117   3.248474   4.217345   2.021385
    19  C    4.626549   4.874110   4.407119   5.605833   2.438887
    20  H    4.676556   4.711998   4.408393   5.729827   2.685742
    21  H    5.269086   5.464983   5.225002   6.218909   2.840424
    22  H    5.243941   5.616213   4.849921   6.171713   3.303352
                   16         17         18         19         20
    16  O    0.000000
    17  N    2.240650   0.000000
    18  H    3.110616   0.993032   0.000000
    19  C    2.770183   1.448283   2.114628   0.000000
    20  H    2.665735   2.082566   2.893567   1.080571   0.000000
    21  H    2.947013   2.103284   2.745963   1.083869   1.756003
    22  H    3.803634   2.066656   2.299068   1.081592   1.761086
                   21         22
    21  H    0.000000
    22  H    1.763508   0.000000
 Stoichiometry    C6H12N2O2
 Framework group  C1[X(C6H12N2O2)]
 Deg. of freedom    60
 Full point group                 C1      NOp   1
 Largest Abelian subgroup         C1      NOp   1
 Largest concise Abelian subgroup C1      NOp   1
                         Standard orientation:                         
 ---------------------------------------------------------------------
 Center     Atomic      Atomic             Coordinates (Angstroms)
 Number     Number       Type             X           Y           Z
 ---------------------------------------------------------------------
      1          1           0       -3.874154   -1.544847   -0.566183
      2          6           0       -3.275238   -1.169514    0.252084
      3          1           0       -2.842431   -1.999022    0.798287
      4          1           0       -3.928606   -0.618133    0.920448
      5          6           0       -2.236068   -0.219078   -0.302126
      6          8           0       -2.479677    0.521949   -1.217873
      7          7           0       -1.033532   -0.247936    0.311847
      8          1           0       -0.876407   -0.840072    1.096330
      9          6           0        0.045104    0.644054   -0.049599
     10          1           0       -0.055724    0.855362   -1.104622
     11          6           0        0.006584    1.959753    0.733207
     12          1           0        0.088691    1.767592    1.796602
     13          1           0        0.823024    2.611535    0.436795
     14          1           0       -0.928341    2.469533    0.535694
     15          6           0        1.348445   -0.094369    0.231844
     16          8           0        1.504376   -0.690249    1.267047
     17          7           0        2.293656   -0.020878   -0.720286
     18          1           0        2.068649    0.400362   -1.590941
     19          6           0        3.575251   -0.679138   -0.572864
     20          1           0        4.007822   -0.436172    0.387076
     21          1           0        3.479216   -1.756467   -0.642945
     22          1           0        4.235326   -0.331820   -1.356134
 ---------------------------------------------------------------------
 Rotational constants (GHZ):      2.5517296      0.6625977      0.6363156

 **********************************************************************

            Population analysis using the SCF density.

 **********************************************************************

 Orbital symmetries:
       Occupied  (A) (A) (A) (A) (A) (A) (A) (A) (A) (A) (A) (A)
                 (A) (A) (A) (A) (A) (A) (A) (A) (A) (A) (A) (A)
                 (A) (A) (A) (A) (A) (A) (A) (A) (A) (A) (A) (A)
                 (A) (A) (A)
       Virtual   (A) (A) (A) (A) (A) (A) (A) (A) (A) (A) (A) (A)
                 (A) (A) (A) (A) (A) (A) (A) (A) (A) (A) (A) (A)
                 (A) (A) (A) (A) (A) (A) (A) (A) (A) (A) (A) (A)
                 (A) (A) (A) (A) (A) (A) (A) (A) (A) (A) (A) (A)
                 (A) (A) (A) (A) (A) (A) (A) (A) (A) (A) (A) (A)
                 (A) (A) (A) (A) (A) (A) (A) (A) (A) (A) (A) (A)
                 (A) (A) (A) (A) (A) (A) (A) (A) (A) (A) (A) (A)
                 (A) (A) (A) (A) (A) (A) (A) (A) (A) (A) (A) (A)
                 (A) (A) (A) (A) (A) (A) (A) (A) (A) (A) (A) (A)
                 (A) (A) (A) (A) (A) (A) (A) (A) (A) (A) (A) (A)
                 (A) (A) (A) (A) (A) (A) (A) (A) (A) (A) (A) (A)
                 (A) (A) (A)
 The electronic state is 1-A.
 Alpha  occ. eigenvalues --  -20.53037 -20.51722 -15.59664 -15.58227 -11.35112
 Alpha  occ. eigenvalues --  -11.34588 -11.27923 -11.26468 -11.22987 -11.22215
 Alpha  occ. eigenvalues --   -1.40078  -1.38560  -1.24321  -1.23621  -1.05582
 Alpha  occ. eigenvalues --   -0.99163  -0.96578  -0.88222  -0.80428  -0.78959
 Alpha  occ. eigenvalues --   -0.73133  -0.67260  -0.65796  -0.64381  -0.63242
 Alpha  occ. eigenvalues --   -0.62090  -0.60166  -0.58581  -0.57414  -0.56598
 Alpha  occ. eigenvalues --   -0.56156  -0.54082  -0.52493  -0.52159  -0.49826
 Alpha  occ. eigenvalues --   -0.42908  -0.41469  -0.39970  -0.38325
 Alpha virt. eigenvalues --    0.18848   0.21318   0.21401   0.23602   0.26178
 Alpha virt. eigenvalues --    0.27524   0.28857   0.30598   0.31222   0.31943
 Alpha virt. eigenvalues --    0.32326   0.33358   0.33653   0.35564   0.37283
 Alpha virt. eigenvalues --    0.39979   0.41269   0.42039   0.46893   0.51052
 Alpha virt. eigenvalues --    0.52173   0.60640   0.62794   0.71036   0.71665
 Alpha virt. eigenvalues --    0.73645   0.74456   0.75689   0.77117   0.77606
 Alpha virt. eigenvalues --    0.80569   0.82143   0.85411   0.86945   0.88535
 Alpha virt. eigenvalues --    0.90491   0.95370   0.97451   0.97805   1.00593
 Alpha virt. eigenvalues --    1.01886   1.03538   1.04899   1.06199   1.08452
 Alpha virt. eigenvalues --    1.10117   1.12485   1.13738   1.14497   1.15484
 Alpha virt. eigenvalues --    1.15958   1.18224   1.19316   1.20161   1.20406
 Alpha virt. eigenvalues --    1.21393   1.21776   1.22551   1.23733   1.24134
 Alpha virt. eigenvalues --    1.27543   1.33506   1.35609   1.38015   1.38101
 Alpha virt. eigenvalues --    1.42468   1.50180   1.54830   1.55807   1.58963
 Alpha virt. eigenvalues --    1.65290   1.67643   1.71763   1.74709   1.77159
 Alpha virt. eigenvalues --    1.80169   1.82487   1.87238   1.92608   1.96831
 Alpha virt. eigenvalues --    2.02167   2.05416   2.07214   2.10628   2.12685
 Alpha virt. eigenvalues --    2.14441   2.14839   2.19217   2.20486   2.20692
 Alpha virt. eigenvalues --    2.23467   2.26685   2.30752   2.33045   2.34985
 Alpha virt. eigenvalues --    2.35168   2.40504   2.41725   2.45980   2.50210
 Alpha virt. eigenvalues --    2.53874   2.54475   2.58261   2.59019   2.62885
 Alpha virt. eigenvalues --    2.64197   2.68627   2.71434   2.73875   2.77784
 Alpha virt. eigenvalues --    2.80524   2.83806   2.87515   2.97031   2.98114
 Alpha virt. eigenvalues --    3.03841   3.06075   3.08558   3.12268   3.25683
 Alpha virt. eigenvalues --    3.31497   3.37780   3.39379   3.54507   3.58471
 Alpha virt. eigenvalues --    4.37656   4.42839   4.49698   4.59019   4.63087
 Alpha virt. eigenvalues --    4.68738   4.73228   4.82930   4.91802   5.07359
          Condensed to atoms (all electrons):
              1          2          3          4          5          6
     1  H    0.472705   0.383833  -0.022231  -0.018916  -0.030590   0.002211
     2  C    0.383833   5.251205   0.375223   0.378511   0.372048  -0.073244
     3  H   -0.022231   0.375223   0.524080  -0.023315  -0.038118   0.002602
     4  H   -0.018916   0.378511  -0.023315   0.488156  -0.026780   0.000067
     5  C   -0.030590   0.372048  -0.038118  -0.026780   4.136100   0.604736
     6  O    0.002211  -0.073244   0.002602   0.000067   0.604736   8.171281
     7  N    0.003341  -0.113368   0.005962   0.000451   0.268960  -0.106454
     8  H    0.000015  -0.000476   0.000987   0.000033  -0.013754   0.002046
     9  C   -0.000112   0.005359   0.000029  -0.000181  -0.028970   0.006379
    10  H    0.000006   0.000422  -0.000031  -0.000012  -0.001368   0.008912
    11  C   -0.000002  -0.000354   0.000006   0.000053  -0.001782  -0.001941
    12  H    0.000000  -0.000003   0.000000  -0.000003   0.000077  -0.000015
    13  H    0.000000   0.000004   0.000000  -0.000001  -0.000003  -0.000023
    14  H    0.000001   0.000037  -0.000003  -0.000009   0.001645   0.002424
    15  C    0.000003  -0.000064  -0.000026  -0.000001   0.003339   0.000451
    16  O    0.000000  -0.000020  -0.000008   0.000000   0.000273  -0.000003
    17  N    0.000000  -0.000001   0.000000   0.000000  -0.000138  -0.000005
    18  H    0.000000   0.000000   0.000000   0.000000  -0.000016  -0.000012
    19  C    0.000000   0.000000   0.000000   0.000000   0.000001   0.000000
    20  H    0.000000   0.000000   0.000000   0.000000   0.000000   0.000000
    21  H    0.000000   0.000000   0.000000   0.000000   0.000000   0.000000
    22  H    0.000000   0.000000   0.000000   0.000000   0.000000   0.000000
              7          8          9         10         11         12
     1  H    0.003341   0.000015  -0.000112   0.000006  -0.000002   0.000000
     2  C   -0.113368  -0.000476   0.005359   0.000422  -0.000354  -0.000003
     3  H    0.005962   0.000987   0.000029  -0.000031   0.000006   0.000000
     4  H    0.000451   0.000033  -0.000181  -0.000012   0.000053  -0.000003
     5  C    0.268960  -0.013754  -0.028970  -0.001368  -0.001782   0.000077
     6  O   -0.106454   0.002046   0.006379   0.008912  -0.001941  -0.000015
     7  N    7.411422   0.313269   0.183962  -0.041637  -0.065823  -0.000655
     8  H    0.313269   0.298447  -0.027008   0.002995   0.001861   0.001026
     9  C    0.183962  -0.027008   5.064142   0.411443   0.343026  -0.037488
    10  H   -0.041637   0.002995   0.411443   0.476256  -0.036358   0.003708
    11  C   -0.065823   0.001861   0.343026  -0.036358   5.137517   0.390108
    12  H   -0.000655   0.001026  -0.037488   0.003708   0.390108   0.506858
    13  H    0.004765  -0.000044  -0.037426   0.000100   0.381598  -0.023844
    14  H   -0.004099  -0.000206  -0.032438  -0.003492   0.392821  -0.023818
    15  C   -0.042212  -0.005555   0.358119  -0.048496  -0.052669  -0.004914
    16  O   -0.003934   0.015871  -0.081965   0.002328   0.000216   0.003668
    17  N    0.001301   0.000807  -0.098094   0.005630  -0.000583   0.000467
    18  H   -0.000027  -0.000030   0.000816   0.002164   0.000136  -0.000005
    19  C   -0.000134  -0.000022   0.004936  -0.000006  -0.000259  -0.000004
    20  H   -0.000008  -0.000004   0.000056  -0.000004   0.000039   0.000000
    21  H    0.000023   0.000004  -0.000207  -0.000003  -0.000009   0.000000
    22  H    0.000000   0.000000  -0.000008  -0.000020   0.000005   0.000000
             13         14         15         16         17         18
     1  H    0.000000   0.000001   0.000003   0.000000   0.000000   0.000000
     2  C    0.000004   0.000037  -0.000064  -0.000020  -0.000001   0.000000
     3  H    0.000000  -0.000003  -0.000026  -0.000008   0.000000   0.000000
     4  H   -0.000001  -0.000009  -0.000001   0.000000   0.000000   0.000000
     5  C   -0.000003   0.001645   0.003339   0.000273  -0.000138  -0.000016
     6  O   -0.000023   0.002424   0.000451  -0.000003  -0.000005  -0.000012
     7  N    0.004765  -0.004099  -0.042212  -0.003934   0.001301  -0.000027
     8  H   -0.000044  -0.000206  -0.005555   0.015871   0.000807  -0.000030
     9  C   -0.037426  -0.032438   0.358119  -0.081965  -0.098094   0.000816
    10  H    0.000100  -0.003492  -0.048496   0.002328   0.005630   0.002164
    11  C    0.381598   0.392821  -0.052669   0.000216  -0.000583   0.000136
    12  H   -0.023844  -0.023818  -0.004914   0.003668   0.000467  -0.000005
    13  H    0.534692  -0.023358  -0.001947   0.000012   0.001529   0.000028
    14  H   -0.023358   0.488519   0.004547  -0.000053  -0.000095  -0.000013
    15  C   -0.001947   0.004547   4.194202   0.586282   0.285317  -0.019721
    16  O    0.000012  -0.000053   0.586282   8.199259  -0.103699   0.002492
    17  N    0.001529  -0.000095   0.285317  -0.103699   7.306478   0.326975
    18  H    0.000028  -0.000013  -0.019721   0.002492   0.326975   0.318100
    19  C   -0.000031   0.000003  -0.031886   0.008645   0.195265  -0.022181
    20  H   -0.000012   0.000000  -0.002877   0.003177  -0.040570   0.002424
    21  H    0.000002   0.000000  -0.003249   0.001282  -0.045563   0.001452
    22  H   -0.000002   0.000000   0.004603   0.000360  -0.037044  -0.004607
             19         20         21         22
     1  H    0.000000   0.000000   0.000000   0.000000
     2  C    0.000000   0.000000   0.000000   0.000000
     3  H    0.000000   0.000000   0.000000   0.000000
     4  H    0.000000   0.000000   0.000000   0.000000
     5  C    0.000001   0.000000   0.000000   0.000000
     6  O    0.000000   0.000000   0.000000   0.000000
     7  N   -0.000134  -0.000008   0.000023   0.000000
     8  H   -0.000022  -0.000004   0.000004   0.000000
     9  C    0.004936   0.000056  -0.000207  -0.000008
    10  H   -0.000006  -0.000004  -0.000003  -0.000020
    11  C   -0.000259   0.000039  -0.000009   0.000005
    12  H   -0.000004   0.000000   0.000000   0.000000
    13  H   -0.000031  -0.000012   0.000002  -0.000002
    14  H    0.000003   0.000000   0.000000   0.000000
    15  C   -0.031886  -0.002877  -0.003249   0.004603
    16  O    0.008645   0.003177   0.001282   0.000360
    17  N    0.195265  -0.040570  -0.045563  -0.037044
    18  H   -0.022181   0.002424   0.001452  -0.004607
    19  C    4.912587   0.404318   0.405832   0.396906
    20  H    0.404318   0.488679  -0.032742  -0.024996
    21  H    0.405832  -0.032742   0.519526  -0.030895
    22  H    0.396906  -0.024996  -0.030895   0.524264
 Mulliken atomic charges:
              1
     1  H    0.209738
     2  C   -0.579109
     3  H    0.174844
     4  H    0.201947
     5  C    0.754343
     6  O   -0.619410
     7  N   -0.815106
     8  H    0.409736
     9  C   -0.034369
    10  H    0.217463
    11  C   -0.487610
    12  H    0.184837
    13  H    0.163961
    14  H    0.197587
    15  C    0.776755
    16  O   -0.634184
    17  N   -0.797977
    18  H    0.392025
    19  C   -0.273970
    20  H    0.202519
    21  H    0.184545
    22  H    0.171434
 Sum of Mulliken atomic charges =   0.00000
 Mulliken charges with hydrogens summed into heavy atoms:
              1
     2  C    0.007420
     5  C    0.754343
     6  O   -0.619410
     7  N   -0.405370
     9  C    0.183094
    11  C    0.058774
    15  C    0.776755
    16  O   -0.634184
    17  N   -0.405952
    19  C    0.284529
 Sum of Mulliken charges with hydrogens summed into heavy atoms =   0.00000
 Electronic spatial extent (au):  <R**2>=           1934.5755
 Charge=              0.0000 electrons
 Dipole moment (field-independent basis, Debye):
    X=              1.9035    Y=             -0.3727    Z=             -0.5226  Tot=              2.0088
 Quadrupole moment (field-independent basis, Debye-Ang):
   XX=            -56.7087   YY=            -59.7375   ZZ=            -63.7713
   XY=              6.9798   XZ=            -14.3769   YZ=              2.6393
 Traceless Quadrupole moment (field-independent basis, Debye-Ang):
   XX=              3.3638   YY=              0.3350   ZZ=             -3.6988
   XY=              6.9798   XZ=            -14.3769   YZ=              2.6393
 Octapole moment (field-independent basis, Debye-Ang**2):
  XXX=             29.1945  YYY=             -2.3012  ZZZ=             -5.4980  XYY=             -1.8372
  XXY=            -17.9847  XXZ=              3.7635  XZZ=              8.2418  YZZ=              0.8470
  YYZ=             -0.3873  XYZ=             -2.1467
 Hexadecapole moment (field-independent basis, Debye-Ang**3):
 XXXX=          -1717.5530 YYYY=           -391.0797 ZZZZ=           -263.4315 XXXY=             18.6996
 XXXZ=            -71.6178 YYYX=             -5.6716 YYYZ=             -5.7937 ZZZX=            -25.6323
 ZZZY=             -3.8652 XXYY=           -370.1916 XXZZ=           -364.4271 YYZZ=           -111.4256
 XXYZ=             19.3525 YYXZ=             -3.0993 ZZXY=             15.8599
 N-N= 5.530655435714D+02 E-N=-2.261513785003D+03  KE= 4.921326763667D+02
 1\1\GINC-RODAN\FOpt\RHF\6-31G(d)\C6H12N2O2\STEBOSS\10-Feb-2017\0\\# HF
 /6-31G* Opt=(ModRedundant) geom=nocrowd\\Phi Psi fixed scan\\0,1\H,1.8
 019160005,1.6839337175,1.4666451376\C,1.9814743072,2.2510617373,0.5637
 270557\H,1.2439242946,3.0396760107,0.4751237708\H,1.8730572363,1.57907
 09914,-0.2814340097\C,3.4028261896,2.7701046634,0.5902687873\O,4.30659
 42058,2.1189744058,1.0444624749\N,3.5855179272,3.9963739041,0.05475364
 34\H,2.825271523,4.4918178105,-0.3542550291\C,4.8905639593,4.607337773
 5,-0.0606722933\H,5.4852176398,4.2481708244,0.767142389\C,5.591244458,
 4.2520630612,-1.3752675896\H,5.0009257929,4.5888331293,-2.2194152483\H
 ,6.5702582755,4.7185737388,-1.4314290346\H,5.7188518975,3.1783462127,-
 1.4370655542\C,4.6876137069,6.115034444,0.0333369754\O,3.8135473709,6.
 6563952429,-0.5943326076\N,5.5400818199,6.7835940928,0.8281340236\H,6.
 1736347715,6.2701957516,1.3948305447\C,5.4521068781,8.2187116692,1.001
 9773275\H,5.3967753241,8.7054536509,0.0388292066\H,4.5766306842,8.4965
 267895,1.5774186271\H,6.3380657373,8.5599503786,1.5201214029\\Version=
 EM64L-G09RevA.02\State=1-A\HF=-492.8600099\RMSD=8.680e-09\RMSF=3.601e-
 04\Dipole=0.2688095,0.701732,0.2447456\Quadrupole=5.6661745,-5.1317533
 ,-0.5344212,8.3169316,0.5265018,7.2910463\PG=C01 [X(C6H12N2O2)]\\@


 ...THOSE SCIENCES ARE VAIN AND FULL OF ERRORS WHICH 
 ARE NOT BORN FROM EXPERIMENT, THE MOTHER OF CERTAINTY...

                          -- LEONARDO DA VINCI, 1452-1519
 Job cpu time:  0 days  0 hours 40 minutes 22.7 seconds.
 File lengths (MBytes):  RWF=     25 Int=      0 D2E=      0 Chk=      3 Scr=      1
 Normal termination of Gaussian 09 at Fri Feb 10 09:37:18 2017.
