 Entering Gaussian System, Link 0=g09
 Initial command:
 /home/steboss/Software/g09/l1.exe /tmp/Gau-9233.inp -scrdir=/tmp/
 Entering Link 1 = /home/steboss/Software/g09/l1.exe PID=      9235.
  
 Copyright (c) 1988,1990,1992,1993,1995,1998,2003,2009, Gaussian, Inc.
                  All Rights Reserved.
  
 This is part of the Gaussian(R) 09 program.  It is based on
 the Gaussian(R) 03 system (copyright 2003, Gaussian, Inc.),
 the Gaussian(R) 98 system (copyright 1998, Gaussian, Inc.),
 the Gaussian(R) 94 system (copyright 1995, Gaussian, Inc.),
 the Gaussian 92(TM) system (copyright 1992, Gaussian, Inc.),
 the Gaussian 90(TM) system (copyright 1990, Gaussian, Inc.),
 the Gaussian 88(TM) system (copyright 1988, Gaussian, Inc.),
 the Gaussian 86(TM) system (copyright 1986, Carnegie Mellon
 University), and the Gaussian 82(TM) system (copyright 1983,
 Carnegie Mellon University). Gaussian is a federally registered
 trademark of Gaussian, Inc.
  
 This software contains proprietary and confidential information,
 including trade secrets, belonging to Gaussian, Inc.
  
 This software is provided under written license and may be
 used, copied, transmitted, or stored only in accord with that
 written license.
  
 The following legend is applicable only to US Government
 contracts under FAR:
  
                    RESTRICTED RIGHTS LEGEND
  
 Use, reproduction and disclosure by the US Government is
 subject to restrictions as set forth in subparagraphs (a)
 and (c) of the Commercial Computer Software - Restricted
 Rights clause in FAR 52.227-19.
  
 Gaussian, Inc.
 340 Quinnipiac St., Bldg. 40, Wallingford CT 06492
  
  
 ---------------------------------------------------------------
 Warning -- This program may not be used in any manner that
 competes with the business of Gaussian, Inc. or will provide
 assistance to any competitor of Gaussian, Inc.  The licensee
 of this program is prohibited from giving any competitor of
 Gaussian, Inc. access to this program.  By using this program,
 the user acknowledges that Gaussian, Inc. is engaged in the
 business of creating and licensing software in the field of
 computational chemistry and represents and warrants to the
 licensee that it is not a competitor of Gaussian, Inc. and that
 it will not use this program in any manner prohibited above.
 ---------------------------------------------------------------
  

 Cite this work as:
 Gaussian 09, Revision A.02,
 M. J. Frisch, G. W. Trucks, H. B. Schlegel, G. E. Scuseria, 
 M. A. Robb, J. R. Cheeseman, G. Scalmani, V. Barone, B. Mennucci, 
 G. A. Petersson, H. Nakatsuji, M. Caricato, X. Li, H. P. Hratchian, 
 A. F. Izmaylov, J. Bloino, G. Zheng, J. L. Sonnenberg, M. Hada, 
 M. Ehara, K. Toyota, R. Fukuda, J. Hasegawa, M. Ishida, T. Nakajima, 
 Y. Honda, O. Kitao, H. Nakai, T. Vreven, J. A. Montgomery, Jr., 
 J. E. Peralta, F. Ogliaro, M. Bearpark, J. J. Heyd, E. Brothers, 
 K. N. Kudin, V. N. Staroverov, R. Kobayashi, J. Normand, 
 K. Raghavachari, A. Rendell, J. C. Burant, S. S. Iyengar, J. Tomasi, 
 M. Cossi, N. Rega, J. M. Millam, M. Klene, J. E. Knox, J. B. Cross, 
 V. Bakken, C. Adamo, J. Jaramillo, R. Gomperts, R. E. Stratmann, 
 O. Yazyev, A. J. Austin, R. Cammi, C. Pomelli, J. W. Ochterski, 
 R. L. Martin, K. Morokuma, V. G. Zakrzewski, G. A. Voth, 
 P. Salvador, J. J. Dannenberg, S. Dapprich, A. D. Daniels, 
 O. Farkas, J. B. Foresman, J. V. Ortiz, J. Cioslowski, 
 and D. J. Fox, Gaussian, Inc., Wallingford CT, 2009.
 
 ******************************************
 Gaussian 09:  EM64L-G09RevA.02 11-Jun-2009
                11-Feb-2017 
 ******************************************
 %chk=structure_120.chk
 %NProcShared=8
 Will use up to    8 processors via shared memory.
 -------------------------------------------
 # HF/6-31G* Opt=(ModRedundant) geom=nocrowd
 -------------------------------------------
 1/18=120,19=15,38=1/1,3;
 2/9=110,12=1,17=6,18=5,40=1/2;
 3/5=1,6=6,7=1,11=9,16=1,25=1,30=1,71=1/1,2,3;
 4//1;
 5/5=2,38=5/2;
 6/7=2,8=2,9=2,10=2,28=1/1;
 7//1,2,3,16;
 1/18=20,19=15/3(2);
 2/9=110,12=1/2;
 99//99;
 2/9=110,12=1/2;
 3/5=1,6=6,7=1,11=9,16=1,25=1,30=1,71=1/1,2,3;
 4/5=5,16=3/1;
 5/5=2,38=5/2;
 7//1,2,3,16;
 1/18=20,19=15/3(-5);
 2/9=110,12=1/2;
 6/7=2,8=2,9=2,10=2,19=2,28=1/1;
 99/9=1/99;
 ------------------
 Phi Psi fixed scan
 ------------------
 Symbolic Z-matrix:
 Charge =  0 Multiplicity = 1
 H                     1.8827    1.2362    0.9842 
 C                     1.9409    2.209     0.496 
 H                     1.2624    2.9049    0.9895 
 H                     1.658     2.1079   -0.5517 
 C                     3.3599    2.7768    0.5667 
 O                     4.2568    2.1469    1.1227 
 N                     3.5554    3.9697    0. 
 H                     2.7862    4.4492   -0.4455 
 C                     4.8533    4.6139    0. 
 H                     5.4076    4.3155    0.8898 
 C                     5.6613    4.2208   -1.2322 
 H                     5.1233    4.5214   -2.1312 
 H                     6.6305    4.7189   -1.2058 
 H                     5.8085    3.1409   -1.2414 
 C                     4.7127    6.1294    0. 
 O                     4.1278    6.7016   -0.9171 
 N                     5.2518    6.7797    1.0338 
 H                     5.7229    6.2651    1.764 
 C                     5.1851    8.2226    1.1497 
 H                     4.6503    8.6321    0.2928 
 H                     4.6601    8.4901    2.0667 
 H                     6.1948    8.6324    1.1769 
 
 The following ModRedundant input section has been read:
 D    5    7    9   15 F                                                       
 D    7    9   15   17 F                                                       

 GradGradGradGradGradGradGradGradGradGradGradGradGradGradGradGradGradGrad
 Berny optimization.
 Initialization pass.
                           ----------------------------
                           !    Initial Parameters    !
                           ! (Angstroms and Degrees)  !
 --------------------------                            --------------------------
 ! Name  Definition              Value          Derivative Info.                !
 --------------------------------------------------------------------------------
 ! R1    R(1,2)                  1.09           estimate D2E/DX2                !
 ! R2    R(2,3)                  1.09           estimate D2E/DX2                !
 ! R3    R(2,4)                  1.0899         estimate D2E/DX2                !
 ! R4    R(2,5)                  1.53           estimate D2E/DX2                !
 ! R5    R(5,6)                  1.229          estimate D2E/DX2                !
 ! R6    R(5,7)                  1.3351         estimate D2E/DX2                !
 ! R7    R(7,8)                  1.01           estimate D2E/DX2                !
 ! R8    R(7,9)                  1.449          estimate D2E/DX2                !
 ! R9    R(9,10)                 1.09           estimate D2E/DX2                !
 ! R10   R(9,11)                 1.525          estimate D2E/DX2                !
 ! R11   R(9,15)                 1.522          estimate D2E/DX2                !
 ! R12   R(11,12)                1.09           estimate D2E/DX2                !
 ! R13   R(11,13)                1.09           estimate D2E/DX2                !
 ! R14   R(11,14)                1.0899         estimate D2E/DX2                !
 ! R15   R(15,16)                1.2291         estimate D2E/DX2                !
 ! R16   R(15,17)                1.335          estimate D2E/DX2                !
 ! R17   R(17,18)                1.0099         estimate D2E/DX2                !
 ! R18   R(17,19)                1.4491         estimate D2E/DX2                !
 ! R19   R(19,20)                1.0899         estimate D2E/DX2                !
 ! R20   R(19,21)                1.09           estimate D2E/DX2                !
 ! R21   R(19,22)                1.09           estimate D2E/DX2                !
 ! A1    A(1,2,3)              109.4976         estimate D2E/DX2                !
 ! A2    A(1,2,4)              109.5057         estimate D2E/DX2                !
 ! A3    A(1,2,5)              111.1022         estimate D2E/DX2                !
 ! A4    A(3,2,4)              109.442          estimate D2E/DX2                !
 ! A5    A(3,2,5)              108.6296         estimate D2E/DX2                !
 ! A6    A(4,2,5)              108.6368         estimate D2E/DX2                !
 ! A7    A(2,5,6)              120.5005         estimate D2E/DX2                !
 ! A8    A(2,5,7)              116.6018         estimate D2E/DX2                !
 ! A9    A(6,5,7)              122.8977         estimate D2E/DX2                !
 ! A10   A(5,7,8)              119.9947         estimate D2E/DX2                !
 ! A11   A(5,7,9)              121.8985         estimate D2E/DX2                !
 ! A12   A(8,7,9)              118.1068         estimate D2E/DX2                !
 ! A13   A(7,9,10)             109.5            estimate D2E/DX2                !
 ! A14   A(7,9,11)             111.0992         estimate D2E/DX2                !
 ! A15   A(7,9,15)             111.0966         estimate D2E/DX2                !
 ! A16   A(10,9,11)            108.6382         estimate D2E/DX2                !
 ! A17   A(10,9,15)            108.6373         estimate D2E/DX2                !
 ! A18   A(11,9,15)            107.7947         estimate D2E/DX2                !
 ! A19   A(9,11,12)            109.5007         estimate D2E/DX2                !
 ! A20   A(9,11,13)            109.4959         estimate D2E/DX2                !
 ! A21   A(9,11,14)            109.4978         estimate D2E/DX2                !
 ! A22   A(12,11,13)           109.441          estimate D2E/DX2                !
 ! A23   A(12,11,14)           109.4482         estimate D2E/DX2                !
 ! A24   A(13,11,14)           109.4436         estimate D2E/DX2                !
 ! A25   A(9,15,16)            120.4994         estimate D2E/DX2                !
 ! A26   A(9,15,17)            116.5978         estimate D2E/DX2                !
 ! A27   A(16,15,17)           122.9028         estimate D2E/DX2                !
 ! A28   A(15,17,18)           120.0038         estimate D2E/DX2                !
 ! A29   A(15,17,19)           121.8961         estimate D2E/DX2                !
 ! A30   A(18,17,19)           118.1001         estimate D2E/DX2                !
 ! A31   A(17,19,20)           109.5001         estimate D2E/DX2                !
 ! A32   A(17,19,21)           109.5012         estimate D2E/DX2                !
 ! A33   A(17,19,22)           109.4939         estimate D2E/DX2                !
 ! A34   A(20,19,21)           109.4435         estimate D2E/DX2                !
 ! A35   A(20,19,22)           109.4435         estimate D2E/DX2                !
 ! A36   A(21,19,22)           109.4451         estimate D2E/DX2                !
 ! D1    D(1,2,5,6)              0.0047         estimate D2E/DX2                !
 ! D2    D(1,2,5,7)           -179.9966         estimate D2E/DX2                !
 ! D3    D(3,2,5,6)            120.5112         estimate D2E/DX2                !
 ! D4    D(3,2,5,7)            -59.4901         estimate D2E/DX2                !
 ! D5    D(4,2,5,6)           -120.5165         estimate D2E/DX2                !
 ! D6    D(4,2,5,7)             59.4823         estimate D2E/DX2                !
 ! D7    D(2,5,7,8)             -0.0022         estimate D2E/DX2                !
 ! D8    D(2,5,7,9)           -179.9961         estimate D2E/DX2                !
 ! D9    D(6,5,7,8)            179.9965         estimate D2E/DX2                !
 ! D10   D(6,5,7,9)              0.0027         estimate D2E/DX2                !
 ! D11   D(5,7,9,10)           -30.0015         estimate D2E/DX2                !
 ! D12   D(5,7,9,11)            90.0011         estimate D2E/DX2                !
 ! D13   D(5,7,9,15)          -150.0013         Frozen                          !
 ! D14   D(8,7,9,10)           150.0045         estimate D2E/DX2                !
 ! D15   D(8,7,9,11)           -89.9929         estimate D2E/DX2                !
 ! D16   D(8,7,9,15)            30.0047         estimate D2E/DX2                !
 ! D17   D(7,9,11,12)           60.0024         estimate D2E/DX2                !
 ! D18   D(7,9,11,13)          179.9986         estimate D2E/DX2                !
 ! D19   D(7,9,11,14)          -60.0038         estimate D2E/DX2                !
 ! D20   D(10,9,11,12)        -179.4843         estimate D2E/DX2                !
 ! D21   D(10,9,11,13)         -59.4881         estimate D2E/DX2                !
 ! D22   D(10,9,11,14)          60.5095         estimate D2E/DX2                !
 ! D23   D(15,9,11,12)         -61.938          estimate D2E/DX2                !
 ! D24   D(15,9,11,13)          58.0582         estimate D2E/DX2                !
 ! D25   D(15,9,11,14)         178.0558         estimate D2E/DX2                !
 ! D26   D(7,9,15,16)          -59.9975         estimate D2E/DX2                !
 ! D27   D(7,9,15,17)          120.0001         Frozen                          !
 ! D28   D(10,9,15,16)         179.4914         estimate D2E/DX2                !
 ! D29   D(10,9,15,17)          -0.5109         estimate D2E/DX2                !
 ! D30   D(11,9,15,16)          61.9445         estimate D2E/DX2                !
 ! D31   D(11,9,15,17)        -118.0578         estimate D2E/DX2                !
 ! D32   D(9,15,17,18)          -0.002          estimate D2E/DX2                !
 ! D33   D(9,15,17,19)        -179.9985         estimate D2E/DX2                !
 ! D34   D(16,15,17,18)        179.9956         estimate D2E/DX2                !
 ! D35   D(16,15,17,19)         -0.0008         estimate D2E/DX2                !
 ! D36   D(15,17,19,20)         -0.0037         estimate D2E/DX2                !
 ! D37   D(15,17,19,21)        119.9984         estimate D2E/DX2                !
 ! D38   D(15,17,19,22)       -120.0013         estimate D2E/DX2                !
 ! D39   D(18,17,19,20)        179.9998         estimate D2E/DX2                !
 ! D40   D(18,17,19,21)        -59.9981         estimate D2E/DX2                !
 ! D41   D(18,17,19,22)         60.0022         estimate D2E/DX2                !
 --------------------------------------------------------------------------------
 Trust Radius=3.00D-01 FncErr=1.00D-07 GrdErr=1.00D-07
 Number of steps in this run= 108 maximum allowed number of steps= 132.
 GradGradGradGradGradGradGradGradGradGradGradGradGradGradGradGradGradGrad

                          Input orientation:                          
 ---------------------------------------------------------------------
 Center     Atomic      Atomic             Coordinates (Angstroms)
 Number     Number       Type             X           Y           Z
 ---------------------------------------------------------------------
      1          1           0        1.882700    1.236200    0.984200
      2          6           0        1.940900    2.209000    0.496000
      3          1           0        1.262400    2.904900    0.989500
      4          1           0        1.658000    2.107900   -0.551700
      5          6           0        3.359900    2.776800    0.566700
      6          8           0        4.256800    2.146900    1.122700
      7          7           0        3.555400    3.969700    0.000000
      8          1           0        2.786200    4.449200   -0.445500
      9          6           0        4.853300    4.613900    0.000000
     10          1           0        5.407600    4.315500    0.889800
     11          6           0        5.661300    4.220800   -1.232200
     12          1           0        5.123300    4.521400   -2.131200
     13          1           0        6.630500    4.718900   -1.205800
     14          1           0        5.808500    3.140900   -1.241400
     15          6           0        4.712700    6.129400    0.000000
     16          8           0        4.127800    6.701600   -0.917100
     17          7           0        5.251800    6.779700    1.033800
     18          1           0        5.722900    6.265100    1.764000
     19          6           0        5.185100    8.222600    1.149700
     20          1           0        4.650300    8.632100    0.292800
     21          1           0        4.660100    8.490100    2.066700
     22          1           0        6.194800    8.632400    1.176900
 ---------------------------------------------------------------------
                    Distance matrix (angstroms):
                    1          2          3          4          5
     1  H    0.000000
     2  C    1.089985   0.000000
     3  H    1.780270   1.090037   0.000000
     4  H    1.780264   1.089922   1.779608   0.000000
     5  C    2.174827   1.530018   2.143519   2.143527   0.000000
     6  O    2.546548   2.400000   3.091721   3.091747   1.228959
     7  N    3.352402   2.439814   2.714914   2.714922   1.335058
     8  H    3.630940   2.572829   2.601164   2.601115   2.037303
     9  C    4.604560   3.809414   4.098092   4.098091   2.434405
    10  H    4.681444   4.075589   4.379773   4.583767   2.581679
    11  C    5.300763   4.568959   5.100771   4.577536   3.258469
    12  H    5.567741   4.730438   5.220957   4.508670   3.664952
    13  H    6.282269   5.584628   6.076713   5.654284   4.196467
    14  H    4.898273   4.341120   5.069481   4.332369   3.065524
    15  C    5.737679   4.826844   4.825047   5.080160   3.659391
    16  O    6.206933   5.192575   5.124507   5.228337   4.265605
    17  N    6.487194   5.669443   5.561596   6.103681   4.452042
    18  H    6.375348   5.688875   5.637983   6.258450   4.380129
    19  C    7.729361   6.864076   6.609930   7.261181   5.773039
    20  H    7.926978   6.974120   6.690596   7.227187   6.002057
    21  H    7.842501   7.022347   6.625646   7.523370   6.048332
    22  H    8.563592   7.734297   7.560949   8.132633   6.534298
                    6          7          8          9         10
     6  O    0.000000
     7  N    2.252780   0.000000
     8  H    3.150000   1.009980   0.000000
     9  C    2.775312   1.448978   2.120966   0.000000
    10  H    2.466051   2.083739   2.944935   1.089970   0.000000
    11  C    3.437911   2.452791   2.989526   1.525027   2.139209
    12  H    4.120308   2.702720   2.882505   2.150225   3.041326
    13  H    4.203754   3.386959   3.928032   2.150214   2.459625
    14  H    2.997462   2.702673   3.388127   2.150165   2.466256
    15  C    4.162764   2.450234   2.594792   1.522008   2.136554
    16  O    4.992266   2.938025   2.663757   2.392888   3.255188
    17  N    4.739279   3.441310   3.701181   2.432742   2.473316
    18  H    4.418177   3.616437   4.099218   2.567949   2.159764
    19  C    6.146267   4.697328   4.747413   3.801923   3.922051
    20  H    6.549916   4.798178   4.638600   4.033965   4.423002
    21  H    6.425727   5.091721   5.113856   4.396988   4.401265
    22  H    6.769084   5.485645   5.634705   4.396937   4.397469
                   11         12         13         14         15
    11  C    0.000000
    12  H    1.089957   0.000000
    13  H    1.090023   1.779613   0.000000
    14  H    1.089925   1.779613   1.779617   0.000000
    15  C    2.461892   2.701161   2.668599   3.416575   0.000000
    16  O    2.933476   2.686695   3.205925   3.950760   1.229062
    17  N    3.442443   3.890200   3.341185   4.327507   1.335014
    18  H    3.627695   4.309593   3.469032   4.335941   2.037306
    19  C    4.681305   4.946413   4.462452   5.650634   2.434432
    20  H    4.775700   4.795556   4.634666   5.817944   2.520542
    21  H    5.487446   5.795472   5.367838   6.393457   3.137980
    22  H    5.054760   5.384418   4.602453   6.012818   3.137949
                   16         17         18         19         20
    16  O    0.000000
    17  N    2.252884   0.000000
    18  H    3.150107   1.009921   0.000000
    19  C    2.775425   1.449083   2.120943   0.000000
    20  H    2.337455   2.083811   2.986233   1.089944   0.000000
    21  H    3.519252   2.083857   2.484310   1.089986   1.779601
    22  H    3.519277   2.083800   2.484247   1.090032   1.779638
                   21         22
    21  H    0.000000
    22  H    1.779690   0.000000
 Stoichiometry    C6H12N2O2
 Framework group  C1[X(C6H12N2O2)]
 Deg. of freedom    60
 Full point group                 C1      NOp   1
 Largest Abelian subgroup         C1      NOp   1
 Largest concise Abelian subgroup C1      NOp   1
                         Standard orientation:                         
 ---------------------------------------------------------------------
 Center     Atomic      Atomic             Coordinates (Angstroms)
 Number     Number       Type             X           Y           Z
 ---------------------------------------------------------------------
      1          1           0       -4.206262   -1.183745    0.022015
      2          6           0       -3.282930   -1.091799    0.593916
      3          1           0       -2.890591   -2.084785    0.813531
      4          1           0       -3.483885   -0.566479    1.527503
      5          6           0       -2.225589   -0.310627   -0.188872
      6          8           0       -2.473645    0.120807   -1.312559
      7          7           0       -1.046887   -0.132730    0.412288
      8          1           0       -0.890418   -0.506524    1.337413
      9          6           0        0.035930    0.589712   -0.224204
     10          1           0       -0.032349    0.469276   -1.305346
     11          6           0       -0.028136    2.077294    0.105496
     12          1           0        0.048266    2.214541    1.184074
     13          1           0        0.796297    2.594529   -0.385347
     14          1           0       -0.974651    2.487459   -0.246373
     15          6           0        1.388896    0.068522    0.238779
     16          8           0        1.699630    0.109259    1.427214
     17          7           0        2.194993   -0.422905   -0.705133
     18          1           0        1.894874   -0.435098   -1.669353
     19          6           0        3.508416   -0.949175   -0.392400
     20          1           0        3.687070   -0.868008    0.679735
     21          1           0        3.561404   -1.996173   -0.690825
     22          1           0        4.266102   -0.379639   -0.930647
 ---------------------------------------------------------------------
 Rotational constants (GHZ):      2.4664578      0.6597564      0.6385508
 Standard basis: 6-31G(d) (6D, 7F)
 There are   174 symmetry adapted basis functions of A   symmetry.
 Integral buffers will be    131072 words long.
 Raffenetti 1 integral format.
 Two-electron integral symmetry is turned on.
   174 basis functions,   328 primitive gaussians,   174 cartesian basis functions
    39 alpha electrons       39 beta electrons
       nuclear repulsion energy       551.1084085203 Hartrees.
 NAtoms=   22 NActive=   22 NUniq=   22 SFac= 7.50D-01 NAtFMM=   80 NAOKFM=F Big=F
 One-electron integrals computed using PRISM.
 NBasis=   174 RedAO= T  NBF=   174
 NBsUse=   174 1.00D-06 NBFU=   174
 Harris functional with IExCor=  205 diagonalized for initial guess.
 ExpMin= 1.61D-01 ExpMax= 5.48D+03 ExpMxC= 8.25D+02 IAcc=1 IRadAn=         1 AccDes= 0.00D+00
 HarFok:  IExCor=  205 AccDes= 0.00D+00 IRadAn=         1 IDoV= 1
 ScaDFX=  1.000000  1.000000  1.000000  1.000000
 FoFCou: FMM=F IPFlag=           0 FMFlag=      100000 FMFlg1=           0
         NFxFlg=           0 DoJE=T BraDBF=F KetDBF=T FulRan=T
         Omega=  0.000000  0.000000  1.000000  0.000000  0.000000 ICntrl=     500 IOpCl=  0
         NMat0=    1 NMatS0=    1 NMatT0=    0 NMatD0=    1 NMtDS0=    0 NMtDT0=    0
         I1Cent=           4 NGrid=           0.
 Petite list used in FoFCou.
 Initial guess orbital symmetries:
       Occupied  (A) (A) (A) (A) (A) (A) (A) (A) (A) (A) (A) (A)
                 (A) (A) (A) (A) (A) (A) (A) (A) (A) (A) (A) (A)
                 (A) (A) (A) (A) (A) (A) (A) (A) (A) (A) (A) (A)
                 (A) (A) (A)
       Virtual   (A) (A) (A) (A) (A) (A) (A) (A) (A) (A) (A) (A)
                 (A) (A) (A) (A) (A) (A) (A) (A) (A) (A) (A) (A)
                 (A) (A) (A) (A) (A) (A) (A) (A) (A) (A) (A) (A)
                 (A) (A) (A) (A) (A) (A) (A) (A) (A) (A) (A) (A)
                 (A) (A) (A) (A) (A) (A) (A) (A) (A) (A) (A) (A)
                 (A) (A) (A) (A) (A) (A) (A) (A) (A) (A) (A) (A)
                 (A) (A) (A) (A) (A) (A) (A) (A) (A) (A) (A) (A)
                 (A) (A) (A) (A) (A) (A) (A) (A) (A) (A) (A) (A)
                 (A) (A) (A) (A) (A) (A) (A) (A) (A) (A) (A) (A)
                 (A) (A) (A) (A) (A) (A) (A) (A) (A) (A) (A) (A)
                 (A) (A) (A) (A) (A) (A) (A) (A) (A) (A) (A) (A)
                 (A) (A) (A)
 The electronic state of the initial guess is 1-A.
 Requested convergence on RMS density matrix=1.00D-08 within 128 cycles.
 Requested convergence on MAX density matrix=1.00D-06.
 Requested convergence on             energy=1.00D-06.
 No special actions if energy rises.
 Integral accuracy reduced to 1.0D-05 until final iterations.
 Initial convergence to 1.0D-05 achieved.  Increase integral accuracy.
 SCF Done:  E(RHF) =  -492.852068112     A.U. after   15 cycles
             Convg  =    0.4685D-08             -V/T =  2.0021

 **********************************************************************

            Population analysis using the SCF density.

 **********************************************************************

 Orbital symmetries:
       Occupied  (A) (A) (A) (A) (A) (A) (A) (A) (A) (A) (A) (A)
                 (A) (A) (A) (A) (A) (A) (A) (A) (A) (A) (A) (A)
                 (A) (A) (A) (A) (A) (A) (A) (A) (A) (A) (A) (A)
                 (A) (A) (A)
       Virtual   (A) (A) (A) (A) (A) (A) (A) (A) (A) (A) (A) (A)
                 (A) (A) (A) (A) (A) (A) (A) (A) (A) (A) (A) (A)
                 (A) (A) (A) (A) (A) (A) (A) (A) (A) (A) (A) (A)
                 (A) (A) (A) (A) (A) (A) (A) (A) (A) (A) (A) (A)
                 (A) (A) (A) (A) (A) (A) (A) (A) (A) (A) (A) (A)
                 (A) (A) (A) (A) (A) (A) (A) (A) (A) (A) (A) (A)
                 (A) (A) (A) (A) (A) (A) (A) (A) (A) (A) (A) (A)
                 (A) (A) (A) (A) (A) (A) (A) (A) (A) (A) (A) (A)
                 (A) (A) (A) (A) (A) (A) (A) (A) (A) (A) (A) (A)
                 (A) (A) (A) (A) (A) (A) (A) (A) (A) (A) (A) (A)
                 (A) (A) (A) (A) (A) (A) (A) (A) (A) (A) (A) (A)
                 (A) (A) (A)
 The electronic state is 1-A.
 Alpha  occ. eigenvalues --  -20.52534 -20.51649 -15.60361 -15.59425 -11.35448
 Alpha  occ. eigenvalues --  -11.35020 -11.28306 -11.26625 -11.23649 -11.21913
 Alpha  occ. eigenvalues --   -1.38530  -1.37149  -1.24424  -1.23958  -1.05900
 Alpha  occ. eigenvalues --   -0.99005  -0.96611  -0.87762  -0.80421  -0.79286
 Alpha  occ. eigenvalues --   -0.73491  -0.67106  -0.65319  -0.64269  -0.63199
 Alpha  occ. eigenvalues --   -0.62176  -0.59657  -0.58252  -0.56921  -0.56365
 Alpha  occ. eigenvalues --   -0.55585  -0.53925  -0.52535  -0.51340  -0.49496
 Alpha  occ. eigenvalues --   -0.42653  -0.41233  -0.39631  -0.38665
 Alpha virt. eigenvalues --    0.18587   0.20791   0.21202   0.22692   0.26201
 Alpha virt. eigenvalues --    0.27705   0.28415   0.30233   0.31205   0.31946
 Alpha virt. eigenvalues --    0.32007   0.32371   0.32620   0.34912   0.36390
 Alpha virt. eigenvalues --    0.39504   0.40459   0.43684   0.45289   0.50301
 Alpha virt. eigenvalues --    0.51719   0.58984   0.62427   0.70641   0.72136
 Alpha virt. eigenvalues --    0.73372   0.74007   0.76014   0.77201   0.78344
 Alpha virt. eigenvalues --    0.80891   0.82293   0.84601   0.86997   0.88750
 Alpha virt. eigenvalues --    0.89662   0.94121   0.94616   0.96564   0.98475
 Alpha virt. eigenvalues --    1.00725   1.01843   1.04875   1.07858   1.08035
 Alpha virt. eigenvalues --    1.10092   1.11296   1.13113   1.14688   1.15290
 Alpha virt. eigenvalues --    1.16085   1.17673   1.18219   1.18642   1.19791
 Alpha virt. eigenvalues --    1.20564   1.21559   1.21894   1.22629   1.24741
 Alpha virt. eigenvalues --    1.28618   1.34676   1.36395   1.37737   1.39603
 Alpha virt. eigenvalues --    1.43391   1.50228   1.52224   1.59915   1.60331
 Alpha virt. eigenvalues --    1.64551   1.67092   1.69003   1.74079   1.76466
 Alpha virt. eigenvalues --    1.79023   1.82566   1.87004   1.88827   1.92573
 Alpha virt. eigenvalues --    2.03270   2.05067   2.06991   2.11031   2.12345
 Alpha virt. eigenvalues --    2.13770   2.14112   2.16355   2.20812   2.22906
 Alpha virt. eigenvalues --    2.23954   2.26481   2.28773   2.31652   2.33790
 Alpha virt. eigenvalues --    2.36590   2.40587   2.44594   2.47152   2.48716
 Alpha virt. eigenvalues --    2.52386   2.55475   2.58097   2.61393   2.62855
 Alpha virt. eigenvalues --    2.63941   2.66524   2.68671   2.72032   2.75251
 Alpha virt. eigenvalues --    2.77276   2.80340   2.84965   2.95883   2.98178
 Alpha virt. eigenvalues --    3.03218   3.03516   3.07691   3.12038   3.23687
 Alpha virt. eigenvalues --    3.29343   3.34722   3.37527   3.52623   3.56802
 Alpha virt. eigenvalues --    4.37320   4.43395   4.46830   4.62284   4.62827
 Alpha virt. eigenvalues --    4.68861   4.70473   4.82422   4.87594   5.08231
          Condensed to atoms (all electrons):
              1          2          3          4          5          6
     1  H    0.455637   0.385603  -0.018721  -0.018476  -0.030243   0.003564
     2  C    0.385603   5.252435   0.373506   0.374911   0.375474  -0.069207
     3  H   -0.018721   0.373506   0.514001  -0.023817  -0.034350   0.001325
     4  H   -0.018476   0.374911  -0.023817   0.510902  -0.035264   0.001237
     5  C   -0.030243   0.375474  -0.034350  -0.035264   4.180624   0.596321
     6  O    0.003564  -0.069207   0.001325   0.001237   0.596321   8.193547
     7  N    0.003786  -0.120433   0.003440   0.003719   0.244492  -0.106499
     8  H   -0.000009  -0.001093   0.000601   0.000500  -0.016709   0.002088
     9  C   -0.000080   0.004798  -0.000194  -0.000247  -0.026628   0.007221
    10  H   -0.000002   0.000391  -0.000024  -0.000010  -0.000430   0.008172
    11  C    0.000004  -0.000302   0.000001   0.000055  -0.003275  -0.002260
    12  H    0.000000  -0.000008   0.000000  -0.000001   0.000229  -0.000017
    13  H    0.000000   0.000003   0.000000   0.000000   0.000038  -0.000024
    14  H    0.000000   0.000057   0.000000  -0.000021   0.001663   0.002887
    15  C    0.000000  -0.000015  -0.000004  -0.000007   0.003579   0.000575
    16  O    0.000000  -0.000007   0.000000   0.000000   0.000154  -0.000002
    17  N    0.000000  -0.000002   0.000000   0.000000  -0.000158  -0.000007
    18  H    0.000000   0.000000   0.000000   0.000000  -0.000019  -0.000019
    19  C    0.000000   0.000000   0.000000   0.000000   0.000001   0.000000
    20  H    0.000000   0.000000   0.000000   0.000000   0.000000   0.000000
    21  H    0.000000   0.000000   0.000000   0.000000   0.000000   0.000000
    22  H    0.000000   0.000000   0.000000   0.000000   0.000000   0.000000
              7          8          9         10         11         12
     1  H    0.003786  -0.000009  -0.000080  -0.000002   0.000004   0.000000
     2  C   -0.120433  -0.001093   0.004798   0.000391  -0.000302  -0.000008
     3  H    0.003440   0.000601  -0.000194  -0.000024   0.000001   0.000000
     4  H    0.003719   0.000500  -0.000247  -0.000010   0.000055  -0.000001
     5  C    0.244492  -0.016709  -0.026628  -0.000430  -0.003275   0.000229
     6  O   -0.106499   0.002088   0.007221   0.008172  -0.002260  -0.000017
     7  N    7.413967   0.317227   0.177978  -0.037318  -0.070890  -0.000575
     8  H    0.317227   0.305244  -0.026618   0.002598   0.001875   0.000877
     9  C    0.177978  -0.026618   5.075138   0.408544   0.346409  -0.036341
    10  H   -0.037318   0.002598   0.408544   0.482964  -0.039291   0.003832
    11  C   -0.070890   0.001875   0.346409  -0.039291   5.147548   0.388481
    12  H   -0.000575   0.000877  -0.036341   0.003832   0.388481   0.498249
    13  H    0.005128  -0.000046  -0.039813   0.000511   0.382136  -0.021543
    14  H   -0.004613  -0.000222  -0.033985  -0.003787   0.391769  -0.023765
    15  C   -0.033336  -0.003366   0.333364  -0.054063  -0.057023  -0.006654
    16  O    0.000030   0.008877  -0.085054   0.002620   0.001205   0.005748
    17  N    0.000670   0.000495  -0.088098   0.006114  -0.000932   0.000469
    18  H    0.000049  -0.000017   0.001019   0.002514  -0.000006  -0.000010
    19  C   -0.000124  -0.000001   0.004706   0.000015  -0.000221   0.000002
    20  H   -0.000007  -0.000008   0.000540  -0.000023  -0.000016  -0.000005
    21  H    0.000014   0.000001  -0.000116  -0.000010  -0.000004   0.000000
    22  H   -0.000002   0.000000  -0.000135  -0.000013   0.000031   0.000000
             13         14         15         16         17         18
     1  H    0.000000   0.000000   0.000000   0.000000   0.000000   0.000000
     2  C    0.000003   0.000057  -0.000015  -0.000007  -0.000002   0.000000
     3  H    0.000000   0.000000  -0.000004   0.000000   0.000000   0.000000
     4  H    0.000000  -0.000021  -0.000007   0.000000   0.000000   0.000000
     5  C    0.000038   0.001663   0.003579   0.000154  -0.000158  -0.000019
     6  O   -0.000024   0.002887   0.000575  -0.000002  -0.000007  -0.000019
     7  N    0.005128  -0.004613  -0.033336   0.000030   0.000670   0.000049
     8  H   -0.000046  -0.000222  -0.003366   0.008877   0.000495  -0.000017
     9  C   -0.039813  -0.033985   0.333364  -0.085054  -0.088098   0.001019
    10  H    0.000511  -0.003787  -0.054063   0.002620   0.006114   0.002514
    11  C    0.382136   0.391769  -0.057023   0.001205  -0.000932  -0.000006
    12  H   -0.021543  -0.023765  -0.006654   0.005748   0.000469  -0.000010
    13  H    0.537121  -0.022420  -0.002366  -0.000245   0.000896  -0.000002
    14  H   -0.022420   0.491998   0.005320   0.000053  -0.000081  -0.000009
    15  C   -0.002366   0.005320   4.223674   0.567979   0.294685  -0.016890
    16  O   -0.000245   0.000053   0.567979   8.241737  -0.097274   0.002315
    17  N    0.000896  -0.000081   0.294685  -0.097274   7.291838   0.321502
    18  H   -0.000002  -0.000009  -0.016890   0.002315   0.321502   0.316304
    19  C   -0.000033   0.000003  -0.030275  -0.004844   0.186004  -0.021688
    20  H   -0.000002   0.000000  -0.001734   0.010316  -0.031714   0.002270
    21  H    0.000001   0.000000   0.000967   0.000382  -0.046979  -0.001087
    22  H   -0.000006   0.000000   0.001289   0.000384  -0.047279  -0.001045
             19         20         21         22
     1  H    0.000000   0.000000   0.000000   0.000000
     2  C    0.000000   0.000000   0.000000   0.000000
     3  H    0.000000   0.000000   0.000000   0.000000
     4  H    0.000000   0.000000   0.000000   0.000000
     5  C    0.000001   0.000000   0.000000   0.000000
     6  O    0.000000   0.000000   0.000000   0.000000
     7  N   -0.000124  -0.000007   0.000014  -0.000002
     8  H   -0.000001  -0.000008   0.000001   0.000000
     9  C    0.004706   0.000540  -0.000116  -0.000135
    10  H    0.000015  -0.000023  -0.000010  -0.000013
    11  C   -0.000221  -0.000016  -0.000004   0.000031
    12  H    0.000002  -0.000005   0.000000   0.000000
    13  H   -0.000033  -0.000002   0.000001  -0.000006
    14  H    0.000003   0.000000   0.000000   0.000000
    15  C   -0.030275  -0.001734   0.000967   0.001289
    16  O   -0.004844   0.010316   0.000382   0.000384
    17  N    0.186004  -0.031714  -0.046979  -0.047279
    18  H   -0.021688   0.002270  -0.001087  -0.001045
    19  C    4.962487   0.396173   0.402042   0.401960
    20  H    0.396173   0.430620  -0.022296  -0.022275
    21  H    0.402042  -0.022296   0.529009  -0.035805
    22  H    0.401960  -0.022275  -0.035805   0.529359
 Mulliken atomic charges:
              1
     1  H    0.218937
     2  C   -0.576111
     3  H    0.184237
     4  H    0.186518
     5  C    0.744501
     6  O   -0.638902
     7  N   -0.796703
     8  H    0.407706
     9  C   -0.022409
    10  H    0.216697
    11  C   -0.485292
    12  H    0.191032
    13  H    0.160667
    14  H    0.195154
    15  C    0.774299
    16  O   -0.654373
    17  N   -0.790151
    18  H    0.394821
    19  C   -0.296207
    20  H    0.238160
    21  H    0.173880
    22  H    0.173538
 Sum of Mulliken atomic charges =   0.00000
 Mulliken charges with hydrogens summed into heavy atoms:
              1
     2  C    0.013582
     5  C    0.744501
     6  O   -0.638902
     7  N   -0.388997
     9  C    0.194288
    11  C    0.061561
    15  C    0.774299
    16  O   -0.654373
    17  N   -0.395330
    19  C    0.289371
 Sum of Mulliken charges with hydrogens summed into heavy atoms =   0.00000
 Electronic spatial extent (au):  <R**2>=           1940.7364
 Charge=              0.0000 electrons
 Dipole moment (field-independent basis, Debye):
    X=              1.6054    Y=             -1.6675    Z=             -0.3364  Tot=              2.3390
 Quadrupole moment (field-independent basis, Debye-Ang):
   XX=            -58.9194   YY=            -58.3252   ZZ=            -65.1230
   XY=              0.8731   XZ=            -16.5140   YZ=             -0.2637
 Traceless Quadrupole moment (field-independent basis, Debye-Ang):
   XX=              1.8698   YY=              2.4640   ZZ=             -4.3338
   XY=              0.8731   XZ=            -16.5140   YZ=             -0.2637
 Octapole moment (field-independent basis, Debye-Ang**2):
  XXX=             24.3754  YYY=             -2.7705  ZZZ=             -4.6929  XYY=             -0.2837
  XXY=            -19.2732  XXZ=              8.4038  XZZ=              6.7922  YZZ=             -4.0738
  YYZ=             -0.0329  XYZ=             -0.3864
 Hexadecapole moment (field-independent basis, Debye-Ang**3):
 XXXX=          -1720.9160 YYYY=           -402.6069 ZZZZ=           -275.8387 XXXY=             -2.3447
 XXXZ=            -64.4457 YYYX=             -3.6362 YYYZ=             -0.5587 ZZZX=            -34.3306
 ZZZY=              2.1429 XXYY=           -358.7488 XXZZ=           -383.3112 YYZZ=           -112.4489
 XXYZ=              4.6176 YYXZ=              2.2183 ZZXY=             -3.2782
 N-N= 5.511084085203D+02 E-N=-2.257349015686D+03  KE= 4.918239794814D+02
 Calling FoFJK, ICntrl=      2127 FMM=F ISym2X=0 I1Cent= 0 IOpClX= 0 NMat=1 NMatS=1 NMatT=0.
 ***** Axes restored to original set *****
 -------------------------------------------------------------------
 Center     Atomic                   Forces (Hartrees/Bohr)
 Number     Number              X              Y              Z
 -------------------------------------------------------------------
      1        1           0.004540156    0.007844160   -0.002947228
      2        6           0.005946286    0.007545383   -0.002346295
      3        1          -0.001245019   -0.003595707   -0.003626292
      4        1          -0.003195959    0.000365782    0.004073953
      5        6           0.020348296   -0.046056379    0.029043395
      6        8          -0.026737467    0.024182390   -0.019285835
      7        7          -0.010608844    0.021821914   -0.003978528
      8        1           0.012017258   -0.005418666    0.004187068
      9        6           0.013650713    0.000166440    0.000582938
     10        1          -0.008807890   -0.003632471   -0.004489788
     11        6           0.001354924   -0.003448501   -0.003474767
     12        1           0.004620558   -0.001122714    0.003652954
     13        1          -0.001627208   -0.003114249   -0.003304925
     14        1           0.000743407    0.005245331   -0.000226066
     15        6          -0.029509468    0.013549881   -0.028584076
     16        8           0.015147438   -0.020162386    0.027417109
     17        7           0.007451578   -0.002036465    0.009483016
     18        1          -0.008353486    0.006692126   -0.011811569
     19        6           0.001835764    0.004178285    0.001823058
     20        1           0.004793810   -0.005560028    0.007289322
     21        1           0.002656819    0.001404833   -0.003933641
     22        1          -0.005021667    0.001151043    0.000456197
 -------------------------------------------------------------------
 Cartesian Forces:  Max     0.046056379 RMS     0.012519976

 GradGradGradGradGradGradGradGradGradGradGradGradGradGradGradGradGradGrad
 Berny optimization.
 Internal  Forces:  Max     0.040632971 RMS     0.007173336
 Search for a local minimum.
 Step number   1 out of a maximum of  108
 All quantities printed in internal units (Hartrees-Bohrs-Radians)
 Mixed Optimization -- RFO/linear search
 Second derivative matrix not updated -- first step.
     Eigenvalues ---    0.00369   0.00435   0.00999   0.01043   0.01269
     Eigenvalues ---    0.01422   0.01659   0.02551   0.02551   0.03503
     Eigenvalues ---    0.05232   0.05841   0.05844   0.05844   0.07165
     Eigenvalues ---    0.07464   0.07685   0.07685   0.15421   0.16000
     Eigenvalues ---    0.16000   0.16000   0.16000   0.16000   0.16000
     Eigenvalues ---    0.16000   0.16000   0.16000   0.16000   0.16000
     Eigenvalues ---    0.16180   0.22000   0.22000   0.25000   0.25000
     Eigenvalues ---    0.25000   0.25000   0.29422   0.29887   0.30174
     Eigenvalues ---    0.34808   0.34809   0.34810   0.34814   0.34814
     Eigenvalues ---    0.34816   0.34818   0.34819   0.34821   0.34822
     Eigenvalues ---    0.38365   0.38379   0.45976   0.45986   0.58327
     Eigenvalues ---    0.58337   0.91478   0.915221000.000001000.00000
     Eigenvalues --- 1000.000001000.000001000.000001000.000001000.00000
     Eigenvalues --- 1000.000001000.000001000.000001000.000001000.00000
     Eigenvalues --- 1000.000001000.000001000.000001000.000001000.00000
     Eigenvalues --- 1000.000001000.000001000.000001000.000001000.00000
     Eigenvalues --- 1000.000001000.000001000.000001000.000001000.00000
     Eigenvalues --- 1000.000001000.000001000.000001000.000001000.00000
     Eigenvalues --- 1000.000001000.000001000.000001000.000001000.00000
     Eigenvalues --- 1000.000001000.000001000.00000
 RFO step:  Lambda=-1.17734269D-02 EMin= 3.68861443D-03
 Linear search not attempted -- first point.
 Iteration  1 RMS(Cart)=  0.06412629 RMS(Int)=  0.00129758
 Iteration  2 RMS(Cart)=  0.00209886 RMS(Int)=  0.00046955
 Iteration  3 RMS(Cart)=  0.00000174 RMS(Int)=  0.00046955
 Iteration  4 RMS(Cart)=  0.00000000 RMS(Int)=  0.00046955
 Iteration  1 RMS(Cart)=  0.00023915 RMS(Int)=  0.00008569
 Iteration  2 RMS(Cart)=  0.00013220 RMS(Int)=  0.00009513
 Iteration  3 RMS(Cart)=  0.00007448 RMS(Int)=  0.00010853
 Iteration  4 RMS(Cart)=  0.00004300 RMS(Int)=  0.00011887
 Iteration  5 RMS(Cart)=  0.00002554 RMS(Int)=  0.00012599
 Iteration  6 RMS(Cart)=  0.00001562 RMS(Int)=  0.00013074
 Iteration  7 RMS(Cart)=  0.00000981 RMS(Int)=  0.00013389
 Iteration  8 RMS(Cart)=  0.00000629 RMS(Int)=  0.00013596
 Iteration  9 RMS(Cart)=  0.00000410 RMS(Int)=  0.00013733
 Iteration 10 RMS(Cart)=  0.00000271 RMS(Int)=  0.00013823
 Iteration 11 RMS(Cart)=  0.00000180 RMS(Int)=  0.00013883
 Iteration 12 RMS(Cart)=  0.00000120 RMS(Int)=  0.00013922
 Iteration 13 RMS(Cart)=  0.00000080 RMS(Int)=  0.00013948
 Variable       Old X    -DE/DX   Delta X   Delta X   Delta X     New X
                                 (Linear)    (Quad)   (Total)
    R1        2.05977  -0.00856   0.00000  -0.02379  -0.02379   2.03598
    R2        2.05987  -0.00316   0.00000  -0.00879  -0.00879   2.05108
    R3        2.05965  -0.00312   0.00000  -0.00867  -0.00867   2.05098
    R4        2.89132  -0.00990   0.00000  -0.03234  -0.03234   2.85898
    R5        2.32240  -0.04063   0.00000  -0.04383  -0.04383   2.27856
    R6        2.52289   0.01082   0.00000   0.01818   0.01818   2.54107
    R7        1.90859  -0.01357   0.00000  -0.02878  -0.02878   1.87980
    R8        2.73817  -0.00393   0.00000  -0.00993  -0.00993   2.72824
    R9        2.05975  -0.00715   0.00000  -0.01986  -0.01986   2.03988
   R10        2.88188   0.00604   0.00000   0.01943   0.01943   2.90131
   R11        2.87618   0.00024   0.00000   0.00076   0.00076   2.87693
   R12        2.05972  -0.00560   0.00000  -0.01557  -0.01557   2.04415
   R13        2.05984  -0.00295   0.00000  -0.00820  -0.00820   2.05165
   R14        2.05966  -0.00509   0.00000  -0.01415  -0.01415   2.04551
   R15        2.32259  -0.03705   0.00000  -0.03999  -0.03999   2.28260
   R16        2.52281   0.00676   0.00000   0.01136   0.01136   2.53417
   R17        1.90847  -0.01585   0.00000  -0.03360  -0.03360   1.87487
   R18        2.73837   0.00142   0.00000   0.00360   0.00360   2.74197
   R19        2.05970  -0.01017   0.00000  -0.02826  -0.02826   2.03144
   R20        2.05978  -0.00424   0.00000  -0.01179  -0.01179   2.04798
   R21        2.05986  -0.00421   0.00000  -0.01169  -0.01169   2.04817
    A1        1.91109   0.00050   0.00000   0.00093   0.00131   1.91241
    A2        1.91123   0.00046   0.00000   0.00030   0.00068   1.91191
    A3        1.93910  -0.00813   0.00000  -0.04954  -0.04916   1.88994
    A4        1.91012  -0.00469   0.00000  -0.02271  -0.02351   1.88662
    A5        1.89594   0.00599   0.00000   0.03606   0.03584   1.93178
    A6        1.89607   0.00591   0.00000   0.03536   0.03513   1.93120
    A7        2.10313   0.00866   0.00000   0.03310   0.03310   2.13623
    A8        2.03508  -0.00679   0.00000  -0.02595  -0.02595   2.00914
    A9        2.14497  -0.00187   0.00000  -0.00715  -0.00715   2.13782
   A10        2.09430   0.00085   0.00000   0.00687   0.00671   2.10101
   A11        2.12753   0.00254   0.00000   0.01096   0.01078   2.13832
   A12        2.06135  -0.00339   0.00000  -0.01783  -0.01801   2.04334
   A13        1.91114  -0.00135   0.00000  -0.04199  -0.04182   1.86931
   A14        1.93905   0.00536   0.00000   0.02737   0.02829   1.96733
   A15        1.93900  -0.01155   0.00000  -0.07329  -0.07371   1.86529
   A16        1.89609  -0.00248   0.00000   0.01073   0.00973   1.90583
   A17        1.89608   0.00390   0.00000   0.04042   0.03754   1.93362
   A18        1.88137   0.00636   0.00000   0.04009   0.04050   1.92188
   A19        1.91115   0.00165   0.00000   0.01054   0.01043   1.92158
   A20        1.91106   0.00485   0.00000   0.02751   0.02740   1.93847
   A21        1.91110   0.00024   0.00000   0.00120   0.00118   1.91228
   A22        1.91011  -0.00319   0.00000  -0.01818  -0.01836   1.89174
   A23        1.91023  -0.00074   0.00000  -0.00287  -0.00289   1.90734
   A24        1.91015  -0.00282   0.00000  -0.01824  -0.01827   1.89189
   A25        2.10311  -0.00284   0.00000  -0.01085  -0.01090   2.09221
   A26        2.03502  -0.00152   0.00000  -0.00579  -0.00584   2.02917
   A27        2.14506   0.00436   0.00000   0.01664   0.01659   2.16165
   A28        2.09446  -0.00526   0.00000  -0.02491  -0.02491   2.06955
   A29        2.12749   0.00758   0.00000   0.03269   0.03269   2.16018
   A30        2.06124  -0.00232   0.00000  -0.00778  -0.00778   2.05346
   A31        1.91114  -0.00430   0.00000  -0.02748  -0.02732   1.88381
   A32        1.91116   0.00360   0.00000   0.02199   0.02181   1.93297
   A33        1.91103   0.00443   0.00000   0.02721   0.02706   1.93809
   A34        1.91015  -0.00029   0.00000  -0.00448  -0.00436   1.90579
   A35        1.91015  -0.00054   0.00000  -0.00521  -0.00504   1.90511
   A36        1.91018  -0.00291   0.00000  -0.01205  -0.01249   1.89769
    D1        0.00008  -0.00001   0.00000   0.00058   0.00060   0.00068
    D2       -3.14153  -0.00005   0.00000  -0.00101  -0.00101   3.14064
    D3        2.10332  -0.00055   0.00000  -0.00560  -0.00607   2.09725
    D4       -1.03830  -0.00059   0.00000  -0.00719  -0.00768  -1.04598
    D5       -2.10341   0.00063   0.00000   0.00800   0.00848  -2.09493
    D6        1.03816   0.00059   0.00000   0.00641   0.00687   1.04503
    D7       -0.00004  -0.00014   0.00000  -0.01372  -0.01359  -0.01363
    D8       -3.14152   0.00043   0.00000   0.02199   0.02183  -3.11969
    D9        3.14153  -0.00018   0.00000  -0.01536  -0.01520   3.12633
   D10        0.00005   0.00039   0.00000   0.02036   0.02022   0.02027
   D11       -0.52362  -0.00075   0.00000  -0.02330  -0.02137  -0.54500
   D12        1.57082  -0.00133   0.00000  -0.01996  -0.01934   1.55147
   D13       -2.61802   0.00256   0.00000   0.00000   0.00000  -2.61802
   D14        2.61807  -0.00019   0.00000   0.01177   0.01294   2.63102
   D15       -1.57067  -0.00077   0.00000   0.01511   0.01497  -1.55570
   D16        0.52368   0.00312   0.00000   0.03506   0.03431   0.55799
   D17        1.04724  -0.00217   0.00000  -0.00219  -0.00213   1.04511
   D18        3.14157  -0.00209   0.00000  -0.00114  -0.00099   3.14058
   D19       -1.04726  -0.00243   0.00000  -0.00587  -0.00576  -1.05302
   D20       -3.13259  -0.00213   0.00000  -0.03029  -0.03016   3.12044
   D21       -1.03826  -0.00205   0.00000  -0.02923  -0.02902  -1.06728
   D22        1.05609  -0.00239   0.00000  -0.03397  -0.03379   1.02230
   D23       -1.08102   0.00464   0.00000   0.04533   0.04500  -1.03602
   D24        1.01331   0.00472   0.00000   0.04638   0.04614   1.05945
   D25        3.10766   0.00439   0.00000   0.04165   0.04137  -3.13416
   D26       -1.04715  -0.00221   0.00000   0.01858   0.01834  -1.02882
   D27        2.09440  -0.00199   0.00000   0.00000   0.00000   2.09439
   D28        3.13272   0.00408   0.00000   0.08977   0.09093  -3.05954
   D29       -0.00892   0.00431   0.00000   0.07119   0.07259   0.06367
   D30        1.08113   0.00144   0.00000   0.03336   0.03236   1.11350
   D31       -2.06050   0.00166   0.00000   0.01478   0.01402  -2.04648
   D32       -0.00004  -0.00080   0.00000  -0.00853  -0.00849  -0.00853
   D33       -3.14157  -0.00085   0.00000  -0.01039  -0.01035   3.13127
   D34        3.14152  -0.00057   0.00000  -0.02760  -0.02764   3.11387
   D35       -0.00001  -0.00062   0.00000  -0.02946  -0.02950  -0.02951
   D36       -0.00006   0.00009   0.00000   0.00128   0.00126   0.00120
   D37        2.09437  -0.00070   0.00000  -0.00758  -0.00780   2.08656
   D38       -2.09442   0.00067   0.00000   0.00783   0.00808  -2.08634
   D39        3.14159   0.00003   0.00000  -0.00055  -0.00058   3.14101
   D40       -1.04716  -0.00075   0.00000  -0.00941  -0.00964  -1.05681
   D41        1.04724   0.00061   0.00000   0.00600   0.00624   1.05348
         Item               Value     Threshold  Converged?
 Maximum Force            0.040633     0.000450     NO 
 RMS     Force            0.007232     0.000300     NO 
 Maximum Displacement     0.180868     0.001800     NO 
 RMS     Displacement     0.065044     0.001200     NO 
 Predicted change in Energy=-6.276411D-03
 GradGradGradGradGradGradGradGradGradGradGradGradGradGradGradGradGradGrad

                          Input orientation:                          
 ---------------------------------------------------------------------
 Center     Atomic      Atomic             Coordinates (Angstroms)
 Number     Number       Type             X           Y           Z
 ---------------------------------------------------------------------
      1          1           0        1.889790    1.331911    0.991275
      2          6           0        1.943172    2.291991    0.505296
      3          1           0        1.268619    2.986138    0.996421
      4          1           0        1.630551    2.193113   -0.529326
      5          6           0        3.370728    2.786350    0.586382
      6          8           0        4.244767    2.151577    1.122091
      7          7           0        3.593400    3.983526    0.015996
      8          1           0        2.851495    4.474567   -0.428955
      9          6           0        4.901284    4.593701   -0.022287
     10          1           0        5.426385    4.275028    0.865376
     11          6           0        5.710281    4.184928   -1.261481
     12          1           0        5.186294    4.478788   -2.161036
     13          1           0        6.687003    4.658977   -1.263705
     14          1           0        5.851416    3.111737   -1.264436
     15          6           0        4.686277    6.100808   -0.011117
     16          8           0        4.039177    6.622757   -0.887390
     17          7           0        5.229401    6.770093    1.016217
     18          1           0        5.726673    6.258806    1.705891
     19          6           0        5.135546    8.208580    1.181489
     20          1           0        4.570570    8.600553    0.355192
     21          1           0        4.630679    8.456526    2.107846
     22          1           0        6.118792    8.664543    1.188162
 ---------------------------------------------------------------------
                    Distance matrix (angstroms):
                    1          2          3          4          5
     1  H    0.000000
     2  C    1.077394   0.000000
     3  H    1.767016   1.085387   0.000000
     4  H    1.766663   1.085334   1.757210   0.000000
     5  C    2.114831   1.512905   2.151025   2.150570   0.000000
     6  O    2.496974   2.386942   3.093500   3.092414   1.205763
     7  N    3.299169   2.413288   2.713046   2.712145   1.344676
     8  H    3.580254   2.541951   2.598579   2.589558   2.037299
     9  C    4.553644   3.785055   4.101009   4.088717   2.445321
    10  H    4.602748   4.024285   4.354931   4.548398   2.553375
    11  C    5.273592   4.571196   5.124801   4.598650   3.293042
    12  H    5.541375   4.733841   5.248402   4.531016   3.702557
    13  H    6.258398   5.588910   6.104543   5.673403   4.234056
    14  H    4.893923   4.367872   5.111680   4.381776   3.112107
    15  C    5.618497   4.722118   4.732514   4.987593   3.615703
    16  O    6.011846   5.008827   4.944667   5.054843   4.163754
    17  N    6.381806   5.577969   5.477819   6.024050   4.416971
    18  H    6.285431   5.611767   5.575657   6.189045   4.343009
    19  C    7.606555   6.756812   6.500867   7.169220   5.733176
    20  H    7.773309   6.835474   6.544899   7.105024   5.941214
    21  H    7.714878   6.913201   6.516429   7.428714   6.004434
    22  H    8.467036   7.649283   7.470289   8.060613   6.516682
                    6          7          8          9         10
     6  O    0.000000
     7  N    2.236909   0.000000
     8  H    3.121415   0.994749   0.000000
     9  C    2.775713   1.443724   2.093133   0.000000
    10  H    2.443597   2.041141   2.888800   1.079458   0.000000
    11  C    3.458853   2.480665   2.991597   1.535309   2.147612
    12  H    4.132954   2.742639   2.907131   2.160714   3.042751
    13  H    4.235988   3.415296   3.929623   2.175815   2.503909
    14  H    3.032941   2.738276   3.399244   2.154507   2.463736
    15  C    4.132254   2.382855   2.487102   1.522408   2.156264
    16  O    4.906295   2.824953   2.497093   2.368269   3.241661
    17  N    4.723495   3.382587   3.607270   2.433688   2.507370
    18  H    4.405247   3.547323   4.000966   2.537803   2.175319
    19  C    6.122442   4.646252   4.664040   3.817238   3.956936
    20  H    6.502582   4.731474   4.538046   4.038158   4.438792
    21  H    6.393201   5.045742   5.045478   4.419515   4.434164
    22  H    6.777541   5.446420   5.553935   4.418061   4.455498
                   11         12         13         14         15
    11  C    0.000000
    12  H    1.081719   0.000000
    13  H    1.085685   1.757782   0.000000
    14  H    1.082436   1.764967   1.758453   0.000000
    15  C    2.506510   2.739182   2.766000   3.444256   0.000000
    16  O    2.979185   2.744932   3.317985   3.969084   1.207900
    17  N    3.478827   3.917509   3.432122   4.355669   1.341023
    18  H    3.620295   4.291107   3.507162   4.329254   2.013828
    19  C    4.742172   5.008632   4.581012   5.698493   2.463098
    20  H    4.838421   4.868210   4.757745   5.864372   2.529089
    21  H    5.546571   5.861268   5.478796   6.436556   3.168990
    22  H    5.121970   5.441252   4.730653   6.076214   3.172239
                   16         17         18         19         20
    16  O    0.000000
    17  N    2.249902   0.000000
    18  H    3.115318   0.992141   0.000000
    19  C    2.827917   1.450988   2.103817   0.000000
    20  H    2.395426   2.054652   2.940193   1.074991   0.000000
    21  H    3.561463   2.096229   2.488523   1.083746   1.759588
    22  H    3.577932   2.099886   2.491861   1.083845   1.759239
                   21         22
    21  H    0.000000
    22  H    1.761695   0.000000
 Stoichiometry    C6H12N2O2
 Framework group  C1[X(C6H12N2O2)]
 Deg. of freedom    60
 Full point group                 C1      NOp   1
 Largest Abelian subgroup         C1      NOp   1
 Largest concise Abelian subgroup C1      NOp   1
                         Standard orientation:                         
 ---------------------------------------------------------------------
 Center     Atomic      Atomic             Coordinates (Angstroms)
 Number     Number       Type             X           Y           Z
 ---------------------------------------------------------------------
      1          1           0       -4.096297   -1.241208   -0.016022
      2          6           0       -3.186673   -1.169204    0.556846
      3          1           0       -2.786049   -2.163067    0.729480
      4          1           0       -3.399652   -0.719379    1.521339
      5          6           0       -2.201865   -0.323676   -0.220405
      6          8           0       -2.467867    0.154298   -1.294951
      7          7           0       -1.010031   -0.142912    0.375421
      8          1           0       -0.828611   -0.541248    1.268697
      9          6           0        0.037805    0.657856   -0.212073
     10          1           0       -0.060344    0.572479   -1.283664
     11          6           0       -0.052457    2.137696    0.186803
     12          1           0        0.022954    2.238355    1.261185
     13          1           0        0.747306    2.713977   -0.268160
     14          1           0       -0.998706    2.545455   -0.144876
     15          6           0        1.360510    0.068627    0.258017
     16          8           0        1.602949    0.000831    1.439393
     17          7           0        2.188637   -0.370617   -0.700947
     18          1           0        1.899951   -0.297575   -1.647345
     19          6           0        3.492957   -0.949138   -0.437451
     20          1           0        3.644989   -0.951911    0.626731
     21          1           0        3.543542   -1.966584   -0.807248
     22          1           0        4.278350   -0.368585   -0.907384
 ---------------------------------------------------------------------
 Rotational constants (GHZ):      2.3859811      0.6783947      0.6492750
 Standard basis: 6-31G(d) (6D, 7F)
 There are   174 symmetry adapted basis functions of A   symmetry.
 Integral buffers will be    131072 words long.
 Raffenetti 1 integral format.
 Two-electron integral symmetry is turned on.
   174 basis functions,   328 primitive gaussians,   174 cartesian basis functions
    39 alpha electrons       39 beta electrons
       nuclear repulsion energy       553.5138395095 Hartrees.
 NAtoms=   22 NActive=   22 NUniq=   22 SFac= 7.50D-01 NAtFMM=   80 NAOKFM=F Big=F
 One-electron integrals computed using PRISM.
 NBasis=   174 RedAO= T  NBF=   174
 NBsUse=   174 1.00D-06 NBFU=   174
 Initial guess read from the read-write file.
 B after Tr=     0.000000    0.000000    0.000000
         Rot=    1.000000    0.000000    0.000000    0.000000 Ang=   0.00 deg.
 Initial guess orbital symmetries:
       Occupied  (A) (A) (A) (A) (A) (A) (A) (A) (A) (A) (A) (A)
                 (A) (A) (A) (A) (A) (A) (A) (A) (A) (A) (A) (A)
                 (A) (A) (A) (A) (A) (A) (A) (A) (A) (A) (A) (A)
                 (A) (A) (A)
       Virtual   (A) (A) (A) (A) (A) (A) (A) (A) (A) (A) (A) (A)
                 (A) (A) (A) (A) (A) (A) (A) (A) (A) (A) (A) (A)
                 (A) (A) (A) (A) (A) (A) (A) (A) (A) (A) (A) (A)
                 (A) (A) (A) (A) (A) (A) (A) (A) (A) (A) (A) (A)
                 (A) (A) (A) (A) (A) (A) (A) (A) (A) (A) (A) (A)
                 (A) (A) (A) (A) (A) (A) (A) (A) (A) (A) (A) (A)
                 (A) (A) (A) (A) (A) (A) (A) (A) (A) (A) (A) (A)
                 (A) (A) (A) (A) (A) (A) (A) (A) (A) (A) (A) (A)
                 (A) (A) (A) (A) (A) (A) (A) (A) (A) (A) (A) (A)
                 (A) (A) (A) (A) (A) (A) (A) (A) (A) (A) (A) (A)
                 (A) (A) (A) (A) (A) (A) (A) (A) (A) (A) (A) (A)
                 (A) (A) (A)
 Harris functional with IExCor=  205 diagonalized for initial guess.
 ExpMin= 1.61D-01 ExpMax= 5.48D+03 ExpMxC= 8.25D+02 IAcc=1 IRadAn=         1 AccDes= 0.00D+00
 HarFok:  IExCor=  205 AccDes= 0.00D+00 IRadAn=         1 IDoV= 1
 ScaDFX=  1.000000  1.000000  1.000000  1.000000
 FoFCou: FMM=F IPFlag=           0 FMFlag=      100000 FMFlg1=           0
         NFxFlg=           0 DoJE=T BraDBF=F KetDBF=T FulRan=T
         Omega=  0.000000  0.000000  1.000000  0.000000  0.000000 ICntrl=     500 IOpCl=  0
         NMat0=    1 NMatS0=    1 NMatT0=    0 NMatD0=    1 NMtDS0=    0 NMtDT0=    0
         I1Cent=           4 NGrid=           0.
 Petite list used in FoFCou.
 Requested convergence on RMS density matrix=1.00D-08 within 128 cycles.
 Requested convergence on MAX density matrix=1.00D-06.
 Requested convergence on             energy=1.00D-06.
 No special actions if energy rises.
 Integral accuracy reduced to 1.0D-05 until final iterations.
 Initial convergence to 1.0D-05 achieved.  Increase integral accuracy.
 SCF Done:  E(RHF) =  -492.858077498     A.U. after   13 cycles
             Convg  =    0.8753D-08             -V/T =  2.0014
 Calling FoFJK, ICntrl=      2127 FMM=F ISym2X=0 I1Cent= 0 IOpClX= 0 NMat=1 NMatS=1 NMatT=0.
 ***** Axes restored to original set *****
 -------------------------------------------------------------------
 Center     Atomic                   Forces (Hartrees/Bohr)
 Number     Number              X              Y              Z
 -------------------------------------------------------------------
      1        1          -0.001212832   -0.001612385    0.000599607
      2        6           0.000425606    0.000848510    0.000227641
      3        1          -0.000073538   -0.000132120   -0.000157440
      4        1           0.000038155    0.000042508    0.000154823
      5        6           0.003654378   -0.008974916    0.004176396
      6        8          -0.004203182    0.002583920   -0.002132822
      7        7          -0.001555026    0.005977797   -0.002345785
      8        1          -0.000169032   -0.000344981   -0.002242424
      9        6           0.006501425    0.000102999   -0.001221264
     10        1           0.000436517   -0.000607761    0.000483084
     11        6          -0.002065062    0.000475075    0.002259221
     12        1          -0.000422075    0.000235604   -0.000658482
     13        1           0.000167499    0.000303396    0.000634373
     14        1          -0.000164937   -0.000493653    0.000328428
     15        6          -0.005983375    0.002207255   -0.005288689
     16        8           0.001563459   -0.001488881    0.003902931
     17        7           0.003763958    0.005110873    0.002593310
     18        1           0.000616073   -0.001701786    0.000689680
     19        6          -0.000342831   -0.002970150   -0.000548810
     20        1          -0.001136673    0.001487259   -0.001366681
     21        1          -0.000339976   -0.000342609    0.000162441
     22        1           0.000501468   -0.000705955   -0.000249539
 -------------------------------------------------------------------
 Cartesian Forces:  Max     0.008974916 RMS     0.002477901

 GradGradGradGradGradGradGradGradGradGradGradGradGradGradGradGradGradGrad
 Berny optimization.
 Using GEDIIS/GDIIS optimizer.
 Internal  Forces:  Max     0.007893550 RMS     0.001441765
 Search for a local minimum.
 Step number   2 out of a maximum of  108
 All quantities printed in internal units (Hartrees-Bohrs-Radians)
 Mixed Optimization -- RFO/linear search
 Update second derivatives using D2CorX and points    1    2
 DE= -6.01D-03 DEPred=-6.28D-03 R= 9.57D-01
 SS=  1.41D+00  RLast= 2.55D-01 DXNew= 5.0454D-01 7.6409D-01
 Trust test= 9.57D-01 RLast= 2.55D-01 DXMaxT set to 5.05D-01
 Use linear search instead of GDIIS.
     Eigenvalues ---    0.00369   0.00435   0.01013   0.01043   0.01243
     Eigenvalues ---    0.01419   0.01652   0.02550   0.02560   0.03668
     Eigenvalues ---    0.05010   0.05652   0.05760   0.06018   0.07152
     Eigenvalues ---    0.07339   0.07460   0.07764   0.14722   0.15737
     Eigenvalues ---    0.15994   0.16000   0.16000   0.16000   0.16000
     Eigenvalues ---    0.16000   0.16000   0.16000   0.16000   0.16297
     Eigenvalues ---    0.17024   0.21949   0.22348   0.24909   0.24997
     Eigenvalues ---    0.25000   0.25208   0.29417   0.30114   0.30475
     Eigenvalues ---    0.34750   0.34809   0.34810   0.34812   0.34815
     Eigenvalues ---    0.34816   0.34817   0.34819   0.34821   0.35700
     Eigenvalues ---    0.38364   0.39066   0.45970   0.46738   0.56908
     Eigenvalues ---    0.58381   0.85339   0.915041000.000001000.00000
     Eigenvalues --- 1000.000001000.000001000.000001000.000001000.00000
     Eigenvalues --- 1000.000001000.000001000.000001000.000001000.00000
     Eigenvalues --- 1000.000001000.000001000.000001000.000001000.00000
     Eigenvalues --- 1000.000001000.000001000.000001000.000001000.00000
     Eigenvalues --- 1000.000001000.000001000.000001000.000001000.00000
     Eigenvalues --- 1000.000001000.000001000.000001000.000001000.00000
     Eigenvalues --- 1000.000001000.000001000.000001000.000001000.00000
     Eigenvalues --- 1000.000001000.000001000.00000
 RFO step:  Lambda=-7.16915854D-04 EMin= 3.68858464D-03
 Quartic linear search produced a step of  0.00787.
 Iteration  1 RMS(Cart)=  0.02266331 RMS(Int)=  0.00038248
 Iteration  2 RMS(Cart)=  0.00051362 RMS(Int)=  0.00009283
 Iteration  3 RMS(Cart)=  0.00000021 RMS(Int)=  0.00009283
 Iteration  1 RMS(Cart)=  0.00000779 RMS(Int)=  0.00000182
 Iteration  2 RMS(Cart)=  0.00000418 RMS(Int)=  0.00000204
 Iteration  3 RMS(Cart)=  0.00000225 RMS(Int)=  0.00000230
 Iteration  4 RMS(Cart)=  0.00000121 RMS(Int)=  0.00000247
 Iteration  5 RMS(Cart)=  0.00000065 RMS(Int)=  0.00000257
 Variable       Old X    -DE/DX   Delta X   Delta X   Delta X     New X
                                 (Linear)    (Quad)   (Total)
    R1        2.03598   0.00177  -0.00019   0.00410   0.00391   2.03989
    R2        2.05108  -0.00011  -0.00007  -0.00069  -0.00076   2.05033
    R3        2.05098  -0.00016  -0.00007  -0.00084  -0.00090   2.05008
    R4        2.85898   0.00101  -0.00025   0.00209   0.00183   2.86081
    R5        2.27856  -0.00535  -0.00034  -0.00775  -0.00810   2.27046
    R6        2.54107   0.00789   0.00014   0.01438   0.01453   2.55560
    R7        1.87980   0.00096  -0.00023   0.00088   0.00065   1.88045
    R8        2.72824   0.00344  -0.00008   0.00859   0.00851   2.73675
    R9        2.03988   0.00079  -0.00016   0.00144   0.00128   2.04116
   R10        2.90131  -0.00352   0.00015  -0.01100  -0.01085   2.89046
   R11        2.87693   0.00177   0.00001   0.00593   0.00593   2.88287
   R12        2.04415   0.00082  -0.00012   0.00170   0.00157   2.04573
   R13        2.05165   0.00028  -0.00006   0.00047   0.00040   2.05205
   R14        2.04551   0.00047  -0.00011   0.00075   0.00064   2.04615
   R15        2.28260  -0.00431  -0.00031  -0.00645  -0.00676   2.27584
   R16        2.53417   0.00266   0.00009   0.00507   0.00516   2.53932
   R17        1.87487   0.00167  -0.00026   0.00222   0.00195   1.87683
   R18        2.74197  -0.00265   0.00003  -0.00680  -0.00677   2.73520
   R19        2.03144   0.00219  -0.00022   0.00513   0.00490   2.03634
   R20        2.04798   0.00022  -0.00009   0.00013   0.00004   2.04802
   R21        2.04817   0.00016  -0.00009  -0.00004  -0.00013   2.04804
    A1        1.91241  -0.00064   0.00001  -0.00261  -0.00261   1.90979
    A2        1.91191  -0.00055   0.00001  -0.00244  -0.00244   1.90947
    A3        1.88994   0.00172  -0.00039   0.00990   0.00950   1.89945
    A4        1.88662  -0.00016  -0.00018  -0.00423  -0.00442   1.88220
    A5        1.93178  -0.00005   0.00028   0.00069   0.00096   1.93274
    A6        1.93120  -0.00035   0.00028  -0.00145  -0.00118   1.93002
    A7        2.13623  -0.00045   0.00026  -0.00041  -0.00022   2.13601
    A8        2.00914  -0.00009  -0.00020  -0.00144  -0.00172   2.00741
    A9        2.13782   0.00054  -0.00006   0.00188   0.00175   2.13957
   A10        2.10101  -0.00024   0.00005  -0.00114  -0.00149   2.09952
   A11        2.13832   0.00084   0.00008   0.00395   0.00364   2.14195
   A12        2.04334  -0.00062  -0.00014  -0.00437  -0.00490   2.03844
   A13        1.86931   0.00109  -0.00033  -0.00120  -0.00152   1.86779
   A14        1.96733  -0.00168   0.00022  -0.00318  -0.00295   1.96439
   A15        1.86529  -0.00004  -0.00058  -0.00545  -0.00601   1.85928
   A16        1.90583  -0.00018   0.00008  -0.00010  -0.00005   1.90577
   A17        1.93362  -0.00017   0.00030   0.00350   0.00376   1.93738
   A18        1.92188   0.00097   0.00032   0.00625   0.00655   1.92842
   A19        1.92158   0.00023   0.00008   0.00260   0.00269   1.92427
   A20        1.93847  -0.00087   0.00022  -0.00472  -0.00451   1.93396
   A21        1.91228  -0.00045   0.00001  -0.00305  -0.00305   1.90923
   A22        1.89174   0.00039  -0.00014   0.00224   0.00210   1.89384
   A23        1.90734   0.00020  -0.00002   0.00197   0.00195   1.90929
   A24        1.89189   0.00052  -0.00014   0.00108   0.00092   1.89281
   A25        2.09221   0.00097  -0.00009   0.00324   0.00282   2.09503
   A26        2.02917  -0.00067  -0.00005  -0.00322  -0.00360   2.02557
   A27        2.16165  -0.00029   0.00013  -0.00081  -0.00101   2.16064
   A28        2.06955  -0.00006  -0.00020  -0.00288  -0.00308   2.06647
   A29        2.16018  -0.00174   0.00026  -0.00656  -0.00631   2.15387
   A30        2.05346   0.00180  -0.00006   0.00945   0.00938   2.06284
   A31        1.88381   0.00141  -0.00021   0.00853   0.00833   1.89214
   A32        1.93297  -0.00055   0.00017  -0.00280  -0.00264   1.93034
   A33        1.93809  -0.00138   0.00021  -0.00807  -0.00786   1.93022
   A34        1.90579  -0.00026  -0.00003  -0.00072  -0.00075   1.90504
   A35        1.90511   0.00003  -0.00004   0.00045   0.00043   1.90553
   A36        1.89769   0.00076  -0.00010   0.00271   0.00259   1.90028
    D1        0.00068  -0.00014   0.00000  -0.00471  -0.00470  -0.00403
    D2        3.14064   0.00015  -0.00001   0.01769   0.01767  -3.12487
    D3        2.09725   0.00013  -0.00005  -0.00128  -0.00132   2.09593
    D4       -1.04598   0.00042  -0.00006   0.02113   0.02106  -1.02492
    D5       -2.09493  -0.00033   0.00007  -0.00706  -0.00698  -2.10191
    D6        1.04503  -0.00004   0.00005   0.01534   0.01539   1.06043
    D7       -0.01363  -0.00065  -0.00011  -0.04393  -0.04407  -0.05770
    D8       -3.11969   0.00005   0.00017   0.00989   0.01008  -3.10961
    D9        3.12633  -0.00036  -0.00012  -0.02151  -0.02164   3.10469
   D10        0.02027   0.00034   0.00016   0.03231   0.03251   0.05277
   D11       -0.54500   0.00040  -0.00017   0.00064   0.00051  -0.54449
   D12        1.55147  -0.00010  -0.00015  -0.00218  -0.00231   1.54916
   D13       -2.61802   0.00005   0.00000   0.00000   0.00000  -2.61802
   D14        2.63102   0.00108   0.00010   0.05273   0.05282   2.68384
   D15       -1.55570   0.00057   0.00012   0.04991   0.05000  -1.50570
   D16        0.55799   0.00073   0.00027   0.05209   0.05232   0.61031
   D17        1.04511  -0.00018  -0.00002   0.00712   0.00709   1.05221
   D18        3.14058  -0.00010  -0.00001   0.00858   0.00856  -3.13405
   D19       -1.05302  -0.00029  -0.00005   0.00498   0.00493  -1.04809
   D20        3.12044   0.00002  -0.00024   0.00355   0.00331   3.12375
   D21       -1.06728   0.00009  -0.00023   0.00501   0.00478  -1.06251
   D22        1.02230  -0.00010  -0.00027   0.00141   0.00115   1.02345
   D23       -1.03602   0.00031   0.00035   0.01181   0.01217  -1.02385
   D24        1.05945   0.00039   0.00036   0.01327   0.01363   1.07308
   D25       -3.13416   0.00019   0.00033   0.00967   0.01001  -3.12415
   D26       -1.02882   0.00175   0.00014   0.04596   0.04614  -0.98268
   D27        2.09439   0.00221   0.00000   0.00000   0.00000   2.09440
   D28       -3.05954   0.00055   0.00072   0.04868   0.04943  -3.01011
   D29        0.06367   0.00101   0.00057   0.00272   0.00330   0.06697
   D30        1.11350   0.00025   0.00025   0.04238   0.04263   1.15613
   D31       -2.04648   0.00071   0.00011  -0.00359  -0.00351  -2.04998
   D32       -0.00853  -0.00024  -0.00007   0.02303   0.02293   0.01440
   D33        3.13127  -0.00019  -0.00008   0.02580   0.02568  -3.12624
   D34        3.11387   0.00025  -0.00022  -0.02492  -0.02509   3.08878
   D35       -0.02951   0.00030  -0.00023  -0.02215  -0.02235  -0.05186
   D36        0.00120  -0.00007   0.00001  -0.00194  -0.00194  -0.00074
   D37        2.08656   0.00017  -0.00006   0.00083   0.00075   2.08732
   D38       -2.08634  -0.00017   0.00006  -0.00306  -0.00298  -2.08932
   D39        3.14101  -0.00002   0.00000   0.00080   0.00079  -3.14138
   D40       -1.05681   0.00022  -0.00008   0.00356   0.00348  -1.05333
   D41        1.05348  -0.00012   0.00005  -0.00032  -0.00026   1.05322
         Item               Value     Threshold  Converged?
 Maximum Force            0.007894     0.000450     NO 
 RMS     Force            0.001411     0.000300     NO 
 Maximum Displacement     0.073313     0.001800     NO 
 RMS     Displacement     0.022602     0.001200     NO 
 Predicted change in Energy=-3.681795D-04
 GradGradGradGradGradGradGradGradGradGradGradGradGradGradGradGradGradGrad

                          Input orientation:                          
 ---------------------------------------------------------------------
 Center     Atomic      Atomic             Coordinates (Angstroms)
 Number     Number       Type             X           Y           Z
 ---------------------------------------------------------------------
      1          1           0        1.867009    1.345399    1.006185
      2          6           0        1.941437    2.298270    0.504450
      3          1           0        1.263976    3.005671    0.971168
      4          1           0        1.641049    2.184437   -0.531756
      5          6           0        3.371508    2.786948    0.593390
      6          8           0        4.231454    2.162001    1.153284
      7          7           0        3.601893    3.989051    0.018275
      8          1           0        2.871772    4.462978   -0.463934
      9          6           0        4.916019    4.595939   -0.027798
     10          1           0        5.443762    4.274776    0.858225
     11          6           0        5.711632    4.178985   -1.265832
     12          1           0        5.188435    4.477118   -2.165443
     13          1           0        6.693227    4.643357   -1.267990
     14          1           0        5.841110    3.103981   -1.264717
     15          6           0        4.697461    6.105711   -0.016954
     16          8           0        4.007835    6.621050   -0.859113
     17          7           0        5.247447    6.774370    1.010703
     18          1           0        5.765469    6.261216    1.685032
     19          6           0        5.123627    8.205554    1.187807
     20          1           0        4.536153    8.599531    0.374880
     21          1           0        4.630169    8.432444    2.125662
     22          1           0        6.099855    8.676208    1.182377
 ---------------------------------------------------------------------
                    Distance matrix (angstroms):
                    1          2          3          4          5
     1  H    0.000000
     2  C    1.079463   0.000000
     3  H    1.766742   1.084986   0.000000
     4  H    1.766438   1.084856   1.753679   0.000000
     5  C    2.124142   1.513876   2.152265   2.150223   0.000000
     6  O    2.505808   2.384058   3.090448   3.090317   1.201477
     7  N    3.312806   2.419137   2.709409   2.721043   1.352363
     8  H    3.590277   2.547401   2.601589   2.590564   2.043709
     9  C    4.575106   3.796145   4.106617   4.098139   2.458422
    10  H    4.625613   4.037080   4.369667   4.556554   2.564763
    11  C    5.288893   4.570050   5.114927   4.592029   3.297067
    12  H    5.558665   4.734840   5.234966   4.528716   3.710669
    13  H    6.272222   5.587529   6.096934   5.666818   4.236131
    14  H    4.903375   4.357359   5.094998   4.361572   3.106768
    15  C    5.631948   4.729074   4.730269   4.998306   3.625584
    16  O    5.991240   4.981539   4.893838   5.039084   4.149098
    17  N    6.395397   5.587617   5.483857   6.037612   4.426379
    18  H    6.310632   5.632223   5.601037   6.208471   4.358127
    19  C    7.596069   6.744576   6.479399   7.165130   5.725779
    20  H    7.755340   6.815807   6.507993   7.096270   5.932138
    21  H    7.688594   6.890986   6.489528   7.418510   5.983620
    22  H    8.466923   7.643959   7.455556   8.059918   6.517221
                    6          7          8          9         10
     6  O    0.000000
     7  N    2.241139   0.000000
     8  H    3.123880   0.995093   0.000000
     9  C    2.790635   1.448228   2.094479   0.000000
    10  H    2.453685   2.044416   2.898044   1.080136   0.000000
    11  C    3.480126   2.477096   2.964540   1.529568   2.143023
    12  H    4.158069   2.742982   2.874415   2.158207   3.041168
    13  H    4.252061   3.411589   3.909292   2.167669   2.493552
    14  H    3.053695   2.728280   3.362305   2.147487   2.456731
    15  C    4.139984   2.383644   2.496298   1.525548   2.162227
    16  O    4.897231   2.803929   2.470644   2.370012   3.242860
    17  N    4.725094   3.383897   3.627799   2.435957   2.511923
    18  H    4.409028   3.552728   4.028052   2.535449   2.175557
    19  C    6.109149   4.632750   4.669687   3.814461   3.957540
    20  H    6.491575   4.717683   4.537053   4.041682   4.445321
    21  H    6.357904   5.024159   5.055159   4.408840   4.422050
    22  H    6.776921   5.437314   5.557173   4.417531   4.461853
                   11         12         13         14         15
    11  C    0.000000
    12  H    1.082552   0.000000
    13  H    1.085898   1.759959   0.000000
    14  H    1.082774   1.767144   1.759486   0.000000
    15  C    2.510082   2.740325   2.772481   3.446045   0.000000
    16  O    3.005333   2.774304   3.360027   3.986877   1.204322
    17  N    3.483403   3.920300   3.438595   4.359096   1.343751
    18  H    3.611950   4.282772   3.492641   4.321444   2.015337
    19  C    4.751773   5.014950   4.602589   5.705760   2.458130
    20  H    4.859518   4.886001   4.796175   5.881518   2.529563
    21  H    5.546504   5.862580   5.489103   6.430673   3.163703
    22  H    5.135120   5.447104   4.756077   6.091381   3.164262
                   16         17         18         19         20
    16  O    0.000000
    17  N    2.248635   0.000000
    18  H    3.113107   0.993174   0.000000
    19  C    2.818781   1.447406   2.107046   0.000000
    20  H    2.390867   2.059471   2.948802   1.077586   0.000000
    21  H    3.546453   2.091262   2.489436   1.083768   1.761247
[...]
     18          1           0        5.776767    6.238978    1.701567
     19          6           0        5.169518    8.201159    1.230442
     20          1           0        4.684355    8.631422    0.369537
     21          1           0        4.578227    8.418900    2.113367
     22          1           0        6.150014    8.647972    1.346622
 ---------------------------------------------------------------------
                    Distance matrix (angstroms):
                    1          2          3          4          5
     1  H    0.000000
     2  C    1.080736   0.000000
     3  H    1.770559   1.083641   0.000000
     4  H    1.755182   1.085635   1.759791   0.000000
     5  C    2.124588   1.513445   2.174176   2.128528   0.000000
     6  O    2.554116   2.380028   3.229605   2.876465   1.202216
     7  N    3.268917   2.423703   2.578330   2.930203   1.353709
     8  H    3.532722   2.551244   2.339770   2.945068   2.042116
     9  C    4.547589   3.795651   4.023248   4.224673   2.456555
    10  H    4.575727   4.040604   4.424223   4.580013   2.556395
    11  C    5.368227   4.536282   4.892434   4.619243   3.296523
    12  H    5.654575   4.698404   4.899329   4.644627   3.715349
    13  H    6.339256   5.558694   5.915780   5.681562   4.234420
    14  H    5.051827   4.307365   4.876756   4.240625   3.108534
    15  C    5.531303   4.750283   4.654595   5.280683   3.624726
    16  O    5.930256   5.030552   4.736103   5.448219   4.176006
    17  N    6.248266   5.627110   5.545848   6.298942   4.426659
    18  H    6.126117   5.637869   5.703307   6.359052   4.329858
    19  C    7.405693   6.786814   6.539002   7.493934   5.721433
    20  H    7.651970   6.925336   6.569318   7.547641   5.979252
    21  H    7.391827   6.879323   6.550426   7.693940   5.933807
    22  H    8.279839   7.680959   7.514301   8.365027   6.511372
                    6          7          8          9         10
     6  O    0.000000
     7  N    2.244039   0.000000
     8  H    3.122822   0.995782   0.000000
     9  C    2.790004   1.448917   2.091970   0.000000
    10  H    2.437143   2.041395   2.909448   1.079982   0.000000
    11  C    3.499798   2.479231   2.908577   1.528854   2.144387
    12  H    4.184903   2.748421   2.802571   2.159575   3.043604
    13  H    4.266069   3.413410   3.867062   2.167197   2.496121
    14  H    3.087755   2.733103   3.294305   2.149354   2.460682
    15  C    4.130446   2.383174   2.532499   1.525980   2.162963
    16  O    4.914998   2.828211   2.524944   2.377155   3.252626
    17  N    4.705861   3.385931   3.687960   2.438702   2.514630
    18  H    4.362675   3.532917   4.063447   2.538626   2.177718
    19  C    6.083983   4.629616   4.733407   3.815747   3.959691
    20  H    6.508623   4.757350   4.648661   4.044889   4.449150
    21  H    6.309295   4.962820   5.051228   4.383708   4.429990
    22  H    6.737258   5.453245   5.644997   4.446364   4.460883
                   11         12         13         14         15
    11  C    0.000000
    12  H    1.083110   0.000000
    13  H    1.086063   1.759095   0.000000
    14  H    1.083359   1.766960   1.759363   0.000000
    15  C    2.509764   2.741005   2.772478   3.447705   0.000000
    16  O    2.988872   2.751929   3.334390   3.976913   1.212741
    17  N    3.484466   3.922343   3.438612   4.362545   1.346665
    18  H    3.635862   4.305042   3.532335   4.344167   2.017809
    19  C    4.754689   5.017853   4.607604   5.710358   2.458766
    20  H    4.824580   4.850923   4.732959   5.854933   2.533821
    21  H    5.528814   5.821437   5.496901   6.420807   3.117774
    22  H    5.197896   5.531567   4.828029   6.143739   3.209893
                   16         17         18         19         20
    16  O    0.000000
    17  N    2.259893   0.000000
    18  H    3.123842   0.993631   0.000000
    19  C    2.824587   1.447141   2.107336   0.000000
    20  H    2.402988   2.059033   2.948127   1.077806   0.000000
    21  H    3.476644   2.097891   2.521534   1.084709   1.759936
    22  H    3.646014   2.088039   2.463443   1.083749   1.761569
                   21         22
    21  H    0.000000
    22  H    1.763771   0.000000
 Stoichiometry    C6H12N2O2
 Framework group  C1[X(C6H12N2O2)]
 Deg. of freedom    60
 Full point group                 C1      NOp   1
 Largest Abelian subgroup         C1      NOp   1
 Largest concise Abelian subgroup C1      NOp   1
                         Standard orientation:                         
 ---------------------------------------------------------------------
 Center     Atomic      Atomic             Coordinates (Angstroms)
 Number     Number       Type             X           Y           Z
 ---------------------------------------------------------------------
      1          1           0       -3.877679   -1.638448   -0.004665
      2          6           0       -3.220185   -1.071406    0.638884
      3          1           0       -2.766575   -1.729218    1.370867
      4          1           0       -3.815139   -0.331048    1.164719
      5          6           0       -2.195905   -0.357589   -0.216587
      6          8           0       -2.438671   -0.004390   -1.339814
      7          7           0       -0.999548   -0.136262    0.376939
      8          1           0       -0.875435   -0.351817    1.341156
      9          6           0        0.043093    0.652657   -0.247452
     10          1           0       -0.057168    0.512735   -1.313627
     11          6           0       -0.067108    2.141777    0.080833
     12          1           0        0.012837    2.299338    1.149435
     13          1           0        0.722825    2.704206   -0.408260
     14          1           0       -1.021101    2.519970   -0.266347
     15          6           0        1.369658    0.091465    0.256439
     16          8           0        1.610454    0.078212    1.444959
     17          7           0        2.205795   -0.385807   -0.685151
     18          1           0        1.896776   -0.395456   -1.629459
     19          6           0        3.489201   -0.980403   -0.379304
     20          1           0        3.700353   -0.814919    0.664580
     21          1           0        3.480964   -2.047822   -0.572024
     22          1           0        4.268817   -0.522623   -0.976924
 ---------------------------------------------------------------------
 Rotational constants (GHZ):      2.3839234      0.6740244      0.6493564

 **********************************************************************

            Population analysis using the SCF density.

 **********************************************************************

 Orbital symmetries:
       Occupied  (A) (A) (A) (A) (A) (A) (A) (A) (A) (A) (A) (A)
                 (A) (A) (A) (A) (A) (A) (A) (A) (A) (A) (A) (A)
                 (A) (A) (A) (A) (A) (A) (A) (A) (A) (A) (A) (A)
                 (A) (A) (A)
       Virtual   (A) (A) (A) (A) (A) (A) (A) (A) (A) (A) (A) (A)
                 (A) (A) (A) (A) (A) (A) (A) (A) (A) (A) (A) (A)
                 (A) (A) (A) (A) (A) (A) (A) (A) (A) (A) (A) (A)
                 (A) (A) (A) (A) (A) (A) (A) (A) (A) (A) (A) (A)
                 (A) (A) (A) (A) (A) (A) (A) (A) (A) (A) (A) (A)
                 (A) (A) (A) (A) (A) (A) (A) (A) (A) (A) (A) (A)
                 (A) (A) (A) (A) (A) (A) (A) (A) (A) (A) (A) (A)
                 (A) (A) (A) (A) (A) (A) (A) (A) (A) (A) (A) (A)
                 (A) (A) (A) (A) (A) (A) (A) (A) (A) (A) (A) (A)
                 (A) (A) (A) (A) (A) (A) (A) (A) (A) (A) (A) (A)
                 (A) (A) (A) (A) (A) (A) (A) (A) (A) (A) (A) (A)
                 (A) (A) (A)
 The electronic state is 1-A.
 Alpha  occ. eigenvalues --  -20.52760 -20.52086 -15.59753 -15.58502 -11.35269
 Alpha  occ. eigenvalues --  -11.34841 -11.27945 -11.26261 -11.23182 -11.22011
 Alpha  occ. eigenvalues --   -1.39467  -1.38698  -1.24320  -1.23686  -1.05552
 Alpha  occ. eigenvalues --   -0.99247  -0.96697  -0.88068  -0.80183  -0.79164
 Alpha  occ. eigenvalues --   -0.73076  -0.67257  -0.65769  -0.64451  -0.63026
 Alpha  occ. eigenvalues --   -0.62202  -0.60165  -0.58561  -0.57648  -0.56731
 Alpha  occ. eigenvalues --   -0.55671  -0.53848  -0.52477  -0.52024  -0.50185
 Alpha  occ. eigenvalues --   -0.42843  -0.41746  -0.39626  -0.38547
 Alpha virt. eigenvalues --    0.18915   0.21419   0.21630   0.23262   0.26506
 Alpha virt. eigenvalues --    0.27631   0.28776   0.30765   0.31469   0.31749
 Alpha virt. eigenvalues --    0.32068   0.32685   0.33485   0.35436   0.36791
 Alpha virt. eigenvalues --    0.39976   0.41088   0.42755   0.45914   0.50352
 Alpha virt. eigenvalues --    0.51978   0.59867   0.62402   0.70476   0.71711
 Alpha virt. eigenvalues --    0.73551   0.73728   0.75408   0.76888   0.78328
 Alpha virt. eigenvalues --    0.81145   0.82378   0.84945   0.87476   0.88419
 Alpha virt. eigenvalues --    0.89131   0.94847   0.96107   0.98093   1.00263
 Alpha virt. eigenvalues --    1.01220   1.02408   1.05268   1.07081   1.07849
 Alpha virt. eigenvalues --    1.09991   1.10833   1.12946   1.15183   1.15773
 Alpha virt. eigenvalues --    1.16506   1.18444   1.19240   1.19925   1.20126
 Alpha virt. eigenvalues --    1.21542   1.21820   1.22560   1.23925   1.24871
 Alpha virt. eigenvalues --    1.27192   1.35257   1.36114   1.37585   1.39160
 Alpha virt. eigenvalues --    1.43611   1.49820   1.52581   1.55531   1.60313
 Alpha virt. eigenvalues --    1.65186   1.67265   1.70109   1.73657   1.78354
 Alpha virt. eigenvalues --    1.80637   1.84654   1.87681   1.88399   1.95643
 Alpha virt. eigenvalues --    2.01913   2.04295   2.06432   2.10343   2.12277
 Alpha virt. eigenvalues --    2.13892   2.14711   2.17091   2.19865   2.21557
 Alpha virt. eigenvalues --    2.23779   2.26905   2.28998   2.31188   2.33307
 Alpha virt. eigenvalues --    2.37122   2.40451   2.43759   2.49177   2.50210
 Alpha virt. eigenvalues --    2.53268   2.57922   2.59619   2.61574   2.64467
 Alpha virt. eigenvalues --    2.65091   2.66699   2.69915   2.72781   2.75493
 Alpha virt. eigenvalues --    2.79166   2.81899   2.85698   2.96645   2.99410
 Alpha virt. eigenvalues --    3.03556   3.04015   3.07422   3.13251   3.25871
 Alpha virt. eigenvalues --    3.30306   3.37548   3.38591   3.54226   3.56810
 Alpha virt. eigenvalues --    4.37327   4.42923   4.49026   4.62162   4.62905
 Alpha virt. eigenvalues --    4.68588   4.72991   4.83175   4.91137   5.08884
          Condensed to atoms (all electrons):
              1          2          3          4          5          6
     1  H    0.468575   0.384064  -0.021585  -0.018268  -0.031364   0.002749
     2  C    0.384064   5.258443   0.375418   0.377255   0.372457  -0.072413
     3  H   -0.021585   0.375418   0.520378  -0.023716  -0.037007   0.002391
     4  H   -0.018268   0.377255  -0.023716   0.490746  -0.027015   0.000118
     5  C   -0.031364   0.372457  -0.037007  -0.027015   4.137453   0.609150
     6  O    0.002749  -0.072413   0.002391   0.000118   0.609150   8.161415
     7  N    0.003800  -0.117030   0.005575   0.000472   0.265290  -0.106437
     8  H    0.000033  -0.000472   0.000673   0.000049  -0.015075   0.002102
     9  C   -0.000110   0.005236   0.000017  -0.000220  -0.027915   0.005433
    10  H    0.000002   0.000462  -0.000032  -0.000012  -0.001465   0.009317
    11  C   -0.000001  -0.000341   0.000004   0.000068  -0.001959  -0.001570
    12  H    0.000000  -0.000005   0.000000  -0.000003   0.000081  -0.000014
    13  H    0.000000   0.000003   0.000000  -0.000001  -0.000001  -0.000028
    14  H    0.000001   0.000027  -0.000002  -0.000012   0.001557   0.002067
    15  C    0.000002  -0.000084  -0.000021  -0.000001   0.003300   0.000398
    16  O    0.000000  -0.000013  -0.000003   0.000000   0.000214  -0.000002
    17  N    0.000000  -0.000002   0.000000   0.000000  -0.000176  -0.000008
    18  H    0.000000   0.000000   0.000000   0.000000  -0.000014  -0.000022
    19  C    0.000000   0.000000   0.000000   0.000000   0.000001   0.000000
    20  H    0.000000   0.000000   0.000000   0.000000   0.000000   0.000000
    21  H    0.000000   0.000000   0.000000   0.000000   0.000000   0.000000
    22  H    0.000000   0.000000   0.000000   0.000000   0.000000   0.000000
              7          8          9         10         11         12
     1  H    0.003800   0.000033  -0.000110   0.000002  -0.000001   0.000000
     2  C   -0.117030  -0.000472   0.005236   0.000462  -0.000341  -0.000005
     3  H    0.005575   0.000673   0.000017  -0.000032   0.000004   0.000000
     4  H    0.000472   0.000049  -0.000220  -0.000012   0.000068  -0.000003
     5  C    0.265290  -0.015075  -0.027915  -0.001465  -0.001959   0.000081
     6  O   -0.106437   0.002102   0.005433   0.009317  -0.001570  -0.000014
     7  N    7.414001   0.315736   0.182309  -0.040444  -0.066438  -0.000790
     8  H    0.315736   0.306014  -0.027013   0.003182   0.001328   0.001333
     9  C    0.182309  -0.027013   5.075422   0.407391   0.346887  -0.036498
    10  H   -0.040444   0.003182   0.407391   0.475739  -0.035833   0.003653
    11  C   -0.066438   0.001328   0.346887  -0.035833   5.134156   0.389979
    12  H   -0.000790   0.001333  -0.036498   0.003653   0.389979   0.501110
    13  H    0.004702  -0.000037  -0.036684   0.000131   0.382545  -0.023263
    14  H   -0.003858  -0.000233  -0.034110  -0.003632   0.393254  -0.024407
    15  C   -0.044317  -0.004421   0.347553  -0.048319  -0.053672  -0.005337
    16  O   -0.001938   0.011858  -0.085253   0.002556   0.001173   0.005079
    17  N    0.000739   0.000611  -0.091229   0.005661  -0.000066   0.000390
    18  H    0.000050  -0.000031   0.001184   0.002231   0.000038  -0.000008
    19  C   -0.000166  -0.000003   0.004679  -0.000013  -0.000185   0.000001
    20  H   -0.000012  -0.000010   0.000542  -0.000022  -0.000010  -0.000004
    21  H    0.000023   0.000002  -0.000176  -0.000005  -0.000003   0.000000
    22  H   -0.000002   0.000000  -0.000082  -0.000011   0.000017   0.000000
             13         14         15         16         17         18
     1  H    0.000000   0.000001   0.000002   0.000000   0.000000   0.000000
     2  C    0.000003   0.000027  -0.000084  -0.000013  -0.000002   0.000000
     3  H    0.000000  -0.000002  -0.000021  -0.000003   0.000000   0.000000
     4  H   -0.000001  -0.000012  -0.000001   0.000000   0.000000   0.000000
     5  C   -0.000001   0.001557   0.003300   0.000214  -0.000176  -0.000014
     6  O   -0.000028   0.002067   0.000398  -0.000002  -0.000008  -0.000022
     7  N    0.004702  -0.003858  -0.044317  -0.001938   0.000739   0.000050
     8  H   -0.000037  -0.000233  -0.004421   0.011858   0.000611  -0.000031
     9  C   -0.036684  -0.034110   0.347553  -0.085253  -0.091229   0.001184
    10  H    0.000131  -0.003632  -0.048319   0.002556   0.005661   0.002231
    11  C    0.382545   0.393254  -0.053672   0.001173  -0.000066   0.000038
    12  H   -0.023263  -0.024407  -0.005337   0.005079   0.000390  -0.000008
    13  H    0.532141  -0.023679  -0.001816   0.000016   0.000688  -0.000017
    14  H   -0.023679   0.496272   0.004672  -0.000010  -0.000078  -0.000008
    15  C   -0.001816   0.004672   4.190776   0.574736   0.299807  -0.018224
    16  O    0.000016  -0.000010   0.574736   8.218011  -0.094765   0.002344
    17  N    0.000688  -0.000078   0.299807  -0.094765   7.283818   0.324739
    18  H   -0.000017  -0.000008  -0.018224   0.002344   0.324739   0.318556
    19  C   -0.000021   0.000002  -0.028001  -0.002478   0.190153  -0.022082
    20  H   -0.000002   0.000000  -0.001550   0.009696  -0.034329   0.002567
    21  H    0.000001   0.000000   0.000133   0.000341  -0.046086  -0.000631
    22  H   -0.000003   0.000000   0.001833   0.000272  -0.044339  -0.001666
             19         20         21         22
     1  H    0.000000   0.000000   0.000000   0.000000
     2  C    0.000000   0.000000   0.000000   0.000000
     3  H    0.000000   0.000000   0.000000   0.000000
     4  H    0.000000   0.000000   0.000000   0.000000
     5  C    0.000001   0.000000   0.000000   0.000000
     6  O    0.000000   0.000000   0.000000   0.000000
     7  N   -0.000166  -0.000012   0.000023  -0.000002
     8  H   -0.000003  -0.000010   0.000002   0.000000
     9  C    0.004679   0.000542  -0.000176  -0.000082
    10  H   -0.000013  -0.000022  -0.000005  -0.000011
    11  C   -0.000185  -0.000010  -0.000003   0.000017
    12  H    0.000001  -0.000004   0.000000   0.000000
    13  H   -0.000021  -0.000002   0.000001  -0.000003
    14  H    0.000002   0.000000   0.000000   0.000000
    15  C   -0.028001  -0.001550   0.000133   0.001833
    16  O   -0.002478   0.009696   0.000341   0.000272
    17  N    0.190153  -0.034329  -0.046086  -0.044339
    18  H   -0.022082   0.002567  -0.000631  -0.001666
    19  C    4.944960   0.399071   0.403476   0.401888
    20  H    0.399071   0.441192  -0.024359  -0.022472
    21  H    0.403476  -0.024359   0.530183  -0.037309
    22  H    0.401888  -0.022472  -0.037309   0.528321
 Mulliken atomic charges:
              1
     1  H    0.212102
     2  C   -0.583004
     3  H    0.177910
     4  H    0.200540
     5  C    0.752486
     6  O   -0.614646
     7  N   -0.811264
     8  H    0.404375
     9  C   -0.037362
    10  H    0.219464
    11  C   -0.489372
    12  H    0.188705
    13  H    0.165324
    14  H    0.192177
    15  C    0.782554
    16  O   -0.641836
    17  N   -0.795529
    18  H    0.390993
    19  C   -0.291283
    20  H    0.229701
    21  H    0.174411
    22  H    0.173554
 Sum of Mulliken atomic charges =   0.00000
 Mulliken charges with hydrogens summed into heavy atoms:
              1
     2  C    0.007548
     5  C    0.752486
     6  O   -0.614646
     7  N   -0.406889
     9  C    0.182102
    11  C    0.056834
    15  C    0.782554
    16  O   -0.641836
    17  N   -0.404536
    19  C    0.286382
 Sum of Mulliken charges with hydrogens summed into heavy atoms =   0.00000
 Electronic spatial extent (au):  <R**2>=           1919.0422
 Charge=              0.0000 electrons
 Dipole moment (field-independent basis, Debye):
    X=              1.4232    Y=             -0.9812    Z=             -0.2784  Tot=              1.7509
 Quadrupole moment (field-independent basis, Debye-Ang):
   XX=            -57.7983   YY=            -58.0681   ZZ=            -65.1672
   XY=              0.0170   XZ=            -15.8643   YZ=             -0.1836
 Traceless Quadrupole moment (field-independent basis, Debye-Ang):
   XX=              2.5462   YY=              2.2764   ZZ=             -4.8227
   XY=              0.0170   XZ=            -15.8643   YZ=             -0.1836
 Octapole moment (field-independent basis, Debye-Ang**2):
  XXX=             23.7703  YYY=             -1.8427  ZZZ=             -4.3472  XYY=             -0.8907
  XXY=            -17.1465  XXZ=              9.8385  XZZ=              6.3576  YZZ=             -3.2222
  YYZ=             -0.4117  XYZ=              0.6388
 Hexadecapole moment (field-independent basis, Debye-Ang**3):
 XXXX=          -1674.5542 YYYY=           -416.5896 ZZZZ=           -282.3723 XXXY=            -10.5768
 XXXZ=            -65.8778 YYYX=             -1.8862 YYYZ=              0.5178 ZZZX=            -32.8892
 ZZZY=              0.9733 XXYY=           -348.8710 XXZZ=           -373.8871 YYZZ=           -114.5423
 XXYZ=              5.1449 YYXZ=              3.7967 ZZXY=             -2.4121
 N-N= 5.526760652837D+02 E-N=-2.260683902470D+03  KE= 4.920853839452D+02


 Spring appears, and we are once more children.
                                  -- Anonymous
 Error termination request processed by link 9999.
 Error termination via Lnk1e in /home/steboss/Software/g09/l9999.exe at Sat Feb 11 16:10:03 2017.
 Job cpu time:  0 days  1 hours 47 minutes 32.1 seconds.
 File lengths (MBytes):  RWF=     25 Int=      0 D2E=      0 Chk=      3 Scr=      1
