 Entering Gaussian System, Link 0=g09
 Initial command:
 /home/steboss/Software/g09/l1.exe /home/steboss/projects/phi_psi_scan/alanine/MP2/90/5729/Gau-2820.inp -scrdir=/home/steboss/projects/phi_psi_scan/alanine/MP2/90/5729/
 Entering Link 1 = /home/steboss/Software/g09/l1.exe PID=      2829.
  
 Copyright (c) 1988,1990,1992,1993,1995,1998,2003,2009, Gaussian, Inc.
                  All Rights Reserved.
  
 This is part of the Gaussian(R) 09 program.  It is based on
 the Gaussian(R) 03 system (copyright 2003, Gaussian, Inc.),
 the Gaussian(R) 98 system (copyright 1998, Gaussian, Inc.),
 the Gaussian(R) 94 system (copyright 1995, Gaussian, Inc.),
 the Gaussian 92(TM) system (copyright 1992, Gaussian, Inc.),
 the Gaussian 90(TM) system (copyright 1990, Gaussian, Inc.),
 the Gaussian 88(TM) system (copyright 1988, Gaussian, Inc.),
 the Gaussian 86(TM) system (copyright 1986, Carnegie Mellon
 University), and the Gaussian 82(TM) system (copyright 1983,
 Carnegie Mellon University). Gaussian is a federally registered
 trademark of Gaussian, Inc.
  
 This software contains proprietary and confidential information,
 including trade secrets, belonging to Gaussian, Inc.
  
 This software is provided under written license and may be
 used, copied, transmitted, or stored only in accord with that
 written license.
  
 The following legend is applicable only to US Government
 contracts under FAR:
  
                    RESTRICTED RIGHTS LEGEND
  
 Use, reproduction and disclosure by the US Government is
 subject to restrictions as set forth in subparagraphs (a)
 and (c) of the Commercial Computer Software - Restricted
 Rights clause in FAR 52.227-19.
  
 Gaussian, Inc.
 340 Quinnipiac St., Bldg. 40, Wallingford CT 06492
  
  
 ---------------------------------------------------------------
 Warning -- This program may not be used in any manner that
 competes with the business of Gaussian, Inc. or will provide
 assistance to any competitor of Gaussian, Inc.  The licensee
 of this program is prohibited from giving any competitor of
 Gaussian, Inc. access to this program.  By using this program,
 the user acknowledges that Gaussian, Inc. is engaged in the
 business of creating and licensing software in the field of
 computational chemistry and represents and warrants to the
 licensee that it is not a competitor of Gaussian, Inc. and that
 it will not use this program in any manner prohibited above.
 ---------------------------------------------------------------
  

 Cite this work as:
 Gaussian 09, Revision A.02,
 M. J. Frisch, G. W. Trucks, H. B. Schlegel, G. E. Scuseria, 
 M. A. Robb, J. R. Cheeseman, G. Scalmani, V. Barone, B. Mennucci, 
 G. A. Petersson, H. Nakatsuji, M. Caricato, X. Li, H. P. Hratchian, 
 A. F. Izmaylov, J. Bloino, G. Zheng, J. L. Sonnenberg, M. Hada, 
 M. Ehara, K. Toyota, R. Fukuda, J. Hasegawa, M. Ishida, T. Nakajima, 
 Y. Honda, O. Kitao, H. Nakai, T. Vreven, J. A. Montgomery, Jr., 
 J. E. Peralta, F. Ogliaro, M. Bearpark, J. J. Heyd, E. Brothers, 
 K. N. Kudin, V. N. Staroverov, R. Kobayashi, J. Normand, 
 K. Raghavachari, A. Rendell, J. C. Burant, S. S. Iyengar, J. Tomasi, 
 M. Cossi, N. Rega, J. M. Millam, M. Klene, J. E. Knox, J. B. Cross, 
 V. Bakken, C. Adamo, J. Jaramillo, R. Gomperts, R. E. Stratmann, 
 O. Yazyev, A. J. Austin, R. Cammi, C. Pomelli, J. W. Ochterski, 
 R. L. Martin, K. Morokuma, V. G. Zakrzewski, G. A. Voth, 
 P. Salvador, J. J. Dannenberg, S. Dapprich, A. D. Daniels, 
 O. Farkas, J. B. Foresman, J. V. Ortiz, J. Cioslowski, 
 and D. J. Fox, Gaussian, Inc., Wallingford CT, 2009.
 
 ******************************************
 Gaussian 09:  EM64L-G09RevA.02 11-Jun-2009
                14-Feb-2017 
 ******************************************
 %chk=structure_75.chk
 %NProcShared=8
 Will use up to    8 processors via shared memory.
 -------------------
 #SP MP2/aug-cc-pVDZ
 -------------------
 1/38=1/1;
 2/12=2,17=6,18=5,40=1/2;
 3/5=16,7=10,11=9,16=1,25=1,30=1/1,2,3;
 4//1;
 5/5=2,38=5/2;
 8/10=1/1;
 9/16=-3/6;
 6/7=2,8=2,9=2,10=2/1;
 99/5=1,9=1/99;
 -------------------------------
 Single Point calculation at MP2
 -------------------------------
 Symbolic Z-matrix:
 Charge =  0 Multiplicity = 1
 H                    -3.937    -0.9042   -0.4464 
 C                    -3.055    -1.4113   -0.0388 
 H                    -2.7514   -2.1969   -0.7388 
 H                    -3.3465   -1.8689    0.9093 
 C                    -1.968    -0.3761    0.2388 
 O                    -2.0137    0.3569    1.2132 
 N                    -0.9545   -0.354    -0.6934 
 H                    -1.0939   -0.9363   -1.5067 
 C                     0.0863    0.6849   -0.8199 
 H                     0.4057    0.6295   -1.8688 
 C                    -0.3867    2.1087   -0.5308 
 H                    -0.6204    2.2303    0.525 
 H                     0.4087    2.8111   -0.8001 
 H                    -1.275     2.3395   -1.1277 
 C                     1.3203    0.3176    0.0458 
 O                     1.6014    0.9039    1.0793 
 N                     2.0971   -0.6811   -0.4822 
 H                     1.7255   -1.2087   -1.2596 
 C                     3.2148   -1.253     0.2501 
 H                     3.5339   -0.5169    0.989 
 H                     2.9367   -2.1766    0.7752 
 H                     4.0439   -1.4676   -0.4318 
 
                          Input orientation:                          
 ---------------------------------------------------------------------
 Center     Atomic      Atomic             Coordinates (Angstroms)
 Number     Number       Type             X           Y           Z
 ---------------------------------------------------------------------
      1          1           0       -3.937000   -0.904200   -0.446400
      2          6           0       -3.055000   -1.411300   -0.038800
      3          1           0       -2.751400   -2.196900   -0.738800
      4          1           0       -3.346500   -1.868900    0.909300
      5          6           0       -1.968000   -0.376100    0.238800
      6          8           0       -2.013700    0.356900    1.213200
      7          7           0       -0.954500   -0.354000   -0.693400
      8          1           0       -1.093900   -0.936300   -1.506700
      9          6           0        0.086300    0.684900   -0.819900
     10          1           0        0.405700    0.629500   -1.868800
     11          6           0       -0.386700    2.108700   -0.530800
     12          1           0       -0.620400    2.230300    0.525000
     13          1           0        0.408700    2.811100   -0.800100
     14          1           0       -1.275000    2.339500   -1.127700
     15          6           0        1.320300    0.317600    0.045800
     16          8           0        1.601400    0.903900    1.079300
     17          7           0        2.097100   -0.681100   -0.482200
     18          1           0        1.725500   -1.208700   -1.259600
     19          6           0        3.214800   -1.253000    0.250100
     20          1           0        3.533900   -0.516900    0.989000
     21          1           0        2.936700   -2.176600    0.775200
     22          1           0        4.043900   -1.467600   -0.431800
 ---------------------------------------------------------------------
                    Distance matrix (angstroms):
                    1          2          3          4          5
     1  H    0.000000
     2  C    1.095998   0.000000
     3  H    1.778263   1.095144   0.000000
     4  H    1.765576   1.092366   1.782684   0.000000
     5  C    2.150663   1.526522   2.210143   2.139693   0.000000
     6  O    2.836147   2.403818   3.297939   2.612068   1.220177
     7  N    3.042866   2.441001   2.574333   3.253496   1.377196
     8  H    3.034548   2.495249   2.219479   3.432347   2.030922
     9  C    4.341853   3.856415   4.045230   4.614774   2.542974
    10  H    4.820218   4.414772   4.385512   5.295172   3.329814
    11  C    4.657179   4.444355   4.916631   5.162907   3.044179
    12  H    4.665677   4.416605   5.073308   4.937889   2.948094
    13  H    5.728321   5.514114   5.921997   6.239068   4.109289
    14  H    4.251118   4.292156   4.786431   5.113816   3.118021
    15  C    5.419803   4.705263   4.849438   5.225460   3.366212
    16  O    6.022529   5.319056   5.645114   5.674419   3.884000
    17  N    6.038329   5.222445   5.086398   5.742815   4.139795
    18  H    5.728693   4.938074   4.614153   5.555644   4.071900
    19  C    7.194096   6.278448   6.120818   6.623031   5.256472
    20  H    7.617396   6.728293   6.731470   7.012429   5.554595
    21  H    7.096412   6.094977   5.886178   6.292159   5.252200
    22  H    8.000775   7.109993   6.841216   7.521808   6.146871
                    6          7          8          9         10
     6  O    0.000000
     7  N    2.293994   0.000000
     8  H    3.149008   1.009932   0.000000
     9  C    2.941272   1.476001   2.119636   0.000000
    10  H    3.927662   2.049142   2.198101   1.097851   0.000000
    11  C    2.959302   2.532534   3.274834   1.527912   2.146200
    12  H    2.434036   2.876583   3.792013   2.167128   3.057077
    13  H    3.993056   3.447834   4.098792   2.150595   2.429302
    14  H    3.155344   2.747049   3.302621   2.164620   2.509598
    15  C    3.532693   2.484387   3.132233   1.551484   2.144637
    16  O    3.658700   3.355205   4.163937   2.439354   3.193163
    17  N    4.566235   3.076339   3.361132   2.454244   2.549738
    18  H    4.748417   2.869407   2.843286   2.542840   2.343497
    19  C    5.554867   4.368233   4.663855   3.832476   3.990562
    20  H    5.620468   4.796117   5.274557   4.074603   4.389406
    21  H    5.578255   4.540935   4.794909   4.342500   4.612038
    22  H    6.536769   5.127625   5.275858   4.521778   4.438389
                   11         12         13         14         15
    11  C    0.000000
    12  H    1.088171   0.000000
    13  H    1.094783   1.775462   0.000000
    14  H    1.094822   1.780967   1.778925   0.000000
    15  C    2.540542   2.766653   2.786414   3.492959   0.000000
    16  O    2.827810   2.646315   2.931227   3.899420   1.221019
    17  N    3.735587   4.107981   3.891942   4.572937   1.370986
    18  H    3.999710   4.529323   4.254867   4.648669   2.048865
    19  C    4.988149   5.188228   5.049161   5.912926   2.469343
    20  H    4.957285   5.002061   4.903401   5.980381   2.546771
    21  H    5.578030   5.668891   5.809432   6.461780   3.060361
    22  H    5.694729   6.028733   5.626508   6.577916   3.291358
                   16         17         18         19         20
    16  O    0.000000
    17  N    2.279523   0.000000
    18  H    3.154193   1.010346   0.000000
    19  C    2.818306   1.453474   2.121125   0.000000
    20  H    2.400288   2.062955   2.967339   1.090707   0.000000
    21  H    3.371199   2.126618   2.558173   1.098229   1.776784
    22  H    3.724680   2.100274   2.475330   1.094736   1.783985
                   21         22
    21  H    0.000000
    22  H    1.784775   0.000000
 Stoichiometry    C6H12N2O2
 Framework group  C1[X(C6H12N2O2)]
 Deg. of freedom    60
 Full point group                 C1      NOp   1
 Largest Abelian subgroup         C1      NOp   1
 Largest concise Abelian subgroup C1      NOp   1
                         Standard orientation:                         
 ---------------------------------------------------------------------
 Center     Atomic      Atomic             Coordinates (Angstroms)
 Number     Number       Type             X           Y           Z
 ---------------------------------------------------------------------
      1          1           0       -3.936995   -0.904230   -0.446408
      2          6           0       -3.054991   -1.411323   -0.038808
      3          1           0       -2.751384   -2.196920   -0.738808
      4          1           0       -3.346487   -1.868925    0.909292
      5          6           0       -1.967999   -0.376114    0.238792
      6          8           0       -2.013706    0.356886    1.213192
      7          7           0       -0.954500   -0.354005   -0.693408
      8          1           0       -1.093895   -0.936307   -1.506708
      9          6           0        0.086292    0.684903   -0.819908
     10          1           0        0.405692    0.629506   -1.868808
     11          6           0       -0.386720    2.108699   -0.530808
     12          1           0       -0.620421    2.230297    0.524992
     13          1           0        0.408674    2.811106   -0.800108
     14          1           0       -1.275022    2.339492   -1.127708
     15          6           0        1.320295    0.317614    0.045792
     16          8           0        1.601390    0.903916    1.079292
     17          7           0        2.097103   -0.681080   -0.482208
     18          1           0        1.725507   -1.208683   -1.259608
     19          6           0        3.214808   -1.252971    0.250092
     20          1           0        3.533902   -0.516868    0.988992
     21          1           0        2.936716   -2.176573    0.775192
     22          1           0        4.043910   -1.467564   -0.431808
 ---------------------------------------------------------------------
 Rotational constants (GHZ):      2.0760000      0.7869782      0.6921917
 Standard basis: Aug-CC-pVDZ (5D, 7F)
 There are   338 symmetry adapted basis functions of A   symmetry.
 Integral buffers will be    131072 words long.
 Raffenetti 1 integral format.
 Two-electron integral symmetry is turned on.
   338 basis functions,   562 primitive gaussians,   358 cartesian basis functions
    39 alpha electrons       39 beta electrons
       nuclear repulsion energy       554.6248011513 Hartrees.
 NAtoms=   22 NActive=   22 NUniq=   22 SFac= 7.50D-01 NAtFMM=   80 NAOKFM=F Big=F
 One-electron integrals computed using PRISM.
 NBasis=   338 RedAO= T  NBF=   338
 NBsUse=   338 1.00D-06 NBFU=   338
 Harris functional with IExCor=  205 diagonalized for initial guess.
 ExpMin= 2.97D-02 ExpMax= 1.17D+04 ExpMxC= 4.01D+02 IAcc=3 IRadAn=         0 AccDes= 0.00D+00
 HarFok:  IExCor=  205 AccDes= 0.00D+00 IRadAn=         0 IDoV= 1
 ScaDFX=  1.000000  1.000000  1.000000  1.000000
 FoFCou: FMM=F IPFlag=           0 FMFlag=      100000 FMFlg1=           0
         NFxFlg=           0 DoJE=T BraDBF=F KetDBF=T FulRan=T
         Omega=  0.000000  0.000000  1.000000  0.000000  0.000000 ICntrl=     500 IOpCl=  0
         NMat0=    1 NMatS0=    1 NMatT0=    0 NMatD0=    1 NMtDS0=    0 NMtDT0=    0
         I1Cent=           4 NGrid=           0.
 Petite list used in FoFCou.
 Initial guess orbital symmetries:
       Occupied  (A) (A) (A) (A) (A) (A) (A) (A) (A) (A) (A) (A)
                 (A) (A) (A) (A) (A) (A) (A) (A) (A) (A) (A) (A)
                 (A) (A) (A) (A) (A) (A) (A) (A) (A) (A) (A) (A)
                 (A) (A) (A)
       Virtual   (A) (A) (A) (A) (A) (A) (A) (A) (A) (A) (A) (A)
                 (A) (A) (A) (A) (A) (A) (A) (A) (A) (A) (A) (A)
                 (A) (A) (A) (A) (A) (A) (A) (A) (A) (A) (A) (A)
                 (A) (A) (A) (A) (A) (A) (A) (A) (A) (A) (A) (A)
                 (A) (A) (A) (A) (A) (A) (A) (A) (A) (A) (A) (A)
                 (A) (A) (A) (A) (A) (A) (A) (A) (A) (A) (A) (A)
                 (A) (A) (A) (A) (A) (A) (A) (A) (A) (A) (A) (A)
                 (A) (A) (A) (A) (A) (A) (A) (A) (A) (A) (A) (A)
                 (A) (A) (A) (A) (A) (A) (A) (A) (A) (A) (A) (A)
                 (A) (A) (A) (A) (A) (A) (A) (A) (A) (A) (A) (A)
                 (A) (A) (A) (A) (A) (A) (A) (A) (A) (A) (A) (A)
                 (A) (A) (A) (A) (A) (A) (A) (A) (A) (A) (A) (A)
                 (A) (A) (A) (A) (A) (A) (A) (A) (A) (A) (A) (A)
                 (A) (A) (A) (A) (A) (A) (A) (A) (A) (A) (A) (A)
                 (A) (A) (A) (A) (A) (A) (A) (A) (A) (A) (A) (A)
                 (A) (A) (A) (A) (A) (A) (A) (A) (A) (A) (A) (A)
                 (A) (A) (A) (A) (A) (A) (A) (A) (A) (A) (A) (A)
                 (A) (A) (A) (A) (A) (A) (A) (A) (A) (A) (A) (A)
                 (A) (A) (A) (A) (A) (A) (A) (A) (A) (A) (A) (A)
                 (A) (A) (A) (A) (A) (A) (A) (A) (A) (A) (A) (A)
                 (A) (A) (A) (A) (A) (A) (A) (A) (A) (A) (A) (A)
                 (A) (A) (A) (A) (A) (A) (A) (A) (A) (A) (A) (A)
                 (A) (A) (A) (A) (A) (A) (A) (A) (A) (A) (A) (A)
                 (A) (A) (A) (A) (A) (A) (A) (A) (A) (A) (A) (A)
                 (A) (A) (A) (A) (A) (A) (A) (A) (A) (A) (A)
 The electronic state of the initial guess is 1-A.
 Requested convergence on RMS density matrix=1.00D-08 within 128 cycles.
 Requested convergence on MAX density matrix=1.00D-06.
 Requested convergence on             energy=1.00D-06.
 No special actions if energy rises.
 Initial convergence to 1.0D-05 achieved.  Increase integral accuracy.
 SCF Done:  E(RHF) =  -492.912013310     A.U. after   14 cycles
             Convg  =    0.7260D-08             -V/T =  2.0017
 ExpMin= 2.97D-02 ExpMax= 1.17D+04 ExpMxC= 4.01D+02 IAcc=3 IRadAn=         5 AccDes= 0.00D+00
 HarFok:  IExCor=  205 AccDes= 0.00D+00 IRadAn=         5 IDoV=-2
 ScaDFX=  1.000000  1.000000  1.000000  1.000000
 Range of M.O.s used for correlation:    11   338
 NBasis=   338 NAE=    39 NBE=    39 NFC=    10 NFV=     0
 NROrb=    328 NOA=    29 NOB=    29 NVA=   299 NVB=   299

 **** Warning!!: The largest alpha MO coefficient is  0.68071143D+02

 Disk-based method using OVN memory for 29 occupieds at a time.
 Estimated scratch disk usage=  1380594947 words.
 Actual    scratch disk usage=  1367529987 words.
 JobTyp=1 Pass  1:  I=   1 to  29 NPSUse=  8 ParTrn=T ParDer=T DoDerP=F.
 Spin components of T(2) and E(2):
     alpha-alpha T2 =       0.6790107137D-01 E2=     -0.2055276941D+00
     alpha-beta  T2 =       0.3772940831D+00 E2=     -0.1190697127D+01
     beta-beta   T2 =       0.6790107137D-01 E2=     -0.2055276941D+00
 ANorm=    0.1230079764D+01
 E2 =    -0.1601752515D+01 EUMP2 =    -0.49451376582563D+03

 **********************************************************************

            Population analysis using the SCF density.

 **********************************************************************

 Orbital symmetries:
       Occupied  (A) (A) (A) (A) (A) (A) (A) (A) (A) (A) (A) (A)
                 (A) (A) (A) (A) (A) (A) (A) (A) (A) (A) (A) (A)
                 (A) (A) (A) (A) (A) (A) (A) (A) (A) (A) (A) (A)
                 (A) (A) (A)
       Virtual   (A) (A) (A) (A) (A) (A) (A) (A) (A) (A) (A) (A)
                 (A) (A) (A) (A) (A) (A) (A) (A) (A) (A) (A) (A)
                 (A) (A) (A) (A) (A) (A) (A) (A) (A) (A) (A) (A)
                 (A) (A) (A) (A) (A) (A) (A) (A) (A) (A) (A) (A)
                 (A) (A) (A) (A) (A) (A) (A) (A) (A) (A) (A) (A)
                 (A) (A) (A) (A) (A) (A) (A) (A) (A) (A) (A) (A)
                 (A) (A) (A) (A) (A) (A) (A) (A) (A) (A) (A) (A)
                 (A) (A) (A) (A) (A) (A) (A) (A) (A) (A) (A) (A)
                 (A) (A) (A) (A) (A) (A) (A) (A) (A) (A) (A) (A)
                 (A) (A) (A) (A) (A) (A) (A) (A) (A) (A) (A) (A)
                 (A) (A) (A) (A) (A) (A) (A) (A) (A) (A) (A) (A)
                 (A) (A) (A) (A) (A) (A) (A) (A) (A) (A) (A) (A)
                 (A) (A) (A) (A) (A) (A) (A) (A) (A) (A) (A) (A)
                 (A) (A) (A) (A) (A) (A) (A) (A) (A) (A) (A) (A)
                 (A) (A) (A) (A) (A) (A) (A) (A) (A) (A) (A) (A)
                 (A) (A) (A) (A) (A) (A) (A) (A) (A) (A) (A) (A)
                 (A) (A) (A) (A) (A) (A) (A) (A) (A) (A) (A) (A)
                 (A) (A) (A) (A) (A) (A) (A) (A) (A) (A) (A) (A)
                 (A) (A) (A) (A) (A) (A) (A) (A) (A) (A) (A) (A)
                 (A) (A) (A) (A) (A) (A) (A) (A) (A) (A) (A) (A)
                 (A) (A) (A) (A) (A) (A) (A) (A) (A) (A) (A) (A)
                 (A) (A) (A) (A) (A) (A) (A) (A) (A) (A) (A) (A)
                 (A) (A) (A) (A) (A) (A) (A) (A) (A) (A) (A) (A)
                 (A) (A) (A) (A) (A) (A) (A) (A) (A) (A) (A) (A)
                 (A) (A) (A) (A) (A) (A) (A) (A) (A) (A) (A)
 The electronic state is 1-A.
 Alpha  occ. eigenvalues --  -20.53126 -20.53014 -15.60567 -15.59542 -11.36609
 Alpha  occ. eigenvalues --  -11.35687 -11.29978 -11.26781 -11.25092 -11.21943
 Alpha  occ. eigenvalues --   -1.38808  -1.38159  -1.24571  -1.22709  -1.05391
 Alpha  occ. eigenvalues --   -0.99130  -0.95844  -0.87576  -0.80393  -0.77165
 Alpha  occ. eigenvalues --   -0.71466  -0.70047  -0.65186  -0.64565  -0.61973
 Alpha  occ. eigenvalues --   -0.61488  -0.60248  -0.58920  -0.56669  -0.55350
 Alpha  occ. eigenvalues --   -0.54558  -0.52625  -0.52044  -0.51134  -0.50839
 Alpha  occ. eigenvalues --   -0.44237  -0.41962  -0.39303  -0.38905
 Alpha virt. eigenvalues --    0.01822   0.03603   0.03730   0.04506   0.05578
 Alpha virt. eigenvalues --    0.05780   0.06309   0.06644   0.07416   0.07699
 Alpha virt. eigenvalues --    0.08878   0.09625   0.10389   0.12199   0.12541
 Alpha virt. eigenvalues --    0.13535   0.13872   0.14293   0.14622   0.15078
 Alpha virt. eigenvalues --    0.15482   0.15791   0.16132   0.16748   0.17152
 Alpha virt. eigenvalues --    0.17416   0.17962   0.18271   0.18822   0.18937
 Alpha virt. eigenvalues --    0.19633   0.19972   0.21128   0.21550   0.22779
 Alpha virt. eigenvalues --    0.23349   0.23734   0.24840   0.25186   0.26365
 Alpha virt. eigenvalues --    0.27475   0.28807   0.29378   0.30225   0.30590
 Alpha virt. eigenvalues --    0.30730   0.32147   0.32573   0.33558   0.33693
 Alpha virt. eigenvalues --    0.34125   0.34532   0.35737   0.36324   0.37248
 Alpha virt. eigenvalues --    0.37357   0.37907   0.39171   0.39316   0.39666
 Alpha virt. eigenvalues --    0.40745   0.41575   0.41846   0.42012   0.42488
 Alpha virt. eigenvalues --    0.43637   0.43907   0.44718   0.45219   0.46089
 Alpha virt. eigenvalues --    0.46370   0.46645   0.47689   0.48386   0.49256
 Alpha virt. eigenvalues --    0.50357   0.50656   0.51313   0.51695   0.52767
 Alpha virt. eigenvalues --    0.53336   0.53932   0.54058   0.55441   0.55624
 Alpha virt. eigenvalues --    0.56681   0.57733   0.57978   0.58971   0.59483
 Alpha virt. eigenvalues --    0.59905   0.60726   0.61095   0.61364   0.61876
 Alpha virt. eigenvalues --    0.62193   0.63449   0.63685   0.64530   0.64705
 Alpha virt. eigenvalues --    0.65755   0.66316   0.66753   0.67783   0.68032
 Alpha virt. eigenvalues --    0.68582   0.69432   0.70174   0.71460   0.71583
 Alpha virt. eigenvalues --    0.72047   0.72348   0.73311   0.74023   0.74603
 Alpha virt. eigenvalues --    0.75965   0.76248   0.77127   0.78608   0.78892
 Alpha virt. eigenvalues --    0.79863   0.80345   0.80620   0.81970   0.83139
 Alpha virt. eigenvalues --    0.84303   0.85317   0.86440   0.87184   0.88888
 Alpha virt. eigenvalues --    0.89332   0.90465   0.91714   0.92184   0.93294
 Alpha virt. eigenvalues --    0.93639   0.95081   0.96479   0.97219   0.98775
 Alpha virt. eigenvalues --    0.99894   1.00868   1.01879   1.02493   1.05528
 Alpha virt. eigenvalues --    1.06242   1.07590   1.08184   1.09703   1.10894
 Alpha virt. eigenvalues --    1.11918   1.12892   1.13568   1.14910   1.15788
 Alpha virt. eigenvalues --    1.17211   1.17410   1.17791   1.19276   1.21052
 Alpha virt. eigenvalues --    1.21800   1.24325   1.25061   1.26994   1.29378
 Alpha virt. eigenvalues --    1.30159   1.33929   1.34773   1.36070   1.38197
 Alpha virt. eigenvalues --    1.38839   1.42155   1.42905   1.45296   1.48918
 Alpha virt. eigenvalues --    1.49654   1.50634   1.51691   1.53445   1.54508
 Alpha virt. eigenvalues --    1.55621   1.57748   1.58513   1.61513   1.64202
 Alpha virt. eigenvalues --    1.65561   1.68772   1.70256   1.71020   1.72059
 Alpha virt. eigenvalues --    1.73972   1.76864   1.77820   1.78519   1.80385
 Alpha virt. eigenvalues --    1.80998   1.84828   1.84888   1.86082   1.88754
 Alpha virt. eigenvalues --    1.89005   1.90508   1.91956   1.92438   1.94545
 Alpha virt. eigenvalues --    1.95069   1.96471   1.98029   1.99345   2.00337
 Alpha virt. eigenvalues --    2.03033   2.05174   2.07754   2.08990   2.09724
 Alpha virt. eigenvalues --    2.11168   2.11823   2.12910   2.14264   2.16042
 Alpha virt. eigenvalues --    2.16977   2.17818   2.19630   2.21390   2.23721
 Alpha virt. eigenvalues --    2.24960   2.26307   2.27606   2.28350   2.30720
 Alpha virt. eigenvalues --    2.31310   2.32855   2.34381   2.35289   2.36356
 Alpha virt. eigenvalues --    2.38578   2.41646   2.42291   2.43290   2.44252
 Alpha virt. eigenvalues --    2.45350   2.46880   2.48135   2.48997   2.50982
 Alpha virt. eigenvalues --    2.53208   2.55452   2.56723   2.58123   2.59503
 Alpha virt. eigenvalues --    2.62055   2.63263   2.63835   2.66787   2.68764
 Alpha virt. eigenvalues --    2.71236   2.73448   2.74851   2.76173   2.80571
 Alpha virt. eigenvalues --    2.81754   2.83379   2.85190   2.86372   2.89480
 Alpha virt. eigenvalues --    2.89878   2.92565   2.94802   2.95872   2.97986
 Alpha virt. eigenvalues --    3.01467   3.02133   3.04098   3.05974   3.07776
 Alpha virt. eigenvalues --    3.09736   3.12755   3.16537   3.19901   3.23118
 Alpha virt. eigenvalues --    3.28588   3.32470   3.42539   3.48746   3.56701
 Alpha virt. eigenvalues --    3.59042   3.63187   3.78945   3.83722   3.84541
 Alpha virt. eigenvalues --    3.86286   3.89503   3.93278   3.94639   4.03548
 Alpha virt. eigenvalues --    4.07488   4.10717   4.20613   4.26147
          Condensed to atoms (all electrons):
              1          2          3          4          5          6
     1  H    0.729545   0.328362  -0.069363  -0.050615  -0.036818   0.007799
     2  C    0.328362   4.530877   0.349171   0.396826   0.157655  -0.016450
     3  H   -0.069363   0.349171   1.063736  -0.088558   0.081611  -0.007527
     4  H   -0.050615   0.396826  -0.088558   0.747447  -0.100064   0.030572
     5  C   -0.036818   0.157655   0.081611  -0.100064   5.500560   0.159722
     6  O    0.007799  -0.016450  -0.007527   0.030572   0.159722   8.685794
     7  N    0.045457  -0.014305  -0.205499   0.048559   0.013283  -0.066463
     8  H   -0.004334  -0.073708   0.011302  -0.005566  -0.108699  -0.002763
     9  C   -0.004377  -0.009235   0.015034   0.009265  -0.201358  -0.043027
    10  H   -0.002694   0.009150   0.004078   0.000945  -0.024566   0.009305
    11  C    0.003719  -0.018021  -0.009827  -0.002057  -0.090093   0.021688
    12  H   -0.000018   0.001618   0.000941   0.000026   0.021775  -0.048479
    13  H    0.000802   0.005009  -0.000366  -0.000220  -0.030466   0.004747
    14  H   -0.000103  -0.009160  -0.001202  -0.000417   0.024406   0.018108
    15  C    0.001052  -0.005498  -0.015270  -0.002567  -0.019843   0.053280
    16  O    0.000003   0.000272   0.000032   0.000015  -0.007658  -0.001432
    17  N   -0.000340   0.001820   0.000203   0.001537   0.020685  -0.008184
    18  H    0.000009  -0.000047  -0.000806  -0.000008  -0.002638   0.000677
    19  C   -0.000042   0.000439  -0.000235   0.000323  -0.006834  -0.001980
    20  H   -0.000032  -0.000331  -0.000127  -0.000045  -0.002715   0.000323
    21  H   -0.000005   0.000022  -0.000243   0.000133   0.000303   0.000010
    22  H    0.000009   0.000025   0.000127  -0.000025  -0.000338  -0.000049
              7          8          9         10         11         12
     1  H    0.045457  -0.004334  -0.004377  -0.002694   0.003719  -0.000018
     2  C   -0.014305  -0.073708  -0.009235   0.009150  -0.018021   0.001618
     3  H   -0.205499   0.011302   0.015034   0.004078  -0.009827   0.000941
     4  H    0.048559  -0.005566   0.009265   0.000945  -0.002057   0.000026
     5  C    0.013283  -0.108699  -0.201358  -0.024566  -0.090093   0.021775
     6  O   -0.066463  -0.002763  -0.043027   0.009305   0.021688  -0.048479
     7  N    7.551915   0.313920  -0.425020   0.013249  -0.073686  -0.016572
     8  H    0.313920   1.006126   0.035444  -0.047633   0.017170  -0.004108
     9  C   -0.425020   0.035444   8.334896  -0.544612   0.076732  -0.023974
    10  H    0.013249  -0.047633  -0.544612   1.712699   0.072583   0.072047
    11  C   -0.073686   0.017170   0.076732   0.072583   4.461903   0.386153
    12  H   -0.016572  -0.004108  -0.023974   0.072047   0.386153   0.911665
    13  H    0.058410  -0.003700  -0.057585  -0.057676   0.259465  -0.183148
    14  H   -0.034310   0.011256   0.094831  -0.070180   0.158908  -0.184868
    15  C    0.147133   0.002601  -1.023508   0.084294   0.107620  -0.031446
    16  O    0.011689   0.002308  -0.088917  -0.013136  -0.019982   0.001923
    17  N   -0.022628  -0.013707   0.121397  -0.022279  -0.023218  -0.002551
    18  H    0.037456  -0.004302  -0.075314   0.020530   0.010004  -0.001588
    19  C    0.013789  -0.002896  -0.017996   0.016085  -0.002856   0.001216
    20  H   -0.000282   0.001004   0.041405   0.004182  -0.005217  -0.000575
    21  H    0.002681  -0.000831   0.011416   0.000435   0.002885   0.000073
    22  H   -0.002668  -0.000684  -0.022728  -0.001150   0.002645   0.000451
             13         14         15         16         17         18
     1  H    0.000802  -0.000103   0.001052   0.000003  -0.000340   0.000009
     2  C    0.005009  -0.009160  -0.005498   0.000272   0.001820  -0.000047
     3  H   -0.000366  -0.001202  -0.015270   0.000032   0.000203  -0.000806
     4  H   -0.000220  -0.000417  -0.002567   0.000015   0.001537  -0.000008
     5  C   -0.030466   0.024406  -0.019843  -0.007658   0.020685  -0.002638
     6  O    0.004747   0.018108   0.053280  -0.001432  -0.008184   0.000677
     7  N    0.058410  -0.034310   0.147133   0.011689  -0.022628   0.037456
     8  H   -0.003700   0.011256   0.002601   0.002308  -0.013707  -0.004302
     9  C   -0.057585   0.094831  -1.023508  -0.088917   0.121397  -0.075314
    10  H   -0.057676  -0.070180   0.084294  -0.013136  -0.022279   0.020530
    11  C    0.259465   0.158908   0.107620  -0.019982  -0.023218   0.010004
    12  H   -0.183148  -0.184868  -0.031446   0.001923  -0.002551  -0.001588
    13  H    1.247661  -0.185639   0.021708   0.012019  -0.005089   0.001563
    14  H   -0.185639   1.169395  -0.005996   0.006243   0.009728   0.000308
    15  C    0.021708  -0.005996   5.336771   0.346265   0.107499  -0.087179
    16  O    0.012019   0.006243   0.346265   8.681844  -0.188290   0.014179
    17  N   -0.005089   0.009728   0.107499  -0.188290   7.106600   0.297643
    18  H    0.001563   0.000308  -0.087179   0.014179   0.297643   0.992827
    19  C   -0.000312  -0.000689  -0.101858   0.006218   0.242403  -0.103381
    20  H   -0.000460   0.000308  -0.049934   0.011107  -0.033056   0.003049
    21  H    0.000280   0.000075  -0.042277   0.004286   0.068858  -0.011213
    22  H   -0.000621  -0.000024   0.038532   0.007710  -0.151653   0.017311
             19         20         21         22
     1  H   -0.000042  -0.000032  -0.000005   0.000009
     2  C    0.000439  -0.000331   0.000022   0.000025
     3  H   -0.000235  -0.000127  -0.000243   0.000127
     4  H    0.000323  -0.000045   0.000133  -0.000025
     5  C   -0.006834  -0.002715   0.000303  -0.000338
     6  O   -0.001980   0.000323   0.000010  -0.000049
     7  N    0.013789  -0.000282   0.002681  -0.002668
     8  H   -0.002896   0.001004  -0.000831  -0.000684
     9  C   -0.017996   0.041405   0.011416  -0.022728
    10  H    0.016085   0.004182   0.000435  -0.001150
    11  C   -0.002856  -0.005217   0.002885   0.002645
    12  H    0.001216  -0.000575   0.000073   0.000451
    13  H   -0.000312  -0.000460   0.000280  -0.000621
    14  H   -0.000689   0.000308   0.000075  -0.000024
    15  C   -0.101858  -0.049934  -0.042277   0.038532
    16  O    0.006218   0.011107   0.004286   0.007710
    17  N    0.242403  -0.033056   0.068858  -0.151653
    18  H   -0.103381   0.003049  -0.011213   0.017311
    19  C    4.079930   0.457046   0.291202   0.390406
    20  H    0.457046   0.939690  -0.082736  -0.158687
    21  H    0.291202  -0.082736   1.005719  -0.168733
    22  H    0.390406  -0.158687  -0.168733   1.193399
 Mulliken atomic charges:
              1
     1  H    0.051985
     2  C    0.365509
     3  H   -0.127212
     4  H    0.014492
     5  C    0.652090
     6  O   -0.795670
     7  N   -0.396108
     8  H   -0.128200
     9  C   -0.202770
    10  H   -0.235657
    11  C    0.663480
    12  H    0.099439
    13  H   -0.086382
    14  H   -0.000977
    15  C    1.138624
    16  O   -0.786699
    17  N   -0.507375
    18  H   -0.109082
    19  C    0.740022
    20  H   -0.123917
    21  H   -0.082340
    22  H   -0.143253
 Sum of Mulliken atomic charges =   0.00000
 Mulliken charges with hydrogens summed into heavy atoms:
              1
     2  C    0.304774
     5  C    0.652090
     6  O   -0.795670
     7  N   -0.524308
     9  C   -0.438427
    11  C    0.675560
    15  C    1.138624
    16  O   -0.786699
    17  N   -0.616457
    19  C    0.390512
 Sum of Mulliken charges with hydrogens summed into heavy atoms =   0.00000
 Electronic spatial extent (au):  <R**2>=           1804.5477
 Charge=              0.0000 electrons
 Dipole moment (field-independent basis, Debye):
    X=             -0.0859    Y=             -4.1083    Z=             -6.0748  Tot=              7.3340
 Quadrupole moment (field-independent basis, Debye-Ang):
   XX=            -57.9719   YY=            -58.4213   ZZ=            -63.7595
   XY=             -0.4184   XZ=              2.1063   YZ=             -2.0942
 Traceless Quadrupole moment (field-independent basis, Debye-Ang):
   XX=              2.0790   YY=              1.6296   ZZ=             -3.7086
   XY=             -0.4184   XZ=              2.1063   YZ=             -2.0942
 Octapole moment (field-independent basis, Debye-Ang**2):
  XXX=              2.5083  YYY=             -3.9705  ZZZ=            -11.0035  XYY=             -1.9194
  XXY=            -25.1200  XXZ=            -13.0889  XZZ=              3.2516  YZZ=             -9.5203
  YYZ=             -3.8755  XYZ=             -0.1092
 Hexadecapole moment (field-independent basis, Debye-Ang**3):
 XXXX=          -1478.4129 YYYY=           -540.8413 ZZZZ=           -259.8643 XXXY=             -3.1425
 XXXZ=             23.0180 YYYX=             -0.7563 YYYZ=              6.7196 ZZZX=              2.0276
 ZZZY=              9.4722 XXYY=           -339.3259 XXZZ=           -322.5612 YYZZ=           -127.9854
 XXYZ=            -11.4562 YYXZ=             -8.6896 ZZXY=             -0.6832
 N-N= 5.546248011513D+02 E-N=-2.264653199691D+03  KE= 4.920516827541D+02
 1\1\GINC-NODE005\SP\RMP2-FC\Aug-CC-pVDZ\C6H12N2O2\MANAGER\14-Feb-2017\
 0\\#SP MP2/aug-cc-pVDZ\\Single Point calculation at MP2\\0,1\H,0,-3.93
 7,-0.9042,-0.4464\C,0,-3.055,-1.4113,-0.0388\H,0,-2.7514,-2.1969,-0.73
 88\H,0,-3.3465,-1.8689,0.9093\C,0,-1.968,-0.3761,0.2388\O,0,-2.0137,0.
 3569,1.2132\N,0,-0.9545,-0.354,-0.6934\H,0,-1.0939,-0.9363,-1.5067\C,0
 ,0.0863,0.6849,-0.8199\H,0,0.4057,0.6295,-1.8688\C,0,-0.3867,2.1087,-0
 .5308\H,0,-0.6204,2.2303,0.525\H,0,0.4087,2.8111,-0.8001\H,0,-1.275,2.
 3395,-1.1277\C,0,1.3203,0.3176,0.0458\O,0,1.6014,0.9039,1.0793\N,0,2.0
 971,-0.6811,-0.4822\H,0,1.7255,-1.2087,-1.2596\C,0,3.2148,-1.253,0.250
 1\H,0,3.5339,-0.5169,0.989\H,0,2.9367,-2.1766,0.7752\H,0,4.0439,-1.467
 6,-0.4318\\Version=EM64L-G09RevA.02\State=1-A\HF=-492.9120133\MP2=-494
 .5137658\RMSD=7.260e-09\PG=C01 [X(C6H12N2O2)]\\@


 YOU ARE IN A MAZE OF TWISTY LITTLE PASSAGES.
 Job cpu time:  0 days  6 hours 35 minutes 53.0 seconds.
 File lengths (MBytes):  RWF=  10550 Int=      0 D2E=      0 Chk=      7 Scr=      2
 Normal termination of Gaussian 09 at Tue Feb 14 05:34:40 2017.
