 Entering Gaussian System, Link 0=/home/steboss/local/g09/g09
 Initial command:
 /home/steboss/local//g09/l1.exe /tmp/Gau-28501.inp -scrdir=/tmp/
 Entering Link 1 = /home/steboss/local//g09/l1.exe PID=     28503.
  
 Copyright (c) 1988,1990,1992,1993,1995,1998,2003,2009, Gaussian, Inc.
                  All Rights Reserved.
  
 This is part of the Gaussian(R) 09 program.  It is based on
 the Gaussian(R) 03 system (copyright 2003, Gaussian, Inc.),
 the Gaussian(R) 98 system (copyright 1998, Gaussian, Inc.),
 the Gaussian(R) 94 system (copyright 1995, Gaussian, Inc.),
 the Gaussian 92(TM) system (copyright 1992, Gaussian, Inc.),
 the Gaussian 90(TM) system (copyright 1990, Gaussian, Inc.),
 the Gaussian 88(TM) system (copyright 1988, Gaussian, Inc.),
 the Gaussian 86(TM) system (copyright 1986, Carnegie Mellon
 University), and the Gaussian 82(TM) system (copyright 1983,
 Carnegie Mellon University). Gaussian is a federally registered
 trademark of Gaussian, Inc.
  
 This software contains proprietary and confidential information,
 including trade secrets, belonging to Gaussian, Inc.
  
 This software is provided under written license and may be
 used, copied, transmitted, or stored only in accord with that
 written license.
  
 The following legend is applicable only to US Government
 contracts under FAR:
  
                    RESTRICTED RIGHTS LEGEND
  
 Use, reproduction and disclosure by the US Government is
 subject to restrictions as set forth in subparagraphs (a)
 and (c) of the Commercial Computer Software - Restricted
 Rights clause in FAR 52.227-19.
  
 Gaussian, Inc.
 340 Quinnipiac St., Bldg. 40, Wallingford CT 06492
  
  
 ---------------------------------------------------------------
 Warning -- This program may not be used in any manner that
 competes with the business of Gaussian, Inc. or will provide
 assistance to any competitor of Gaussian, Inc.  The licensee
 of this program is prohibited from giving any competitor of
 Gaussian, Inc. access to this program.  By using this program,
 the user acknowledges that Gaussian, Inc. is engaged in the
 business of creating and licensing software in the field of
 computational chemistry and represents and warrants to the
 licensee that it is not a competitor of Gaussian, Inc. and that
 it will not use this program in any manner prohibited above.
 ---------------------------------------------------------------
  

 Cite this work as:
 Gaussian 09, Revision A.02,
 M. J. Frisch, G. W. Trucks, H. B. Schlegel, G. E. Scuseria, 
 M. A. Robb, J. R. Cheeseman, G. Scalmani, V. Barone, B. Mennucci, 
 G. A. Petersson, H. Nakatsuji, M. Caricato, X. Li, H. P. Hratchian, 
 A. F. Izmaylov, J. Bloino, G. Zheng, J. L. Sonnenberg, M. Hada, 
 M. Ehara, K. Toyota, R. Fukuda, J. Hasegawa, M. Ishida, T. Nakajima, 
 Y. Honda, O. Kitao, H. Nakai, T. Vreven, J. A. Montgomery, Jr., 
 J. E. Peralta, F. Ogliaro, M. Bearpark, J. J. Heyd, E. Brothers, 
 K. N. Kudin, V. N. Staroverov, R. Kobayashi, J. Normand, 
 K. Raghavachari, A. Rendell, J. C. Burant, S. S. Iyengar, J. Tomasi, 
 M. Cossi, N. Rega, J. M. Millam, M. Klene, J. E. Knox, J. B. Cross, 
 V. Bakken, C. Adamo, J. Jaramillo, R. Gomperts, R. E. Stratmann, 
 O. Yazyev, A. J. Austin, R. Cammi, C. Pomelli, J. W. Ochterski, 
 R. L. Martin, K. Morokuma, V. G. Zakrzewski, G. A. Voth, 
 P. Salvador, J. J. Dannenberg, S. Dapprich, A. D. Daniels, 
 O. Farkas, J. B. Foresman, J. V. Ortiz, J. Cioslowski, 
 and D. J. Fox, Gaussian, Inc., Wallingford CT, 2009.
 
 ******************************************
 Gaussian 09:  EM64L-G09RevA.02 11-Jun-2009
                20-Mar-2017 
 ******************************************
 %nproc=8
 Will use up to    8 processors via shared memory.
 %mem=4096MB
 %chk=IPolQout.solv.chk
 ----------------------------------------------------------------------
 #MP2/cc-pvTZ density=MP2, charge, maxdisk=16GB, pop=(minimal, MK), 5d,
  punch=mo
 ----------------------------------------------------------------------
 1/18=10,28=-2,30=1,38=1,125=101/1;
 2/12=2,17=6,18=5,40=1/2;
 3/5=16,6=1,8=1,11=9,16=1,25=1,30=1,71=1/1,2,3;
 4//1;
 5/5=2,38=5/2;
 8/6=4,10=1/1;
 9/15=1,16=-3/6;
 10/5=1,13=10/2;
 6/7=2,8=2,9=2,10=2,15=8,20=1,22=2/1,2;
 99/5=1,9=1,10=32/99;
 -----------------
 Generated by mdgx
 -----------------
 Symbolic Z-matrix:
 Charge =  0 Multiplicity = 1
 H                    -2.86964  -1.95042   0.69732 
 C                    -2.77964  -1.23563  -0.12065 
 H                    -3.73052  -0.70734  -0.19025 
 H                    -2.49682  -1.78383  -1.0193 
 C                    -1.66527  -0.31653   0.21017 
 O                    -1.1561   -0.32966   1.33831 
 N                    -1.13725   0.40149  -0.80723 
 H                    -1.80998   0.65526  -1.51654 
 C                     0.11014   1.12759  -0.64193 
 H                     0.37306   1.56048  -1.60712 
 C                    -0.13191   2.37355   0.22427 
 H                    -1.01495   2.90831  -0.12555 
 H                    -0.35464   2.00124   1.22421 
 H                     0.60406   3.17705   0.25294 
 C                     1.30875   0.35189  -0.16621 
 O                     2.20837   0.89643   0.46422 
 N                     1.27443  -0.97515  -0.48316 
 H                     0.38995  -1.41529  -0.69312 
 C                     2.20603  -1.9982    0.01127 
 H                     3.16233  -1.6187    0.37122 
 H                     1.75524  -2.43086   0.90441 
 H                     2.3249   -2.73051  -0.78728 
 
 Background charge distribution read from input stream:
 Point Charges:
 XYZ=   -0.4765    3.0297   -3.4969 Q=    0.0099 A=    0.0000 R=    0.0000 C=    0.0000
 XYZ=   -1.0614    0.5095    4.0148 Q=   -0.0198 A=    0.0000 R=    0.0000 C=    0.0000
 XYZ=   -0.9304    0.1783    3.1263 Q=    0.0099 A=    0.0000 R=    0.0000 C=    0.0000
 XYZ=   -2.8666    4.9227    0.7755 Q=    0.0099 A=    0.0000 R=    0.0000 C=    0.0000
 XYZ=   -3.8156    3.1879    0.4903 Q=    0.0099 A=    0.0000 R=    0.0000 C=    0.0000
 XYZ=   -2.3980    2.7063   -2.5919 Q=   -0.0198 A=    0.0000 R=    0.0000 C=    0.0000
 XYZ=   -2.5263    1.7587   -2.5482 Q=    0.0099 A=    0.0000 R=    0.0000 C=    0.0000
 XYZ=    1.5016    1.6249    2.5590 Q=    0.0099 A=    0.0000 R=    0.0000 C=    0.0000
 XYZ=    3.5830    2.9670   -0.4521 Q=    0.0099 A=    0.0000 R=    0.0000 C=    0.0000
 XYZ=   -3.5333    0.1515   -2.8428 Q=   -0.0198 A=    0.0000 R=    0.0000 C=    0.0000
 XYZ=   -3.4908    0.3689   -3.7740 Q=    0.0099 A=    0.0000 R=    0.0000 C=    0.0000
 XYZ=   -4.3759   -0.2906   -2.7383 Q=    0.0099 A=    0.0000 R=    0.0000 C=    0.0000
 XYZ=    3.4721   -0.8381   -2.1735 Q=    0.0099 A=    0.0000 R=    0.0000 C=    0.0000
 XYZ=   -3.1962   -1.3526    3.5177 Q=    0.0099 A=    0.0000 R=    0.0000 C=    0.0000
 XYZ=    1.9584   -4.9690    1.9594 Q=    0.0099 A=    0.0000 R=    0.0000 C=    0.0000
 XYZ=   -1.6673   -2.8827    2.9271 Q=   -0.0198 A=    0.0000 R=    0.0000 C=    0.0000
 XYZ=   -1.1301   -2.8494    2.1356 Q=    0.0099 A=    0.0000 R=    0.0000 C=    0.0000
 XYZ=   -0.5097   -1.7582   -3.5252 Q=   -0.0198 A=    0.0000 R=    0.0000 C=    0.0000
 XYZ=    0.0662   -2.5150   -3.4164 Q=    0.0099 A=    0.0000 R=    0.0000 C=    0.0000
 XYZ=    2.9134   -4.9842   -1.7987 Q=   -0.0198 A=    0.0000 R=    0.0000 C=    0.0000
 XYZ=    2.6506   -4.7918   -0.8986 Q=    0.0099 A=    0.0000 R=    0.0000 C=    0.0000
 XYZ=    3.8643   -4.8746   -1.7992 Q=    0.0099 A=    0.0000 R=    0.0000 C=    0.0000
 XYZ=    2.1069   -4.2023   -3.3408 Q=    0.0099 A=    0.0000 R=    0.0000 C=    0.0000
 XYZ=   -0.3737    0.3150   -4.1708 Q=    0.0099 A=    0.0000 R=    0.0000 C=    0.0000
 XYZ=   -3.6456   -4.4349    0.9405 Q=   -0.0198 A=    0.0000 R=    0.0000 C=    0.0000
 XYZ=   -4.0793   -4.1026    1.7264 Q=    0.0099 A=    0.0000 R=    0.0000 C=    0.0000
 XYZ=    5.9615   -1.6338    1.3600 Q=   -0.0198 A=    0.0000 R=    0.0000 C=    0.0000
 XYZ=    5.0519    1.4072    0.9427 Q=   -0.0198 A=    0.0000 R=    0.0000 C=    0.0000
 XYZ=    4.1063    1.3759    0.7973 Q=    0.0099 A=    0.0000 R=    0.0000 C=    0.0000
 XYZ=    3.6357    0.4968    2.4329 Q=    0.0099 A=    0.0000 R=    0.0000 C=    0.0000
 XYZ=    4.4928   -0.7505    2.4571 Q=    0.0099 A=    0.0000 R=    0.0000 C=    0.0000
 XYZ=   -2.5166    4.7286   -1.4462 Q=    0.0099 A=    0.0000 R=    0.0000 C=    0.0000
 XYZ=   -1.5687   -0.2020    3.7777 Q=    0.0099 A=    0.0000 R=    0.0000 C=    0.0000
 XYZ=   -3.6842    3.1822   -0.0517 Q=    0.0099 A=    0.0000 R=    0.0000 C=    0.0000
 XYZ=   -2.6405    2.9275    2.5765 Q=    0.0099 A=    0.0000 R=    0.0000 C=    0.0000
 XYZ=   -2.5935    3.2181   -2.6872 Q=   -0.0198 A=    0.0000 R=    0.0000 C=    0.0000
 XYZ=   -2.7178    2.2781   -2.5563 Q=    0.0099 A=    0.0000 R=    0.0000 C=    0.0000
 XYZ=    1.7791    5.4106   -1.3576 Q=   -0.0198 A=    0.0000 R=    0.0000 C=    0.0000
 XYZ=    1.2898    5.8694   -0.6747 Q=    0.0099 A=    0.0000 R=    0.0000 C=    0.0000
 XYZ=    1.5632    2.2164    2.5844 Q=    0.0099 A=    0.0000 R=    0.0000 C=    0.0000
 XYZ=    3.6703    3.1474   -0.2080 Q=    0.0099 A=    0.0000 R=    0.0000 C=    0.0000
 XYZ=   -4.6194   -2.6614   -2.8662 Q=    0.0099 A=    0.0000 R=    0.0000 C=    0.0000
 XYZ=   -3.1668    0.6746   -2.8219 Q=   -0.0198 A=    0.0000 R=    0.0000 C=    0.0000
 XYZ=   -3.2134    0.3374   -3.7166 Q=    0.0099 A=    0.0000 R=    0.0000 C=    0.0000
 XYZ=   -3.7171    0.0795   -2.3128 Q=    0.0099 A=    0.0000 R=    0.0000 C=    0.0000
 XYZ=    2.8799   -3.4344    3.3625 Q=   -0.0198 A=    0.0000 R=    0.0000 C=    0.0000
 XYZ=    2.9670   -2.4813    3.3777 Q=    0.0099 A=    0.0000 R=    0.0000 C=    0.0000
 XYZ=    2.7743   -1.2176   -2.4979 Q=    0.0099 A=    0.0000 R=    0.0000 C=    0.0000
 XYZ=   -1.6755   -2.6357    2.5863 Q=    0.0099 A=    0.0000 R=    0.0000 C=    0.0000
 XYZ=   -0.6030   -1.4640   -3.4690 Q=   -0.0198 A=    0.0000 R=    0.0000 C=    0.0000
 XYZ=   -0.0348   -2.2329   -3.5155 Q=    0.0099 A=    0.0000 R=    0.0000 C=    0.0000
 XYZ=    2.2802   -5.5773   -1.0808 Q=   -0.0198 A=    0.0000 R=    0.0000 C=    0.0000
 XYZ=    2.1752   -5.5349   -0.1303 Q=    0.0099 A=    0.0000 R=    0.0000 C=    0.0000
 XYZ=    3.1570   -5.2282   -1.2407 Q=    0.0099 A=    0.0000 R=    0.0000 C=    0.0000
 XYZ=    1.2380   -3.6822   -3.2060 Q=   -0.0198 A=    0.0000 R=    0.0000 C=    0.0000
 XYZ=    1.5369   -4.4714   -2.7542 Q=    0.0099 A=    0.0000 R=    0.0000 C=    0.0000
 XYZ=   -5.5202   -0.6617   -1.9040 Q=   -0.0198 A=    0.0000 R=    0.0000 C=    0.0000
 XYZ=   -5.9780   -1.1744   -1.2378 Q=    0.0099 A=    0.0000 R=    0.0000 C=    0.0000
 XYZ=    0.7427    0.7020   -3.9956 Q=   -0.0198 A=    0.0000 R=    0.0000 C=    0.0000
 XYZ=    0.1625   -0.0475   -3.8618 Q=    0.0099 A=    0.0000 R=    0.0000 C=    0.0000
 XYZ=    1.6014    0.3949   -3.7048 Q=    0.0099 A=    0.0000 R=    0.0000 C=    0.0000
 XYZ=    3.0440   -0.5071    2.8001 Q=   -0.0198 A=    0.0000 R=    0.0000 C=    0.0000
 XYZ=    2.6100    0.3432    2.8684 Q=    0.0099 A=    0.0000 R=    0.0000 C=    0.0000
 XYZ=    6.0445   -1.4896    1.1843 Q=    0.0099 A=    0.0000 R=    0.0000 C=    0.0000
 XYZ=    5.0179    1.0906    0.8307 Q=   -0.0198 A=    0.0000 R=    0.0000 C=    0.0000
 XYZ=    4.1017    0.8823    0.6482 Q=    0.0099 A=    0.0000 R=    0.0000 C=    0.0000
 XYZ=    3.6836   -0.3938    2.0970 Q=    0.0099 A=    0.0000 R=    0.0000 C=    0.0000
 XYZ=   -2.7049    5.0805   -1.0096 Q=   -0.0198 A=    0.0000 R=    0.0000 C=    0.0000
 XYZ=   -2.4760    4.4521   -1.6944 Q=    0.0099 A=    0.0000 R=    0.0000 C=    0.0000
 XYZ=   -2.5097    4.7621    1.6838 Q=   -0.0198 A=    0.0000 R=    0.0000 C=    0.0000
 XYZ=   -2.6193    4.9779    0.7577 Q=    0.0099 A=    0.0000 R=    0.0000 C=    0.0000
 XYZ=   -3.6308    3.0353   -0.0430 Q=    0.0099 A=    0.0000 R=    0.0000 C=    0.0000
 XYZ=   -2.4485    3.0730    2.5705 Q=    0.0099 A=    0.0000 R=    0.0000 C=    0.0000
 XYZ=   -2.1386    3.2702   -2.9221 Q=   -0.0198 A=    0.0000 R=    0.0000 C=    0.0000
 XYZ=   -2.3891    2.3597   -2.7659 Q=    0.0099 A=    0.0000 R=    0.0000 C=    0.0000
 XYZ=    2.0985    1.9280    3.2244 Q=   -0.0198 A=    0.0000 R=    0.0000 C=    0.0000
 XYZ=    2.4006    2.6498    2.6731 Q=    0.0099 A=    0.0000 R=    0.0000 C=    0.0000
 XYZ=    3.2228    3.4522   -0.2141 Q=    0.0099 A=    0.0000 R=    0.0000 C=    0.0000
 XYZ=   -2.8894   -3.1603   -3.5594 Q=    0.0099 A=    0.0000 R=    0.0000 C=    0.0000
 XYZ=    3.8789   -4.6043   -1.9169 Q=   -0.0198 A=    0.0000 R=    0.0000 C=    0.0000
 XYZ=    3.8914   -3.9751   -2.6381 Q=    0.0099 A=    0.0000 R=    0.0000 C=    0.0000
 XYZ=   -3.3538    0.8746   -2.9263 Q=   -0.0198 A=    0.0000 R=    0.0000 C=    0.0000
 XYZ=   -3.4400    1.0863   -3.8558 Q=    0.0099 A=    0.0000 R=    0.0000 C=    0.0000
 XYZ=   -4.1536    0.3930   -2.7152 Q=    0.0099 A=    0.0000 R=    0.0000 C=    0.0000
 XYZ=    2.8611   -3.7759    2.9941 Q=   -0.0198 A=    0.0000 R=    0.0000 C=    0.0000
 XYZ=    3.0096   -2.8522    2.7914 Q=    0.0099 A=    0.0000 R=    0.0000 C=    0.0000
 XYZ=    2.7522   -0.7962   -3.0372 Q=   -0.0198 A=    0.0000 R=    0.0000 C=    0.0000
 XYZ=    3.5452   -1.1218   -2.6113 Q=    0.0099 A=    0.0000 R=    0.0000 C=    0.0000
 XYZ=    2.0831   -1.4479   -2.8280 Q=    0.0099 A=    0.0000 R=    0.0000 C=    0.0000
 XYZ=    2.1314   -4.9857    2.2629 Q=    0.0099 A=    0.0000 R=    0.0000 C=    0.0000
 XYZ=   -1.5001   -2.2193    3.4185 Q=    0.0099 A=    0.0000 R=    0.0000 C=    0.0000
 XYZ=   -0.9704   -1.4388   -3.2270 Q=   -0.0198 A=    0.0000 R=    0.0000 C=    0.0000
 XYZ=   -0.3304   -2.1505   -3.2167 Q=    0.0099 A=    0.0000 R=    0.0000 C=    0.0000
 XYZ=    0.8064   -3.3636   -3.0750 Q=   -0.0198 A=    0.0000 R=    0.0000 C=    0.0000
 XYZ=    0.3895    1.1691   -4.0661 Q=   -0.0198 A=    0.0000 R=    0.0000 C=    0.0000
 XYZ=   -0.3351    0.6418   -3.7298 Q=    0.0099 A=    0.0000 R=    0.0000 C=    0.0000
 XYZ=    1.1753    0.7393   -3.7286 Q=    0.0099 A=    0.0000 R=    0.0000 C=    0.0000
 XYZ=   -3.4035   -4.5201    1.3721 Q=   -0.0198 A=    0.0000 R=    0.0000 C=    0.0000
 XYZ=   -4.1510   -4.1437    1.8367 Q=    0.0099 A=    0.0000 R=    0.0000 C=    0.0000
 XYZ=    4.9241    0.1559    0.8759 Q=   -0.0198 A=    0.0000 R=    0.0000 C=    0.0000
 XYZ=    3.9748    0.2789    0.8689 Q=    0.0099 A=    0.0000 R=    0.0000 C=    0.0000
 XYZ=    5.1566    0.0340   -0.0445 Q=    0.0099 A=    0.0000 R=    0.0000 C=    0.0000
 XYZ=    1.4753    1.3226    3.4851 Q=   -0.0198 A=    0.0000 R=    0.0000 C=    0.0000
 XYZ=    1.0229    1.4276    2.6481 Q=    0.0099 A=    0.0000 R=    0.0000 C=    0.0000
 XYZ=   -2.0345    4.4324   -1.8380 Q=    0.0099 A=    0.0000 R=    0.0000 C=    0.0000
 XYZ=   -2.3693    4.5724    1.8110 Q=   -0.0198 A=    0.0000 R=    0.0000 C=    0.0000
 XYZ=   -2.1796    4.4671    0.8787 Q=    0.0099 A=    0.0000 R=    0.0000 C=    0.0000
 XYZ=   -3.6036    3.4292   -0.7892 Q=    0.0099 A=    0.0000 R=    0.0000 C=    0.0000
 XYZ=   -3.4889    1.9232   -0.8890 Q=    0.0099 A=    0.0000 R=    0.0000 C=    0.0000
 XYZ=   -2.1312    2.3576   -3.2873 Q=    0.0099 A=    0.0000 R=    0.0000 C=    0.0000
 XYZ=   -2.2139    4.9632   -1.0619 Q=   -0.0198 A=    0.0000 R=    0.0000 C=    0.0000
 XYZ=    2.9242    4.2792   -0.5624 Q=    0.0099 A=    0.0000 R=    0.0000 C=    0.0000
 XYZ=    3.3308    2.9951    0.1281 Q=    0.0099 A=    0.0000 R=    0.0000 C=    0.0000
 XYZ=   -2.2893   -4.1467   -2.7486 Q=    0.0099 A=    0.0000 R=    0.0000 C=    0.0000
 XYZ=    4.0258   -4.3600   -1.5721 Q=   -0.0198 A=    0.0000 R=    0.0000 C=    0.0000
 XYZ=    3.8694   -3.9520   -2.4238 Q=    0.0099 A=    0.0000 R=    0.0000 C=    0.0000
 XYZ=   -3.0083    0.6524   -3.0644 Q=   -0.0198 A=    0.0000 R=    0.0000 C=    0.0000
 XYZ=   -3.8845    0.8656   -3.3855 Q=    0.0099 A=    0.0000 R=    0.0000 C=    0.0000
 XYZ=   -2.7905   -0.1748   -3.4940 Q=    0.0099 A=    0.0000 R=    0.0000 C=    0.0000
 XYZ=    2.8323   -3.3885    3.1058 Q=   -0.0198 A=    0.0000 R=    0.0000 C=    0.0000
 XYZ=    2.9019   -2.4510    2.9254 Q=    0.0099 A=    0.0000 R=    0.0000 C=    0.0000
 XYZ=    3.0448   -1.2811   -3.2271 Q=   -0.0198 A=    0.0000 R=    0.0000 C=    0.0000
 XYZ=    3.8388   -1.4686   -2.7265 Q=    0.0099 A=    0.0000 R=    0.0000 C=    0.0000
 XYZ=    2.3389   -1.6711   -2.7116 Q=    0.0099 A=    0.0000 R=    0.0000 C=    0.0000
 XYZ=    1.6984   -5.2271    1.5101 Q=   -0.0198 A=    0.0000 R=    0.0000 C=    0.0000
 XYZ=    0.9254   -4.8659    1.0761 Q=    0.0099 A=    0.0000 R=    0.0000 C=    0.0000
 XYZ=    2.2562   -4.4674    1.6770 Q=    0.0099 A=    0.0000 R=    0.0000 C=    0.0000
 XYZ=   -2.2369   -2.4131    3.2707 Q=   -0.0198 A=    0.0000 R=    0.0000 C=    0.0000
 XYZ=   -2.2002   -1.6163    2.7415 Q=    0.0099 A=    0.0000 R=    0.0000 C=    0.0000
 XYZ=   -0.0182   -2.3580   -3.4592 Q=    0.0099 A=    0.0000 R=    0.0000 C=    0.0000
 XYZ=    0.7816   -3.8967   -2.5984 Q=   -0.0198 A=    0.0000 R=    0.0000 C=    0.0000
 XYZ=    0.8683   -4.6419   -2.0040 Q=    0.0099 A=    0.0000 R=    0.0000 C=    0.0000
 XYZ=   -5.7949   -1.9427   -1.7712 Q=    0.0099 A=    0.0000 R=    0.0000 C=    0.0000
 XYZ=   -0.1443    1.6051   -3.8046 Q=    0.0099 A=    0.0000 R=    0.0000 C=    0.0000
 XYZ=   -3.6619   -4.6344    0.8308 Q=   -0.0198 A=    0.0000 R=    0.0000 C=    0.0000
 XYZ=   -4.4443   -4.1139    1.0129 Q=    0.0099 A=    0.0000 R=    0.0000 C=    0.0000
 XYZ=    2.7937    0.1254    3.1223 Q=    0.0099 A=    0.0000 R=    0.0000 C=    0.0000
 XYZ=    4.7698    0.2027    1.2586 Q=   -0.0198 A=    0.0000 R=    0.0000 C=    0.0000
 XYZ=    3.8974    0.4419    0.9458 Q=    0.0099 A=    0.0000 R=    0.0000 C=    0.0000
 XYZ=    5.1430   -0.3217    0.5501 Q=    0.0099 A=    0.0000 R=    0.0000 C=    0.0000
 XYZ=    5.4175   -0.8026   -1.2673 Q=   -0.0198 A=    0.0000 R=    0.0000 C=    0.0000
 XYZ=    4.1249   -0.4594    2.7018 Q=    0.0099 A=    0.0000 R=    0.0000 C=    0.0000
 XYZ=    0.7807    1.2107    3.3714 Q=   -0.0198 A=    0.0000 R=    0.0000 C=    0.0000
 XYZ=    0.6140    2.0988    3.6872 Q=    0.0099 A=    0.0000 R=    0.0000 C=    0.0000
 XYZ=   -0.0021    0.9841    2.8693 Q=    0.0099 A=    0.0000 R=    0.0000 C=    0.0000
 XYZ=   -2.8151    4.5724   -1.1905 Q=   -0.0198 A=    0.0000 R=    0.0000 C=    0.0000
 XYZ=   -2.0500    4.4399   -1.7503 Q=    0.0099 A=    0.0000 R=    0.0000 C=    0.0000
 XYZ=   -2.4112    4.5966    0.7081 Q=    0.0099 A=    0.0000 R=    0.0000 C=    0.0000
 XYZ=   -4.6087    1.4865   -1.0045 Q=    0.0099 A=    0.0000 R=    0.0000 C=    0.0000
 XYZ=   -1.9862    2.5728   -3.5537 Q=    0.0099 A=    0.0000 R=    0.0000 C=    0.0000
 XYZ=   -2.1425    4.8284    1.5971 Q=   -0.0198 A=    0.0000 R=    0.0000 C=    0.0000
 XYZ=    2.7325    3.2593   -0.2041 Q=    0.0099 A=    0.0000 R=    0.0000 C=    0.0000
 XYZ=    4.4416   -4.1845   -1.9431 Q=   -0.0198 A=    0.0000 R=    0.0000 C=    0.0000
 XYZ=    3.8950   -3.8938   -2.6731 Q=    0.0099 A=    0.0000 R=    0.0000 C=    0.0000
 XYZ=   -3.2781    1.1428   -3.5138 Q=   -0.0198 A=    0.0000 R=    0.0000 C=    0.0000
 XYZ=   -3.6639    0.2758   -3.3884 Q=    0.0099 A=    0.0000 R=    0.0000 C=    0.0000
 XYZ=    5.2509   -1.8666   -0.9776 Q=   -0.0198 A=    0.0000 R=    0.0000 C=    0.0000
 XYZ=    4.7605   -2.6766   -1.1180 Q=    0.0099 A=    0.0000 R=    0.0000 C=    0.0000
 XYZ=   -0.6681   -3.2696    1.4628 Q=   -0.0198 A=    0.0000 R=    0.0000 C=    0.0000
 XYZ=   -1.5539   -3.6114    1.3409 Q=    0.0099 A=    0.0000 R=    0.0000 C=    0.0000
 XYZ=   -0.7977   -2.3796    1.7902 Q=    0.0099 A=    0.0000 R=    0.0000 C=    0.0000
 XYZ=    4.0054   -1.2552   -2.6498 Q=    0.0099 A=    0.0000 R=    0.0000 C=    0.0000
 XYZ=    3.0056   -0.1628   -2.3369 Q=    0.0099 A=    0.0000 R=    0.0000 C=    0.0000
 XYZ=    1.3347   -4.9280    1.2205 Q=   -0.0198 A=    0.0000 R=    0.0000 C=    0.0000
 XYZ=    0.6428   -4.2709    1.2959 Q=    0.0099 A=    0.0000 R=    0.0000 C=    0.0000
 XYZ=    2.0912   -4.4426    0.8916 Q=    0.0099 A=    0.0000 R=    0.0000 C=    0.0000
 XYZ=   -2.7236   -2.0668    3.2347 Q=   -0.0198 A=    0.0000 R=    0.0000 C=    0.0000
 XYZ=   -2.5433   -1.1291    3.3005 Q=    0.0099 A=    0.0000 R=    0.0000 C=    0.0000
 XYZ=   -0.9050   -1.1283   -3.5415 Q=   -0.0198 A=    0.0000 R=    0.0000 C=    0.0000
 XYZ=   -0.5618   -1.9468   -3.1831 Q=    0.0099 A=    0.0000 R=    0.0000 C=    0.0000
 XYZ=   -0.0530    1.2385   -4.0516 Q=    0.0099 A=    0.0000 R=    0.0000 C=    0.0000
 XYZ=   -3.6642   -4.4310    0.1000 Q=   -0.0198 A=    0.0000 R=    0.0000 C=    0.0000
 XYZ=   -4.4758   -4.2316    0.5667 Q=    0.0099 A=    0.0000 R=    0.0000 C=    0.0000
 XYZ=    2.7582   -0.7534    3.1018 Q=   -0.0198 A=    0.0000 R=    0.0000 C=    0.0000
 XYZ=    1.9577   -0.2342    3.0258 Q=    0.0099 A=    0.0000 R=    0.0000 C=    0.0000
 XYZ=    4.8993    0.6548    1.1537 Q=   -0.0198 A=    0.0000 R=    0.0000 C=    0.0000
 XYZ=    4.0210    0.9515    0.9154 Q=    0.0099 A=    0.0000 R=    0.0000 C=    0.0000
 XYZ=    5.0224   -0.1534    0.6558 Q=    0.0099 A=    0.0000 R=    0.0000 C=    0.0000
 XYZ=    3.4304   -0.2209    2.6766 Q=    0.0099 A=    0.0000 R=    0.0000 C=    0.0000
 XYZ=   -3.5704    1.4105   -2.9330 Q=   -0.0198 A=    0.0000 R=    0.0000 C=    0.0000
 XYZ=    0.4873    1.5087    3.9351 Q=    0.0099 A=    0.0000 R=    0.0000 C=    0.0000
 XYZ=    0.1681    0.4038    2.9511 Q=    0.0099 A=    0.0000 R=    0.0000 C=    0.0000
 XYZ=   -2.5465    4.6131    1.1098 Q=   -0.0198 A=    0.0000 R=    0.0000 C=    0.0000
 XYZ=   -2.8008    4.4295    0.2055 Q=    0.0099 A=    0.0000 R=    0.0000 C=    0.0000
 XYZ=   -4.4173    2.0837   -1.3443 Q=    0.0099 A=    0.0000 R=    0.0000 C=    0.0000
 XYZ=   -2.6252    3.1285    2.1854 Q=    0.0099 A=    0.0000 R=    0.0000 C=    0.0000
 XYZ=    3.2970    3.2882    0.2626 Q=   -0.0198 A=    0.0000 R=    0.0000 C=    0.0000
 XYZ=    2.9665    3.3781   -0.6313 Q=    0.0099 A=    0.0000 R=    0.0000 C=    0.0000
 XYZ=    3.2397    2.3505    0.4460 Q=    0.0099 A=    0.0000 R=    0.0000 C=    0.0000
 XYZ=    4.9360   -3.9690   -1.2364 Q=   -0.0198 A=    0.0000 R=    0.0000 C=    0.0000
 XYZ=    4.4462   -3.6463   -1.9929 Q=    0.0099 A=    0.0000 R=    0.0000 C=    0.0000
 XYZ=   -3.5055    0.5013   -3.2253 Q=    0.0099 A=    0.0000 R=    0.0000 C=    0.0000
 XYZ=    5.3282   -2.0969   -0.8824 Q=    0.0099 A=    0.0000 R=    0.0000 C=    0.0000
 XYZ=    3.3300   -3.5252    2.7442 Q=   -0.0198 A=    0.0000 R=    0.0000 C=    0.0000
 XYZ=    3.3551   -2.6716    3.1765 Q=    0.0099 A=    0.0000 R=    0.0000 C=    0.0000
 XYZ=    4.1438   -3.5632    2.2417 Q=    0.0099 A=    0.0000 R=    0.0000 C=    0.0000
 XYZ=   -0.5370   -3.6400    0.7756 Q=   -0.0198 A=    0.0000 R=    0.0000 C=    0.0000
 XYZ=   -1.2541   -4.2611    0.6478 Q=    0.0099 A=    0.0000 R=    0.0000 C=    0.0000
 XYZ=   -0.9346   -2.9094    1.2492 Q=    0.0099 A=    0.0000 R=    0.0000 C=    0.0000
 XYZ=    2.5913   -0.2197   -2.7070 Q=    0.0099 A=    0.0000 R=    0.0000 C=    0.0000
 XYZ=    2.1869   -4.7712    1.5993 Q=    0.0099 A=    0.0000 R=    0.0000 C=    0.0000
 XYZ=   -2.8229   -2.2649    3.0108 Q=    0.0099 A=    0.0000 R=    0.0000 C=    0.0000
 XYZ=   -1.2517   -1.2726   -3.3465 Q=   -0.0198 A=    0.0000 R=    0.0000 C=    0.0000
 XYZ=   -2.1392   -1.3681   -3.0010 Q=    0.0099 A=    0.0000 R=    0.0000 C=    0.0000
 XYZ=   -4.2886   -1.3539   -2.8858 Q=   -0.0198 A=    0.0000 R=    0.0000 C=    0.0000
 XYZ=   -4.9530   -1.7793   -2.3437 Q=    0.0099 A=    0.0000 R=    0.0000 C=    0.0000
 XYZ=    0.0901    1.1698   -4.3852 Q=   -0.0198 A=    0.0000 R=    0.0000 C=    0.0000
 XYZ=   -0.4388    0.4325   -4.0804 Q=    0.0099 A=    0.0000 R=    0.0000 C=    0.0000
 XYZ=   -2.9513   -4.7826    0.4387 Q=   -0.0198 A=    0.0000 R=    0.0000 C=    0.0000
 XYZ=   -3.6735   -4.4341   -0.0840 Q=    0.0099 A=    0.0000 R=    0.0000 C=    0.0000
 XYZ=    4.7980   -0.0959    1.1968 Q=   -0.0198 A=    0.0000 R=    0.0000 C=    0.0000
 XYZ=    4.1161    0.4046    0.7486 Q=    0.0099 A=    0.0000 R=    0.0000 C=    0.0000
 XYZ=    5.3279   -0.4647    0.4901 Q=    0.0099 A=    0.0000 R=    0.0000 C=    0.0000
 XYZ=    5.9352   -1.3774   -0.7089 Q=   -0.0198 A=    0.0000 R=    0.0000 C=    0.0000
 XYZ=    3.8597   -0.4648    2.8634 Q=    0.0099 A=    0.0000 R=    0.0000 C=    0.0000
 XYZ=    0.4744    0.5038    3.0739 Q=   -0.0198 A=    0.0000 R=    0.0000 C=    0.0000
 XYZ=    0.1949    1.4141    2.9766 Q=    0.0099 A=    0.0000 R=    0.0000 C=    0.0000
 XYZ=   -3.1305    4.4116    0.8497 Q=   -0.0198 A=    0.0000 R=    0.0000 C=    0.0000
 XYZ=   -2.6162    4.1778    0.0770 Q=    0.0099 A=    0.0000 R=    0.0000 C=    0.0000
 XYZ=   -2.5796    2.3304    2.6705 Q=   -0.0198 A=    0.0000 R=    0.0000 C=    0.0000
 XYZ=   -2.9175    3.0969    2.2073 Q=    0.0099 A=    0.0000 R=    0.0000 C=    0.0000
 XYZ=   -1.7771    2.6392    3.0910 Q=    0.0099 A=    0.0000 R=    0.0000 C=    0.0000
 XYZ=   -2.3527    4.8432   -1.8435 Q=   -0.0198 A=    0.0000 R=    0.0000 C=    0.0000
 XYZ=   -0.2587    3.2357    3.7489 Q=   -0.0198 A=    0.0000 R=    0.0000 C=    0.0000
 XYZ=    3.2463    3.4649   -0.3163 Q=   -0.0198 A=    0.0000 R=    0.0000 C=    0.0000
 XYZ=    2.8038    3.8774   -1.0580 Q=    0.0099 A=    0.0000 R=    0.0000 C=    0.0000
 XYZ=    2.5779    2.9069    0.0813 Q=    0.0099 A=    0.0000 R=    0.0000 C=    0.0000
 XYZ=    4.7262   -4.1849   -1.1586 Q=   -0.0198 A=    0.0000 R=    0.0000 C=    0.0000
 XYZ=    4.4341   -3.6450   -1.8931 Q=    0.0099 A=    0.0000 R=    0.0000 C=    0.0000
 XYZ=    4.0717   -2.4356   -3.0266 Q=   -0.0198 A=    0.0000 R=    0.0000 C=    0.0000
 XYZ=    4.3198   -1.6203   -2.5909 Q=    0.0099 A=    0.0000 R=    0.0000 C=    0.0000
 XYZ=   -3.6708    1.0142   -2.3456 Q=   -0.0198 A=    0.0000 R=    0.0000 C=    0.0000
 XYZ=   -3.9601    0.6290   -3.1727 Q=    0.0099 A=    0.0000 R=    0.0000 C=    0.0000
 XYZ=   -4.0353    0.4390   -1.6729 Q=    0.0099 A=    0.0000 R=    0.0000 C=    0.0000
 XYZ=   -0.1199    0.0093    2.5095 Q=    0.0099 A=    0.0000 R=    0.0000 C=    0.0000
 XYZ=    5.0780   -2.1305   -0.6859 Q=    0.0099 A=    0.0000 R=    0.0000 C=    0.0000
 XYZ=    3.5091   -3.9994    2.6913 Q=   -0.0198 A=    0.0000 R=    0.0000 C=    0.0000
 XYZ=    3.6592   -3.0715    2.8721 Q=    0.0099 A=    0.0000 R=    0.0000 C=    0.0000
 XYZ=   -0.2766   -4.0198    1.0816 Q=   -0.0198 A=    0.0000 R=    0.0000 C=    0.0000
 XYZ=   -1.2276   -4.0231    0.9731 Q=    0.0099 A=    0.0000 R=    0.0000 C=    0.0000
 XYZ=    0.0447   -3.4765    0.3620 Q=    0.0099 A=    0.0000 R=    0.0000 C=    0.0000
 XYZ=    0.8065   -5.1637    1.4639 Q=    0.0099 A=    0.0000 R=    0.0000 C=    0.0000
 XYZ=   -3.4918   -2.2408    3.2243 Q=   -0.0198 A=    0.0000 R=    0.0000 C=    0.0000
 XYZ=   -3.3977   -1.2979    3.3599 Q=    0.0099 A=    0.0000 R=    0.0000 C=    0.0000
 XYZ=   -2.5934   -2.5702    3.2011 Q=    0.0099 A=    0.0000 R=    0.0000 C=    0.0000
 XYZ=   -0.2175    1.3965   -4.4056 Q=   -0.0198 A=    0.0000 R=    0.0000 C=    0.0000
 XYZ=   -0.5416    0.5611   -4.0690 Q=    0.0099 A=    0.0000 R=    0.0000 C=    0.0000
 XYZ=   -2.8470   -4.7913    0.6603 Q=   -0.0198 A=    0.0000 R=    0.0000 C=    0.0000
 XYZ=   -3.6675   -4.5724    1.1020 Q=    0.0099 A=    0.0000 R=    0.0000 C=    0.0000
 XYZ=    4.6629    0.2041    1.5959 Q=   -0.0198 A=    0.0000 R=    0.0000 C=    0.0000
 XYZ=    3.7487    0.2091    1.3121 Q=    0.0099 A=    0.0000 R=    0.0000 C=    0.0000
 XYZ=    5.1381   -0.1928    0.8659 Q=    0.0099 A=    0.0000 R=    0.0000 C=    0.0000
 XYZ=    5.6751   -1.4874   -0.3036 Q=   -0.0198 A=    0.0000 R=    0.0000 C=    0.0000
 XYZ=   -3.6136    1.6354   -2.4757 Q=   -0.0198 A=    0.0000 R=    0.0000 C=    0.0000
 XYZ=   -3.3557    1.9958   -3.3241 Q=    0.0099 A=    0.0000 R=    0.0000 C=    0.0000
 XYZ=    0.6348    1.1185    3.6903 Q=    0.0099 A=    0.0000 R=    0.0000 C=    0.0000
 XYZ=   -2.4631    4.7116   -1.7306 Q=   -0.0198 A=    0.0000 R=    0.0000 C=    0.0000
 XYZ=   -2.9480    4.5149   -0.0382 Q=    0.0099 A=    0.0000 R=    0.0000 C=    0.0000
 XYZ=   -3.0093    3.0543    2.0449 Q=    0.0099 A=    0.0000 R=    0.0000 C=    0.0000
 XYZ=   -2.2971    2.5062    3.2628 Q=    0.0099 A=    0.0000 R=    0.0000 C=    0.0000
 XYZ=    0.0810    3.6213    3.2193 Q=   -0.0198 A=    0.0000 R=    0.0000 C=    0.0000
 XYZ=    0.4139    4.0144    2.4125 Q=    0.0099 A=    0.0000 R=    0.0000 C=    0.0000
 XYZ=    3.4251    3.2860   -0.3608 Q=   -0.0198 A=    0.0000 R=    0.0000 C=    0.0000
 XYZ=    4.2119   -4.3049   -1.9171 Q=    0.0099 A=    0.0000 R=    0.0000 C=    0.0000
 XYZ=    3.2891   -2.3762   -3.1130 Q=   -0.0198 A=    0.0000 R=    0.0000 C=    0.0000
 XYZ=    2.3725   -2.5852   -3.2933 Q=    0.0099 A=    0.0000 R=    0.0000 C=    0.0000
 XYZ=   -4.0524    0.8118   -2.6887 Q=    0.0099 A=    0.0000 R=    0.0000 C=    0.0000
 XYZ=    0.6328    0.2051    3.4040 Q=   -0.0198 A=    0.0000 R=    0.0000 C=    0.0000
 XYZ=   -0.1244    0.1381    2.8223 Q=    0.0099 A=    0.0000 R=    0.0000 C=    0.0000
 XYZ=    5.1539   -2.1623   -1.0772 Q=    0.0099 A=    0.0000 R=    0.0000 C=    0.0000
 XYZ=    3.5162   -3.6355    2.6499 Q=   -0.0198 A=    0.0000 R=    0.0000 C=    0.0000
 XYZ=    3.4680   -2.7862    3.0887 Q=    0.0099 A=    0.0000 R=    0.0000 C=    0.0000
 XYZ=   -0.5159   -3.7536    1.0094 Q=   -0.0198 A=    0.0000 R=    0.0000 C=    0.0000
 XYZ=   -1.3629   -4.0625    0.6879 Q=    0.0099 A=    0.0000 R=    0.0000 C=    0.0000
 XYZ=   -0.6293   -2.8089    1.1138 Q=    0.0099 A=    0.0000 R=    0.0000 C=    0.0000
 XYZ=    1.9531   -5.0999    0.7578 Q=   -0.0198 A=    0.0000 R=    0.0000 C=    0.0000
 XYZ=    1.0384   -4.8979    0.9546 Q=    0.0099 A=    0.0000 R=    0.0000 C=    0.0000
 XYZ=    2.4524   -4.6135    1.4137 Q=    0.0099 A=    0.0000 R=    0.0000 C=    0.0000
 XYZ=   -3.6612   -2.5654    3.4479 Q=   -0.0198 A=    0.0000 R=    0.0000 C=    0.0000
 XYZ=   -3.7637   -1.6142    3.4762 Q=    0.0099 A=    0.0000 R=    0.0000 C=    0.0000
 XYZ=    2.0537   -5.6610   -0.7972 Q=    0.0099 A=    0.0000 R=    0.0000 C=    0.0000
 XYZ=    0.8099   -3.6766   -3.1716 Q=   -0.0198 A=    0.0000 R=    0.0000 C=    0.0000
 XYZ=    1.2508   -4.1718   -2.4813 Q=    0.0099 A=    0.0000 R=    0.0000 C=    0.0000
 XYZ=   -3.4630   -4.3882    0.2338 Q=   -0.0198 A=    0.0000 R=    0.0000 C=    0.0000
 XYZ=   -4.3381   -4.3290    0.6170 Q=    0.0099 A=    0.0000 R=    0.0000 C=    0.0000
 XYZ=    3.0842   -1.2361    3.2358 Q=   -0.0198 A=    0.0000 R=    0.0000 C=    0.0000
 XYZ=    2.2678   -0.7586    3.0891 Q=    0.0099 A=    0.0000 R=    0.0000 C=    0.0000
 XYZ=    1.6357   -3.8293    3.4119 Q=    0.0099 A=    0.0000 R=    0.0000 C=    0.0000
 XYZ=    4.9718    0.6471    1.2222 Q=   -0.0198 A=    0.0000 R=    0.0000 C=    0.0000
 XYZ=    4.0491    0.6646    0.9681 Q=    0.0099 A=    0.0000 R=    0.0000 C=    0.0000
 XYZ=    5.3091   -0.1647    0.8437 Q=    0.0099 A=    0.0000 R=    0.0000 C=    0.0000
 XYZ=    5.5719   -1.3552   -0.7772 Q=   -0.0198 A=    0.0000 R=    0.0000 C=    0.0000
 XYZ=    3.0918    2.3887   -0.3532 Q=    0.0099 A=    0.0000 R=    0.0000 C=    0.0000
 XYZ=   -3.3203    1.6261   -2.6327 Q=   -0.0198 A=    0.0000 R=    0.0000 C=    0.0000
 XYZ=   -3.0632    2.3800   -3.1635 Q=    0.0099 A=    0.0000 R=    0.0000 C=    0.0000
 XYZ=    1.1281    1.1574    2.6868 Q=    0.0099 A=    0.0000 R=    0.0000 C=    0.0000
 XYZ=   -5.9490   -0.3874    1.8007 Q=    0.0099 A=    0.0000 R=    0.0000 C=    0.0000
 XYZ=   -2.9425    4.3102    0.7895 Q=   -0.0198 A=    0.0000 R=    0.0000 C=    0.0000
 XYZ=   -2.7666    4.5569   -0.1184 Q=    0.0099 A=    0.0000 R=    0.0000 C=    0.0000
 XYZ=   -5.0034    1.9045   -0.2633 Q=   -0.0198 A=    0.0000 R=    0.0000 C=    0.0000
 XYZ=   -4.2599    1.7009   -0.8308 Q=    0.0099 A=    0.0000 R=    0.0000 C=    0.0000
 XYZ=   -2.3374    2.2999    2.8547 Q=   -0.0198 A=    0.0000 R=    0.0000 C=    0.0000
 XYZ=   -2.6461    2.6422    2.0158 Q=    0.0099 A=    0.0000 R=    0.0000 C=    0.0000
 XYZ=   -1.4704    2.6894    2.9679 Q=    0.0099 A=    0.0000 R=    0.0000 C=    0.0000
 XYZ=    1.0768    4.5085   -2.1966 Q=    0.0099 A=    0.0000 R=    0.0000 C=    0.0000
 XYZ=   -0.1633    3.9950    3.2790 Q=   -0.0198 A=    0.0000 R=    0.0000 C=    0.0000
 XYZ=    3.6070    3.0736   -0.2682 Q=   -0.0198 A=    0.0000 R=    0.0000 C=    0.0000
 XYZ=    3.0217    3.3965   -0.9533 Q=    0.0099 A=    0.0000 R=    0.0000 C=    0.0000
 XYZ=    4.3142   -3.7691   -2.3922 Q=    0.0099 A=    0.0000 R=    0.0000 C=    0.0000
 XYZ=    2.7002   -2.7602   -3.6960 Q=    0.0099 A=    0.0000 R=    0.0000 C=    0.0000
 XYZ=   -3.6827    1.0025   -3.2621 Q=    0.0099 A=    0.0000 R=    0.0000 C=    0.0000
 XYZ=    0.8795    0.3019    3.0369 Q=   -0.0198 A=    0.0000 R=    0.0000 C=    0.0000
 XYZ=    0.1659    0.0092    2.4700 Q=    0.0099 A=    0.0000 R=    0.0000 C=    0.0000
 XYZ=    5.0609   -2.2559   -1.3379 Q=    0.0099 A=    0.0000 R=    0.0000 C=    0.0000
 XYZ=    3.6762   -3.5885    2.6445 Q=   -0.0198 A=    0.0000 R=    0.0000 C=    0.0000
 XYZ=    3.7799   -2.6398    2.5713 Q=    0.0099 A=    0.0000 R=    0.0000 C=    0.0000
 XYZ=   -0.5963   -3.5197    1.2699 Q=   -0.0198 A=    0.0000 R=    0.0000 C=    0.0000
 XYZ=   -1.3713   -3.6613    0.7262 Q=    0.0099 A=    0.0000 R=    0.0000 C=    0.0000
 XYZ=   -0.6555   -2.6024    1.5370 Q=    0.0099 A=    0.0000 R=    0.0000 C=    0.0000
 XYZ=    1.7371   -5.3043    0.4072 Q=   -0.0198 A=    0.0000 R=    0.0000 C=    0.0000
 XYZ=    0.8545   -4.9867    0.5980 Q=    0.0099 A=    0.0000 R=    0.0000 C=    0.0000
 XYZ=    2.3154   -4.6937    0.8642 Q=    0.0099 A=    0.0000 R=    0.0000 C=    0.0000
 XYZ=   -3.7687   -2.3726    3.4429 Q=   -0.0198 A=    0.0000 R=    0.0000 C=    0.0000
 XYZ=   -0.4700   -1.4244   -3.0995 Q=   -0.0198 A=    0.0000 R=    0.0000 C=    0.0000
 XYZ=   -0.0244   -2.2714   -3.1168 Q=    0.0099 A=    0.0000 R=    0.0000 C=    0.0000
 XYZ=    0.9195   -4.5073   -2.5480 Q=    0.0099 A=    0.0000 R=    0.0000 C=    0.0000
 XYZ=   -0.4465    0.3877   -4.0195 Q=    0.0099 A=    0.0000 R=    0.0000 C=    0.0000
 XYZ=   -3.2248   -4.4358    0.7105 Q=   -0.0198 A=    0.0000 R=    0.0000 C=    0.0000
 XYZ=   -4.1425   -4.1691    0.7649 Q=    0.0099 A=    0.0000 R=    0.0000 C=    0.0000
 XYZ=    3.4174   -0.9516    3.0340 Q=   -0.0198 A=    0.0000 R=    0.0000 C=    0.0000
 XYZ=    2.5585   -0.6388    2.7502 Q=    0.0099 A=    0.0000 R=    0.0000 C=    0.0000
 XYZ=    5.0069    1.4669    0.0536 Q=    0.0099 A=    0.0000 R=    0.0000 C=    0.0000
 XYZ=    5.1430   -0.0250    0.2700 Q=    0.0099 A=    0.0000 R=    0.0000 C=    0.0000
 XYZ=    5.2913   -1.4908   -0.8108 Q=   -0.0198 A=    0.0000 R=    0.0000 C=    0.0000
 XYZ=    3.1875    2.2733    0.0477 Q=    0.0099 A=    0.0000 R=    0.0000 C=    0.0000
 XYZ=    4.0048   -0.2116    2.8800 Q=    0.0099 A=    0.0000 R=    0.0000 C=    0.0000
 XYZ=   -2.6867    1.8804   -3.0086 Q=   -0.0198 A=    0.0000 R=    0.0000 C=    0.0000
 XYZ=   -2.3526    2.6207   -3.5152 Q=    0.0099 A=    0.0000 R=    0.0000 C=    0.0000
 XYZ=    1.0255    1.2321    2.4899 Q=    0.0099 A=    0.0000 R=    0.0000 C=    0.0000
 XYZ=   -3.0698    4.5896    0.6546 Q=   -0.0198 A=    0.0000 R=    0.0000 C=    0.0000
 XYZ=   -2.5758    4.6841   -0.1598 Q=    0.0099 A=    0.0000 R=    0.0000 C=    0.0000
 XYZ=   -4.0611    2.1681   -1.3013 Q=    0.0099 A=    0.0000 R=    0.0000 C=    0.0000
 XYZ=   -2.9815    2.4466    2.5041 Q=   -0.0198 A=    0.0000 R=    0.0000 C=    0.0000
 XYZ=   -2.7524    3.2201    1.9888 Q=    0.0099 A=    0.0000 R=    0.0000 C=    0.0000
 XYZ=   -2.2156    2.2915    3.0568 Q=    0.0099 A=    0.0000 R=    0.0000 C=    0.0000
 XYZ=    1.6406    4.8525   -1.8229 Q=   -0.0198 A=    0.0000 R=    0.0000 C=    0.0000
 XYZ=   -0.5390    3.6343    3.6040 Q=   -0.0198 A=    0.0000 R=    0.0000 C=    0.0000
 XYZ=    3.3638    3.3727   -0.0875 Q=   -0.0198 A=    0.0000 R=    0.0000 C=    0.0000
 XYZ=    2.7228    3.7173   -0.7092 Q=    0.0099 A=    0.0000 R=    0.0000 C=    0.0000
 XYZ=    3.0312    2.5053    0.1434 Q=    0.0099 A=    0.0000 R=    0.0000 C=    0.0000
 XYZ=   -3.1865    1.3637   -3.6407 Q=    0.0099 A=    0.0000 R=    0.0000 C=    0.0000
 XYZ=    0.8079    0.4438    2.9873 Q=   -0.0198 A=    0.0000 R=    0.0000 C=    0.0000
 XYZ=    0.1950   -0.0317    2.4265 Q=    0.0099 A=    0.0000 R=    0.0000 C=    0.0000
 XYZ=    5.3010   -2.3601   -0.8929 Q=    0.0099 A=    0.0000 R=    0.0000 C=    0.0000
 XYZ=    3.1017   -4.0930    2.3042 Q=   -0.0198 A=    0.0000 R=    0.0000 C=    0.0000
 XYZ=    3.3623   -3.1949    2.0999 Q=    0.0099 A=    0.0000 R=    0.0000 C=    0.0000
 XYZ=   -0.7420   -3.9258    1.2919 Q=   -0.0198 A=    0.0000 R=    0.0000 C=    0.0000
 XYZ=   -1.5240   -4.2885    0.8758 Q=    0.0099 A=    0.0000 R=    0.0000 C=    0.0000
 XYZ=   -0.9943   -3.0371    1.5426 Q=    0.0099 A=    0.0000 R=    0.0000 C=    0.0000
 XYZ=    0.8982   -5.0715    0.6535 Q=    0.0099 A=    0.0000 R=    0.0000 C=    0.0000
 XYZ=    2.3398   -4.9620    1.1017 Q=    0.0099 A=    0.0000 R=    0.0000 C=    0.0000
 XYZ=   -0.0210   -1.4175   -3.2953 Q=   -0.0198 A=    0.0000 R=    0.0000 C=    0.0000
 XYZ=    0.3784   -2.2869   -3.3245 Q=    0.0099 A=    0.0000 R=    0.0000 C=    0.0000
 XYZ=    0.3020    1.1440   -4.5107 Q=   -0.0198 A=    0.0000 R=    0.0000 C=    0.0000
 XYZ=    0.8766    0.6162   -3.9561 Q=    0.0099 A=    0.0000 R=    0.0000 C=    0.0000
 XYZ=   -3.2739   -4.7388    0.6525 Q=   -0.0198 A=    0.0000 R=    0.0000 C=    0.0000
 XYZ=   -4.1325   -4.3291    0.5465 Q=    0.0099 A=    0.0000 R=    0.0000 C=    0.0000
 XYZ=    3.4296   -1.1509    2.6812 Q=   -0.0198 A=    0.0000 R=    0.0000 C=    0.0000
 XYZ=    2.8612   -0.4366    2.3932 Q=    0.0099 A=    0.0000 R=    0.0000 C=    0.0000
 XYZ=    1.4500   -4.3434    3.0324 Q=    0.0099 A=    0.0000 R=    0.0000 C=    0.0000
 XYZ=    5.0182    0.5102    0.8773 Q=   -0.0198 A=    0.0000 R=    0.0000 C=    0.0000
 XYZ=    4.0844    0.6467    0.7174 Q=    0.0099 A=    0.0000 R=    0.0000 C=    0.0000
 XYZ=    5.2571   -0.2133    0.2979 Q=    0.0099 A=    0.0000 R=    0.0000 C=    0.0000
 XYZ=    5.7837   -1.6162   -0.5324 Q=   -0.0198 A=    0.0000 R=    0.0000 C=    0.0000
 XYZ=   -3.1733    1.6253   -3.3805 Q=    0.0099 A=    0.0000 R=    0.0000 C=    0.0000
 XYZ=    0.5540    1.0414    3.0833 Q=    0.0099 A=    0.0000 R=    0.0000 C=    0.0000
 XYZ=   -3.3343    4.5700   -0.1336 Q=   -0.0198 A=    0.0000 R=    0.0000 C=    0.0000
 XYZ=   -2.8677    4.7398   -0.9519 Q=    0.0099 A=    0.0000 R=    0.0000 C=    0.0000
 XYZ=   -4.2708    1.9955   -0.9369 Q=   -0.0198 A=    0.0000 R=    0.0000 C=    0.0000
 XYZ=   -3.9446    2.8782   -0.7617 Q=    0.0099 A=    0.0000 R=    0.0000 C=    0.0000
 XYZ=   -3.6640    1.6405   -1.5864 Q=    0.0099 A=    0.0000 R=    0.0000 C=    0.0000
 XYZ=   -2.3782    3.0523    2.1576 Q=    0.0099 A=    0.0000 R=    0.0000 C=    0.0000
 XYZ=    1.2967    5.1006   -1.7518 Q=   -0.0198 A=    0.0000 R=    0.0000 C=    0.0000
 XYZ=   -0.0826    3.7511    3.1236 Q=   -0.0198 A=    0.0000 R=    0.0000 C=    0.0000
 XYZ=   -0.8974    4.2526    3.0966 Q=    0.0099 A=    0.0000 R=    0.0000 C=    0.0000
 XYZ=    3.1581    4.0970    0.1452 Q=   -0.0198 A=    0.0000 R=    0.0000 C=    0.0000
 XYZ=    2.5493    4.6357   -0.3602 Q=    0.0099 A=    0.0000 R=    0.0000 C=    0.0000
 XYZ=    2.6334    3.3510    0.4358 Q=    0.0099 A=    0.0000 R=    0.0000 C=    0.0000
 XYZ=    5.0153   -3.5211   -1.7156 Q=   -0.0198 A=    0.0000 R=    0.0000 C=    0.0000
 XYZ=    4.5147   -2.9699   -2.3171 Q=    0.0099 A=    0.0000 R=    0.0000 C=    0.0000
 XYZ=   -2.9267    0.7756   -3.0152 Q=   -0.0198 A=    0.0000 R=    0.0000 C=    0.0000
 XYZ=   -3.0094    0.1664   -3.7489 Q=    0.0099 A=    0.0000 R=    0.0000 C=    0.0000
 XYZ=    0.6265    0.0870    3.0732 Q=   -0.0198 A=    0.0000 R=    0.0000 C=    0.0000
 XYZ=    0.0177   -0.1923    2.3895 Q=    0.0099 A=    0.0000 R=    0.0000 C=    0.0000
 XYZ=    2.8903   -4.3083    2.6972 Q=   -0.0198 A=    0.0000 R=    0.0000 C=    0.0000
 XYZ=    3.3196   -3.4655    2.5497 Q=    0.0099 A=    0.0000 R=    0.0000 C=    0.0000
 XYZ=   -1.8810   -4.6495    1.0834 Q=    0.0099 A=    0.0000 R=    0.0000 C=    0.0000
 XYZ=   -1.0021   -3.5397    1.6190 Q=    0.0099 A=    0.0000 R=    0.0000 C=    0.0000
 XYZ=    1.5072   -4.9366    0.2265 Q=   -0.0198 A=    0.0000 R=    0.0000 C=    0.0000
 XYZ=    0.6368   -4.8481    0.6148 Q=    0.0099 A=    0.0000 R=    0.0000 C=    0.0000
 XYZ=    2.1054   -4.9233    0.9737 Q=    0.0099 A=    0.0000 R=    0.0000 C=    0.0000
 XYZ=    0.2716   -1.1382   -3.3072 Q=   -0.0198 A=    0.0000 R=    0.0000 C=    0.0000
 XYZ=    0.5247   -2.0200   -3.0341 Q=    0.0099 A=    0.0000 R=    0.0000 C=    0.0000
 XYZ=   -2.0618   -4.6261   -1.1496 Q=    0.0099 A=    0.0000 R=    0.0000 C=    0.0000
 XYZ=    0.3102    0.4692   -4.3903 Q=    0.0099 A=    0.0000 R=    0.0000 C=    0.0000
 XYZ=    3.3759   -1.3339    2.9675 Q=   -0.0198 A=    0.0000 R=    0.0000 C=    0.0000
 XYZ=    2.5455   -0.8757    3.0969 Q=    0.0099 A=    0.0000 R=    0.0000 C=    0.0000
 XYZ=    4.6937    0.6505    1.3561 Q=   -0.0198 A=    0.0000 R=    0.0000 C=    0.0000
 XYZ=    3.8708    0.8917    0.9308 Q=    0.0099 A=    0.0000 R=    0.0000 C=    0.0000
 XYZ=    5.1474    0.1090    0.7103 Q=    0.0099 A=    0.0000 R=    0.0000 C=    0.0000
 XYZ=    5.8775   -0.7964   -0.5612 Q=   -0.0198 A=    0.0000 R=    0.0000 C=    0.0000
 XYZ=    5.7297   -1.7417   -0.5342 Q=    0.0099 A=    0.0000 R=    0.0000 C=    0.0000
 XYZ=    4.0293   -0.6361    2.9184 Q=    0.0099 A=    0.0000 R=    0.0000 C=    0.0000
 XYZ=    1.0037    0.6085    3.0839 Q=   -0.0198 A=    0.0000 R=    0.0000 C=    0.0000
 XYZ=    1.4095    1.4279    2.8006 Q=    0.0099 A=    0.0000 R=    0.0000 C=    0.0000
 XYZ=   -3.0571    4.7978   -0.4772 Q=   -0.0198 A=    0.0000 R=    0.0000 C=    0.0000
 XYZ=   -2.6625    4.7221   -1.3460 Q=    0.0099 A=    0.0000 R=    0.0000 C=    0.0000
 XYZ=   -4.1038    1.9556   -1.0798 Q=   -0.0198 A=    0.0000 R=    0.0000 C=    0.0000
 XYZ=   -3.5266    2.7116   -1.1873 Q=    0.0099 A=    0.0000 R=    0.0000 C=    0.0000
 XYZ=   -3.9686    1.4365   -1.8726 Q=    0.0099 A=    0.0000 R=    0.0000 C=    0.0000
 XYZ=   -3.3649    3.4693    1.1067 Q=    0.0099 A=    0.0000 R=    0.0000 C=    0.0000
 XYZ=   -2.6210    2.9178    2.3040 Q=    0.0099 A=    0.0000 R=    0.0000 C=    0.0000
 XYZ=    0.4909    5.9176   -0.7509 Q=    0.0099 A=    0.0000 R=    0.0000 C=    0.0000
 XYZ=    3.3124    4.2319    0.0209 Q=   -0.0198 A=    0.0000 R=    0.0000 C=    0.0000
 XYZ=    2.7108    4.5425   -0.6557 Q=    0.0099 A=    0.0000 R=    0.0000 C=    0.0000
 XYZ=    2.9656    3.3769    0.2757 Q=    0.0099 A=    0.0000 R=    0.0000 C=    0.0000
 XYZ=   -3.3102   -4.0313   -2.4835 Q=    0.0099 A=    0.0000 R=    0.0000 C=    0.0000
 XYZ=    4.6235   -2.6906   -1.9068 Q=    0.0099 A=    0.0000 R=    0.0000 C=    0.0000
 XYZ=   -3.4834    0.4367   -3.3432 Q=   -0.0198 A=    0.0000 R=    0.0000 C=    0.0000
 XYZ=   -3.4046    1.1565   -3.9693 Q=    0.0099 A=    0.0000 R=    0.0000 C=    0.0000
 XYZ=   -2.9541   -0.2667   -3.7192 Q=    0.0099 A=    0.0000 R=    0.0000 C=    0.0000
 XYZ=    0.2275    0.5217    2.5305 Q=    0.0099 A=    0.0000 R=    0.0000 C=    0.0000
 XYZ=    2.8595   -4.0699    3.0793 Q=   -0.0198 A=    0.0000 R=    0.0000 C=    0.0000
 XYZ=    2.8162   -3.1251    3.2270 Q=    0.0099 A=    0.0000 R=    0.0000 C=    0.0000
 XYZ=   -0.5580   -4.1112    1.0787 Q=   -0.0198 A=    0.0000 R=    0.0000 C=    0.0000
 XYZ=   -1.4192   -4.5223    1.1536 Q=    0.0099 A=    0.0000 R=    0.0000 C=    0.0000
 XYZ=   -0.7470   -3.1892    0.9047 Q=    0.0099 A=    0.0000 R=    0.0000 C=    0.0000
 XYZ=   -3.6080   -2.1926    2.8887 Q=   -0.0198 A=    0.0000 R=    0.0000 C=    0.0000
 XYZ=   -3.9373   -1.2948    2.9300 Q=    0.0099 A=    0.0000 R=    0.0000 C=    0.0000
 XYZ=   -3.0218   -2.2676    3.6417 Q=    0.0099 A=    0.0000 R=    0.0000 C=    0.0000
 XYZ=    0.6949   -1.5076   -3.3938 Q=    0.0099 A=    0.0000 R=    0.0000 C=    0.0000
 XYZ=    1.0191   -3.9871   -2.8697 Q=    0.0099 A=    0.0000 R=    0.0000 C=    0.0000
 XYZ=   -5.5542   -0.9248   -2.4198 Q=    0.0099 A=    0.0000 R=    0.0000 C=    0.0000
 XYZ=    0.1713    2.0657   -4.3327 Q=   -0.0198 A=    0.0000 R=    0.0000 C=    0.0000
 XYZ=    0.1757    1.1134   -4.2361 Q=    0.0099 A=    0.0000 R=    0.0000 C=    0.0000
 XYZ=   -3.1526   -4.8916    0.8717 Q=   -0.0198 A=    0.0000 R=    0.0000 C=    0.0000
 XYZ=   -3.5149   -4.2474    1.4800 Q=    0.0099 A=    0.0000 R=    0.0000 C=    0.0000
 XYZ=    2.8330   -1.3822    3.3911 Q=   -0.0198 A=    0.0000 R=    0.0000 C=    0.0000
 XYZ=    2.0005   -0.9281    3.2610 Q=    0.0099 A=    0.0000 R=    0.0000 C=    0.0000
 XYZ=    3.4972   -0.7440    3.1306 Q=    0.0099 A=    0.0000 R=    0.0000 C=    0.0000
 XYZ=    4.6091    0.8003    1.9031 Q=   -0.0198 A=    0.0000 R=    0.0000 C=    0.0000
 XYZ=    3.8240    1.0972    1.4431 Q=    0.0099 A=    0.0000 R=    0.0000 C=    0.0000
 XYZ=    5.0640    0.2471    1.2682 Q=    0.0099 A=    0.0000 R=    0.0000 C=    0.0000
 XYZ=    5.4289   -0.7684   -0.0974 Q=   -0.0198 A=    0.0000 R=    0.0000 C=    0.0000
 XYZ=    5.2058   -1.6952   -0.1844 Q=    0.0099 A=    0.0000 R=    0.0000 C=    0.0000
 XYZ=    0.5847    1.0216    3.7053 Q=   -0.0198 A=    0.0000 R=    0.0000 C=    0.0000
 XYZ=    0.7490    1.9458    3.5176 Q=    0.0099 A=    0.0000 R=    0.0000 C=    0.0000
 XYZ=   -0.0019    0.7356    3.0050 Q=    0.0099 A=    0.0000 R=    0.0000 C=    0.0000
 XYZ=   -3.0797    4.5594   -0.1886 Q=   -0.0198 A=    0.0000 R=    0.0000 C=    0.0000
 XYZ=   -2.7680    4.6287   -1.0910 Q=    0.0099 A=    0.0000 R=    0.0000 C=    0.0000
 XYZ=   -4.2628    2.0040   -0.9014 Q=   -0.0198 A=    0.0000 R=    0.0000 C=    0.0000
 XYZ=   -3.7819    2.8084   -0.7068 Q=    0.0099 A=    0.0000 R=    0.0000 C=    0.0000
 XYZ=   -3.9299    1.7264   -1.7548 Q=    0.0099 A=    0.0000 R=    0.0000 C=    0.0000
 XYZ=   -3.1269    2.4928    1.9068 Q=    0.0099 A=    0.0000 R=    0.0000 C=    0.0000
 XYZ=    0.8318    3.7770    3.0455 Q=   -0.0198 A=    0.0000 R=    0.0000 C=    0.0000
 XYZ=    0.7968    4.5736    2.5159 Q=    0.0099 A=    0.0000 R=    0.0000 C=    0.0000
 XYZ=   -2.3606    4.9048    0.3403 Q=    0.0099 A=    0.0000 R=    0.0000 C=    0.0000
 XYZ=    3.3420    4.2803   -0.2656 Q=   -0.0198 A=    0.0000 R=    0.0000 C=    0.0000
 XYZ=    2.6273    4.6928   -0.7507 Q=    0.0099 A=    0.0000 R=    0.0000 C=    0.0000
 XYZ=    3.0090    3.4114   -0.0412 Q=    0.0099 A=    0.0000 R=    0.0000 C=    0.0000
 XYZ=    4.9591   -3.2428   -1.4742 Q=   -0.0198 A=    0.0000 R=    0.0000 C=    0.0000
 XYZ=    4.2919   -3.0199   -2.1234 Q=    0.0099 A=    0.0000 R=    0.0000 C=    0.0000
 XYZ=   -3.0282    0.6033   -2.9533 Q=   -0.0198 A=    0.0000 R=    0.0000 C=    0.0000
 XYZ=   -2.9878    1.0861   -3.7788 Q=    0.0099 A=    0.0000 R=    0.0000 C=    0.0000
 XYZ=   -2.4210   -0.1269   -3.0729 Q=    0.0099 A=    0.0000 R=    0.0000 C=    0.0000
 XYZ=    2.6584   -3.6807    3.2061 Q=   -0.0198 A=    0.0000 R=    0.0000 C=    0.0000
 XYZ=    2.5551   -2.7293    3.2219 Q=    0.0099 A=    0.0000 R=    0.0000 C=    0.0000
 XYZ=   -0.3907   -4.1528    0.9483 Q=   -0.0198 A=    0.0000 R=    0.0000 C=    0.0000
 XYZ=   -0.4123   -3.3128    1.4067 Q=    0.0099 A=    0.0000 R=    0.0000 C=    0.0000
 XYZ=    1.6389   -5.0983    0.6690 Q=    0.0099 A=    0.0000 R=    0.0000 C=    0.0000
 XYZ=    2.6031   -4.9965    1.8313 Q=    0.0099 A=    0.0000 R=    0.0000 C=    0.0000
 XYZ=   -0.2896   -0.5117   -3.5519 Q=   -0.0198 A=    0.0000 R=    0.0000 C=    0.0000
 XYZ=    0.3980   -1.1692   -3.4459 Q=    0.0099 A=    0.0000 R=    0.0000 C=    0.0000
 XYZ=    0.7113   -3.7449   -3.0398 Q=   -0.0198 A=    0.0000 R=    0.0000 C=    0.0000
 XYZ=    0.8561   -4.4313   -2.3886 Q=    0.0099 A=    0.0000 R=    0.0000 C=    0.0000
 XYZ=   -4.7891   -0.3689   -2.8671 Q=    0.0099 A=    0.0000 R=    0.0000 C=    0.0000
 XYZ=   -0.2859    2.2520   -4.1389 Q=   -0.0198 A=    0.0000 R=    0.0000 C=    0.0000
 XYZ=   -0.1930    1.3885   -3.7365 Q=    0.0099 A=    0.0000 R=    0.0000 C=    0.0000
 XYZ=   -2.9662   -4.4220    1.7343 Q=   -0.0198 A=    0.0000 R=    0.0000 C=    0.0000
 XYZ=   -3.4040   -3.5869    1.5693 Q=    0.0099 A=    0.0000 R=    0.0000 C=    0.0000
 XYZ=    2.4642   -0.9575    3.2554 Q=   -0.0198 A=    0.0000 R=    0.0000 C=    0.0000
 XYZ=    3.0782   -0.4841    2.6940 Q=    0.0099 A=    0.0000 R=    0.0000 C=    0.0000
 XYZ=   -6.1307   -1.5713    1.1708 Q=    0.0099 A=    0.0000 R=    0.0000 C=    0.0000
 XYZ=    4.0334    0.8712    1.5020 Q=    0.0099 A=    0.0000 R=    0.0000 C=    0.0000
 XYZ=    6.0373   -1.1866    0.4568 Q=   -0.0198 A=    0.0000 R=    0.0000 C=    0.0000
 XYZ=    5.5729   -1.8897    0.0027 Q=    0.0099 A=    0.0000 R=    0.0000 C=    0.0000
 XYZ=    1.2468    3.4783    3.2123 Q=   -0.0198 A=    0.0000 R=    0.0000 C=    0.0000
 XYZ=    0.2361    0.4281    3.5015 Q=   -0.0198 A=    0.0000 R=    0.0000 C=    0.0000
 XYZ=    0.4048    1.3677    3.4309 Q=    0.0099 A=    0.0000 R=    0.0000 C=    0.0000
 XYZ=   -0.3925    0.2445    2.8033 Q=    0.0099 A=    0.0000 R=    0.0000 C=    0.0000
 XYZ=   -3.8404    2.0967   -1.3935 Q=    0.0099 A=    0.0000 R=    0.0000 C=    0.0000
 XYZ=   -2.8621    3.6765    1.6379 Q=    0.0099 A=    0.0000 R=    0.0000 C=    0.0000
 XYZ=    1.0477    5.3655   -1.5142 Q=   -0.0198 A=    0.0000 R=    0.0000 C=    0.0000
 XYZ=    0.5573    5.5004   -0.7033 Q=    0.0099 A=    0.0000 R=    0.0000 C=    0.0000
 XYZ=    1.0489    4.3171    2.7957 Q=    0.0099 A=    0.0000 R=    0.0000 C=    0.0000
 XYZ=   -0.3356    5.9586    0.7364 Q=   -0.0198 A=    0.0000 R=    0.0000 C=    0.0000
 XYZ=    2.7875    4.5901   -0.8500 Q=    0.0099 A=    0.0000 R=    0.0000 C=    0.0000
 XYZ=    3.0754    3.3232   -0.0735 Q=    0.0099 A=    0.0000 R=    0.0000 C=    0.0000
 XYZ=   -2.6636   -0.4088   -3.9696 Q=    0.0099 A=    0.0000 R=    0.0000 C=    0.0000
 XYZ=    4.4486   -3.1489   -2.1294 Q=    0.0099 A=    0.0000 R=    0.0000 C=    0.0000
 XYZ=    3.0551   -2.5899   -3.5198 Q=   -0.0198 A=    0.0000 R=    0.0000 C=    0.0000
 XYZ=   -3.0020    0.0612   -3.2074 Q=   -0.0198 A=    0.0000 R=    0.0000 C=    0.0000
 XYZ=   -3.3796    0.8631   -3.5687 Q=    0.0099 A=    0.0000 R=    0.0000 C=    0.0000
 XYZ=    2.5233   -3.3438    3.3510 Q=   -0.0198 A=    0.0000 R=    0.0000 C=    0.0000
 XYZ=    2.5925   -2.3901    3.3962 Q=    0.0099 A=    0.0000 R=    0.0000 C=    0.0000
 XYZ=   -0.2406   -4.5155    1.5380 Q=   -0.0198 A=    0.0000 R=    0.0000 C=    0.0000
 XYZ=   -0.1060   -3.8706    2.2324 Q=    0.0099 A=    0.0000 R=    0.0000 C=    0.0000
 XYZ=    2.2592   -5.0693    0.8304 Q=   -0.0198 A=    0.0000 R=    0.0000 C=    0.0000
 XYZ=    1.3091   -4.9554    0.8044 Q=    0.0099 A=    0.0000 R=    0.0000 C=    0.0000
 XYZ=    2.5618   -4.4145    1.4596 Q=    0.0099 A=    0.0000 R=    0.0000 C=    0.0000
 XYZ=   -3.4910   -2.0161    3.0619 Q=   -0.0198 A=    0.0000 R=    0.0000 C=    0.0000
 XYZ=   -3.1181   -1.2117    2.7012 Q=    0.0099 A=    0.0000 R=    0.0000 C=    0.0000
 XYZ=    2.7677   -5.6089   -1.2170 Q=    0.0099 A=    0.0000 R=    0.0000 C=    0.0000
 XYZ=    1.3997   -3.4544   -3.2864 Q=    0.0099 A=    0.0000 R=    0.0000 C=    0.0000
 XYZ=   -4.7017   -0.5356   -2.8607 Q=    0.0099 A=    0.0000 R=    0.0000 C=    0.0000
 XYZ=   -2.8374   -4.5553    1.5779 Q=   -0.0198 A=    0.0000 R=    0.0000 C=    0.0000
 XYZ=   -3.1489   -3.7270    1.9427 Q=    0.0099 A=    0.0000 R=    0.0000 C=    0.0000
 XYZ=    4.4031   -0.2167    1.9605 Q=   -0.0198 A=    0.0000 R=    0.0000 C=    0.0000
 XYZ=    3.7847    0.3635    1.5165 Q=    0.0099 A=    0.0000 R=    0.0000 C=    0.0000
 XYZ=    4.9974   -0.5076    1.2689 Q=    0.0099 A=    0.0000 R=    0.0000 C=    0.0000
 XYZ=    0.1914    0.7808    3.3857 Q=   -0.0198 A=    0.0000 R=    0.0000 C=    0.0000
 XYZ=    0.6147    1.5949    3.1132 Q=    0.0099 A=    0.0000 R=    0.0000 C=    0.0000
 XYZ=   -0.3960    0.5624    2.6622 Q=    0.0099 A=    0.0000 R=    0.0000 C=    0.0000
 XYZ=   -2.8484    0.5756    2.8446 Q=    0.0099 A=    0.0000 R=    0.0000 C=    0.0000
 XYZ=   -3.8883    2.6435   -1.8774 Q=    0.0099 A=    0.0000 R=    0.0000 C=    0.0000
 XYZ=   -3.0709    2.8858    1.6273 Q=   -0.0198 A=    0.0000 R=    0.0000 C=    0.0000
 XYZ=   -2.6263    3.5420    1.0907 Q=    0.0099 A=    0.0000 R=    0.0000 C=    0.0000
 XYZ=    1.3208    4.6081   -1.6120 Q=   -0.0198 A=    0.0000 R=    0.0000 C=    0.0000
 XYZ=    0.6698    4.4320   -2.2912 Q=    0.0099 A=    0.0000 R=    0.0000 C=    0.0000
 XYZ=    0.8236    5.0180   -0.9042 Q=    0.0099 A=    0.0000 R=    0.0000 C=    0.0000
 XYZ=    1.5549    3.2309    3.0299 Q=   -0.0198 A=    0.0000 R=    0.0000 C=    0.0000
 XYZ=    1.4509    3.9105    2.3639 Q=    0.0099 A=    0.0000 R=    0.0000 C=    0.0000
 XYZ=   -0.4691    5.7979    0.3154 Q=   -0.0198 A=    0.0000 R=    0.0000 C=    0.0000
 XYZ=    3.5256    3.1190   -0.0986 Q=   -0.0198 A=    0.0000 R=    0.0000 C=    0.0000
 XYZ=    2.8684    3.3873   -0.7407 Q=    0.0099 A=    0.0000 R=    0.0000 C=    0.0000
 XYZ=    3.1871    2.2996    0.2624 Q=    0.0099 A=    0.0000 R=    0.0000 C=    0.0000
 XYZ=    4.7007   -3.3697   -1.4542 Q=   -0.0198 A=    0.0000 R=    0.0000 C=    0.0000
 XYZ=    3.9439   -3.6219   -1.9833 Q=    0.0099 A=    0.0000 R=    0.0000 C=    0.0000
 XYZ=    2.5723   -2.8953   -3.3975 Q=   -0.0198 A=    0.0000 R=    0.0000 C=    0.0000
 XYZ=    2.6528   -1.9430   -3.3449 Q=    0.0099 A=    0.0000 R=    0.0000 C=    0.0000
 XYZ=   -3.1675   -0.0874   -2.9616 Q=   -0.0198 A=    0.0000 R=    0.0000 C=    0.0000
 XYZ=   -3.3345    0.5946   -3.6122 Q=    0.0099 A=    0.0000 R=    0.0000 C=    0.0000
 XYZ=   -2.9213   -0.8552   -3.4773 Q=    0.0099 A=    0.0000 R=    0.0000 C=    0.0000
 XYZ=    5.4530   -2.0394   -0.3432 Q=    0.0099 A=    0.0000 R=    0.0000 C=    0.0000
 XYZ=   -1.4925   -4.3655    1.5610 Q=    0.0099 A=    0.0000 R=    0.0000 C=    0.0000
 XYZ=    2.2645   -4.8877    1.8296 Q=   -0.0198 A=    0.0000 R=    0.0000 C=    0.0000
 XYZ=    1.3140   -4.8695    1.7185 Q=    0.0099 A=    0.0000 R=    0.0000 C=    0.0000
 XYZ=    2.4287   -4.3188    2.5816 Q=    0.0099 A=    0.0000 R=    0.0000 C=    0.0000
 XYZ=    0.3840   -3.7618   -1.8839 Q=    0.0099 A=    0.0000 R=    0.0000 C=    0.0000
 XYZ=   -5.0457   -0.6973   -2.2842 Q=    0.0099 A=    0.0000 R=    0.0000 C=    0.0000
 XYZ=   -0.3773    1.1028   -4.0231 Q=    0.0099 A=    0.0000 R=    0.0000 C=    0.0000
 XYZ=   -3.3067   -4.5347    1.2962 Q=   -0.0198 A=    0.0000 R=    0.0000 C=    0.0000
 XYZ=   -3.6492   -3.7678    1.7554 Q=    0.0099 A=    0.0000 R=    0.0000 C=    0.0000
 XYZ=    4.4485    0.1768    1.7311 Q=   -0.0198 A=    0.0000 R=    0.0000 C=    0.0000
 XYZ=    3.7195    0.3476    1.1349 Q=    0.0099 A=    0.0000 R=    0.0000 C=    0.0000
 XYZ=    4.9355   -0.5351    1.3161 Q=    0.0099 A=    0.0000 R=    0.0000 C=    0.0000
 XYZ=    6.0061   -1.6653    0.3427 Q=   -0.0198 A=    0.0000 R=    0.0000 C=    0.0000
 XYZ=    0.1946    0.4482    3.4856 Q=   -0.0198 A=    0.0000 R=    0.0000 C=    0.0000
 XYZ=    0.3425    1.3460    3.1884 Q=    0.0099 A=    0.0000 R=    0.0000 C=    0.0000
 XYZ=   -2.7921    0.7802    3.0062 Q=    0.0099 A=    0.0000 R=    0.0000 C=    0.0000
 XYZ=   -3.8035    1.8335    0.6940 Q=    0.0099 A=    0.0000 R=    0.0000 C=    0.0000
 XYZ=   -3.2487    2.9258    1.5829 Q=    0.0099 A=    0.0000 R=    0.0000 C=    0.0000
 XYZ=    1.0573    4.5817   -1.9093 Q=   -0.0198 A=    0.0000 R=    0.0000 C=    0.0000
 XYZ=    0.7088    5.1149   -1.1948 Q=    0.0099 A=    0.0000 R=    0.0000 C=    0.0000
 XYZ=    1.4231    2.9297    3.1666 Q=   -0.0198 A=    0.0000 R=    0.0000 C=    0.0000
 XYZ=    1.2922    3.6544    2.5551 Q=    0.0099 A=    0.0000 R=    0.0000 C=    0.0000
 XYZ=   -0.0640    5.7942    0.1969 Q=   -0.0198 A=    0.0000 R=    0.0000 C=    0.0000
 XYZ=   -0.6115    5.4543    0.9047 Q=    0.0099 A=    0.0000 R=    0.0000 C=    0.0000
 XYZ=    3.2904    3.6611   -0.6417 Q=   -0.0198 A=    0.0000 R=    0.0000 C=    0.0000
 XYZ=    2.4432    3.8485   -1.0458 Q=    0.0099 A=    0.0000 R=    0.0000 C=    0.0000
 XYZ=    3.2504    2.7302   -0.4223 Q=    0.0099 A=    0.0000 R=    0.0000 C=    0.0000
 XYZ=   -2.9571   -0.9818   -3.6993 Q=   -0.0198 A=    0.0000 R=    0.0000 C=    0.0000
 XYZ=   -3.0446   -0.1211   -4.1090 Q=    0.0099 A=    0.0000 R=    0.0000 C=    0.0000
 XYZ=   -5.3675   -1.0532   -2.6596 Q=   -0.0198 A=    0.0000 R=    0.0000 C=    0.0000
 XYZ=    4.9987   -3.7237   -1.2206 Q=   -0.0198 A=    0.0000 R=    0.0000 C=    0.0000
 XYZ=    4.3568   -3.3603   -1.8308 Q=    0.0099 A=    0.0000 R=    0.0000 C=    0.0000
 XYZ=    3.0243   -2.8673   -3.3303 Q=   -0.0198 A=    0.0000 R=    0.0000 C=    0.0000
 XYZ=    3.0427   -1.9132   -3.2553 Q=    0.0099 A=    0.0000 R=    0.0000 C=    0.0000
 XYZ=   -0.3301    0.0494    2.7915 Q=    0.0099 A=    0.0000 R=    0.0000 C=    0.0000
 XYZ=    5.4747   -2.4214   -0.2247 Q=    0.0099 A=    0.0000 R=    0.0000 C=    0.0000
 XYZ=   -0.2666   -3.3434    1.7520 Q=   -0.0198 A=    0.0000 R=    0.0000 C=    0.0000
 XYZ=   -1.0459   -3.8937    1.6732 Q=    0.0099 A=    0.0000 R=    0.0000 C=    0.0000
 XYZ=   -0.5962   -2.5074    2.0818 Q=    0.0099 A=    0.0000 R=    0.0000 C=    0.0000
 XYZ=    2.1534   -4.9302    2.0650 Q=   -0.0198 A=    0.0000 R=    0.0000 C=    0.0000
 XYZ=    1.5143   -4.2178    2.0812 Q=    0.0099 A=    0.0000 R=    0.0000 C=    0.0000
 XYZ=    0.2545   -3.9649   -2.3607 Q=   -0.0198 A=    0.0000 R=    0.0000 C=    0.0000
 XYZ=    1.1764   -3.7713   -2.5306 Q=    0.0099 A=    0.0000 R=    0.0000 C=    0.0000
 XYZ=    0.2311   -4.2306   -1.4414 Q=    0.0099 A=    0.0000 R=    0.0000 C=    0.0000
 XYZ=   -4.4255   -0.8850   -2.6857 Q=    0.0099 A=    0.0000 R=    0.0000 C=    0.0000
 XYZ=   -2.8315   -4.6862    1.6312 Q=   -0.0198 A=    0.0000 R=    0.0000 C=    0.0000
 XYZ=   -3.3577   -4.0908    2.1649 Q=    0.0099 A=    0.0000 R=    0.0000 C=    0.0000
 XYZ=    1.9634   -0.6999    3.1180 Q=    0.0099 A=    0.0000 R=    0.0000 C=    0.0000
 XYZ=    4.5941    0.4120    1.7166 Q=   -0.0198 A=    0.0000 R=    0.0000 C=    0.0000
 XYZ=    3.8462    0.7530    1.2261 Q=    0.0099 A=    0.0000 R=    0.0000 C=    0.0000
 XYZ=    4.9540   -0.2760    1.1568 Q=    0.0099 A=    0.0000 R=    0.0000 C=    0.0000
 XYZ=    5.8091   -1.5909    0.1140 Q=   -0.0198 A=    0.0000 R=    0.0000 C=    0.0000
 XYZ=    3.3610   -0.1960    2.8284 Q=    0.0099 A=    0.0000 R=    0.0000 C=    0.0000
 XYZ=    0.9336    3.4947    3.4779 Q=   -0.0198 A=    0.0000 R=    0.0000 C=    0.0000
 XYZ=    0.5960    1.0296    3.7456 Q=    0.0099 A=    0.0000 R=    0.0000 C=    0.0000
 XYZ=   -1.7276    3.6184    1.9515 Q=    0.0099 A=    0.0000 R=    0.0000 C=    0.0000
 XYZ=    1.6528    4.3030   -2.0245 Q=   -0.0198 A=    0.0000 R=    0.0000 C=    0.0000
 XYZ=    1.4748    5.0840   -1.5005 Q=    0.0099 A=    0.0000 R=    0.0000 C=    0.0000
 XYZ=   -1.4218    4.5253    1.9343 Q=   -0.0198 A=    0.0000 R=    0.0000 C=    0.0000
 XYZ=   -2.0448    4.9773    1.3653 Q=    0.0099 A=    0.0000 R=    0.0000 C=    0.0000
 XYZ=    0.2988    3.7443    2.8063 Q=    0.0099 A=    0.0000 R=    0.0000 C=    0.0000
 XYZ=   -0.0811    5.7392    0.1923 Q=    0.0099 A=    0.0000 R=    0.0000 C=    0.0000
 XYZ=    3.5975    3.2154   -0.3193 Q=   -0.0198 A=    0.0000 R=    0.0000 C=    0.0000
 XYZ=    3.1854    3.6106   -1.0875 Q=    0.0099 A=    0.0000 R=    0.0000 C=    0.0000
 XYZ=    2.9048    2.6887    0.0797 Q=    0.0099 A=    0.0000 R=    0.0000 C=    0.0000
 XYZ=    4.8525   -3.3106   -1.6504 Q=   -0.0198 A=    0.0000 R=    0.0000 C=    0.0000
 XYZ=    4.1624   -3.1296   -2.2885 Q=    0.0099 A=    0.0000 R=    0.0000 C=    0.0000
 XYZ=    2.8907   -2.5459   -3.5570 Q=   -0.0198 A=    0.0000 R=    0.0000 C=    0.0000
 XYZ=    2.6785   -1.6986   -3.1656 Q=    0.0099 A=    0.0000 R=    0.0000 C=    0.0000
 XYZ=   -4.5190   -2.8616    3.0269 Q=    0.0099 A=    0.0000 R=    0.0000 C=    0.0000
 XYZ=   -3.0876   -0.7718   -3.1310 Q=   -0.0198 A=    0.0000 R=    0.0000 C=    0.0000
 XYZ=   -3.2575    0.0641   -3.5653 Q=    0.0099 A=    0.0000 R=    0.0000 C=    0.0000
 XYZ=   -2.3411   -1.1399   -3.6038 Q=    0.0099 A=    0.0000 R=    0.0000 C=    0.0000
 XYZ=    0.4826    0.1075    3.5153 Q=   -0.0198 A=    0.0000 R=    0.0000 C=    0.0000
 XYZ=   -0.0463    0.1231    2.7176 Q=    0.0099 A=    0.0000 R=    0.0000 C=    0.0000
 XYZ=   -0.8769   -3.3332    1.2810 Q=   -0.0198 A=    0.0000 R=    0.0000 C=    0.0000
 XYZ=   -1.4726   -3.8990    1.7721 Q=    0.0099 A=    0.0000 R=    0.0000 C=    0.0000
 XYZ=   -1.0439   -2.4551    1.6233 Q=    0.0099 A=    0.0000 R=    0.0000 C=    0.0000
 XYZ=    1.4767   -4.8122    1.8549 Q=   -0.0198 A=    0.0000 R=    0.0000 C=    0.0000
 XYZ=    0.7599   -4.1839    1.7669 Q=    0.0099 A=    0.0000 R=    0.0000 C=    0.0000
 XYZ=    2.1048   -4.3794    2.4332 Q=    0.0099 A=    0.0000 R=    0.0000 C=    0.0000
 XYZ=    0.3525   -4.4179   -1.9051 Q=    0.0099 A=    0.0000 R=    0.0000 C=    0.0000
 XYZ=   -1.6265   -3.8750   -2.9404 Q=    0.0099 A=    0.0000 R=    0.0000 C=    0.0000
 XYZ=   -4.8939   -0.9186   -2.8005 Q=    0.0099 A=    0.0000 R=    0.0000 C=    0.0000
 XYZ=   -0.0195    1.4387   -4.1297 Q=   -0.0198 A=    0.0000 R=    0.0000 C=    0.0000
 XYZ=   -0.5877    0.6802   -4.2639 Q=    0.0099 A=    0.0000 R=    0.0000 C=    0.0000
 XYZ=    0.7845    1.0734   -3.7605 Q=    0.0099 A=    0.0000 R=    0.0000 C=    0.0000
 XYZ=    3.3265   -0.7899    3.2316 Q=   -0.0198 A=    0.0000 R=    0.0000 C=    0.0000
 XYZ=    2.5496   -0.3324    2.9101 Q=    0.0099 A=    0.0000 R=    0.0000 C=    0.0000
 XYZ=    4.6731    0.7884    1.0985 Q=    0.0099 A=    0.0000 R=    0.0000 C=    0.0000
 XYZ=    5.7033   -0.3072    0.9274 Q=    0.0099 A=    0.0000 R=    0.0000 C=    0.0000
 XYZ=    5.8822   -2.1887   -0.6426 Q=    0.0099 A=    0.0000 R=    0.0000 C=    0.0000
 XYZ=    4.0534   -0.3953    2.7498 Q=    0.0099 A=    0.0000 R=    0.0000 C=    0.0000
 XYZ=   -0.0752    0.6122    3.9542 Q=    0.0099 A=    0.0000 R=    0.0000 C=    0.0000
 XYZ=    1.9257    4.3345   -2.0868 Q=   -0.0198 A=    0.0000 R=    0.0000 C=    0.0000
 XYZ=    1.6360    4.5911   -1.2113 Q=    0.0099 A=    0.0000 R=    0.0000 C=    0.0000
 XYZ=    0.1629    5.6983   -0.5077 Q=   -0.0198 A=    0.0000 R=    0.0000 C=    0.0000
 XYZ=    0.1987    5.5292    0.4337 Q=    0.0099 A=    0.0000 R=    0.0000 C=    0.0000
 XYZ=    4.8984   -3.3126   -1.6365 Q=   -0.0198 A=    0.0000 R=    0.0000 C=    0.0000
 XYZ=    4.2452   -2.9247   -2.2189 Q=    0.0099 A=    0.0000 R=    0.0000 C=    0.0000
 XYZ=    2.9667   -2.2201   -3.2857 Q=   -0.0198 A=    0.0000 R=    0.0000 C=    0.0000
 XYZ=   -4.7587   -2.9067    1.9932 Q=    0.0099 A=    0.0000 R=    0.0000 C=    0.0000
 XYZ=   -5.1003   -3.5103    0.6479 Q=    0.0099 A=    0.0000 R=    0.0000 C=    0.0000
 XYZ=   -3.8923   -0.2229   -3.2616 Q=   -0.0198 A=    0.0000 R=    0.0000 C=    0.0000
 XYZ=   -3.9792    0.7071   -3.4707 Q=    0.0099 A=    0.0000 R=    0.0000 C=    0.0000
 XYZ=   -3.0250   -0.4619   -3.5886 Q=    0.0099 A=    0.0000 R=    0.0000 C=    0.0000
 XYZ=    0.4501   -0.0722    3.5396 Q=   -0.0198 A=    0.0000 R=    0.0000 C=    0.0000
 XYZ=    0.1610   -0.0764    2.6272 Q=    0.0099 A=    0.0000 R=    0.0000 C=    0.0000
 XYZ=    2.5243   -3.3090    3.4527 Q=   -0.0198 A=    0.0000 R=    0.0000 C=    0.0000
 XYZ=    2.6592   -2.3626    3.5011 Q=    0.0099 A=    0.0000 R=    0.0000 C=    0.0000
 XYZ=   -0.7165   -3.5578    1.6598 Q=   -0.0198 A=    0.0000 R=    0.0000 C=    0.0000
 XYZ=   -1.3941   -4.2067    1.8498 Q=    0.0099 A=    0.0000 R=    0.0000 C=    0.0000
 XYZ=   -1.1159   -2.7195    1.8921 Q=    0.0099 A=    0.0000 R=    0.0000 C=    0.0000
 XYZ=    0.7645   -4.8254    1.8116 Q=    0.0099 A=    0.0000 R=    0.0000 C=    0.0000
 XYZ=    2.1683   -4.8680    2.3760 Q=    0.0099 A=    0.0000 R=    0.0000 C=    0.0000
 XYZ=   -3.3927   -2.3797    3.2034 Q=   -0.0198 A=    0.0000 R=    0.0000 C=    0.0000
 XYZ=   -0.8516   -0.9636   -3.6797 Q=   -0.0198 A=    0.0000 R=    0.0000 C=    0.0000
 XYZ=   -0.4354   -1.7759   -3.3912 Q=    0.0099 A=    0.0000 R=    0.0000 C=    0.0000
 XYZ=    0.1391   -3.3308   -2.0261 Q=   -0.0198 A=    0.0000 R=    0.0000 C=    0.0000
 XYZ=    1.0727   -3.3265   -2.2370 Q=    0.0099 A=    0.0000 R=    0.0000 C=    0.0000
 XYZ=    0.0656   -3.9208   -1.2760 Q=    0.0099 A=    0.0000 R=    0.0000 C=    0.0000
 XYZ=   -1.6751   -3.6091   -2.9247 Q=    0.0099 A=    0.0000 R=    0.0000 C=    0.0000
 XYZ=   -5.3725   -1.1006   -2.3508 Q=    0.0099 A=    0.0000 R=    0.0000 C=    0.0000
 XYZ=    0.6751    1.3758   -3.9143 Q=   -0.0198 A=    0.0000 R=    0.0000 C=    0.0000
 XYZ=    0.1256    0.6466   -3.6269 Q=    0.0099 A=    0.0000 R=    0.0000 C=    0.0000
 XYZ=    1.5705    1.0808   -3.7486 Q=    0.0099 A=    0.0000 R=    0.0000 C=    0.0000
 XYZ=    2.1702   -0.1015    3.1223 Q=    0.0099 A=    0.0000 R=    0.0000 C=    0.0000
 XYZ=    5.1005    0.4262    1.2423 Q=   -0.0198 A=    0.0000 R=    0.0000 C=    0.0000
 XYZ=    4.4768    0.7601    0.5975 Q=    0.0099 A=    0.0000 R=    0.0000 C=    0.0000
 XYZ=    5.4540   -0.3692    0.8440 Q=    0.0099 A=    0.0000 R=    0.0000 C=    0.0000
 XYZ=    3.5655    1.2729   -2.0732 Q=    0.0099 A=    0.0000 R=    0.0000 C=    0.0000
 XYZ=    3.9472    2.5008   -0.8220 Q=   -0.0198 A=    0.0000 R=    0.0000 C=    0.0000
 XYZ=    3.2433    2.1085   -0.3056 Q=    0.0099 A=    0.0000 R=    0.0000 C=    0.0000
 XYZ=    3.5022   -0.1624    2.4060 Q=    0.0099 A=    0.0000 R=    0.0000 C=    0.0000
 XYZ=    1.7195    4.5876   -1.8684 Q=   -0.0198 A=    0.0000 R=    0.0000 C=    0.0000
 XYZ=    1.1246    4.7784   -1.1432 Q=    0.0099 A=    0.0000 R=    0.0000 C=    0.0000
 XYZ=    3.0112    3.1572   -1.1035 Q=    0.0099 A=    0.0000 R=    0.0000 C=    0.0000
 XYZ=    4.7112   -3.3380   -1.9548 Q=   -0.0198 A=    0.0000 R=    0.0000 C=    0.0000
 XYZ=    3.9778   -2.9635   -2.4427 Q=    0.0099 A=    0.0000 R=    0.0000 C=    0.0000
 XYZ=    2.8385   -2.2213   -3.4272 Q=   -0.0198 A=    0.0000 R=    0.0000 C=    0.0000
 XYZ=    2.8842   -1.3312   -3.0780 Q=    0.0099 A=    0.0000 R=    0.0000 C=    0.0000
 XYZ=   -4.9382   -3.6877    1.1966 Q=   -0.0198 A=    0.0000 R=    0.0000 C=    0.0000
 XYZ=   -4.5333   -3.1624    1.8868 Q=    0.0099 A=    0.0000 R=    0.0000 C=    0.0000
 XYZ=   -4.3134   -4.3950    1.0363 Q=    0.0099 A=    0.0000 R=    0.0000 C=    0.0000
 XYZ=   -3.5259    0.2494   -2.9624 Q=   -0.0198 A=    0.0000 R=    0.0000 C=    0.0000
 XYZ=   -3.7223    0.9687   -3.5626 Q=    0.0099 A=    0.0000 R=    0.0000 C=    0.0000
 XYZ=   -2.7003   -0.1125   -3.2843 Q=    0.0099 A=    0.0000 R=    0.0000 C=    0.0000
 XYZ=    0.1175    0.0492    3.7075 Q=   -0.0198 A=    0.0000 R=    0.0000 C=    0.0000
 XYZ=   -0.3480   -0.0107    2.8732 Q=    0.0099 A=    0.0000 R=    0.0000 C=    0.0000
 XYZ=   -0.7989   -3.7101    0.5475 Q=   -0.0198 A=    0.0000 R=    0.0000 C=    0.0000
 XYZ=   -1.5055   -4.2535    0.8965 Q=    0.0099 A=    0.0000 R=    0.0000 C=    0.0000
 XYZ=   -0.8880   -2.8762    1.0089 Q=    0.0099 A=    0.0000 R=    0.0000 C=    0.0000
 XYZ=    1.4517   -4.4669    2.7077 Q=    0.0099 A=    0.0000 R=    0.0000 C=    0.0000
 XYZ=   -3.8707   -2.3284    3.2270 Q=   -0.0198 A=    0.0000 R=    0.0000 C=    0.0000
 XYZ=   -3.7009   -1.3880    3.2809 Q=    0.0099 A=    0.0000 R=    0.0000 C=    0.0000
 XYZ=   -1.0113   -1.3751   -3.1940 Q=   -0.0198 A=    0.0000 R=    0.0000 C=    0.0000
 XYZ=   -0.5754   -2.1050   -2.7541 Q=    0.0099 A=    0.0000 R=    0.0000 C=    0.0000
 XYZ=    0.2187   -3.4890   -2.1415 Q=   -0.0198 A=    0.0000 R=    0.0000 C=    0.0000
 XYZ=    0.7982   -4.1100   -2.5828 Q=    0.0099 A=    0.0000 R=    0.0000 C=    0.0000
 XYZ=    0.2078   -3.7784   -1.2292 Q=    0.0099 A=    0.0000 R=    0.0000 C=    0.0000
 XYZ=   -1.6158   -4.0765   -2.4947 Q=    0.0099 A=    0.0000 R=    0.0000 C=    0.0000
 XYZ=   -4.9916   -1.3456   -2.6584 Q=    0.0099 A=    0.0000 R=    0.0000 C=    0.0000
 XYZ=    1.2821    1.3353   -4.4231 Q=   -0.0198 A=    0.0000 R=    0.0000 C=    0.0000
 XYZ=    0.9016    0.4992   -4.1540 Q=    0.0099 A=    0.0000 R=    0.0000 C=    0.0000
 XYZ=    3.8382   -4.9885   -1.3895 Q=    0.0099 A=    0.0000 R=    0.0000 C=    0.0000
 XYZ=    4.8097    0.3853    0.9918 Q=   -0.0198 A=    0.0000 R=    0.0000 C=    0.0000
 XYZ=    3.8764    0.3339    0.7853 Q=    0.0099 A=    0.0000 R=    0.0000 C=    0.0000
 XYZ=    5.1789   -0.4221    0.6341 Q=    0.0099 A=    0.0000 R=    0.0000 C=    0.0000
 XYZ=    5.8291   -2.2013   -0.3748 Q=    0.0099 A=    0.0000 R=    0.0000 C=    0.0000
 XYZ=    3.5186    1.0828   -2.2028 Q=    0.0099 A=    0.0000 R=    0.0000 C=    0.0000
 XYZ=    3.5612    2.3739   -1.0931 Q=   -0.0198 A=    0.0000 R=    0.0000 C=    0.0000
 XYZ=    3.1576    1.8066   -0.4362 Q=    0.0099 A=    0.0000 R=    0.0000 C=    0.0000
 XYZ=    2.1131    1.3835   -3.9505 Q=    0.0099 A=    0.0000 R=    0.0000 C=    0.0000
 XYZ=    0.0164    0.4259    3.4399 Q=   -0.0198 A=    0.0000 R=    0.0000 C=    0.0000
 XYZ=   -0.5455    0.3738    2.6668 Q=    0.0099 A=    0.0000 R=    0.0000 C=    0.0000
 XYZ=   -4.6843    1.4056    1.4337 Q=    0.0099 A=    0.0000 R=    0.0000 C=    0.0000
 XYZ=    1.3234    4.7975   -2.0338 Q=   -0.0198 A=    0.0000 R=    0.0000 C=    0.0000
 XYZ=    0.8139    5.2137   -1.3385 Q=    0.0099 A=    0.0000 R=    0.0000 C=    0.0000
 XYZ=   -0.4799    5.7765    0.5154 Q=    0.0099 A=    0.0000 R=    0.0000 C=    0.0000
 XYZ=    2.3796    3.4536   -1.7750 Q=    0.0099 A=    0.0000 R=    0.0000 C=    0.0000
 XYZ=    3.6291    2.9510   -1.0843 Q=    0.0099 A=    0.0000 R=    0.0000 C=    0.0000
 XYZ=   -2.2979   -3.6952   -3.2785 Q=    0.0099 A=    0.0000 R=    0.0000 C=    0.0000
 XYZ=    4.5682   -3.4293   -2.4148 Q=    0.0099 A=    0.0000 R=    0.0000 C=    0.0000
 XYZ=    3.0612   -1.6695   -3.3277 Q=    0.0099 A=    0.0000 R=    0.0000 C=    0.0000
 XYZ=   -5.1080   -3.5900    0.4916 Q=   -0.0198 A=    0.0000 R=    0.0000 C=    0.0000
 XYZ=   -4.7107   -2.9710    1.1042 Q=    0.0099 A=    0.0000 R=    0.0000 C=    0.0000
 XYZ=   -4.3923   -4.1757    0.2450 Q=    0.0099 A=    0.0000 R=    0.0000 C=    0.0000
 XYZ=   -3.2152   -0.2685   -2.9022 Q=   -0.0198 A=    0.0000 R=    0.0000 C=    0.0000
 XYZ=   -3.5902    0.3865   -3.4909 Q=    0.0099 A=    0.0000 R=    0.0000 C=    0.0000
 XYZ=   -2.5417   -0.7031   -3.4254 Q=    0.0099 A=    0.0000 R=    0.0000 C=    0.0000
 XYZ=   -0.7383   -3.8636    0.6159 Q=   -0.0198 A=    0.0000 R=    0.0000 C=    0.0000
 XYZ=   -0.9518   -2.9828    0.9241 Q=    0.0099 A=    0.0000 R=    0.0000 C=    0.0000
 XYZ=    0.8724   -4.8672    1.7607 Q=    0.0099 A=    0.0000 R=    0.0000 C=    0.0000
 XYZ=   -4.1800   -2.6875    3.0547 Q=   -0.0198 A=    0.0000 R=    0.0000 C=    0.0000
 XYZ=   -4.1043   -1.7928    3.3862 Q=    0.0099 A=    0.0000 R=    0.0000 C=    0.0000
 XYZ=   -0.1464   -2.0722   -3.4718 Q=    0.0099 A=    0.0000 R=    0.0000 C=    0.0000
 XYZ=   -0.0244   -3.8731   -2.2288 Q=   -0.0198 A=    0.0000 R=    0.0000 C=    0.0000
 XYZ=    0.6711   -4.5280   -2.2883 Q=    0.0099 A=    0.0000 R=    0.0000 C=    0.0000
 XYZ=   -0.4195   -4.0207   -1.3695 Q=    0.0099 A=    0.0000 R=    0.0000 C=    0.0000
 XYZ=   -5.2709   -1.5843   -1.8935 Q=   -0.0198 A=    0.0000 R=    0.0000 C=    0.0000
 XYZ=   -4.6268   -0.9763   -2.2564 Q=    0.0099 A=    0.0000 R=    0.0000 C=    0.0000
 XYZ=   -4.7470   -2.2891   -1.5126 Q=    0.0099 A=    0.0000 R=    0.0000 C=    0.0000
 XYZ=    0.8250    0.8962   -4.2371 Q=   -0.0198 A=    0.0000 R=    0.0000 C=    0.0000
 XYZ=    0.1514    0.2629   -3.9889 Q=    0.0099 A=    0.0000 R=    0.0000 C=    0.0000
 XYZ=    1.5737    0.6796   -3.6814 Q=    0.0099 A=    0.0000 R=    0.0000 C=    0.0000
 XYZ=   -3.1365   -4.1236    2.5818 Q=    0.0099 A=    0.0000 R=    0.0000 C=    0.0000
 XYZ=    4.7988    0.4515    1.1992 Q=   -0.0198 A=    0.0000 R=    0.0000 C=    0.0000
 XYZ=    3.9643    0.5851    0.7497 Q=    0.0099 A=    0.0000 R=    0.0000 C=    0.0000
 XYZ=    5.1211   -0.3845    0.8625 Q=    0.0099 A=    0.0000 R=    0.0000 C=    0.0000
 XYZ=    3.0479    2.7699   -1.8230 Q=   -0.0198 A=    0.0000 R=    0.0000 C=    0.0000
 XYZ=    0.1942    0.1954    3.7625 Q=   -0.0198 A=    0.0000 R=    0.0000 C=    0.0000
 XYZ=    1.0809    4.6501   -1.9403 Q=   -0.0198 A=    0.0000 R=    0.0000 C=    0.0000
 XYZ=    0.8097    5.1692   -1.1832 Q=    0.0099 A=    0.0000 R=    0.0000 C=    0.0000
 XYZ=   -0.0528    6.0046    0.2295 Q=   -0.0198 A=    0.0000 R=    0.0000 C=    0.0000
 XYZ=    2.3801    3.3158   -2.0053 Q=    0.0099 A=    0.0000 R=    0.0000 C=    0.0000
 XYZ=   -3.2344   -0.2440   -3.9756 Q=    0.0099 A=    0.0000 R=    0.0000 C=    0.0000
 XYZ=   -5.3340   -1.5915   -2.5455 Q=   -0.0198 A=    0.0000 R=    0.0000 C=    0.0000
 XYZ=   -4.9856   -2.4594   -2.3411 Q=    0.0099 A=    0.0000 R=    0.0000 C=    0.0000
 XYZ=   -4.1580   -4.2099    0.0757 Q=    0.0099 A=    0.0000 R=    0.0000 C=    0.0000
 XYZ=   -2.8030   -0.2011   -3.1222 Q=   -0.0198 A=    0.0000 R=    0.0000 C=    0.0000
 XYZ=   -2.0079   -0.7231   -3.2292 Q=    0.0099 A=    0.0000 R=    0.0000 C=    0.0000
 XYZ=   -0.2666   -0.0968    2.9760 Q=    0.0099 A=    0.0000 R=    0.0000 C=    0.0000
 XYZ=    2.1835   -3.3268    3.6378 Q=   -0.0198 A=    0.0000 R=    0.0000 C=    0.0000
 XYZ=   -0.6410   -3.6605    0.8670 Q=   -0.0198 A=    0.0000 R=    0.0000 C=    0.0000
 XYZ=   -1.5161   -3.9573    1.1168 Q=    0.0099 A=    0.0000 R=    0.0000 C=    0.0000
 XYZ=   -0.4140   -3.0034    1.5250 Q=    0.0099 A=    0.0000 R=    0.0000 C=    0.0000
 XYZ=    0.9876   -4.7748    1.5880 Q=    0.0099 A=    0.0000 R=    0.0000 C=    0.0000
 XYZ=    2.0506   -4.8042    2.6651 Q=    0.0099 A=    0.0000 R=    0.0000 C=    0.0000
 XYZ=   -3.4724   -2.7931    3.4481 Q=   -0.0198 A=    0.0000 R=    0.0000 C=    0.0000
 XYZ=   -3.4051   -1.8417    3.3679 Q=    0.0099 A=    0.0000 R=    0.0000 C=    0.0000
 XYZ=   -0.5022   -1.8479   -3.4026 Q=   -0.0198 A=    0.0000 R=    0.0000 C=    0.0000
 XYZ=   -0.1767   -2.7221   -3.1880 Q=    0.0099 A=    0.0000 R=    0.0000 C=    0.0000
 XYZ=   -0.2680   -4.0577   -1.8627 Q=   -0.0198 A=    0.0000 R=    0.0000 C=    0.0000
 XYZ=   -0.2053   -4.0661   -0.9076 Q=    0.0099 A=    0.0000 R=    0.0000 C=    0.0000
 XYZ=   -2.1839   -4.2033   -2.4379 Q=    0.0099 A=    0.0000 R=    0.0000 C=    0.0000
 XYZ=   -4.5879   -1.0020   -2.4356 Q=    0.0099 A=    0.0000 R=    0.0000 C=    0.0000
 XYZ=    0.5748    0.6613   -4.2474 Q=   -0.0198 A=    0.0000 R=    0.0000 C=    0.0000
 XYZ=    0.4550    0.0033   -3.5626 Q=    0.0099 A=    0.0000 R=    0.0000 C=    0.0000
 XYZ=    1.5154    0.8384   -4.2474 Q=    0.0099 A=    0.0000 R=    0.0000 C=    0.0000
 XYZ=   -2.8975   -4.5482    1.3115 Q=   -0.0198 A=    0.0000 R=    0.0000 C=    0.0000
 XYZ=   -2.9918   -3.8734    1.9838 Q=    0.0099 A=    0.0000 R=    0.0000 C=    0.0000
 XYZ=    4.5556    0.3356    1.4028 Q=   -0.0198 A=    0.0000 R=    0.0000 C=    0.0000
 XYZ=    3.6899    0.6282    1.1179 Q=    0.0099 A=    0.0000 R=    0.0000 C=    0.0000
 XYZ=    4.8246   -0.2989    0.7385 Q=    0.0099 A=    0.0000 R=    0.0000 C=    0.0000
 XYZ=    5.7885   -2.1494   -0.6598 Q=   -0.0198 A=    0.0000 R=    0.0000 C=    0.0000
 XYZ=    2.7636    2.4388   -2.0128 Q=   -0.0198 A=    0.0000 R=    0.0000 C=    0.0000
 XYZ=    2.7314    2.1554   -1.0990 Q=    0.0099 A=    0.0000 R=    0.0000 C=    0.0000
 XYZ=   -0.5098    0.5439    4.1068 Q=    0.0099 A=    0.0000 R=    0.0000 C=    0.0000
 XYZ=   -2.6004    0.7464    3.2729 Q=    0.0099 A=    0.0000 R=    0.0000 C=    0.0000
 XYZ=   -3.7240    0.4460    2.3042 Q=    0.0099 A=    0.0000 R=    0.0000 C=    0.0000
 XYZ=   -4.1176    1.5892    1.0703 Q=   -0.0198 A=    0.0000 R=    0.0000 C=    0.0000
 XYZ=   -3.4502    2.2681    1.1699 Q=    0.0099 A=    0.0000 R=    0.0000 C=    0.0000
 XYZ=    1.3730    4.8538   -1.8172 Q=   -0.0198 A=    0.0000 R=    0.0000 C=    0.0000
 XYZ=    0.5916    4.5172   -2.2558 Q=    0.0099 A=    0.0000 R=    0.0000 C=    0.0000
 XYZ=    1.0344    5.4440   -1.1440 Q=    0.0099 A=    0.0000 R=    0.0000 C=    0.0000
 XYZ=   -5.1136   -2.3864   -2.2798 Q=    0.0099 A=    0.0000 R=    0.0000 C=    0.0000
 XYZ=   -4.1607   -4.3473    0.4020 Q=    0.0099 A=    0.0000 R=    0.0000 C=    0.0000
 XYZ=   -2.6127   -0.2962   -3.6003 Q=   -0.0198 A=    0.0000 R=    0.0000 C=    0.0000
 XYZ=   -1.8039   -0.8064   -3.5586 Q=    0.0099 A=    0.0000 R=    0.0000 C=    0.0000
 XYZ=    0.0315   -0.0795    3.6224 Q=   -0.0198 A=    0.0000 R=    0.0000 C=    0.0000
 XYZ=   -0.4918   -0.3036    2.8528 Q=    0.0099 A=    0.0000 R=    0.0000 C=    0.0000
 XYZ=    2.8394   -2.3678    3.4533 Q=    0.0099 A=    0.0000 R=    0.0000 C=    0.0000
 XYZ=   -0.2618   -3.6471    1.7489 Q=   -0.0198 A=    0.0000 R=    0.0000 C=    0.0000
 XYZ=   -1.1828   -3.9023    1.8018 Q=    0.0099 A=    0.0000 R=    0.0000 C=    0.0000
 XYZ=   -0.1379   -3.0439    2.4817 Q=    0.0099 A=    0.0000 R=    0.0000 C=    0.0000
 XYZ=    1.7260   -4.6499    2.0664 Q=    0.0099 A=    0.0000 R=    0.0000 C=    0.0000
 XYZ=   -3.9630   -2.4536    3.4395 Q=   -0.0198 A=    0.0000 R=    0.0000 C=    0.0000
 XYZ=   -3.6808   -1.5412    3.3740 Q=    0.0099 A=    0.0000 R=    0.0000 C=    0.0000
 XYZ=   -0.1278   -1.6813   -3.1340 Q=   -0.0198 A=    0.0000 R=    0.0000 C=    0.0000
 XYZ=   -0.1743   -2.4278   -2.5368 Q=    0.0099 A=    0.0000 R=    0.0000 C=    0.0000
 XYZ=   -0.3278   -3.9910   -1.4426 Q=   -0.0198 A=    0.0000 R=    0.0000 C=    0.0000
 XYZ=    0.3444   -4.6086   -1.7307 Q=    0.0099 A=    0.0000 R=    0.0000 C=    0.0000
 XYZ=   -0.2366   -3.9648   -0.4901 Q=    0.0099 A=    0.0000 R=    0.0000 C=    0.0000
 XYZ=   -5.1434   -1.4452   -2.4518 Q=   -0.0198 A=    0.0000 R=    0.0000 C=    0.0000
 XYZ=   -4.2260   -1.1723   -2.4502 Q=    0.0099 A=    0.0000 R=    0.0000 C=    0.0000
 XYZ=   -6.3283   -0.6804   -0.4768 Q=    0.0099 A=    0.0000 R=    0.0000 C=    0.0000
 XYZ=   -3.1552   -4.4123    1.8685 Q=   -0.0198 A=    0.0000 R=    0.0000 C=    0.0000
 XYZ=   -3.5175   -3.6760    2.3613 Q=    0.0099 A=    0.0000 R=    0.0000 C=    0.0000
 XYZ=    4.7426    0.4194    1.5313 Q=   -0.0198 A=    0.0000 R=    0.0000 C=    0.0000
 XYZ=    4.0608    0.7860    0.9682 Q=    0.0099 A=    0.0000 R=    0.0000 C=    0.0000
 XYZ=    4.8973   -0.4575    1.1802 Q=    0.0099 A=    0.0000 R=    0.0000 C=    0.0000
 XYZ=    5.5530   -1.4053   -0.1748 Q=   -0.0198 A=    0.0000 R=    0.0000 C=    0.0000
 XYZ=    5.1485   -1.6365   -1.0109 Q=    0.0099 A=    0.0000 R=    0.0000 C=    0.0000
 XYZ=    3.4988    2.7169   -1.1016 Q=    0.0099 A=    0.0000 R=    0.0000 C=    0.0000
 XYZ=   -3.9685    1.8299    1.0886 Q=   -0.0198 A=    0.0000 R=    0.0000 C=    0.0000
 XYZ=   -3.1969    2.0331    0.5597 Q=    0.0099 A=    0.0000 R=    0.0000 C=    0.0000
 XYZ=   -3.6529    2.7062   -2.2166 Q=   -0.0198 A=    0.0000 R=    0.0000 C=    0.0000
 XYZ=   -3.1867    1.9631   -2.5995 Q=    0.0099 A=    0.0000 R=    0.0000 C=    0.0000
 XYZ=    1.2985    4.9870   -1.8604 Q=   -0.0198 A=    0.0000 R=    0.0000 C=    0.0000
 XYZ=    0.6353    4.5486   -2.3935 Q=    0.0099 A=    0.0000 R=    0.0000 C=    0.0000
 XYZ=    0.7964    5.4855   -1.2157 Q=    0.0099 A=    0.0000 R=    0.0000 C=    0.0000
 XYZ=    2.2826    3.3913   -1.6988 Q=    0.0099 A=    0.0000 R=    0.0000 C=    0.0000
[...]
 Alpha virt. eigenvalues --    0.73409   0.73692   0.75823   0.76260   0.77483
 Alpha virt. eigenvalues --    0.78635   0.80157   0.80951   0.82120   0.83527
 Alpha virt. eigenvalues --    0.83953   0.87684   0.88361   0.90807   0.91143
 Alpha virt. eigenvalues --    0.92654   0.93990   0.94954   0.98527   0.98998
 Alpha virt. eigenvalues --    1.01780   1.02942   1.04195   1.04537   1.05787
 Alpha virt. eigenvalues --    1.08096   1.08704   1.09180   1.12029   1.13683
 Alpha virt. eigenvalues --    1.13905   1.16440   1.16930   1.17289   1.17995
 Alpha virt. eigenvalues --    1.19185   1.20305   1.20573   1.22593   1.23072
 Alpha virt. eigenvalues --    1.24528   1.26200   1.27452   1.28338   1.30268
 Alpha virt. eigenvalues --    1.31681   1.33168   1.34294   1.36057   1.36724
 Alpha virt. eigenvalues --    1.37946   1.38289   1.39137   1.40747   1.42253
 Alpha virt. eigenvalues --    1.44814   1.45751   1.47784   1.48750   1.49624
 Alpha virt. eigenvalues --    1.50614   1.51469   1.52199   1.53071   1.53852
 Alpha virt. eigenvalues --    1.56271   1.56984   1.58029   1.59472   1.60333
 Alpha virt. eigenvalues --    1.63221   1.63887   1.64698   1.65620   1.66840
 Alpha virt. eigenvalues --    1.68495   1.71006   1.71790   1.73893   1.75892
 Alpha virt. eigenvalues --    1.76679   1.77945   1.79917   1.84146   1.84847
 Alpha virt. eigenvalues --    1.86653   1.88174   1.91597   1.94329   1.97868
 Alpha virt. eigenvalues --    1.99876   2.03651   2.06390   2.09346   2.11189
 Alpha virt. eigenvalues --    2.13674   2.15730   2.19168   2.24739   2.30130
 Alpha virt. eigenvalues --    2.32365   2.40256   2.41785   2.43524   2.45907
 Alpha virt. eigenvalues --    2.49698   2.49968   2.54585   2.56076   2.57055
 Alpha virt. eigenvalues --    2.59834   2.63018   2.65166   2.67239   2.70171
 Alpha virt. eigenvalues --    2.71550   2.73814   2.75865   2.79830   2.81601
 Alpha virt. eigenvalues --    2.83728   2.85533   2.86240   2.87563   2.89290
 Alpha virt. eigenvalues --    2.90295   2.91126   2.92541   2.95471   2.99134
 Alpha virt. eigenvalues --    2.99942   3.01840   3.02792   3.03942   3.05504
 Alpha virt. eigenvalues --    3.06022   3.08604   3.08784   3.09500   3.10572
 Alpha virt. eigenvalues --    3.11218   3.12848   3.14423   3.14819   3.16286
 Alpha virt. eigenvalues --    3.17490   3.18727   3.20216   3.22586   3.23639
 Alpha virt. eigenvalues --    3.24623   3.25483   3.26611   3.29035   3.29591
 Alpha virt. eigenvalues --    3.30715   3.31046   3.32105   3.32599   3.34452
 Alpha virt. eigenvalues --    3.35283   3.36890   3.38257   3.38864   3.40464
 Alpha virt. eigenvalues --    3.42532   3.43603   3.45114   3.45856   3.47261
 Alpha virt. eigenvalues --    3.49080   3.49648   3.51056   3.52478   3.54639
 Alpha virt. eigenvalues --    3.56189   3.56947   3.57800   3.58756   3.59025
 Alpha virt. eigenvalues --    3.60568   3.61929   3.62961   3.64039   3.65128
 Alpha virt. eigenvalues --    3.66479   3.68657   3.68787   3.70816   3.71139
 Alpha virt. eigenvalues --    3.72030   3.73576   3.75741   3.75999   3.76729
 Alpha virt. eigenvalues --    3.77749   3.78835   3.81091   3.81891   3.83362
 Alpha virt. eigenvalues --    3.84147   3.86168   3.87279   3.88689   3.90238
 Alpha virt. eigenvalues --    3.91130   3.95669   3.96638   3.97539   3.98479
 Alpha virt. eigenvalues --    3.99653   4.02109   4.02881   4.04366   4.05841
 Alpha virt. eigenvalues --    4.08346   4.09588   4.10628   4.12721   4.13363
 Alpha virt. eigenvalues --    4.14673   4.16624   4.18616   4.18794   4.20477
 Alpha virt. eigenvalues --    4.21830   4.22317   4.23156   4.24125   4.26029
 Alpha virt. eigenvalues --    4.28452   4.28960   4.30459   4.31290   4.32332
 Alpha virt. eigenvalues --    4.33420   4.34407   4.35837   4.35877   4.37491
 Alpha virt. eigenvalues --    4.39490   4.40396   4.42399   4.43434   4.45385
 Alpha virt. eigenvalues --    4.47010   4.47613   4.49539   4.49895   4.51046
 Alpha virt. eigenvalues --    4.54090   4.54832   4.56500   4.59663   4.60193
 Alpha virt. eigenvalues --    4.61991   4.63133   4.64336   4.66613   4.68121
 Alpha virt. eigenvalues --    4.68930   4.70560   4.72490   4.75231   4.76647
 Alpha virt. eigenvalues --    4.78122   4.80492   4.85430   4.88104   4.90695
 Alpha virt. eigenvalues --    4.93050   4.95170   4.97228   5.01757   5.04064
 Alpha virt. eigenvalues --    5.04825   5.06864   5.10269   5.12578   5.13951
 Alpha virt. eigenvalues --    5.15337   5.16787   5.19434   5.19899   5.22766
 Alpha virt. eigenvalues --    5.25483   5.27465   5.28345   5.31474   5.34252
 Alpha virt. eigenvalues --    5.35225   5.36208   5.38333   5.39877   5.41224
 Alpha virt. eigenvalues --    5.43560   5.46330   5.48339   5.50511   5.52054
 Alpha virt. eigenvalues --    5.53890   5.54900   5.55850   5.56369   5.56886
 Alpha virt. eigenvalues --    5.58025   5.59250   5.60034   5.61890   5.63067
 Alpha virt. eigenvalues --    5.64233   5.65193   5.66390   5.68233   5.69809
 Alpha virt. eigenvalues --    5.70264   5.74930   5.75347   5.77020   5.78681
 Alpha virt. eigenvalues --    5.80566   5.83157   5.84554   5.85253   5.92646
 Alpha virt. eigenvalues --    5.96873   5.98955   6.01415   6.02864   6.07240
 Alpha virt. eigenvalues --    6.08463   6.11051   6.12788   6.17495   6.18604
 Alpha virt. eigenvalues --    6.23426   6.24965   6.26985   6.28729   6.34622
 Alpha virt. eigenvalues --    6.37070   6.41354   6.42838   6.46206   6.49488
 Alpha virt. eigenvalues --    6.53240   6.65521   6.68980   6.74465   6.81561
 Alpha virt. eigenvalues --    6.88969   6.91925   6.95935   6.96658   7.04849
 Alpha virt. eigenvalues --    7.05933   7.26503   7.32505   7.33453   7.36724
 Alpha virt. eigenvalues --    7.54344   7.56637   7.58292   7.59130  10.01541
 Alpha virt. eigenvalues --   10.53338  12.72554  13.22593  13.39212  13.78577
 Alpha virt. eigenvalues --   14.04107  14.22046  14.24482  14.54263
          Condensed to atoms (all electrons):
              1          2          3          4          5          6
     1  H    0.555189   0.378784  -0.018098  -0.023746  -0.049931   0.007065
     2  C    0.378784   5.090531   0.369530   0.376848   0.310172  -0.069989
     3  H   -0.018098   0.369530   0.540468  -0.020251  -0.030852   0.001584
     4  H   -0.023746   0.376848  -0.020251   0.560244  -0.051058   0.001885
     5  C   -0.049931   0.310172  -0.030852  -0.051058   4.811387   0.640496
     6  O    0.007065  -0.069989   0.001584   0.001885   0.640496   7.984759
     7  N    0.008200  -0.088033   0.002941   0.012429   0.255104  -0.143816
     8  H   -0.000105  -0.001761  -0.000178  -0.002018  -0.005077   0.003879
     9  C   -0.000203   0.001040  -0.000090   0.001036  -0.075144  -0.005082
    10  H    0.000019  -0.000236   0.000022  -0.000034   0.006331   0.000123
    11  C   -0.000004  -0.000928  -0.000009   0.000100  -0.014512  -0.011826
    12  H    0.000006  -0.000118   0.000038  -0.000022  -0.000083  -0.000814
    13  H   -0.000004   0.000656  -0.000174  -0.000044   0.000543   0.020823
    14  H   -0.000002   0.000018  -0.000004  -0.000003   0.000513   0.000229
    15  C   -0.000184   0.001774  -0.000057  -0.000672   0.006195   0.027004
    16  O    0.000001  -0.000011   0.000000   0.000005  -0.000509  -0.001148
    17  N    0.000091   0.000160   0.000023   0.000288   0.009271  -0.013411
    18  H    0.000109  -0.001879   0.000103   0.000653  -0.000495  -0.003090
    19  C   -0.000001   0.000142   0.000002   0.000018  -0.000425  -0.000210
    20  H    0.000001   0.000007   0.000000  -0.000002   0.000049   0.000016
    21  H    0.000018  -0.000036   0.000003  -0.000108  -0.000283   0.002632
    22  H    0.000002   0.000001   0.000000   0.000017   0.000120  -0.000034
              7          8          9         10         11         12
     1  H    0.008200  -0.000105  -0.000203   0.000019  -0.000004   0.000006
     2  C   -0.088033  -0.001761   0.001040  -0.000236  -0.000928  -0.000118
     3  H    0.002941  -0.000178  -0.000090   0.000022  -0.000009   0.000038
     4  H    0.012429  -0.002018   0.001036  -0.000034   0.000100  -0.000022
     5  C    0.255104  -0.005077  -0.075144   0.006331  -0.014512  -0.000083
     6  O   -0.143816   0.003879  -0.005082   0.000123  -0.011826  -0.000814
     7  N    6.647808   0.322686   0.243053  -0.018731  -0.059810   0.004646
     8  H    0.322686   0.467710  -0.018759  -0.005712  -0.000264   0.001112
     9  C    0.243053  -0.018759   5.423004   0.347945   0.283103  -0.043496
    10  H   -0.018731  -0.005712   0.347945   0.539040  -0.040696  -0.003882
    11  C   -0.059810  -0.000264   0.283103  -0.040696   5.196663   0.370387
    12  H    0.004646   0.001112  -0.043496  -0.003882   0.370387   0.591895
    13  H   -0.005779  -0.000381  -0.053077   0.006462   0.371927  -0.025772
    14  H    0.006257  -0.000172  -0.023666  -0.003617   0.362374  -0.032317
    15  C   -0.028074   0.002616   0.144929  -0.005620  -0.075593   0.009694
    16  O    0.004354  -0.000197  -0.123556  -0.000123   0.009659   0.000853
    17  N   -0.003268  -0.000314  -0.088705  -0.002240   0.004825  -0.000174
    18  H    0.010786  -0.000252  -0.003009   0.000131   0.000743  -0.000084
    19  C   -0.001170   0.000079   0.010103  -0.000179  -0.000670   0.000020
    20  H   -0.000212   0.000009   0.002504  -0.000028  -0.000186   0.000000
    21  H   -0.000284  -0.000005  -0.000254  -0.000022   0.000163   0.000002
    22  H    0.000037   0.000000  -0.000247   0.000034  -0.000009  -0.000001
             13         14         15         16         17         18
     1  H   -0.000004  -0.000002  -0.000184   0.000001   0.000091   0.000109
     2  C    0.000656   0.000018   0.001774  -0.000011   0.000160  -0.001879
     3  H   -0.000174  -0.000004  -0.000057   0.000000   0.000023   0.000103
     4  H   -0.000044  -0.000003  -0.000672   0.000005   0.000288   0.000653
     5  C    0.000543   0.000513   0.006195  -0.000509   0.009271  -0.000495
     6  O    0.020823   0.000229   0.027004  -0.001148  -0.013411  -0.003090
     7  N   -0.005779   0.006257  -0.028074   0.004354  -0.003268   0.010786
     8  H   -0.000381  -0.000172   0.002616  -0.000197  -0.000314  -0.000252
     9  C   -0.053077  -0.023666   0.144929  -0.123556  -0.088705  -0.003009
    10  H    0.006462  -0.003617  -0.005620  -0.000123  -0.002240   0.000131
    11  C    0.371927   0.362374  -0.075593   0.009659   0.004825   0.000743
    12  H   -0.025772  -0.032317   0.009694   0.000853  -0.000174  -0.000084
    13  H    0.574099  -0.022169   0.001783   0.003160  -0.000758  -0.000047
    14  H   -0.022169   0.564627   0.000023   0.006870   0.000511  -0.000087
    15  C    0.001783   0.000023   4.747377   0.720515   0.351262  -0.027955
    16  O    0.003160   0.006870   0.720515   7.932401  -0.128542   0.003973
    17  N   -0.000758   0.000511   0.351262  -0.128542   6.524532   0.347810
    18  H   -0.000047  -0.000087  -0.027955   0.003973   0.347810   0.488842
    19  C   -0.000037  -0.000023  -0.047287  -0.001913   0.253700  -0.035339
    20  H   -0.000033  -0.000010  -0.008956   0.016657  -0.028072   0.005042
    21  H    0.000025   0.000001   0.006632   0.000500  -0.050163  -0.003272
    22  H    0.000001   0.000000   0.001280   0.000163  -0.035414  -0.005681
             19         20         21         22
     1  H   -0.000001   0.000001   0.000018   0.000002
     2  C    0.000142   0.000007  -0.000036   0.000001
     3  H    0.000002   0.000000   0.000003   0.000000
     4  H    0.000018  -0.000002  -0.000108   0.000017
     5  C   -0.000425   0.000049  -0.000283   0.000120
     6  O   -0.000210   0.000016   0.002632  -0.000034
     7  N   -0.001170  -0.000212  -0.000284   0.000037
     8  H    0.000079   0.000009  -0.000005   0.000000
     9  C    0.010103   0.002504  -0.000254  -0.000247
    10  H   -0.000179  -0.000028  -0.000022   0.000034
    11  C   -0.000670  -0.000186   0.000163  -0.000009
    12  H    0.000020   0.000000   0.000002  -0.000001
    13  H   -0.000037  -0.000033   0.000025   0.000001
    14  H   -0.000023  -0.000010   0.000001   0.000000
    15  C   -0.047287  -0.008956   0.006632   0.001280
    16  O   -0.001913   0.016657   0.000500   0.000163
    17  N    0.253700  -0.028072  -0.050163  -0.035414
    18  H   -0.035339   0.005042  -0.003272  -0.005681
    19  C    4.954065   0.377873   0.378901   0.399917
    20  H    0.377873   0.554562  -0.040349  -0.019290
    21  H    0.378901  -0.040349   0.608159  -0.031845
    22  H    0.399917  -0.019290  -0.031845   0.537521
 Mulliken atomic charges:
              1
     1  H    0.142794
     2  C   -0.366671
     3  H    0.154999
     4  H    0.144435
     5  C    0.188189
     6  O   -0.441073
     7  N   -0.169124
     8  H    0.237103
     9  C   -0.021430
    10  H    0.181011
    11  C   -0.395437
    12  H    0.128108
    13  H    0.128796
    14  H    0.140646
    15  C    0.173315
    16  O   -0.443114
    17  N   -0.141411
    18  H    0.222999
    19  C   -0.287568
    20  H    0.140419
    21  H    0.129585
    22  H    0.153430
 Sum of Mulliken atomic charges =   0.00000
 Mulliken charges with hydrogens summed into heavy atoms:
              1
     2  C    0.075557
     5  C    0.188189
     6  O   -0.441073
     7  N    0.067979
     9  C    0.159581
    11  C    0.002112
    15  C    0.173315
    16  O   -0.443114
    17  N    0.081588
    19  C    0.135865
 Sum of Mulliken charges with hydrogens summed into heavy atoms =   0.00000
 Electronic spatial extent (au):  <R**2>=           1568.8405
 Charge=              0.0000 electrons
 Dipole moment (field-independent basis, Debye):
    X=             -5.0048    Y=             -2.5122    Z=             -6.5491  Tot=              8.6168
 Quadrupole moment (field-independent basis, Debye-Ang):
   XX=            -60.3600   YY=            -53.9015   ZZ=            -63.8798
   XY=             -7.5071   XZ=              3.3752   YZ=             -1.9544
 Traceless Quadrupole moment (field-independent basis, Debye-Ang):
   XX=             -0.9796   YY=              5.4789   ZZ=             -4.4993
   XY=             -7.5071   XZ=              3.3752   YZ=             -1.9544
 Octapole moment (field-independent basis, Debye-Ang**2):
  XXX=            -43.1417  YYY=             -9.6905  ZZZ=            -13.5024  XYY=              0.3459
  XXY=            -22.2943  XXZ=            -14.9505  XZZ=             -0.6818  YZZ=              2.7832
  YYZ=             -7.4527  XYZ=             -2.4998
 Hexadecapole moment (field-independent basis, Debye-Ang**3):
 XXXX=          -1074.5150 YYYY=           -698.7575 ZZZZ=           -219.4060 XXXY=            -42.8117
 XXXZ=              3.4660 YYYX=            -14.5719 YYYZ=             -0.5075 ZZZX=             18.9473
 ZZZY=             -5.6685 XXYY=           -294.1440 XXZZ=           -222.4761 YYZZ=           -151.7439
 XXYZ=            -13.9670 YYXZ=             -3.6577 ZZXY=             -7.2305
 N-N= 5.762962136609D+02 E-N=-2.306225767736D+03  KE= 4.946173776684D+02
 Merz-Kollman atomic radii used.

 **********************************************************************

          Electrostatic Properties Using The MP2 Density

 **********************************************************************

       Atomic Center    1 is at  -2.869643 -1.950422  0.697318
       Atomic Center    2 is at  -2.779644 -1.235626 -0.120647
       Atomic Center    3 is at  -3.730524 -0.707341 -0.190246
       Atomic Center    4 is at  -2.496817 -1.783828 -1.019304
       Atomic Center    5 is at  -1.665268 -0.316530  0.210166
       Atomic Center    6 is at  -1.156099 -0.329656  1.338309
       Atomic Center    7 is at  -1.137248  0.401488 -0.807226
       Atomic Center    8 is at  -1.809981  0.655257 -1.516544
       Atomic Center    9 is at   0.110137  1.127592 -0.641933
       Atomic Center   10 is at   0.373059  1.560483 -1.607116
       Atomic Center   11 is at  -0.131908  2.373545  0.224265
       Atomic Center   12 is at  -1.014949  2.908307 -0.125547
       Atomic Center   13 is at  -0.354636  2.001240  1.224206
       Atomic Center   14 is at   0.604061  3.177054  0.252945
       Atomic Center   15 is at   1.308751  0.351891 -0.166208
       Atomic Center   16 is at   2.208370  0.896428  0.464224
       Atomic Center   17 is at   1.274427 -0.975149 -0.483160
       Atomic Center   18 is at   0.389953 -1.415290 -0.693117
       Atomic Center   19 is at   2.206029 -1.998196  0.011272
       Atomic Center   20 is at   3.162333 -1.618698  0.371223
       Atomic Center   21 is at   1.755244 -2.430861  0.904409
       Atomic Center   22 is at   2.324903 -2.730510 -0.787281
     960 points will be used for fitting atomic charges
 Fitting point charges to electrostatic potential
 Charges from ESP fit, RMS=   0.00193 RRMS=   0.05750:
 Charge=   0.00000 Dipole=    -4.9995    -2.5215    -6.5025 Tot=     8.5811
              1
     1  H    0.156411
     2  C   -0.592739
     3  H    0.181507
     4  H    0.174507
     5  C    0.814781
     6  O   -0.644617
     7  N   -0.821776
     8  H    0.466734
     9  C    0.094421
    10  H    0.122165
    11  C   -0.209336
    12  H    0.094118
    13  H    0.073775
    14  H    0.054874
    15  C    0.610610
    16  O   -0.631562
    17  N   -0.522470
    18  H    0.379387
    19  C   -0.069484
    20  H    0.100908
    21  H    0.074537
    22  H    0.093252
 -----------------------------------------------------------------

              Electrostatic Properties (Atomic Units)

 -----------------------------------------------------------------
    Center     Electric         -------- Electric Field --------
               Potential          X             Y             Z
 -----------------------------------------------------------------
    1 Atom     -1.088781
    2 Atom    -14.738417
    3 Atom     -1.055563
    4 Atom     -1.054544
    5 Atom    -14.646286
    6 Atom    -22.409807
    7 Atom    -18.312182
    8 Atom     -0.943168
    9 Atom    -14.698440
   10 Atom     -1.068320
   11 Atom    -14.783747
   12 Atom     -1.109998
   13 Atom     -1.149458
   14 Atom     -1.127339
   15 Atom    -14.670947
   16 Atom    -22.429958
   17 Atom    -18.345851
   18 Atom     -0.991379
   19 Atom    -14.729454
   20 Atom     -1.109872
   21 Atom     -1.110122
   22 Atom     -1.084091
 -----------------------------------------------------------------

 Test job not archived.
 1\1\GINC-TACHIKOMA\SP\RMP2-FC\CC-pVTZ\C6H12N2O2\STEBOSS\20-Mar-2017\0\
 \#MP2/cc-pvTZ density=MP2, charge, maxdisk=16GB, pop=(minimal, MK), 5d
 , punch=mo\\Generated by mdgx\\0,1\H,0,-2.8696426,-1.9504221,0.697318\
 C,0,-2.7796444,-1.2356257,-0.1206475\H,0,-3.7305239,-0.7073412,-0.1902
 459\H,0,-2.4968175,-1.7838282,-1.0193036\C,0,-1.6652684,-0.3165296,0.2
 10166\O,0,-1.1560994,-0.329656,1.338309\N,0,-1.137248,0.4014883,-0.807
 2263\H,0,-1.8099815,0.6552569,-1.5165437\C,0,0.1101369,1.1275917,-0.64
 19333\H,0,0.373059,1.5604833,-1.6071156\C,0,-0.1319083,2.373545,0.2242
 652\H,0,-1.0149489,2.9083075,-0.1255466\H,0,-0.3546358,2.0012401,1.224
 206\H,0,0.6040611,3.177054,0.2529449\C,0,1.3087512,0.351891,-0.1662078
 \O,0,2.20837,0.8964281,0.4642243\N,0,1.274427,-0.9751485,-0.4831599\H,
 0,0.3899534,-1.4152898,-0.6931174\C,0,2.2060292,-1.9981964,0.0112715\H
 ,0,3.1623325,-1.6186981,0.3712228\H,0,1.7552436,-2.4308612,0.9044085\H
 ,0,2.3249027,-2.7305102,-0.7872806\\Version=EM64L-G09RevA.02\State=1-A
 \HF=-492.4468804\MP2=-494.329865\RMSD=4.678e-09\Dipole=-1.9690386,-0.9
 883627,-2.5766045\Quadrupole=-0.728279,4.07343,-3.345151,-5.5813748,2.
 5093821,-1.4530323\PG=C01 [X(C6H12N2O2)]\\@


 ARTHROPOD AXIOM: A COMPUTER SYSTEM IS LIKE A SPIDER'S WEB.
 YOU CANNOT PULL ON ONE END WITHOUT MAKING THE OTHER END MOVE.
     -- GREG WETTSTEIN
 Job cpu time:  0 days  3 hours  7 minutes 10.2 seconds.
 File lengths (MBytes):  RWF=  13701 Int=      0 D2E=      0 Chk=     14 Scr=      1
 Normal termination of Gaussian 09 at Mon Mar 20 02:40:50 2017.
