 Entering Gaussian System, Link 0=g09
 Initial command:
 /home/steboss/Software/g09/l1.exe /home/steboss/projects/phi_psi_scan/alanine/135/4200/Gau-15144.inp -scrdir=/home/steboss/projects/phi_psi_scan/alanine/135/4200/
 Entering Link 1 = /home/steboss/Software/g09/l1.exe PID=     15146.
  
 Copyright (c) 1988,1990,1992,1993,1995,1998,2003,2009, Gaussian, Inc.
                  All Rights Reserved.
  
 This is part of the Gaussian(R) 09 program.  It is based on
 the Gaussian(R) 03 system (copyright 2003, Gaussian, Inc.),
 the Gaussian(R) 98 system (copyright 1998, Gaussian, Inc.),
 the Gaussian(R) 94 system (copyright 1995, Gaussian, Inc.),
 the Gaussian 92(TM) system (copyright 1992, Gaussian, Inc.),
 the Gaussian 90(TM) system (copyright 1990, Gaussian, Inc.),
 the Gaussian 88(TM) system (copyright 1988, Gaussian, Inc.),
 the Gaussian 86(TM) system (copyright 1986, Carnegie Mellon
 University), and the Gaussian 82(TM) system (copyright 1983,
 Carnegie Mellon University). Gaussian is a federally registered
 trademark of Gaussian, Inc.
  
 This software contains proprietary and confidential information,
 including trade secrets, belonging to Gaussian, Inc.
  
 This software is provided under written license and may be
 used, copied, transmitted, or stored only in accord with that
 written license.
  
 The following legend is applicable only to US Government
 contracts under FAR:
  
                    RESTRICTED RIGHTS LEGEND
  
 Use, reproduction and disclosure by the US Government is
 subject to restrictions as set forth in subparagraphs (a)
 and (c) of the Commercial Computer Software - Restricted
 Rights clause in FAR 52.227-19.
  
 Gaussian, Inc.
 340 Quinnipiac St., Bldg. 40, Wallingford CT 06492
  
  
 ---------------------------------------------------------------
 Warning -- This program may not be used in any manner that
 competes with the business of Gaussian, Inc. or will provide
 assistance to any competitor of Gaussian, Inc.  The licensee
 of this program is prohibited from giving any competitor of
 Gaussian, Inc. access to this program.  By using this program,
 the user acknowledges that Gaussian, Inc. is engaged in the
 business of creating and licensing software in the field of
 computational chemistry and represents and warrants to the
 licensee that it is not a competitor of Gaussian, Inc. and that
 it will not use this program in any manner prohibited above.
 ---------------------------------------------------------------
  

 Cite this work as:
 Gaussian 09, Revision A.02,
 M. J. Frisch, G. W. Trucks, H. B. Schlegel, G. E. Scuseria, 
 M. A. Robb, J. R. Cheeseman, G. Scalmani, V. Barone, B. Mennucci, 
 G. A. Petersson, H. Nakatsuji, M. Caricato, X. Li, H. P. Hratchian, 
 A. F. Izmaylov, J. Bloino, G. Zheng, J. L. Sonnenberg, M. Hada, 
 M. Ehara, K. Toyota, R. Fukuda, J. Hasegawa, M. Ishida, T. Nakajima, 
 Y. Honda, O. Kitao, H. Nakai, T. Vreven, J. A. Montgomery, Jr., 
 J. E. Peralta, F. Ogliaro, M. Bearpark, J. J. Heyd, E. Brothers, 
 K. N. Kudin, V. N. Staroverov, R. Kobayashi, J. Normand, 
 K. Raghavachari, A. Rendell, J. C. Burant, S. S. Iyengar, J. Tomasi, 
 M. Cossi, N. Rega, J. M. Millam, M. Klene, J. E. Knox, J. B. Cross, 
 V. Bakken, C. Adamo, J. Jaramillo, R. Gomperts, R. E. Stratmann, 
 O. Yazyev, A. J. Austin, R. Cammi, C. Pomelli, J. W. Ochterski, 
 R. L. Martin, K. Morokuma, V. G. Zakrzewski, G. A. Voth, 
 P. Salvador, J. J. Dannenberg, S. Dapprich, A. D. Daniels, 
 O. Farkas, J. B. Foresman, J. V. Ortiz, J. Cioslowski, 
 and D. J. Fox, Gaussian, Inc., Wallingford CT, 2009.
 
 ******************************************
 Gaussian 09:  EM64L-G09RevA.02 11-Jun-2009
                10-Feb-2017 
 ******************************************
 %chk=structure_105.chk
 %NProcShared=8
 Will use up to    8 processors via shared memory.
 ----------------------------------------------------------------------
 # b3lyp/6-31G* Opt=(ModRedundant, maxcycles=1000, calcfc) geom=nocrowd
 ----------------------------------------------------------------------
 1/6=1000,10=4,14=-1,18=120,19=15,26=3,38=1/1,3;
 2/9=110,12=1,17=6,18=5,40=1/2;
 3/5=1,6=6,7=1,11=2,16=1,25=1,30=1,71=2,74=-5/1,2,3;
 4//1;
 5/5=2,38=5/2;
 8/6=4,10=90,11=11/1;
 11/6=1,8=1,9=11,15=111,16=1/1,2,10;
 10/6=1,7=6,13=1/2;
 6/7=2,8=2,9=2,10=2,28=1/1;
 7/10=1,18=20,25=1/1,2,3,16;
 1/6=1000,10=4,14=-1,18=20,19=15/3(2);
 2/9=110,12=1/2;
 99//99;
 2/9=110,12=1/2;
 3/5=1,6=6,7=1,11=2,16=1,25=1,30=1,71=1,74=-5/1,2,3;
 4/5=5,16=3/1;
 5/5=2,38=5/2;
 7//1,2,3,16;
 1/6=1000,14=-1,18=20,19=15/3(-5);
 2/9=110,12=1/2;
 6/7=2,8=2,9=2,10=2,19=2,28=1/1;
 99/9=1/99;
 ------------------
 Phi Psi fixed scan
 ------------------
 Symbolic Z-matrix:
 Charge =  0 Multiplicity = 1
 H                     1.7437    1.5164   -1.3919 
 C                     1.8708    2.3503   -0.7015 
 H                     1.709     2.0051    0.3197 
 H                     1.1495    3.1323   -0.9387 
 C                     3.2798    2.9381   -0.8014 
 O                     4.0982    2.4665   -1.5877 
 N                     3.5554    3.9697    0. 
 H                     2.8491    4.3224    0.63 
 C                     4.8533    4.6139    0. 
 H                     5.4076    4.3155    0.8898 
 C                     5.6613    4.2208   -1.2322 
 H                     5.1233    4.5214   -2.1312 
 H                     6.6305    4.7189   -1.2058 
 H                     5.8085    3.1409   -1.2414 
 C                     4.7127    6.1294    0. 
 O                     4.3822    6.7252   -1.0229 
 N                     4.9651    6.7532    1.153 
 H                     5.2337    6.2197    1.9675 
 C                     4.8663    8.193     1.2823 
 H                     4.5691    8.6246    0.3266 
 H                     4.1219    8.4401    2.0392 
 H                     5.8336    8.5989    1.5786 
 
 The following ModRedundant input section has been read:
 D    5    7    9   15 F                                                       
 D    7    9   15   17 F                                                       

 GradGradGradGradGradGradGradGradGradGradGradGradGradGradGradGradGradGrad
 Berny optimization.
 Initialization pass.
                           ----------------------------
                           !    Initial Parameters    !
                           ! (Angstroms and Degrees)  !
 --------------------------                            --------------------------
 ! Name  Definition              Value          Derivative Info.                !
 --------------------------------------------------------------------------------
 ! R1    R(1,2)                  1.09           calculate D2E/DX2 analytically  !
 ! R2    R(2,3)                  1.09           calculate D2E/DX2 analytically  !
 ! R3    R(2,4)                  1.09           calculate D2E/DX2 analytically  !
 ! R4    R(2,5)                  1.53           calculate D2E/DX2 analytically  !
 ! R5    R(5,6)                  1.229          calculate D2E/DX2 analytically  !
 ! R6    R(5,7)                  1.3351         calculate D2E/DX2 analytically  !
 ! R7    R(7,8)                  1.01           calculate D2E/DX2 analytically  !
 ! R8    R(7,9)                  1.449          calculate D2E/DX2 analytically  !
 ! R9    R(9,10)                 1.09           calculate D2E/DX2 analytically  !
 ! R10   R(9,11)                 1.525          calculate D2E/DX2 analytically  !
 ! R11   R(9,15)                 1.522          calculate D2E/DX2 analytically  !
 ! R12   R(11,12)                1.09           calculate D2E/DX2 analytically  !
 ! R13   R(11,13)                1.09           calculate D2E/DX2 analytically  !
 ! R14   R(11,14)                1.0899         calculate D2E/DX2 analytically  !
 ! R15   R(15,16)                1.229          calculate D2E/DX2 analytically  !
 ! R16   R(15,17)                1.335          calculate D2E/DX2 analytically  !
 ! R17   R(17,18)                1.01           calculate D2E/DX2 analytically  !
 ! R18   R(17,19)                1.449          calculate D2E/DX2 analytically  !
 ! R19   R(19,20)                1.0899         calculate D2E/DX2 analytically  !
 ! R20   R(19,21)                1.09           calculate D2E/DX2 analytically  !
 ! R21   R(19,22)                1.0901         calculate D2E/DX2 analytically  !
 ! A1    A(1,2,3)              109.4991         calculate D2E/DX2 analytically  !
 ! A2    A(1,2,4)              109.5033         calculate D2E/DX2 analytically  !
 ! A3    A(1,2,5)              111.0965         calculate D2E/DX2 analytically  !
 ! A4    A(3,2,4)              109.4419         calculate D2E/DX2 analytically  !
 ! A5    A(3,2,5)              108.6351         calculate D2E/DX2 analytically  !
 ! A6    A(4,2,5)              108.6381         calculate D2E/DX2 analytically  !
 ! A7    A(2,5,6)              120.5047         calculate D2E/DX2 analytically  !
 ! A8    A(2,5,7)              116.6015         calculate D2E/DX2 analytically  !
 ! A9    A(6,5,7)              122.8938         calculate D2E/DX2 analytically  !
 ! A10   A(5,7,8)              119.9924         calculate D2E/DX2 analytically  !
 ! A11   A(5,7,9)              121.9002         calculate D2E/DX2 analytically  !
 ! A12   A(8,7,9)              118.1074         calculate D2E/DX2 analytically  !
 ! A13   A(7,9,10)             109.5            calculate D2E/DX2 analytically  !
 ! A14   A(7,9,11)             111.0992         calculate D2E/DX2 analytically  !
 ! A15   A(7,9,15)             111.0966         calculate D2E/DX2 analytically  !
 ! A16   A(10,9,11)            108.6382         calculate D2E/DX2 analytically  !
 ! A17   A(10,9,15)            108.6373         calculate D2E/DX2 analytically  !
 ! A18   A(11,9,15)            107.7947         calculate D2E/DX2 analytically  !
 ! A19   A(9,11,12)            109.5007         calculate D2E/DX2 analytically  !
 ! A20   A(9,11,13)            109.4959         calculate D2E/DX2 analytically  !
 ! A21   A(9,11,14)            109.4978         calculate D2E/DX2 analytically  !
 ! A22   A(12,11,13)           109.441          calculate D2E/DX2 analytically  !
 ! A23   A(12,11,14)           109.4482         calculate D2E/DX2 analytically  !
 ! A24   A(13,11,14)           109.4436         calculate D2E/DX2 analytically  !
 ! A25   A(9,15,16)            120.5            calculate D2E/DX2 analytically  !
 ! A26   A(9,15,17)            116.6027         calculate D2E/DX2 analytically  !
 ! A27   A(16,15,17)           122.8974         calculate D2E/DX2 analytically  !
 ! A28   A(15,17,18)           119.9957         calculate D2E/DX2 analytically  !
 ! A29   A(15,17,19)           121.9032         calculate D2E/DX2 analytically  !
 ! A30   A(18,17,19)           118.1011         calculate D2E/DX2 analytically  !
 ! A31   A(17,19,20)           109.5012         calculate D2E/DX2 analytically  !
 ! A32   A(17,19,21)           109.4994         calculate D2E/DX2 analytically  !
 ! A33   A(17,19,22)           109.4971         calculate D2E/DX2 analytically  !
 ! A34   A(20,19,21)           109.4444         calculate D2E/DX2 analytically  !
 ! A35   A(20,19,22)           109.4425         calculate D2E/DX2 analytically  !
 ! A36   A(21,19,22)           109.4426         calculate D2E/DX2 analytically  !
 ! D1    D(1,2,5,6)              0.0029         calculate D2E/DX2 analytically  !
 ! D2    D(1,2,5,7)            179.998          calculate D2E/DX2 analytically  !
 ! D3    D(3,2,5,6)            120.5113         calculate D2E/DX2 analytically  !
 ! D4    D(3,2,5,7)            -59.4936         calculate D2E/DX2 analytically  !
 ! D5    D(4,2,5,6)           -120.5126         calculate D2E/DX2 analytically  !
 ! D6    D(4,2,5,7)             59.4825         calculate D2E/DX2 analytically  !
 ! D7    D(2,5,7,8)              0.0069         calculate D2E/DX2 analytically  !
 ! D8    D(2,5,7,9)            180.0            calculate D2E/DX2 analytically  !
 ! D9    D(6,5,7,8)           -179.9982         calculate D2E/DX2 analytically  !
 ! D10   D(6,5,7,9)             -0.0051         calculate D2E/DX2 analytically  !
 ! D11   D(5,7,9,10)          -104.9962         calculate D2E/DX2 analytically  !
 ! D12   D(5,7,9,11)            15.0064         calculate D2E/DX2 analytically  !
 ! D13   D(5,7,9,15)           135.004          frozen, calculate D2E/DX2 analyt!
 ! D14   D(8,7,9,10)            74.9971         calculate D2E/DX2 analytically  !
 ! D15   D(8,7,9,11)          -165.0003         calculate D2E/DX2 analytically  !
 ! D16   D(8,7,9,15)           -45.0028         calculate D2E/DX2 analytically  !
 ! D17   D(7,9,11,12)           60.0024         calculate D2E/DX2 analytically  !
 ! D18   D(7,9,11,13)          179.9986         calculate D2E/DX2 analytically  !
 ! D19   D(7,9,11,14)          -60.0038         calculate D2E/DX2 analytically  !
 ! D20   D(10,9,11,12)        -179.4843         calculate D2E/DX2 analytically  !
 ! D21   D(10,9,11,13)         -59.4881         calculate D2E/DX2 analytically  !
 ! D22   D(10,9,11,14)          60.5095         calculate D2E/DX2 analytically  !
 ! D23   D(15,9,11,12)         -61.938          calculate D2E/DX2 analytically  !
 ! D24   D(15,9,11,13)          58.0582         calculate D2E/DX2 analytically  !
 ! D25   D(15,9,11,14)         178.0558         calculate D2E/DX2 analytically  !
 ! D26   D(7,9,15,16)          -75.0019         calculate D2E/DX2 analytically  !
 ! D27   D(7,9,15,17)          105.0            frozen, calculate D2E/DX2 analyt!
 ! D28   D(10,9,15,16)         164.487          calculate D2E/DX2 analytically  !
 ! D29   D(10,9,15,17)         -15.5111         calculate D2E/DX2 analytically  !
 ! D30   D(11,9,15,16)          46.9401         calculate D2E/DX2 analytically  !
 ! D31   D(11,9,15,17)        -133.058          calculate D2E/DX2 analytically  !
 ! D32   D(9,15,17,18)          -0.0049         calculate D2E/DX2 analytically  !
 ! D33   D(9,15,17,19)        -179.9992         calculate D2E/DX2 analytically  !
 ! D34   D(16,15,17,18)        179.9971         calculate D2E/DX2 analytically  !
 ! D35   D(16,15,17,19)          0.0028         calculate D2E/DX2 analytically  !
 ! D36   D(15,17,19,20)         -0.0018         calculate D2E/DX2 analytically  !
 ! D37   D(15,17,19,21)        120.0011         calculate D2E/DX2 analytically  !
 ! D38   D(15,17,19,22)       -120.0008         calculate D2E/DX2 analytically  !
 ! D39   D(18,17,19,20)       -179.9962         calculate D2E/DX2 analytically  !
 ! D40   D(18,17,19,21)        -59.9933         calculate D2E/DX2 analytically  !
 ! D41   D(18,17,19,22)         60.0047         calculate D2E/DX2 analytically  !
 --------------------------------------------------------------------------------
 Trust Radius=3.00D-01 FncErr=1.00D-07 GrdErr=1.00D-06
 Number of steps in this run= 132 maximum allowed number of steps= 132.
 GradGradGradGradGradGradGradGradGradGradGradGradGradGradGradGradGradGrad

                          Input orientation:                          
 ---------------------------------------------------------------------
 Center     Atomic      Atomic             Coordinates (Angstroms)
 Number     Number       Type             X           Y           Z
 ---------------------------------------------------------------------
      1          1           0        1.743700    1.516400   -1.391900
      2          6           0        1.870800    2.350300   -0.701500
      3          1           0        1.709000    2.005100    0.319700
      4          1           0        1.149500    3.132300   -0.938700
      5          6           0        3.279800    2.938100   -0.801400
      6          8           0        4.098200    2.466500   -1.587700
      7          7           0        3.555400    3.969700    0.000000
      8          1           0        2.849100    4.322400    0.630000
      9          6           0        4.853300    4.613900    0.000000
     10          1           0        5.407600    4.315500    0.889800
     11          6           0        5.661300    4.220800   -1.232200
     12          1           0        5.123300    4.521400   -2.131200
     13          1           0        6.630500    4.718900   -1.205800
     14          1           0        5.808500    3.140900   -1.241400
     15          6           0        4.712700    6.129400    0.000000
     16          8           0        4.382200    6.725200   -1.022900
     17          7           0        4.965100    6.753200    1.153000
     18          1           0        5.233700    6.219700    1.967500
     19          6           0        4.866300    8.193000    1.282300
     20          1           0        4.569100    8.624600    0.326600
     21          1           0        4.121900    8.440100    2.039200
     22          1           0        5.833600    8.598900    1.578600
 ---------------------------------------------------------------------
                    Distance matrix (angstroms):
                    1          2          3          4          5
     1  H    0.000000
     2  C    1.090044   0.000000
     3  H    1.780339   1.090042   0.000000
     4  H    1.780336   1.089982   1.779660   0.000000
     5  C    2.174747   1.529957   2.143541   2.143535   0.000000
     6  O    2.546507   2.400034   3.091818   3.091815   1.229005
     7  N    3.352361   2.439761   2.714969   2.714913   1.335064
     8  H    3.630926   2.572769   2.601152   2.601115   2.037325
     9  C    4.604509   3.809369   4.098130   4.098101   2.434430
    10  H    5.144442   4.347781   4.398023   4.782760   3.047117
    11  C    4.763074   4.260083   4.789404   4.650518   2.739060
    12  H    4.582389   4.163709   4.898584   4.375242   2.770144
    13  H    5.845635   5.340349   5.823489   5.712268   3.816016
    14  H    4.379983   4.052409   4.531333   4.668831   2.574694
    15  C    5.659692   4.780177   5.112169   4.749754   3.588849
    16  O    5.850593   5.054718   5.588194   4.833877   3.950503
    17  N    6.654172   5.692046   5.817304   5.660824   4.605964
    18  H    6.751792   5.779698   5.735992   5.887166   4.717354
    19  C    7.840852   6.858981   7.013220   6.660190   5.871351
    20  H    7.839811   6.906856   7.210964   6.592420   5.938936
    21  H    8.084918   7.047308   7.084348   6.773167   6.249012
    22  H    8.701319   7.742586   7.878791   7.626356   6.650635
                    6          7          8          9         10
     6  O    0.000000
     7  N    2.252783   0.000000
     8  H    3.150049   1.010028   0.000000
     9  C    2.775301   1.448978   2.121012   0.000000
    10  H    3.357281   2.083739   2.571666   1.089970   0.000000
    11  C    2.376390   2.452791   3.374401   1.525027   2.139209
    12  H    2.359838   2.702720   3.582710   2.150225   3.041326
    13  H    3.410527   3.386959   4.222127   2.150214   2.459625
    14  H    1.870793   2.702673   3.695420   2.150165   2.466256
    15  C    4.039213   2.450234   2.671171   1.522008   2.136554
    16  O    4.305367   3.053310   3.294833   2.392874   3.242919
    17  N    5.161274   3.326340   3.264931   2.432799   2.491478
    18  H    5.292950   3.427863   3.327908   2.567947   2.194916
    19  C    6.451332   4.604239   4.413177   3.801897   3.934726
    20  H    6.465948   4.775181   4.643208   4.033999   4.425903
    21  H    6.988481   4.946083   4.534459   4.396941   4.470623
    22  H    7.116418   5.395523   5.300522   4.396952   4.359293
                   11         12         13         14         15
    11  C    0.000000
    12  H    1.089957   0.000000
    13  H    1.090023   1.779613   0.000000
    14  H    1.089925   1.779613   1.779617   0.000000
    15  C    2.461892   2.701161   2.668599   3.416575   0.000000
    16  O    2.819915   2.575712   3.018865   3.863843   1.229037
    17  N    3.547805   3.973906   3.532120   4.415109   1.335006
    18  H    3.796910   4.437990   3.778000   4.484021   2.037315
    19  C    4.767925   5.019828   4.623031   5.725427   2.434406
    20  H    4.797522   4.814994   4.674624   5.836583   2.520578
    21  H    5.556465   5.809582   5.538089   6.456661   3.137948
    22  H    5.205578   5.558161   4.841728   6.143516   3.137965
                   16         17         18         19         20
    16  O    0.000000
    17  N    2.252798   0.000000
    18  H    3.150091   1.010039   0.000000
    19  C    2.775380   1.448967   2.120942   0.000000
    20  H    2.337478   2.083720   2.986267   1.089940   0.000000
    21  H    3.519246   2.083739   2.484234   1.089994   1.779614
    22  H    3.519249   2.083755   2.484294   1.090054   1.779642
                   21         22
    21  H    0.000000
    22  H    1.779687   0.000000
 Stoichiometry    C6H12N2O2
 Framework group  C1[X(C6H12N2O2)]
 Deg. of freedom    60
 Full point group                 C1      NOp   1
 Largest Abelian subgroup         C1      NOp   1
 Largest concise Abelian subgroup C1      NOp   1
                         Standard orientation:                         
 ---------------------------------------------------------------------
 Center     Atomic      Atomic             Coordinates (Angstroms)
 Number     Number       Type             X           Y           Z
 ---------------------------------------------------------------------
      1          1           0       -4.148450   -1.070183    0.449827
      2          6           0       -3.144800   -1.431394    0.225305
      3          1           0       -3.175474   -2.062523   -0.662911
      4          1           0       -2.769213   -2.010375    1.068973
      5          6           0       -2.186072   -0.267766   -0.034659
      6          8           0       -2.584147    0.893516    0.023751
      7          7           0       -0.921955   -0.587349   -0.321489
      8          1           0       -0.642174   -1.557168   -0.357948
      9          6           0        0.081856    0.423190   -0.587407
     10          1           0        0.289270    0.457421   -1.656913
     11          6           0       -0.393858    1.800944   -0.138856
     12          1           0       -0.596848    1.784989    0.931913
     13          1           0        0.379343    2.539514   -0.350571
     14          1           0       -1.304346    2.064420   -0.676934
     15          6           0        1.377465    0.115699    0.149719
     16          8           0        1.465298    0.302597    1.361283
     17          7           0        2.385901   -0.357763   -0.585897
     18          1           0        2.265435   -0.494635   -1.579342
     19          6           0        3.670072   -0.688811   -0.002102
     20          1           0        3.645216   -0.488830    1.069046
     21          1           0        3.884489   -1.744351   -0.169275
     22          1           0        4.447948   -0.082576   -0.466436
 ---------------------------------------------------------------------
 Rotational constants (GHZ):      2.9039362      0.6848195      0.6241129
 Standard basis: 6-31G(d) (6D, 7F)
 There are   174 symmetry adapted basis functions of A   symmetry.
 Integral buffers will be    131072 words long.
 Raffenetti 2 integral format.
 Two-electron integral symmetry is turned on.
   174 basis functions,   328 primitive gaussians,   174 cartesian basis functions
    39 alpha electrons       39 beta electrons
       nuclear repulsion energy       558.4795896961 Hartrees.
 NAtoms=   22 NActive=   22 NUniq=   22 SFac= 7.50D-01 NAtFMM=   80 NAOKFM=F Big=F
 One-electron integrals computed using PRISM.
 NBasis=   174 RedAO= T  NBF=   174
 NBsUse=   174 1.00D-06 NBFU=   174
 Harris functional with IExCor=  402 diagonalized for initial guess.
 ExpMin= 1.61D-01 ExpMax= 5.48D+03 ExpMxC= 8.25D+02 IAcc=1 IRadAn=         1 AccDes= 0.00D+00
 HarFok:  IExCor=  402 AccDes= 0.00D+00 IRadAn=         1 IDoV= 1
 ScaDFX=  1.000000  1.000000  1.000000  1.000000
 FoFCou: FMM=F IPFlag=           0 FMFlag=      100000 FMFlg1=           0
         NFxFlg=           0 DoJE=T BraDBF=F KetDBF=T FulRan=T
         Omega=  0.000000  0.000000  1.000000  0.000000  0.000000 ICntrl=     500 IOpCl=  0
         NMat0=    1 NMatS0=    1 NMatT0=    0 NMatD0=    1 NMtDS0=    0 NMtDT0=    0
         I1Cent=           4 NGrid=           0.
 Petite list used in FoFCou.
 Initial guess orbital symmetries:
       Occupied  (A) (A) (A) (A) (A) (A) (A) (A) (A) (A) (A) (A)
                 (A) (A) (A) (A) (A) (A) (A) (A) (A) (A) (A) (A)
                 (A) (A) (A) (A) (A) (A) (A) (A) (A) (A) (A) (A)
                 (A) (A) (A)
       Virtual   (A) (A) (A) (A) (A) (A) (A) (A) (A) (A) (A) (A)
                 (A) (A) (A) (A) (A) (A) (A) (A) (A) (A) (A) (A)
                 (A) (A) (A) (A) (A) (A) (A) (A) (A) (A) (A) (A)
                 (A) (A) (A) (A) (A) (A) (A) (A) (A) (A) (A) (A)
                 (A) (A) (A) (A) (A) (A) (A) (A) (A) (A) (A) (A)
                 (A) (A) (A) (A) (A) (A) (A) (A) (A) (A) (A) (A)
                 (A) (A) (A) (A) (A) (A) (A) (A) (A) (A) (A) (A)
                 (A) (A) (A) (A) (A) (A) (A) (A) (A) (A) (A) (A)
                 (A) (A) (A) (A) (A) (A) (A) (A) (A) (A) (A) (A)
                 (A) (A) (A) (A) (A) (A) (A) (A) (A) (A) (A) (A)
                 (A) (A) (A) (A) (A) (A) (A) (A) (A) (A) (A) (A)
                 (A) (A) (A)
 The electronic state of the initial guess is 1-A.
 Requested convergence on RMS density matrix=1.00D-08 within 128 cycles.
 Requested convergence on MAX density matrix=1.00D-06.
 Requested convergence on             energy=1.00D-06.
 No special actions if energy rises.
 Integral accuracy reduced to 1.0D-05 until final iterations.
 Initial convergence to 1.0D-05 achieved.  Increase integral accuracy.
 SCF Done:  E(RB3LYP) =  -495.815103861     A.U. after   15 cycles
             Convg  =    0.7256D-08             -V/T =  2.0084
 Range of M.O.s used for correlation:     1   174
 NBasis=   174 NAE=    39 NBE=    39 NFC=     0 NFV=     0
 NROrb=    174 NOA=    39 NOB=    39 NVA=   135 NVB=   135
 Symmetrizing basis deriv contribution to polar:
 IMax=3 JMax=2 DiffMx= 0.00D+00
 G2DrvN: will do    23 centers at a time, making    1 passes doing MaxLOS=2.
 Calling FoFCou, ICntrl=  3107 FMM=F I1Cent=   0 AccDes= 0.00D+00.
 FoFDir/FoFCou used for L=0 through L=2.
 End of G2Drv Frequency-dependent properties file   721 does not exist.
 End of G2Drv Frequency-dependent properties file   722 does not exist.
          IDoAtm=1111111111111111111111
          Differentiating once with respect to nuclear coordinates.
          There are    69 degrees of freedom in the 1st order CPHF.  IDoFFX=5.
     63 vectors produced by pass  0 Test12= 7.63D-11 1.45D-07 XBig12= 1.83D-01 8.79D-02.
 AX will form    63 AO Fock derivatives at one time.
     63 vectors produced by pass  1 Test12= 7.63D-11 1.45D-07 XBig12= 3.60D-02 5.50D-02.
     63 vectors produced by pass  2 Test12= 7.63D-11 1.45D-07 XBig12= 4.15D-05 1.20D-03.
     63 vectors produced by pass  3 Test12= 7.63D-11 1.45D-07 XBig12= 1.05D-07 4.86D-05.
     29 vectors produced by pass  4 Test12= 7.63D-11 1.45D-07 XBig12= 8.67D-11 1.76D-06.
 Inverted reduced A of dimension   281 with in-core refinement.
 End of Minotr Frequency-dependent properties file   721 does not exist.
 End of Minotr Frequency-dependent properties file   722 does not exist.

 **********************************************************************

            Population analysis using the SCF density.

 **********************************************************************

 Orbital symmetries:
       Occupied  (A) (A) (A) (A) (A) (A) (A) (A) (A) (A) (A) (A)
                 (A) (A) (A) (A) (A) (A) (A) (A) (A) (A) (A) (A)
                 (A) (A) (A) (A) (A) (A) (A) (A) (A) (A) (A) (A)
                 (A) (A) (A)
       Virtual   (A) (A) (A) (A) (A) (A) (A) (A) (A) (A) (A) (A)
                 (A) (A) (A) (A) (A) (A) (A) (A) (A) (A) (A) (A)
                 (A) (A) (A) (A) (A) (A) (A) (A) (A) (A) (A) (A)
                 (A) (A) (A) (A) (A) (A) (A) (A) (A) (A) (A) (A)
                 (A) (A) (A) (A) (A) (A) (A) (A) (A) (A) (A) (A)
                 (A) (A) (A) (A) (A) (A) (A) (A) (A) (A) (A) (A)
                 (A) (A) (A) (A) (A) (A) (A) (A) (A) (A) (A) (A)
                 (A) (A) (A) (A) (A) (A) (A) (A) (A) (A) (A) (A)
                 (A) (A) (A) (A) (A) (A) (A) (A) (A) (A) (A) (A)
                 (A) (A) (A) (A) (A) (A) (A) (A) (A) (A) (A) (A)
                 (A) (A) (A) (A) (A) (A) (A) (A) (A) (A) (A) (A)
                 (A) (A) (A)
 The electronic state is 1-A.
 Alpha  occ. eigenvalues --  -19.10481 -19.09368 -14.37278 -14.36471 -10.28186
 Alpha  occ. eigenvalues --  -10.28022 -10.23184 -10.22285 -10.18686 -10.15039
 Alpha  occ. eigenvalues --   -1.03483  -1.02549  -0.93135  -0.92724  -0.78164
 Alpha  occ. eigenvalues --   -0.72849  -0.71038  -0.64212  -0.59763  -0.57618
 Alpha  occ. eigenvalues --   -0.54249  -0.50265  -0.48034  -0.46282  -0.45089
 Alpha  occ. eigenvalues --   -0.44260  -0.41632  -0.40855  -0.39570  -0.39278
 Alpha  occ. eigenvalues --   -0.38296  -0.36882  -0.35916  -0.35497  -0.34357
 Alpha  occ. eigenvalues --   -0.26248  -0.25674  -0.23930  -0.21975
 Alpha virt. eigenvalues --    0.02158   0.03936   0.06097   0.08242   0.11813
 Alpha virt. eigenvalues --    0.13198   0.14082   0.15379   0.15982   0.16268
 Alpha virt. eigenvalues --    0.17370   0.17814   0.18665   0.19493   0.21240
 Alpha virt. eigenvalues --    0.22404   0.23964   0.26470   0.26889   0.32828
 Alpha virt. eigenvalues --    0.35002   0.40440   0.42931   0.50975   0.51450
 Alpha virt. eigenvalues --    0.52418   0.53302   0.54761   0.55884   0.56477
 Alpha virt. eigenvalues --    0.59265   0.60407   0.60980   0.64615   0.66764
 Alpha virt. eigenvalues --    0.67113   0.68829   0.70476   0.71543   0.74543
 Alpha virt. eigenvalues --    0.76400   0.77214   0.78596   0.82335   0.83223
 Alpha virt. eigenvalues --    0.83854   0.86523   0.87586   0.87635   0.88547
 Alpha virt. eigenvalues --    0.89701   0.89863   0.91211   0.92840   0.93573
 Alpha virt. eigenvalues --    0.94965   0.95579   0.98068   0.98883   1.03701
 Alpha virt. eigenvalues --    1.05437   1.07894   1.11027   1.15721   1.19273
 Alpha virt. eigenvalues --    1.22117   1.25505   1.30122   1.33788   1.36115
 Alpha virt. eigenvalues --    1.39777   1.42720   1.44001   1.46967   1.48681
 Alpha virt. eigenvalues --    1.50684   1.56094   1.57569   1.63207   1.68437
 Alpha virt. eigenvalues --    1.72985   1.76022   1.77970   1.82999   1.83271
 Alpha virt. eigenvalues --    1.84406   1.87353   1.90016   1.92362   1.93767
 Alpha virt. eigenvalues --    1.94809   1.96081   1.99438   2.03130   2.05035
 Alpha virt. eigenvalues --    2.06007   2.07243   2.14759   2.17042   2.19488
 Alpha virt. eigenvalues --    2.21026   2.25096   2.27355   2.29052   2.29963
 Alpha virt. eigenvalues --    2.32678   2.35684   2.36406   2.40009   2.43928
 Alpha virt. eigenvalues --    2.44239   2.46946   2.51868   2.60960   2.63110
 Alpha virt. eigenvalues --    2.67115   2.69635   2.72282   2.78112   2.90541
 Alpha virt. eigenvalues --    2.91978   2.98979   2.99641   3.15875   3.20730
 Alpha virt. eigenvalues --    3.94184   3.98027   4.09197   4.19892   4.21794
 Alpha virt. eigenvalues --    4.25803   4.29971   4.40009   4.47341   4.67378
          Condensed to atoms (all electrons):
              1          2          3          4          5          6
     1  H    0.499204   0.359951  -0.021344  -0.020422  -0.017086   0.005209
     2  C    0.359951   5.332292   0.348538   0.351491   0.354718  -0.073278
     3  H   -0.021344   0.348538   0.560421  -0.026966  -0.026691   0.001247
     4  H   -0.020422   0.351491  -0.026966   0.548501  -0.028045   0.001163
     5  C   -0.017086   0.354718  -0.026691  -0.028045   4.342255   0.578869
     6  O    0.005209  -0.073278   0.001247   0.001163   0.578869   8.150493
     7  N    0.004611  -0.138074   0.005310   0.005566   0.248658  -0.098476
     8  H   -0.000151   0.000804   0.000782   0.000604  -0.017107   0.003833
     9  C   -0.000110   0.003536  -0.000028   0.000130  -0.033056  -0.011417
    10  H    0.000004  -0.000225   0.000020   0.000002  -0.000569   0.000268
    11  C    0.000011   0.000178   0.000018  -0.000031   0.000078  -0.045423
    12  H    0.000009  -0.000273   0.000005   0.000013   0.001762  -0.007275
    13  H   -0.000001   0.000033  -0.000001  -0.000002   0.000913   0.004635
    14  H    0.000014   0.000177  -0.000028   0.000007  -0.001171   0.000713
    15  C    0.000001  -0.000128  -0.000009   0.000030   0.001399   0.000037
    16  O    0.000000  -0.000007   0.000000   0.000002   0.000215  -0.000007
    17  N    0.000000   0.000001   0.000000   0.000000  -0.000082  -0.000004
    18  H    0.000000   0.000000   0.000000   0.000000   0.000004   0.000001
    19  C    0.000000   0.000000   0.000000   0.000000   0.000002   0.000000
    20  H    0.000000   0.000000   0.000000   0.000000   0.000000   0.000000
    21  H    0.000000   0.000000   0.000000   0.000000   0.000000   0.000000
    22  H    0.000000   0.000000   0.000000   0.000000   0.000000   0.000000
              7          8          9         10         11         12
     1  H    0.004611  -0.000151  -0.000110   0.000004   0.000011   0.000009
     2  C   -0.138074   0.000804   0.003536  -0.000225   0.000178  -0.000273
     3  H    0.005310   0.000782  -0.000028   0.000020   0.000018   0.000005
     4  H    0.005566   0.000604   0.000130   0.000002  -0.000031   0.000013
     5  C    0.248658  -0.017107  -0.033056  -0.000569   0.000078   0.001762
     6  O   -0.098476   0.003833  -0.011417   0.000268  -0.045423  -0.007275
     7  N    7.141376   0.299279   0.252150  -0.055923  -0.045085  -0.002705
     8  H    0.299279   0.418726  -0.036357   0.000772   0.005302  -0.000060
     9  C    0.252150  -0.036357   5.080852   0.355100   0.378707  -0.029467
    10  H   -0.055923   0.000772   0.355100   0.660776  -0.043918   0.005910
    11  C   -0.045085   0.005302   0.378707  -0.043918   5.126076   0.383785
    12  H   -0.002705  -0.000060  -0.029467   0.005910   0.383785   0.517926
    13  H    0.004487  -0.000093  -0.032777  -0.002151   0.329446  -0.030260
    14  H   -0.004800  -0.000291  -0.022137  -0.002418   0.369454  -0.023260
    15  C   -0.035183  -0.001086   0.310451  -0.056429  -0.033520  -0.008664
    16  O    0.000406   0.000209  -0.090865   0.003866  -0.003265   0.010792
    17  N   -0.002113   0.002437  -0.106965   0.006590   0.001186   0.000621
    18  H   -0.000058   0.000065   0.001960   0.005474  -0.000089  -0.000012
    19  C   -0.000119  -0.000080   0.006867  -0.000145  -0.000207   0.000003
    20  H   -0.000017  -0.000004   0.001261  -0.000076  -0.000011  -0.000014
    21  H    0.000024  -0.000013  -0.000163  -0.000006  -0.000005   0.000000
    22  H   -0.000003   0.000003  -0.000176  -0.000029   0.000028   0.000000
             13         14         15         16         17         18
     1  H   -0.000001   0.000014   0.000001   0.000000   0.000000   0.000000
     2  C    0.000033   0.000177  -0.000128  -0.000007   0.000001   0.000000
     3  H   -0.000001  -0.000028  -0.000009   0.000000   0.000000   0.000000
     4  H   -0.000002   0.000007   0.000030   0.000002   0.000000   0.000000
     5  C    0.000913  -0.001171   0.001399   0.000215  -0.000082   0.000004
     6  O    0.004635   0.000713   0.000037  -0.000007  -0.000004   0.000001
     7  N    0.004487  -0.004800  -0.035183   0.000406  -0.002113  -0.000058
     8  H   -0.000093  -0.000291  -0.001086   0.000209   0.002437   0.000065
     9  C   -0.032777  -0.022137   0.310451  -0.090865  -0.106965   0.001960
    10  H   -0.002151  -0.002418  -0.056429   0.003866   0.006590   0.005474
    11  C    0.329446   0.369454  -0.033520  -0.003265   0.001186  -0.000089
    12  H   -0.030260  -0.023260  -0.008664   0.010792   0.000621  -0.000012
    13  H    0.643129  -0.030110  -0.003031  -0.000720   0.000677   0.000012
    14  H   -0.030110   0.510862   0.004772   0.000465  -0.000085  -0.000021
    15  C   -0.003031   0.004772   4.424820   0.594494   0.248740  -0.018023
    16  O   -0.000720   0.000465   0.594494   8.091198  -0.102685   0.003679
    17  N    0.000677  -0.000085   0.248740  -0.102685   7.105176   0.300151
    18  H    0.000012  -0.000021  -0.018023   0.003679   0.300151   0.411963
    19  C   -0.000046   0.000003  -0.025992  -0.008981   0.257637  -0.032203
    20  H   -0.000007   0.000000  -0.000329   0.022665  -0.037690   0.003874
    21  H    0.000001   0.000000   0.001377   0.000597  -0.043732  -0.000892
    22  H   -0.000003   0.000000   0.001718   0.000582  -0.043023  -0.000713
             19         20         21         22
     1  H    0.000000   0.000000   0.000000   0.000000
     2  C    0.000000   0.000000   0.000000   0.000000
     3  H    0.000000   0.000000   0.000000   0.000000
     4  H    0.000000   0.000000   0.000000   0.000000
     5  C    0.000002   0.000000   0.000000   0.000000
     6  O    0.000000   0.000000   0.000000   0.000000
     7  N   -0.000119  -0.000017   0.000024  -0.000003
     8  H   -0.000080  -0.000004  -0.000013   0.000003
     9  C    0.006867   0.001261  -0.000163  -0.000176
    10  H   -0.000145  -0.000076  -0.000006  -0.000029
    11  C   -0.000207  -0.000011  -0.000005   0.000028
    12  H    0.000003  -0.000014   0.000000   0.000000
    13  H   -0.000046  -0.000007   0.000001  -0.000003
    14  H    0.000003   0.000000   0.000000   0.000000
    15  C   -0.025992  -0.000329   0.001377   0.001718
    16  O   -0.008981   0.022665   0.000597   0.000582
    17  N    0.257637  -0.037690  -0.043732  -0.043023
    18  H   -0.032203   0.003874  -0.000892  -0.000713
    19  C    4.977842   0.375424   0.382534   0.382356
    20  H    0.375424   0.468818  -0.023918  -0.023611
    21  H    0.382534  -0.023918   0.565061  -0.038076
    22  H    0.382356  -0.023611  -0.038076   0.559101
 Mulliken atomic charges:
              1
     1  H    0.190100
     2  C   -0.539736
     3  H    0.158726
     4  H    0.167956
     5  C    0.594934
     6  O   -0.510589
     7  N   -0.579310
     8  H    0.322427
     9  C   -0.027495
    10  H    0.123106
    11  C   -0.422715
    12  H    0.181166
    13  H    0.115867
    14  H    0.197854
    15  C    0.594556
    16  O   -0.522641
    17  N   -0.586837
    18  H    0.324828
    19  C   -0.314894
    20  H    0.213636
    21  H    0.157213
    22  H    0.161848
 Sum of Mulliken atomic charges =   0.00000
 Mulliken charges with hydrogens summed into heavy atoms:
              1
     2  C   -0.022953
     5  C    0.594934
     6  O   -0.510589
     7  N   -0.256884
     9  C    0.095611
    11  C    0.072172
    15  C    0.594556
    16  O   -0.522641
    17  N   -0.262009
    19  C    0.217802
 Sum of Mulliken charges with hydrogens summed into heavy atoms =   0.00000
 APT atomic charges:
              1
     1  H    0.720186
     2  C   -1.224947
     3  H    0.412484
     4  H    0.299904
     5  C   -0.064162
     6  O   -0.126123
     7  N   -0.639854
     8  H    0.517834
     9  C   -0.445358
    10  H    0.374232
    11  C   -1.120267
    12  H    0.332302
    13  H    0.436753
    14  H    0.465546
    15  C   -0.031153
    16  O   -0.228984
    17  N   -0.378099
    18  H    0.552789
    19  C   -1.412128
    20  H    0.399741
    21  H    0.522124
    22  H    0.637182
 Sum of APT charges=   0.00000
 APT Atomic charges with hydrogens summed into heavy atoms:
              1
     1  H    0.000000
     2  C    0.207627
     3  H    0.000000
     4  H    0.000000
     5  C   -0.064162
     6  O   -0.126123
     7  N   -0.122020
     8  H    0.000000
     9  C   -0.071127
    10  H    0.000000
    11  C    0.114333
    12  H    0.000000
    13  H    0.000000
    14  H    0.000000
    15  C   -0.031153
    16  O   -0.228984
    17  N    0.174690
    18  H    0.000000
    19  C    0.146919
    20  H    0.000000
    21  H    0.000000
    22  H    0.000000
 Sum of APT charges=   0.00000
 Electronic spatial extent (au):  <R**2>=           1899.6013
 Charge=              0.0000 electrons
 Dipole moment (field-independent basis, Debye):
    X=              2.5986    Y=             -4.0097    Z=             -3.5992  Tot=              5.9821
 Quadrupole moment (field-independent basis, Debye-Ang):
   XX=            -56.9844   YY=            -58.3677   ZZ=            -60.9681
   XY=              3.9199   XZ=             -5.6541   YZ=             -0.2019
 Traceless Quadrupole moment (field-independent basis, Debye-Ang):
   XX=              1.7890   YY=              0.4057   ZZ=             -2.1947
   XY=              3.9199   XZ=             -5.6541   YZ=             -0.2019
 Octapole moment (field-independent basis, Debye-Ang**2):
  XXX=             41.0343  YYY=             -6.1934  ZZZ=             -7.2882  XYY=              2.6771
  XXY=            -25.1159  XXZ=             -6.8194  XZZ=             -0.5370  YZZ=             -2.7187
  YYZ=             -0.4697  XYZ=              0.4286
 Hexadecapole moment (field-independent basis, Debye-Ang**3):
 XXXX=          -1739.8431 YYYY=           -410.5702 ZZZZ=           -182.4452 XXXY=             20.9912
 XXXZ=            -13.7945 YYYX=             -6.5901 YYYZ=              5.1469 ZZZX=            -15.2117
 ZZZY=              3.5292 XXYY=           -381.6475 XXZZ=           -328.9722 YYZZ=            -97.7079
 XXYZ=             -0.8185 YYXZ=              1.2036 ZZXY=             -7.1205
 N-N= 5.584795896961D+02 E-N=-2.273567972892D+03  KE= 4.916636655345D+02
  Exact polarizability:   0.000   0.000   0.000   0.000   0.000   0.000
 Approx polarizability: 119.852 -13.044 109.451 -10.180   7.297 108.620
 Calling FoFJK, ICntrl=    100147 FMM=F ISym2X=0 I1Cent= 0 IOpClX= 0 NMat=1 NMatS=1 NMatT=0.
 ***** Axes restored to original set *****
 -------------------------------------------------------------------
 Center     Atomic                   Forces (Hartrees/Bohr)
 Number     Number              X              Y              Z
 -------------------------------------------------------------------
      1        1           0.003788019    0.001161540   -0.000598684
      2        6           0.005302040    0.008151499    0.004003725
      3        1          -0.005306149   -0.001607722    0.003695389
      4        1          -0.006444714    0.000839795    0.000971574
      5        6          -0.010212141   -0.035142064   -0.027575871
      6        8          -0.029173252   -0.022401936   -0.000941147
      7        7           0.000806340    0.018472805    0.014910636
      8        1          -0.001454018   -0.000619385   -0.000260661
      9        6           0.010807055    0.001484124   -0.001977374
     10        1           0.003113144   -0.003876638    0.008122149
     11        6           0.020550401    0.001336202    0.001261324
     12        1           0.003896927    0.000156562   -0.000344573
     13        1           0.003202436    0.007860164    0.001765962
     14        1           0.009103416    0.011797996   -0.002000853
     15        6          -0.012286569   -0.001978668   -0.027634005
     16        8          -0.001742496    0.000873504    0.001104525
     17        7           0.003319818    0.008695709    0.018598845
     18        1           0.000693917   -0.000726748   -0.000630112
     19        6           0.001716443    0.000524235    0.004124670
     20        1           0.000125656   -0.003430262   -0.000793166
     21        1          -0.002165013    0.004002171    0.002776016
     22        1           0.002358741    0.004427117    0.001421632
 -------------------------------------------------------------------
 Cartesian Forces:  Max     0.035142064 RMS     0.010027297

 GradGradGradGradGradGradGradGradGradGradGradGradGradGradGradGradGradGrad
 Berny optimization.
 Internal  Forces:  Max     0.122353844 RMS     0.022042922
 Search for a local minimum.
 Step number   1 out of a maximum of  132
 All quantities printed in internal units (Hartrees-Bohrs-Radians)
 Mixed Optimization -- RFO/linear search
 Second derivative matrix not updated -- analytic derivatives used.
     Eigenvalues ---   -0.02118  -0.00061  -0.00029   0.00405   0.00775
     Eigenvalues ---    0.01393   0.01951   0.02340   0.03903   0.04327
     Eigenvalues ---    0.04522   0.04719   0.05000   0.05812   0.05898
     Eigenvalues ---    0.05982   0.06385   0.06589   0.11897   0.11996
     Eigenvalues ---    0.12233   0.12435   0.13272   0.13357   0.13424
     Eigenvalues ---    0.14216   0.14246   0.17047   0.17753   0.18430
     Eigenvalues ---    0.18566   0.21222   0.22555   0.23462   0.23902
     Eigenvalues ---    0.24180   0.28997   0.31072   0.33280   0.34371
     Eigenvalues ---    0.34580   0.34601   0.35056   0.35098   0.35237
     Eigenvalues ---    0.35430   0.35728   0.35893   0.36058   0.37406
     Eigenvalues ---    0.39380   0.46684   0.46882   0.50884   0.54431
     Eigenvalues ---    0.80428   0.82704   1.856321000.000001000.00000
     Eigenvalues --- 1000.000001000.000001000.000001000.000001000.00000
     Eigenvalues --- 1000.000001000.000001000.000001000.000001000.00000
     Eigenvalues --- 1000.000001000.000001000.000001000.000001000.00000
     Eigenvalues --- 1000.000001000.000001000.000001000.000001000.00000
     Eigenvalues --- 1000.000001000.000001000.000001000.000001000.00000
     Eigenvalues --- 1000.000001000.000001000.000001000.000001000.00000
     Eigenvalues --- 1000.000001000.000001000.000001000.000001000.00000
     Eigenvalues --- 1000.000001000.000001000.00000
 RFO step:  Lambda=-3.10453243D-02 EMin=-2.11840696D-02
 Linear search not attempted -- first point.
 Maximum step size (   0.300) exceeded in Quadratic search.
    -- Step size scaled by   0.312
 Iteration  1 RMS(Cart)=  0.08306461 RMS(Int)=  0.00408447
 Iteration  2 RMS(Cart)=  0.00522319 RMS(Int)=  0.00007127
 Iteration  3 RMS(Cart)=  0.00002060 RMS(Int)=  0.00006971
 Iteration  4 RMS(Cart)=  0.00000000 RMS(Int)=  0.00006971
 Iteration  1 RMS(Cart)=  0.00002270 RMS(Int)=  0.00000769
 Iteration  2 RMS(Cart)=  0.00001373 RMS(Int)=  0.00000851
 Iteration  3 RMS(Cart)=  0.00000850 RMS(Int)=  0.00000974
 Iteration  4 RMS(Cart)=  0.00000536 RMS(Int)=  0.00001073
 Iteration  5 RMS(Cart)=  0.00000344 RMS(Int)=  0.00001143
 Iteration  6 RMS(Cart)=  0.00000224 RMS(Int)=  0.00001192
 Iteration  7 RMS(Cart)=  0.00000147 RMS(Int)=  0.00001225
 Iteration  8 RMS(Cart)=  0.00000097 RMS(Int)=  0.00001247
 Variable       Old X    -DE/DX   Delta X   Delta X   Delta X     New X
                                 (Linear)    (Quad)   (Total)
    R1        2.05988  -0.00095   0.00000  -0.00003  -0.00003   2.05985
    R2        2.05988   0.00476   0.00000   0.00360   0.00360   2.06348
    R3        2.05977   0.00466   0.00000   0.00317   0.00317   2.06294
    R4        2.89120  -0.00030   0.00000  -0.00258  -0.00258   2.88862
    R5        2.32248  -0.01023   0.00000  -0.00163  -0.00163   2.32085
    R6        2.52291   0.05880   0.00000   0.01784   0.01784   2.54075
    R7        1.90868   0.00064   0.00000   0.00051   0.00051   1.90919
    R8        2.73817   0.05210   0.00000   0.00760   0.00760   2.74577
    R9        2.05975   0.00928   0.00000   0.00564   0.00564   2.06538
   R10        2.88188   0.01347   0.00000   0.00812   0.00812   2.89000
   R11        2.87618   0.01308   0.00000   0.01376   0.01376   2.88994
   R12        2.05972  -0.00160   0.00000   0.00290   0.00290   2.06261
   R13        2.05984   0.00648   0.00000   0.00225   0.00225   2.06209
   R14        2.05966  -0.01044   0.00000  -0.00524  -0.00524   2.05442
   R15        2.32254  -0.00003   0.00000  -0.00320  -0.00320   2.31935
   R16        2.52280   0.02945   0.00000   0.01630   0.01630   2.53910
   R17        1.90870   0.00006   0.00000  -0.00008  -0.00008   1.90862
   R18        2.73815   0.00603   0.00000   0.00256   0.00256   2.74071
   R19        2.05969  -0.00069   0.00000   0.00025   0.00025   2.05994
   R20        2.05979   0.00431   0.00000   0.00313   0.00313   2.06292
   R21        2.05990   0.00413   0.00000   0.00356   0.00356   2.06347
    A1        1.91112  -0.00009   0.00000  -0.00068  -0.00064   1.91048
    A2        1.91119  -0.00003   0.00000  -0.00113  -0.00112   1.91007
    A3        1.93900  -0.00807   0.00000  -0.01172  -0.01170   1.92730
    A4        1.91012  -0.00511   0.00000  -0.00710  -0.00716   1.90296
    A5        1.89604   0.00670   0.00000   0.01343   0.01342   1.90946
    A6        1.89609   0.00665   0.00000   0.00730   0.00728   1.90337
    A7        2.10320  -0.02078   0.00000   0.00896   0.00884   2.11205
    A8        2.03508  -0.03989   0.00000  -0.01223  -0.01234   2.02274
    A9        2.14490   0.06068   0.00000   0.00328   0.00317   2.14807
   A10        2.09426  -0.06256   0.00000  -0.01133  -0.01166   2.08261
   A11        2.12756   0.12235   0.00000   0.01884   0.01851   2.14607
   A12        2.06136  -0.05980   0.00000  -0.00750  -0.00783   2.05354
   A13        1.91114  -0.01355   0.00000   0.00494   0.00493   1.91606
   A14        1.93905   0.07058   0.00000   0.00532   0.00508   1.94413
   A15        1.93900  -0.03338   0.00000  -0.02041  -0.02041   1.91859
   A16        1.89609  -0.01570   0.00000   0.01109   0.01106   1.90715
   A17        1.89608   0.01410   0.00000   0.00768   0.00772   1.90380
   A18        1.88137  -0.02274   0.00000  -0.00805  -0.00809   1.87329
   A19        1.91115   0.00438   0.00000  -0.00601  -0.00601   1.90514
   A20        1.91106  -0.01037   0.00000  -0.00088  -0.00092   1.91014
   A21        1.91110   0.01232   0.00000   0.01127   0.01125   1.92235
   A22        1.91011  -0.00092   0.00000  -0.00502  -0.00505   1.90506
   A23        1.91023  -0.00272   0.00000  -0.00659  -0.00657   1.90366
   A24        1.91015  -0.00270   0.00000   0.00724   0.00718   1.91733
   A25        2.10312   0.00507   0.00000   0.00844   0.00843   2.11155
   A26        2.03510  -0.00734   0.00000  -0.01043  -0.01044   2.02466
   A27        2.14496   0.00226   0.00000   0.00199   0.00198   2.14694
   A28        2.09432  -0.00349   0.00000  -0.00613  -0.00614   2.08818
   A29        2.12761   0.00526   0.00000   0.00422   0.00421   2.13182
   A30        2.06125  -0.00177   0.00000   0.00191   0.00189   2.06314
   A31        1.91116  -0.00696   0.00000  -0.01061  -0.01059   1.90057
   A32        1.91113   0.00490   0.00000   0.00587   0.00585   1.91698
   A33        1.91109   0.00498   0.00000   0.00929   0.00928   1.92036
   A34        1.91017   0.00018   0.00000   0.00051   0.00052   1.91068
   A35        1.91013   0.00012   0.00000  -0.00169  -0.00167   1.90846
   A36        1.91013  -0.00322   0.00000  -0.00337  -0.00341   1.90672
    D1        0.00005  -0.00070   0.00000   0.04814   0.04813   0.04818
    D2        3.14156   0.00072   0.00000   0.07493   0.07496  -3.06667
    D3        2.10332  -0.00147   0.00000   0.04873   0.04867   2.15199
    D4       -1.03836  -0.00005   0.00000   0.07553   0.07550  -0.96286
    D5       -2.10334   0.00004   0.00000   0.05207   0.05209  -2.05125
    D6        1.03817   0.00146   0.00000   0.07887   0.07892   1.11708
    D7        0.00012   0.00235   0.00000   0.06145   0.06152   0.06164
    D8        3.14159   0.00116   0.00000   0.11011   0.11009  -3.03150
    D9       -3.14156   0.00381   0.00000   0.08894   0.08896  -3.05260
   D10       -0.00009   0.00261   0.00000   0.13760   0.13753   0.13744
   D11       -1.83253  -0.00612   0.00000  -0.00012  -0.00012  -1.83265
   D12        0.26191   0.01011   0.00000   0.02025   0.02026   0.28217
   D13        2.35626   0.00624   0.00000   0.00000   0.00000   2.35626
   D14        1.30895  -0.00730   0.00000   0.04766   0.04769   1.35663
   D15       -2.87980   0.00894   0.00000   0.06803   0.06806  -2.81174
   D16       -0.78545   0.00506   0.00000   0.04778   0.04780  -0.73764
   D17        1.04724  -0.00802   0.00000  -0.01714  -0.01720   1.03004
   D18        3.14157  -0.01282   0.00000  -0.02753  -0.02757   3.11399
   D19       -1.04726  -0.01493   0.00000  -0.01229  -0.01231  -1.05958
   D20       -3.13259   0.00872   0.00000  -0.00056  -0.00054  -3.13313
   D21       -1.03826   0.00393   0.00000  -0.01094  -0.01092  -1.04918
   D22        1.05609   0.00181   0.00000   0.00429   0.00434   1.06043
   D23       -1.08102   0.00452   0.00000   0.01009   0.01009  -1.07093
   D24        1.01331  -0.00028   0.00000  -0.00029  -0.00029   1.01302
   D25        3.10766  -0.00239   0.00000   0.01494   0.01497   3.12263
   D26       -1.30903  -0.02553   0.00000   0.00823   0.00820  -1.30084
   D27        1.83260  -0.02583   0.00000   0.00000   0.00000   1.83259
   D28        2.87084   0.00279   0.00000   0.00978   0.00980   2.88064
   D29       -0.27072   0.00249   0.00000   0.00155   0.00160  -0.26911
   D30        0.81926   0.02626   0.00000  -0.00308  -0.00299   0.81627
   D31       -2.32230   0.02596   0.00000  -0.01131  -0.01119  -2.33349
   D32       -0.00009   0.00044   0.00000   0.01308   0.01304   0.01295
   D33       -3.14158  -0.00006   0.00000   0.00242   0.00240  -3.13918
   D34        3.14154   0.00013   0.00000   0.00464   0.00465  -3.13699
   D35        0.00005  -0.00037   0.00000  -0.00603  -0.00598  -0.00593
   D36       -0.00003   0.00024   0.00000   0.03817   0.03817   0.03814
   D37        2.09441  -0.00080   0.00000   0.03588   0.03587   2.13029
   D38       -2.09441   0.00131   0.00000   0.04105   0.04109  -2.05332
   D39       -3.14153  -0.00024   0.00000   0.02770   0.02768  -3.11384
   D40       -1.04708  -0.00129   0.00000   0.02541   0.02538  -1.02170
   D41        1.04728   0.00082   0.00000   0.03058   0.03060   1.07788
         Item               Value     Threshold  Converged?
 Maximum Force            0.122354     0.000450     NO 
 RMS     Force            0.021878     0.000300     NO 
 Maximum Displacement     0.349832     0.001800     NO 
 RMS     Displacement     0.083833     0.001200     NO 
 Predicted change in Energy=-9.233438D-03
 GradGradGradGradGradGradGradGradGradGradGradGradGradGradGradGradGradGrad

                          Input orientation:                          
 ---------------------------------------------------------------------
 Center     Atomic      Atomic             Coordinates (Angstroms)
 Number     Number       Type             X           Y           Z
 ---------------------------------------------------------------------
      1          1           0        1.719160    1.518556   -1.322752
      2          6           0        1.848397    2.412553   -0.712649
      3          1           0        1.575395    2.190223    0.320979
      4          1           0        1.200260    3.206190   -1.089187
      5          6           0        3.300357    2.887773   -0.763434
      6          8           0        4.129401    2.315036   -1.465569
      7          7           0        3.603461    3.934515    0.024067
      8          1           0        2.895478    4.314170    0.636708
      9          6           0        4.897558    4.594707   -0.001873
     10          1           0        5.476330    4.308982    0.880129
     11          6           0        5.684387    4.230472   -1.261659
     12          1           0        5.108578    4.524423   -2.141081
     13          1           0        6.636308    4.763945   -1.262299
     14          1           0        5.861879    3.158433   -1.295315
     15          6           0        4.708516    6.112265   -0.005662
     16          8           0        4.334092    6.699803   -1.016098
     17          7           0        4.966380    6.740944    1.153484
     18          1           0        5.275992    6.207257    1.953119
     19          6           0        4.827777    8.177191    1.299809
     20          1           0        4.461072    8.593837    0.361624
     21          1           0        4.119025    8.401384    2.099254
     22          1           0        5.794797    8.623641    1.540405
 ---------------------------------------------------------------------
                    Distance matrix (angstroms):
                    1          2          3          4          5
     1  H    0.000000
     2  C    1.090027   0.000000
     3  H    1.781476   1.091947   0.000000
     4  H    1.780988   1.091660   1.778056   0.000000
     5  C    2.165128   1.528594   2.153607   2.148933   0.000000
     6  O    2.542448   2.404033   3.119340   3.084751   1.228143
     7  N    3.346845   2.437082   2.691424   2.746847   1.344507
     8  H    3.610910   2.556030   2.520606   2.660845   2.039346
     9  C    4.616237   3.816331   4.113702   4.096370   2.458587
    10  H    5.172571   4.392639   4.474269   4.835197   3.075060
    11  C    4.804295   4.280311   4.852955   4.602858   2.781127
    12  H    4.603591   4.138742   4.898327   4.256661   2.801106
    13  H    5.891906   5.362392   5.894375   5.657489   3.859722
    14  H    4.455566   4.123575   4.682284   4.666419   2.630123
    15  C    5.636766   4.729479   5.030462   4.682644   3.599232
    16  O    5.811818   4.965005   5.452935   4.693781   3.957780
    17  N    6.629443   5.651481   5.735931   5.630960   4.614881
    18  H    6.735451   5.766672   5.700426   5.905389   4.722475
    19  C    7.802483   6.793949   6.883304   6.601290   5.879449
    20  H    7.772697   6.796205   7.023892   6.462545   5.930614
    21  H    8.052503   6.994902   6.943403   6.758357   6.266188
    22  H    8.677023   7.695969   7.789687   7.574516   6.665590
                    6          7          8          9         10
     6  O    0.000000
     7  N    2.262375   0.000000
     8  H    3.152566   1.010300   0.000000
     9  C    2.815914   1.453001   2.120096   0.000000
    10  H    3.360407   2.093013   2.592311   1.092952   0.000000
    11  C    2.475572   2.463927   3.374732   1.529323   2.153302
    12  H    2.509281   2.702079   3.557826   2.150739   3.051126
    13  H    3.510421   3.397183   4.219281   2.154197   2.478415
    14  H    1.934369   2.728282   3.723973   2.160044   2.490977
    15  C    4.109215   2.442258   2.633038   1.529291   2.150813
    16  O    4.412494   3.043450   3.239232   2.403658   3.258284
    17  N    5.210435   3.318007   3.231860   2.438425   2.499842
    18  H    5.305797   3.418180   3.314146   2.562327   2.189724
    19  C    6.519195   4.596386   4.369944   3.812274   3.944591
    20  H    6.547670   4.749603   4.565337   4.039269   4.433913
    21  H    7.053489   4.952285   4.510147   4.417198   4.480658
    22  H    7.183865   5.393435   5.272026   4.406355   4.376491
                   11         12         13         14         15
    11  C    0.000000
    12  H    1.091489   0.000000
    13  H    1.091214   1.778648   0.000000
    14  H    1.087154   1.774461   1.782835   0.000000
    15  C    2.463940   2.690967   2.667112   3.423240   0.000000
    16  O    2.825101   2.568598   3.018006   3.866962   1.227345
    17  N    3.556813   3.973329   3.540225   4.430905   1.343633
    18  H    3.795953   4.429721   3.777899   4.493430   2.041537
    19  C    4.782415   5.026060   4.635237   5.743863   2.445894
    20  H    4.813575   4.821092   4.694342   5.852463   2.520780
    21  H    5.580556   5.830136   5.555872   6.484534   3.165160
    22  H    5.211880   5.552281   4.843608   6.157460   3.142824
                   16         17         18         19         20
    16  O    0.000000
    17  N    2.260214   0.000000
    18  H    3.153732   1.009998   0.000000
    19  C    2.791025   1.450320   2.123288   0.000000
    20  H    2.345550   2.077401   2.982066   1.090072   0.000000
    21  H    3.556269   2.090348   2.484778   1.091652   1.781402
    22  H    3.517175   2.092972   2.505674   1.091939   1.780234
                   21         22
    21  H    0.000000
    22  H    1.780427   0.000000
 Stoichiometry    C6H12N2O2
 Framework group  C1[X(C6H12N2O2)]
 Deg. of freedom    60
 Full point group                 C1      NOp   1
 Largest Abelian subgroup         C1      NOp   1
 Largest concise Abelian subgroup C1      NOp   1
                         Standard orientation:                         
 ---------------------------------------------------------------------
 Center     Atomic      Atomic             Coordinates (Angstroms)
 Number     Number       Type             X           Y           Z
 ---------------------------------------------------------------------
      1          1           0       -4.108071   -1.173598    0.407197
      2          6           0       -3.075323   -1.484296    0.248903
      3          1           0       -3.031601   -2.192506   -0.581082
      4          1           0       -2.699648   -1.970026    1.151486
      5          6           0       -2.196991   -0.274341   -0.069130
      6          8           0       -2.661964    0.862380   -0.069885
      7          7           0       -0.915121   -0.542963   -0.373023
      8          1           0       -0.611310   -1.504789   -0.430442
      9          6           0        0.084542    0.493023   -0.569537
     10          1           0        0.299995    0.601725   -1.635515
     11          6           0       -0.386732    1.836149   -0.010304
     12          1           0       -0.593076    1.727596    1.055992
     13          1           0        0.397090    2.582545   -0.149089
     14          1           0       -1.294156    2.155019   -0.517065
     15          6           0        1.372842    0.120332    0.165389
     16          8           0        1.451380    0.208290    1.387056
     17          7           0        2.386627   -0.310172   -0.604194
     18          1           0        2.267618   -0.358732   -1.605980
     19          6           0        3.666895   -0.701234   -0.046151
     20          1           0        3.618901   -0.618019    1.039680
     21          1           0        3.891760   -1.733115   -0.322487
     22          1           0        4.455241   -0.047296   -0.424576
 ---------------------------------------------------------------------
 Rotational constants (GHZ):      2.8312669      0.6840955      0.6229207
 Standard basis: 6-31G(d) (6D, 7F)
 There are   174 symmetry adapted basis functions of A   symmetry.
 Integral buffers will be    131072 words long.
 Raffenetti 2 integral format.
 Two-electron integral symmetry is turned on.
   174 basis functions,   328 primitive gaussians,   174 cartesian basis functions
    39 alpha electrons       39 beta electrons
       nuclear repulsion energy       556.5532245294 Hartrees.
 NAtoms=   22 NActive=   22 NUniq=   22 SFac= 7.50D-01 NAtFMM=   80 NAOKFM=F Big=F
 One-electron integrals computed using PRISM.
 NBasis=   174 RedAO= T  NBF=   174
 NBsUse=   174 1.00D-06 NBFU=   174
 Initial guess read from the read-write file.
 B after Tr=     0.000000    0.000000    0.000000
         Rot=    1.000000    0.000000    0.000000    0.000000 Ang=   0.00 deg.
 Initial guess orbital symmetries:
       Occupied  (A) (A) (A) (A) (A) (A) (A) (A) (A) (A) (A) (A)
                 (A) (A) (A) (A) (A) (A) (A) (A) (A) (A) (A) (A)
                 (A) (A) (A) (A) (A) (A) (A) (A) (A) (A) (A) (A)
                 (A) (A) (A)
       Virtual   (A) (A) (A) (A) (A) (A) (A) (A) (A) (A) (A) (A)
                 (A) (A) (A) (A) (A) (A) (A) (A) (A) (A) (A) (A)
                 (A) (A) (A) (A) (A) (A) (A) (A) (A) (A) (A) (A)
                 (A) (A) (A) (A) (A) (A) (A) (A) (A) (A) (A) (A)
                 (A) (A) (A) (A) (A) (A) (A) (A) (A) (A) (A) (A)
                 (A) (A) (A) (A) (A) (A) (A) (A) (A) (A) (A) (A)
                 (A) (A) (A) (A) (A) (A) (A) (A) (A) (A) (A) (A)
                 (A) (A) (A) (A) (A) (A) (A) (A) (A) (A) (A) (A)
                 (A) (A) (A) (A) (A) (A) (A) (A) (A) (A) (A) (A)
                 (A) (A) (A) (A) (A) (A) (A) (A) (A) (A) (A) (A)
                 (A) (A) (A) (A) (A) (A) (A) (A) (A) (A) (A) (A)
                 (A) (A) (A)
 Harris functional with IExCor=  402 diagonalized for initial guess.
 ExpMin= 1.61D-01 ExpMax= 5.48D+03 ExpMxC= 8.25D+02 IAcc=1 IRadAn=         1 AccDes= 0.00D+00
 HarFok:  IExCor=  402 AccDes= 0.00D+00 IRadAn=         1 IDoV= 1
 ScaDFX=  1.000000  1.000000  1.000000  1.000000
 FoFCou: FMM=F IPFlag=           0 FMFlag=      100000 FMFlg1=           0
         NFxFlg=           0 DoJE=T BraDBF=F KetDBF=T FulRan=T
         Omega=  0.000000  0.000000  1.000000  0.000000  0.000000 ICntrl=     500 IOpCl=  0
         NMat0=    1 NMatS0=    1 NMatT0=    0 NMatD0=    1 NMtDS0=    0 NMtDT0=    0
         I1Cent=           4 NGrid=           0.
 Petite list used in FoFCou.
 Requested convergence on RMS density matrix=1.00D-08 within 128 cycles.
 Requested convergence on MAX density matrix=1.00D-06.
 Requested convergence on             energy=1.00D-06.
 No special actions if energy rises.
 Integral accuracy reduced to 1.0D-05 until final iterations.
 Initial convergence to 1.0D-05 achieved.  Increase integral accuracy.
 SCF Done:  E(RB3LYP) =  -495.824117480     A.U. after   13 cycles
             Convg  =    0.4106D-08             -V/T =  2.0087
 Calling FoFJK, ICntrl=      2127 FMM=F ISym2X=0 I1Cent= 0 IOpClX= 0 NMat=1 NMatS=1 NMatT=0.
 ***** Axes restored to original set *****
 -------------------------------------------------------------------
 Center     Atomic                   Forces (Hartrees/Bohr)
 Number     Number              X              Y              Z
 -------------------------------------------------------------------
      1        1           0.002815845    0.000504223   -0.000215686
      2        6           0.004234428    0.006439383    0.002373487
      3        1          -0.004228091   -0.000628841    0.002349342
      4        1          -0.004702919    0.000861242    0.000255118
      5        6          -0.005929455   -0.030158988   -0.014734291
      6        8          -0.020678304   -0.014392255   -0.000260090
      7        7           0.000892959    0.014254458    0.009871441
      8        1          -0.001710758    0.000486122   -0.001557316
      9        6           0.008388000    0.001540197   -0.004524765
     10        1           0.002466004   -0.002983894    0.005571843
     11        6           0.013953701    0.001447995    0.000506047
     12        1           0.002959457    0.000347022   -0.000227543
     13        1           0.002006104    0.005769462    0.001006681
     14        1           0.005988753    0.007791379   -0.001501816
     15        6          -0.009609423   -0.001473921   -0.017940428
     16        8          -0.001415294    0.000568016    0.000935411
     17        7           0.002189675    0.006287580    0.013278294
     18        1           0.000685272   -0.000558623   -0.000583298
     19        6           0.001510417    0.000184624    0.003116685
     20        1           0.000126845   -0.002469824   -0.000604218
     21        1          -0.001537281    0.002880136    0.002023292
     22        1           0.001594065    0.003304505    0.000861812
 -------------------------------------------------------------------
 Cartesian Forces:  Max     0.030158988 RMS     0.007171906

 GradGradGradGradGradGradGradGradGradGradGradGradGradGradGradGradGradGrad
 Berny optimization.
 Using GEDIIS/GDIIS optimizer.
 Internal  Forces:  Max     0.084726059 RMS     0.015303361
 Search for a local minimum.
 Step number   2 out of a maximum of  132
 All quantities printed in internal units (Hartrees-Bohrs-Radians)
 Mixed Optimization -- RFO/linear search
 Update second derivatives using D2CorX and points    1    2
 DE= -9.01D-03 DEPred=-9.23D-03 R= 9.76D-01
 SS=  1.41D+00  RLast= 3.00D-01 DXNew= 5.0454D-01 8.9999D-01
 Trust test= 9.76D-01 RLast= 3.00D-01 DXMaxT set to 5.05D-01
 Use linear search instead of GDIIS.
 Linear search step of   0.550 exceeds DXMaxT=   0.505 but not scaled.
 Quartic linear search produced a step of  1.85384.
 Iteration  1 RMS(Cart)=  0.14255098 RMS(Int)=  0.01372042
 Iteration  2 RMS(Cart)=  0.02178346 RMS(Int)=  0.00044013
 Iteration  3 RMS(Cart)=  0.00038148 RMS(Int)=  0.00035946
 Iteration  4 RMS(Cart)=  0.00000018 RMS(Int)=  0.00035946
 Iteration  1 RMS(Cart)=  0.00012707 RMS(Int)=  0.00004030
 Iteration  2 RMS(Cart)=  0.00007609 RMS(Int)=  0.00004470
 Iteration  3 RMS(Cart)=  0.00004651 RMS(Int)=  0.00005107
 Iteration  4 RMS(Cart)=  0.00002896 RMS(Int)=  0.00005608
 Iteration  5 RMS(Cart)=  0.00001833 RMS(Int)=  0.00005959
 Iteration  6 RMS(Cart)=  0.00001175 RMS(Int)=  0.00006196
 Iteration  7 RMS(Cart)=  0.00000760 RMS(Int)=  0.00006354
 Iteration  8 RMS(Cart)=  0.00000496 RMS(Int)=  0.00006459
 Iteration  9 RMS(Cart)=  0.00000326 RMS(Int)=  0.00006529
 Iteration 10 RMS(Cart)=  0.00000215 RMS(Int)=  0.00006576
 Iteration 11 RMS(Cart)=  0.00000142 RMS(Int)=  0.00006606
 Iteration 12 RMS(Cart)=  0.00000094 RMS(Int)=  0.00006627
 Variable       Old X    -DE/DX   Delta X   Delta X   Delta X     New X
                                 (Linear)    (Quad)   (Total)
    R1        2.05985  -0.00063  -0.00006   0.00000  -0.00006   2.05979
    R2        2.06348   0.00341   0.00667   0.00000   0.00667   2.07016
    R3        2.06294   0.00333   0.00588   0.00000   0.00588   2.06882
    R4        2.88862  -0.00028  -0.00477   0.00000  -0.00477   2.88385
    R5        2.32085  -0.00710  -0.00302   0.00000  -0.00302   2.31783
    R6        2.54075   0.04150   0.03308   0.00000   0.03308   2.57383
    R7        1.90919   0.00044   0.00095   0.00000   0.00095   1.91014
    R8        2.74577   0.03636   0.01409   0.00000   0.01409   2.75987
    R9        2.06538   0.00658   0.01045   0.00000   0.01045   2.07583
   R10        2.89000   0.00934   0.01505   0.00000   0.01505   2.90505
   R11        2.88994   0.00945   0.02551   0.00000   0.02551   2.91546
   R12        2.06261  -0.00128   0.00537   0.00000   0.00537   2.06798
   R13        2.06209   0.00457   0.00417   0.00000   0.00417   2.06627
   R14        2.05442  -0.00666  -0.00971   0.00000  -0.00971   2.04471
   R15        2.31935  -0.00007  -0.00593   0.00000  -0.00593   2.31342
   R16        2.53910   0.02099   0.03022   0.00000   0.03022   2.56932
   R17        1.90862   0.00004  -0.00014   0.00000  -0.00014   1.90848
   R18        2.74071   0.00424   0.00474   0.00000   0.00474   2.74545
   R19        2.05994  -0.00047   0.00046   0.00000   0.00046   2.06040
   R20        2.06292   0.00307   0.00581   0.00000   0.00581   2.06873
   R21        2.06347   0.00295   0.00660   0.00000   0.00660   2.07007
    A1        1.91048  -0.00014  -0.00119   0.00000  -0.00100   1.90947
    A2        1.91007  -0.00003  -0.00207   0.00000  -0.00200   1.90807
    A3        1.92730  -0.00584  -0.02169   0.00000  -0.02155   1.90575
    A4        1.90296  -0.00384  -0.01328   0.00000  -0.01361   1.88934
    A5        1.90946   0.00496   0.02488   0.00000   0.02481   1.93427
    A6        1.90337   0.00491   0.01349   0.00000   0.01336   1.91673
    A7        2.11205  -0.01385   0.01640   0.00000   0.01579   2.12784
    A8        2.02274  -0.02748  -0.02288   0.00000  -0.02347   1.99927
    A9        2.14807   0.04129   0.00587   0.00000   0.00529   2.15336
   A10        2.08261  -0.04331  -0.02161   0.00000  -0.02323   2.05937
   A11        2.14607   0.08473   0.03432   0.00000   0.03267   2.17874
   A12        2.05354  -0.04132  -0.01451   0.00000  -0.01619   2.03735
   A13        1.91606  -0.00960   0.00913   0.00000   0.00908   1.92514
   A14        1.94413   0.04844   0.00942   0.00000   0.00813   1.95225
   A15        1.91859  -0.02346  -0.03783   0.00000  -0.03785   1.88074
   A16        1.90715  -0.01108   0.02050   0.00000   0.02031   1.92746
   A17        1.90380   0.00906   0.01430   0.00000   0.01449   1.91828
   A18        1.87329  -0.01384  -0.01499   0.00000  -0.01517   1.85812
   A19        1.90514   0.00308  -0.01115   0.00000  -0.01115   1.89398
   A20        1.91014  -0.00720  -0.00171   0.00000  -0.00194   1.90820
   A21        1.92235   0.00859   0.02086   0.00000   0.02077   1.94312
   A22        1.90506  -0.00088  -0.00936   0.00000  -0.00950   1.89556
   A23        1.90366  -0.00190  -0.01218   0.00000  -0.01206   1.89160
   A24        1.91733  -0.00172   0.01332   0.00000   0.01303   1.93036
   A25        2.11155   0.00379   0.01563   0.00000   0.01557   2.12712
   A26        2.02466  -0.00549  -0.01935   0.00000  -0.01940   2.00526
   A27        2.14694   0.00170   0.00366   0.00000   0.00362   2.15055
   A28        2.08818  -0.00263  -0.01139   0.00000  -0.01147   2.07671
   A29        2.13182   0.00383   0.00780   0.00000   0.00771   2.13953
   A30        2.06314  -0.00120   0.00350   0.00000   0.00342   2.06656
   A31        1.90057  -0.00506  -0.01963   0.00000  -0.01954   1.88102
   A32        1.91698   0.00358   0.01085   0.00000   0.01076   1.92774
   A33        1.92036   0.00365   0.01720   0.00000   0.01713   1.93749
   A34        1.91068   0.00011   0.00096   0.00000   0.00102   1.91170
   A35        1.90846   0.00007  -0.00310   0.00000  -0.00298   1.90548
   A36        1.90672  -0.00237  -0.00632   0.00000  -0.00655   1.90018
    D1        0.04818  -0.00027   0.08923   0.00000   0.08919   0.13737
    D2       -3.06667   0.00047   0.13896   0.00000   0.13910  -2.92757
    D3        2.15199  -0.00094   0.09023   0.00000   0.08993   2.24193
    D4       -0.96286  -0.00020   0.13997   0.00000   0.13985  -0.82301
    D5       -2.05125   0.00025   0.09656   0.00000   0.09664  -1.95461
    D6        1.11708   0.00100   0.14630   0.00000   0.14655   1.26363
    D7        0.06164   0.00265   0.11405   0.00000   0.11446   0.17610
    D8       -3.03150   0.00152   0.20409   0.00000   0.20398  -2.82752
    D9       -3.05260   0.00437   0.16492   0.00000   0.16503  -2.88757
   D10        0.13744   0.00324   0.25496   0.00000   0.25455   0.39199
   D11       -1.83265  -0.00307  -0.00022   0.00000  -0.00017  -1.83282
   D12        0.28217   0.00833   0.03755   0.00000   0.03758   0.31974
   D13        2.35626   0.00642   0.00000   0.00000   0.00000   2.35626
   D14        1.35663  -0.00406   0.08840   0.00000   0.08853   1.44516
   D15       -2.81174   0.00734   0.12617   0.00000   0.12628  -2.68546
   D16       -0.73764   0.00543   0.08862   0.00000   0.08871  -0.64894
   D17        1.03004  -0.00565  -0.03188   0.00000  -0.03216   0.99788
   D18        3.11399  -0.00916  -0.05112   0.00000  -0.05136   3.06263
   D19       -1.05958  -0.01047  -0.02282   0.00000  -0.02292  -1.08250
   D20       -3.13313   0.00631  -0.00101   0.00000  -0.00092  -3.13405
   D21       -1.04918   0.00279  -0.02024   0.00000  -0.02012  -1.06930
   D22        1.06043   0.00149   0.00805   0.00000   0.00832   1.06876
   D23       -1.07093   0.00329   0.01870   0.00000   0.01867  -1.05226
   D24        1.01302  -0.00023  -0.00054   0.00000  -0.00053   1.01249
   D25        3.12263  -0.00153   0.02776   0.00000   0.02791  -3.13264
   D26       -1.30084  -0.01802   0.01519   0.00000   0.01501  -1.28583
   D27        1.83259  -0.01817   0.00000   0.00000   0.00000   1.83259
   D28        2.88064   0.00253   0.01817   0.00000   0.01829   2.89893
   D29       -0.26911   0.00237   0.00298   0.00000   0.00328  -0.26583
   D30        0.81627   0.01856  -0.00555   0.00000  -0.00510   0.81116
   D31       -2.33349   0.01841  -0.02074   0.00000  -0.02011  -2.35360
   D32        0.01295   0.00037   0.02417   0.00000   0.02391   0.03686
   D33       -3.13918  -0.00009   0.00445   0.00000   0.00434  -3.13484
   D34       -3.13699   0.00022   0.00863   0.00000   0.00874  -3.12825
   D35       -0.00593  -0.00024  -0.01109   0.00000  -0.01083  -0.01676
   D36        0.03814   0.00024   0.07077   0.00000   0.07079   0.10894
   D37        2.13029  -0.00057   0.06650   0.00000   0.06644   2.19672
   D38       -2.05332   0.00107   0.07617   0.00000   0.07636  -1.97696
   D39       -3.11384  -0.00022   0.05132   0.00000   0.05125  -3.06259
   D40       -1.02170  -0.00103   0.04706   0.00000   0.04689  -0.97480
   D41        1.07788   0.00061   0.05673   0.00000   0.05682   1.13470
         Item               Value     Threshold  Converged?
 Maximum Force            0.084706     0.000450     NO 
 RMS     Force            0.015175     0.000300     NO 
 Maximum Displacement     0.710371     0.001800     NO 
 RMS     Displacement     0.154475     0.001200     NO 
 Predicted change in Energy=-1.048547D-02
 GradGradGradGradGradGradGradGradGradGradGradGradGradGradGradGradGradGrad

                          Input orientation:                          
 ---------------------------------------------------------------------
 Center     Atomic      Atomic             Coordinates (Angstroms)
 Number     Number       Type             X           Y           Z
 ---------------------------------------------------------------------
      1          1           0        1.660908    1.544808   -1.177746
      2          6           0        1.832120    2.529450   -0.742710
      3          1           0        1.391506    2.566135    0.259582
      4          1           0        1.342080    3.288732   -1.360670
      5          6           0        3.333187    2.798574   -0.685675
      6          8           0        4.147042    2.048158   -1.213810
      7          7           0        3.686880    3.874280    0.071184
      8          1           0        2.975848    4.303336    0.647440
      9          6           0        4.973301    4.561439   -0.005461
     10          1           0        5.597089    4.300277    0.860185
     11          6           0        5.713588    4.245788   -1.315265
     12          1           0        5.068996    4.524290   -2.154606
     13          1           0        6.629276    4.841194   -1.366046
     14          1           0        5.940523    3.190827   -1.394742
     15          6           0        4.696278    6.079129   -0.014644
     16          8           0        4.241932    6.647401   -0.999186
     17          7           0        4.968179    6.717600    1.154548
     18          1           0        5.353191    6.187903    1.923400
     19          6           0        4.761010    8.144408    1.333467
     20          1           0        4.269111    8.524242    0.437614
     21          1           0        4.127724    8.332477    2.206396
     22          1           0        5.714831    8.665851    1.468744
 ---------------------------------------------------------------------
                    Distance matrix (angstroms):
                    1          2          3          4          5
     1  H    0.000000
     2  C    1.089995   0.000000
     3  H    1.783704   1.095479   0.000000
     4  H    1.782241   1.094771   1.774769   0.000000
     5  C    2.147226   1.526068   2.172018   2.158791   0.000000
     6  O    2.536834   2.410901   3.167360   3.070571   1.226545
     7  N    3.330290   2.431281   2.648675   2.809121   1.362012
     8  H    3.559474   2.527312   2.382948   2.780491   2.041861
     9  C    4.631011   3.813074   4.108618   4.079479   2.502071
    10  H    5.219128   4.458710   4.588562   4.905153   3.125708
    11  C    4.872209   4.282456   4.897119   4.475277   2.856068
    12  H    4.631051   4.055886   4.815248   4.005852   2.854626
    13  H    5.965425   5.361475   5.937406   5.510410   3.936928
    14  H    4.590378   4.212071   4.880633   4.599611   2.730355
    15  C    5.579099   4.618842   4.830926   4.566043   3.615293
    16  O    5.721016   4.778127   5.134799   4.452019   3.967061
    17  N    6.567756   5.565524   5.552316   5.588565   4.628000
    18  H    6.693907   5.735012   5.619647   5.939640   4.730247
    19  C    7.711780   6.664583   6.604841   6.521124   5.890124
    20  H    7.623950   6.577965   6.619013   6.261941   5.909399
    21  H    7.975591   6.902329   6.672906   6.776662   6.294398
    22  H    8.610892   7.590876   7.573622   7.485984   6.688698
                    6          7          8          9         10
     6  O    0.000000
     7  N    2.279842   0.000000
     8  H    3.149885   1.010805   0.000000
     9  C    2.908504   1.460459   2.117242   0.000000
[...]
    13  H    6.196441   5.527453   5.978429   5.767636   4.081657
    14  H    4.846240   4.409317   5.040942   4.791592   2.898737
    15  C    5.593959   4.617006   4.637996   4.765208   3.645069
    16  O    5.792794   4.771264   4.889621   4.634170   3.977082
    17  N    6.500592   5.530499   5.325878   5.793902   4.650741
    18  H    6.608945   5.726980   5.478956   6.163695   4.774046
    19  C    7.663709   6.636063   6.345606   6.758510   5.916928
    20  H    7.605001   6.536891   6.310375   6.481013   5.919188
    21  H    7.911500   6.892488   6.432736   7.063410   6.346454
    22  H    8.565975   7.561185   7.331362   7.702180   6.709598
                    6          7          8          9         10
     6  O    0.000000
     7  N    2.302428   0.000000
     8  H    3.150857   1.011097   0.000000
     9  C    3.001020   1.471602   2.100650   0.000000
    10  H    3.525705   2.096803   2.645154   1.101412   0.000000
    11  C    2.862733   2.538577   3.370386   1.532614   2.153217
    12  H    2.937763   2.820531   3.542208   2.164635   3.061805
    13  H    3.918663   3.450484   4.185625   2.146562   2.449400
    14  H    2.357393   2.824325   3.798355   2.180256   2.517703
    15  C    4.290159   2.421730   2.454763   1.545774   2.176133
    16  O    4.606869   3.003213   2.949133   2.426258   3.291823
    17  N    5.368520   3.298228   3.117660   2.452454   2.500134
    18  H    5.429958   3.421468   3.340067   2.545918   2.144319
    19  C    6.694404   4.588473   4.233215   3.836123   3.946552
    20  H    6.711812   4.692078   4.294793   4.053064   4.435526
    21  H    7.239091   5.006390   4.479201   4.483068   4.485499
    22  H    7.368290   5.384221   5.161214   4.409794   4.395648
                   11         12         13         14         15
    11  C    0.000000
    12  H    1.092238   0.000000
    13  H    1.096320   1.773921   0.000000
    14  H    1.088068   1.775076   1.786108   0.000000
    15  C    2.496492   2.707510   2.704849   3.463443   0.000000
    16  O    2.918437   2.645631   3.159221   3.947025   1.223498
    17  N    3.569497   3.984938   3.530121   4.457655   1.366981
    18  H    3.728295   4.378090   3.643651   4.449445   2.049573
    19  C    4.809225   5.053316   4.639788   5.779493   2.474394
    20  H    4.881808   4.884935   4.786481   5.919094   2.525703
    21  H    5.645049   5.929758   5.569180   6.553530   3.245137
    22  H    5.172963   5.478049   4.770431   6.141561   3.138372
                   16         17         18         19         20
    16  O    0.000000
    17  N    2.282446   0.000000
    18  H    3.162123   1.010033   0.000000
    19  C    2.833492   1.453442   2.128970   0.000000
    20  H    2.376274   2.061046   2.971378   1.090789   0.000000
    21  H    3.659143   2.107010   2.508322   1.095485   1.784340
    22  H    3.500180   2.118300   2.541613   1.096938   1.780206
                   21         22
    21  H    0.000000
    22  H    1.783136   0.000000
 Stoichiometry    C6H12N2O2
 Framework group  C1[X(C6H12N2O2)]
 Deg. of freedom    60
 Full point group                 C1      NOp   1
 Largest Abelian subgroup         C1      NOp   1
 Largest concise Abelian subgroup C1      NOp   1
                         Standard orientation:                         
 ---------------------------------------------------------------------
 Center     Atomic      Atomic             Coordinates (Angstroms)
 Number     Number       Type             X           Y           Z
 ---------------------------------------------------------------------
      1          1           0       -3.971492   -1.553268   -0.092896
      2          6           0       -2.921067   -1.615422    0.197499
      3          1           0       -2.456057   -2.471649   -0.303126
      4          1           0       -2.876740   -1.786665    1.279607
      5          6           0       -2.248099   -0.284511   -0.127587
      6          8           0       -2.868979    0.767950   -0.108457
      7          7           0       -0.914328   -0.401138   -0.445723
      8          1           0       -0.536746   -1.335390   -0.362520
      9          6           0        0.103297    0.660045   -0.508523
     10          1           0        0.339690    0.850285   -1.567313
     11          6           0       -0.291565    1.986909    0.149063
     12          1           0       -0.473426    1.835350    1.215337
     13          1           0        0.543638    2.688451    0.038648
     14          1           0       -1.185946    2.406660   -0.306772
     15          6           0        1.359319    0.115159    0.209060
     16          8           0        1.403814   -0.017095    1.424575
     17          7           0        2.375664   -0.254756   -0.626908
     18          1           0        2.283286   -0.054421   -1.612554
     19          6           0        3.650221   -0.753310   -0.137578
     20          1           0        3.538870   -0.936608    0.931919
     21          1           0        3.919851   -1.688207   -0.640919
     22          1           0        4.454409   -0.023347   -0.291550
 ---------------------------------------------------------------------
 Rotational constants (GHZ):      2.5979719      0.6812901      0.6124188

 **********************************************************************

            Population analysis using the SCF density.

 **********************************************************************

 Orbital symmetries:
       Occupied  (A) (A) (A) (A) (A) (A) (A) (A) (A) (A) (A) (A)
                 (A) (A) (A) (A) (A) (A) (A) (A) (A) (A) (A) (A)
                 (A) (A) (A) (A) (A) (A) (A) (A) (A) (A) (A) (A)
                 (A) (A) (A)
       Virtual   (A) (A) (A) (A) (A) (A) (A) (A) (A) (A) (A) (A)
                 (A) (A) (A) (A) (A) (A) (A) (A) (A) (A) (A) (A)
                 (A) (A) (A) (A) (A) (A) (A) (A) (A) (A) (A) (A)
                 (A) (A) (A) (A) (A) (A) (A) (A) (A) (A) (A) (A)
                 (A) (A) (A) (A) (A) (A) (A) (A) (A) (A) (A) (A)
                 (A) (A) (A) (A) (A) (A) (A) (A) (A) (A) (A) (A)
                 (A) (A) (A) (A) (A) (A) (A) (A) (A) (A) (A) (A)
                 (A) (A) (A) (A) (A) (A) (A) (A) (A) (A) (A) (A)
                 (A) (A) (A) (A) (A) (A) (A) (A) (A) (A) (A) (A)
                 (A) (A) (A) (A) (A) (A) (A) (A) (A) (A) (A) (A)
                 (A) (A) (A) (A) (A) (A) (A) (A) (A) (A) (A) (A)
                 (A) (A) (A)
 The electronic state is 1-A.
 Alpha  occ. eigenvalues --  -19.11834 -19.10403 -14.37507 -14.35979 -10.29164
 Alpha  occ. eigenvalues --  -10.28493 -10.24163 -10.22676 -10.18791 -10.17121
 Alpha  occ. eigenvalues --   -1.03970  -1.02303  -0.93071  -0.91884  -0.77965
 Alpha  occ. eigenvalues --   -0.72579  -0.71414  -0.64475  -0.59365  -0.56308
 Alpha  occ. eigenvalues --   -0.53716  -0.49585  -0.47852  -0.46360  -0.45404
 Alpha  occ. eigenvalues --   -0.43851  -0.42355  -0.40757  -0.39912  -0.39763
 Alpha  occ. eigenvalues --   -0.38639  -0.37801  -0.36899  -0.35723  -0.34905
 Alpha  occ. eigenvalues --   -0.26803  -0.26101  -0.24547  -0.23860
 Alpha virt. eigenvalues --    0.01322   0.03580   0.06164   0.08111   0.11455
 Alpha virt. eigenvalues --    0.13311   0.13820   0.14933   0.15544   0.15810
 Alpha virt. eigenvalues --    0.16683   0.17536   0.18294   0.19330   0.20415
 Alpha virt. eigenvalues --    0.21586   0.21759   0.25336   0.26459   0.31940
 Alpha virt. eigenvalues --    0.33820   0.38744   0.41606   0.50496   0.51568
 Alpha virt. eigenvalues --    0.52095   0.52740   0.53967   0.55248   0.55906
 Alpha virt. eigenvalues --    0.57302   0.59192   0.60909   0.64550   0.65635
 Alpha virt. eigenvalues --    0.67054   0.68433   0.70651   0.72003   0.73466
 Alpha virt. eigenvalues --    0.75215   0.77188   0.78017   0.81623   0.83307
 Alpha virt. eigenvalues --    0.83813   0.85010   0.86077   0.86345   0.88340
 Alpha virt. eigenvalues --    0.88915   0.89978   0.91060   0.92880   0.93200
 Alpha virt. eigenvalues --    0.95244   0.96047   0.96532   0.97955   0.99591
 Alpha virt. eigenvalues --    1.04244   1.07810   1.09555   1.13978   1.15898
 Alpha virt. eigenvalues --    1.19990   1.21622   1.24235   1.28865   1.34483
 Alpha virt. eigenvalues --    1.35646   1.40048   1.41677   1.45008   1.46882
 Alpha virt. eigenvalues --    1.52446   1.56294   1.58401   1.61421   1.67312
 Alpha virt. eigenvalues --    1.72981   1.75039   1.76732   1.80539   1.81083
 Alpha virt. eigenvalues --    1.82824   1.84363   1.85875   1.90058   1.90865
 Alpha virt. eigenvalues --    1.92843   1.94473   1.96772   2.00177   2.02424
 Alpha virt. eigenvalues --    2.04205   2.05348   2.10630   2.14203   2.19205
 Alpha virt. eigenvalues --    2.21754   2.23811   2.24896   2.28830   2.29398
 Alpha virt. eigenvalues --    2.31506   2.32397   2.33821   2.37279   2.40285
 Alpha virt. eigenvalues --    2.42579   2.44402   2.50054   2.57194   2.60825
 Alpha virt. eigenvalues --    2.65219   2.67544   2.72546   2.76055   2.87287
 Alpha virt. eigenvalues --    2.89987   2.98100   2.98590   3.11815   3.16314
 Alpha virt. eigenvalues --    3.91151   3.94663   4.07625   4.17822   4.20164
 Alpha virt. eigenvalues --    4.24028   4.27033   4.36976   4.48465   4.65669
          Condensed to atoms (all electrons):
              1          2          3          4          5          6
     1  H    0.516048   0.357423  -0.025069  -0.021585  -0.019742   0.003821
     2  C    0.357423   5.341305   0.341277   0.361196   0.342511  -0.080584
     3  H   -0.025069   0.341277   0.577883  -0.026807  -0.025262   0.002649
     4  H   -0.021585   0.361196  -0.026807   0.521465  -0.020252  -0.000035
     5  C   -0.019742   0.342511  -0.025262  -0.020252   4.300777   0.597340
     6  O    0.003821  -0.080584   0.002649  -0.000035   0.597340   8.057136
     7  N    0.003933  -0.126422   0.006241   0.000150   0.261355  -0.088026
     8  H   -0.000062   0.001339   0.002055   0.000054  -0.016724   0.003493
     9  C   -0.000175   0.005611   0.000281  -0.000130  -0.024055  -0.000985
    10  H    0.000012  -0.000217  -0.000008  -0.000005  -0.001557   0.000103
    11  C    0.000002   0.000032  -0.000005   0.000009  -0.000363  -0.006783
    12  H    0.000004  -0.000115   0.000000  -0.000005   0.001289  -0.001257
    13  H    0.000000   0.000011   0.000000  -0.000001   0.000419   0.000671
    14  H   -0.000003   0.000287  -0.000010  -0.000001   0.001929   0.013219
    15  C    0.000000  -0.000134  -0.000054   0.000033   0.002770   0.000139
    16  O    0.000000  -0.000031   0.000002   0.000006   0.000111   0.000001
    17  N    0.000000   0.000001  -0.000001   0.000000  -0.000118  -0.000001
    18  H    0.000000   0.000000   0.000000   0.000000  -0.000005   0.000000
    19  C    0.000000   0.000000   0.000000   0.000000   0.000003   0.000000
    20  H    0.000000   0.000000   0.000000   0.000000   0.000000   0.000000
    21  H    0.000000   0.000000   0.000000   0.000000   0.000000   0.000000
    22  H    0.000000   0.000000   0.000000   0.000000   0.000000   0.000000
              7          8          9         10         11         12
     1  H    0.003933  -0.000062  -0.000175   0.000012   0.000002   0.000004
     2  C   -0.126422   0.001339   0.005611  -0.000217   0.000032  -0.000115
     3  H    0.006241   0.002055   0.000281  -0.000008  -0.000005   0.000000
     4  H    0.000150   0.000054  -0.000130  -0.000005   0.000009  -0.000005
     5  C    0.261355  -0.016724  -0.024055  -0.001557  -0.000363   0.001289
     6  O   -0.088026   0.003493  -0.000985   0.000103  -0.006783  -0.001257
     7  N    7.144392   0.295484   0.236677  -0.051105  -0.043502  -0.000899
     8  H    0.295484   0.419332  -0.042842   0.002843   0.004550   0.000126
     9  C    0.236677  -0.042842   5.039753   0.358229   0.369370  -0.033617
    10  H   -0.051105   0.002843   0.358229   0.646837  -0.044628   0.005700
    11  C   -0.043502   0.004550   0.369370  -0.044628   5.112250   0.375004
    12  H   -0.000899   0.000126  -0.033617   0.005700   0.375004   0.522026
    13  H    0.003989  -0.000108  -0.032088  -0.001617   0.350128  -0.027392
    14  H   -0.006090  -0.000131  -0.022084  -0.003584   0.365087  -0.024753
    15  C   -0.026745  -0.000637   0.313031  -0.054422  -0.031109  -0.007389
    16  O   -0.001869   0.001309  -0.081704   0.003217  -0.002413   0.009881
    17  N   -0.002912   0.003310  -0.100608   0.006169   0.000811   0.000645
    18  H   -0.000060   0.000039   0.002112   0.005709  -0.000276  -0.000010
    19  C   -0.000096  -0.000113   0.006307  -0.000051  -0.000197   0.000001
    20  H   -0.000013  -0.000023   0.001109  -0.000067  -0.000013  -0.000013
    21  H    0.000018  -0.000009  -0.000166  -0.000011  -0.000004   0.000000
    22  H   -0.000004   0.000004  -0.000162  -0.000018   0.000033   0.000000
             13         14         15         16         17         18
     1  H    0.000000  -0.000003   0.000000   0.000000   0.000000   0.000000
     2  C    0.000011   0.000287  -0.000134  -0.000031   0.000001   0.000000
     3  H    0.000000  -0.000010  -0.000054   0.000002  -0.000001   0.000000
     4  H   -0.000001  -0.000001   0.000033   0.000006   0.000000   0.000000
     5  C    0.000419   0.001929   0.002770   0.000111  -0.000118  -0.000005
     6  O    0.000671   0.013219   0.000139   0.000001  -0.000001   0.000000
     7  N    0.003989  -0.006090  -0.026745  -0.001869  -0.002912  -0.000060
     8  H   -0.000108  -0.000131  -0.000637   0.001309   0.003310   0.000039
     9  C   -0.032088  -0.022084   0.313031  -0.081704  -0.100608   0.002112
    10  H   -0.001617  -0.003584  -0.054422   0.003217   0.006169   0.005709
    11  C    0.350128   0.365087  -0.031109  -0.002413   0.000811  -0.000276
    12  H   -0.027392  -0.024753  -0.007389   0.009881   0.000645  -0.000010
    13  H    0.598073  -0.025536  -0.002474  -0.000237   0.000850   0.000011
    14  H   -0.025536   0.505591   0.004139   0.000226  -0.000096  -0.000020
    15  C   -0.002474   0.004139   4.450689   0.584728   0.248841  -0.018199
    16  O   -0.000237   0.000226   0.584728   8.073378  -0.096688   0.003387
    17  N    0.000850  -0.000096   0.248841  -0.096688   7.086111   0.300345
    18  H    0.000011  -0.000020  -0.018199   0.003387   0.300345   0.408311
    19  C   -0.000040   0.000003  -0.025445  -0.007504   0.261253  -0.031592
    20  H   -0.000003   0.000000  -0.000591   0.021009  -0.040627   0.004173
    21  H    0.000001   0.000000   0.002000   0.000430  -0.039666  -0.000970
    22  H   -0.000006   0.000000   0.000631   0.000499  -0.041593  -0.000876
             19         20         21         22
     1  H    0.000000   0.000000   0.000000   0.000000
     2  C    0.000000   0.000000   0.000000   0.000000
     3  H    0.000000   0.000000   0.000000   0.000000
     4  H    0.000000   0.000000   0.000000   0.000000
     5  C    0.000003   0.000000   0.000000   0.000000
     6  O    0.000000   0.000000   0.000000   0.000000
     7  N   -0.000096  -0.000013   0.000018  -0.000004
     8  H   -0.000113  -0.000023  -0.000009   0.000004
     9  C    0.006307   0.001109  -0.000166  -0.000162
    10  H   -0.000051  -0.000067  -0.000011  -0.000018
    11  C   -0.000197  -0.000013  -0.000004   0.000033
    12  H    0.000001  -0.000013   0.000000   0.000000
    13  H   -0.000040  -0.000003   0.000001  -0.000006
    14  H    0.000003   0.000000   0.000000   0.000000
    15  C   -0.025445  -0.000591   0.002000   0.000631
    16  O   -0.007504   0.021009   0.000430   0.000499
    17  N    0.261253  -0.040627  -0.039666  -0.041593
    18  H   -0.031592   0.004173  -0.000970  -0.000876
    19  C    4.972205   0.376151   0.379452   0.382873
    20  H    0.376151   0.480725  -0.023151  -0.025725
    21  H    0.379452  -0.023151   0.562612  -0.039340
    22  H    0.382873  -0.025725  -0.039340   0.560783
 Mulliken atomic charges:
              1
     1  H    0.185392
     2  C   -0.543491
     3  H    0.146828
     4  H    0.185909
     5  C    0.599574
     6  O   -0.500903
     7  N   -0.604498
     8  H    0.326710
     9  C    0.006134
    10  H    0.128470
    11  C   -0.447982
    12  H    0.180773
    13  H    0.135349
    14  H    0.191826
    15  C    0.560197
    16  O   -0.507739
    17  N   -0.586025
    18  H    0.327920
    19  C   -0.313210
    20  H    0.207061
    21  H    0.158803
    22  H    0.162901
 Sum of Mulliken atomic charges =   0.00000
 Mulliken charges with hydrogens summed into heavy atoms:
              1
     2  C   -0.025361
     5  C    0.599574
     6  O   -0.500903
     7  N   -0.277788
     9  C    0.134604
    11  C    0.059966
    15  C    0.560197
    16  O   -0.507739
    17  N   -0.258105
    19  C    0.215555
 Sum of Mulliken charges with hydrogens summed into heavy atoms =   0.00000
 Electronic spatial extent (au):  <R**2>=           1935.2430
 Charge=              0.0000 electrons
 Dipole moment (field-independent basis, Debye):
    X=              3.4690    Y=             -2.4680    Z=             -3.0392  Tot=              5.2308
 Quadrupole moment (field-independent basis, Debye-Ang):
   XX=            -59.7883   YY=            -57.2160   ZZ=            -61.5630
   XY=              5.6342   XZ=             -6.8668   YZ=             -0.1877
 Traceless Quadrupole moment (field-independent basis, Debye-Ang):
   XX=             -0.2659   YY=              2.3065   ZZ=             -2.0406
   XY=              5.6342   XZ=             -6.8668   YZ=             -0.1877
 Octapole moment (field-independent basis, Debye-Ang**2):
  XXX=             53.6419  YYY=             -2.7848  ZZZ=             -7.2318  XYY=              1.6540
  XXY=            -25.9848  XXZ=             -6.6960  XZZ=             -0.7603  YZZ=              0.3056
  YYZ=              0.6043  XYZ=              0.0753
 Hexadecapole moment (field-independent basis, Debye-Ang**3):
 XXXX=          -1768.6212 YYYY=           -460.5176 ZZZZ=           -190.9945 XXXY=             34.4481
 XXXZ=            -16.7629 YYYX=             -7.8552 YYYZ=              2.2635 ZZZX=            -20.0551
 ZZZY=             -2.1208 XXYY=           -379.1307 XXZZ=           -327.9003 YYZZ=           -108.8524
 XXYZ=             -1.3896 YYXZ=              0.7252 ZZXY=             -3.2108
 N-N= 5.495811674068D+02 E-N=-2.255203984664D+03  KE= 4.912247272222D+02
 1\1\GINC-NODE006\FOpt\RB3LYP\6-31G(d)\C6H12N2O2\STEBOSS\10-Feb-2017\0\
 \# b3lyp/6-31G* Opt=(ModRedundant, maxcycles=1000, calcfc) geom=nocrow
 d\\Phi Psi fixed scan\\0,1\H,1.5975176847,1.4603238444,-0.7794390491\C
 ,1.7787969629,2.5300959317,-0.6598095425\H,1.3290404371,2.8717997344,0
 .2787754215\H,1.2840271952,3.0536005715,-1.4864850889\C,3.282761519,2.
 7791092562,-0.7371070567\O,4.0164007681,2.063648199,-1.4030059695\N,3.
 7056450512,3.8538392353,0.0111448156\H,2.9665104051,4.3763240783,0.461
 707738\C,4.9922595578,4.564450821,-0.061436712\H,5.585035374,4.2982048
 08,0.8278543414\C,5.8311986846,4.2757301432,-1.3111272537\H,5.28761734
 13,4.5875611209,-2.2057023543\H,6.7558492403,4.8614133883,-1.248572753
 6\H,6.0719022188,3.2178250133,-1.3935350672\C,4.6683915794,6.075592736
 1,-0.030172431\O,4.1644171959,6.6492308034,-0.9861523345\N,4.936116991
 9,6.6894915424,1.1615019199\H,5.4097962452,6.159106425,1.8787787461\C,
 4.7345162857,8.1134448582,1.3717583629\H,4.1839380606,8.4946624259,0.5
 107375228\H,4.1538709357,8.292338666,2.2833143702\H,5.6889902657,8.648
 5063976,1.4489723745\\Version=EM64L-G09RevA.02\State=1-A\HF=-495.83750
 79\RMSD=5.156e-09\RMSF=8.728e-04\Dipole=-0.0383084,0.8699331,1.8646733
 \Quadrupole=4.6756986,-5.4102965,0.7345978,3.7808957,1.5312395,1.94802
 8\PG=C01 [X(C6H12N2O2)]\\@


 BE LIKE A POSTAGE STAMP.  STICK TO ONE THING UNTIL
 YOU GET THERE -- JOSH BILLINGS
 Job cpu time:  0 days  1 hours 15 minutes 37.4 seconds.
 File lengths (MBytes):  RWF=    186 Int=      0 D2E=      0 Chk=      4 Scr=      2
 Normal termination of Gaussian 09 at Fri Feb 10 19:25:12 2017.
