 Entering Gaussian System, Link 0=g09
 Initial command:
 /home/steboss/Software/g09/l1.exe /home/steboss/projects/phi_psi_scan/alanine/135/4213/Gau-20757.inp -scrdir=/home/steboss/projects/phi_psi_scan/alanine/135/4213/
 Entering Link 1 = /home/steboss/Software/g09/l1.exe PID=     20759.
  
 Copyright (c) 1988,1990,1992,1993,1995,1998,2003,2009, Gaussian, Inc.
                  All Rights Reserved.
  
 This is part of the Gaussian(R) 09 program.  It is based on
 the Gaussian(R) 03 system (copyright 2003, Gaussian, Inc.),
 the Gaussian(R) 98 system (copyright 1998, Gaussian, Inc.),
 the Gaussian(R) 94 system (copyright 1995, Gaussian, Inc.),
 the Gaussian 92(TM) system (copyright 1992, Gaussian, Inc.),
 the Gaussian 90(TM) system (copyright 1990, Gaussian, Inc.),
 the Gaussian 88(TM) system (copyright 1988, Gaussian, Inc.),
 the Gaussian 86(TM) system (copyright 1986, Carnegie Mellon
 University), and the Gaussian 82(TM) system (copyright 1983,
 Carnegie Mellon University). Gaussian is a federally registered
 trademark of Gaussian, Inc.
  
 This software contains proprietary and confidential information,
 including trade secrets, belonging to Gaussian, Inc.
  
 This software is provided under written license and may be
 used, copied, transmitted, or stored only in accord with that
 written license.
  
 The following legend is applicable only to US Government
 contracts under FAR:
  
                    RESTRICTED RIGHTS LEGEND
  
 Use, reproduction and disclosure by the US Government is
 subject to restrictions as set forth in subparagraphs (a)
 and (c) of the Commercial Computer Software - Restricted
 Rights clause in FAR 52.227-19.
  
 Gaussian, Inc.
 340 Quinnipiac St., Bldg. 40, Wallingford CT 06492
  
  
 ---------------------------------------------------------------
 Warning -- This program may not be used in any manner that
 competes with the business of Gaussian, Inc. or will provide
 assistance to any competitor of Gaussian, Inc.  The licensee
 of this program is prohibited from giving any competitor of
 Gaussian, Inc. access to this program.  By using this program,
 the user acknowledges that Gaussian, Inc. is engaged in the
 business of creating and licensing software in the field of
 computational chemistry and represents and warrants to the
 licensee that it is not a competitor of Gaussian, Inc. and that
 it will not use this program in any manner prohibited above.
 ---------------------------------------------------------------
  

 Cite this work as:
 Gaussian 09, Revision A.02,
 M. J. Frisch, G. W. Trucks, H. B. Schlegel, G. E. Scuseria, 
 M. A. Robb, J. R. Cheeseman, G. Scalmani, V. Barone, B. Mennucci, 
 G. A. Petersson, H. Nakatsuji, M. Caricato, X. Li, H. P. Hratchian, 
 A. F. Izmaylov, J. Bloino, G. Zheng, J. L. Sonnenberg, M. Hada, 
 M. Ehara, K. Toyota, R. Fukuda, J. Hasegawa, M. Ishida, T. Nakajima, 
 Y. Honda, O. Kitao, H. Nakai, T. Vreven, J. A. Montgomery, Jr., 
 J. E. Peralta, F. Ogliaro, M. Bearpark, J. J. Heyd, E. Brothers, 
 K. N. Kudin, V. N. Staroverov, R. Kobayashi, J. Normand, 
 K. Raghavachari, A. Rendell, J. C. Burant, S. S. Iyengar, J. Tomasi, 
 M. Cossi, N. Rega, J. M. Millam, M. Klene, J. E. Knox, J. B. Cross, 
 V. Bakken, C. Adamo, J. Jaramillo, R. Gomperts, R. E. Stratmann, 
 O. Yazyev, A. J. Austin, R. Cammi, C. Pomelli, J. W. Ochterski, 
 R. L. Martin, K. Morokuma, V. G. Zakrzewski, G. A. Voth, 
 P. Salvador, J. J. Dannenberg, S. Dapprich, A. D. Daniels, 
 O. Farkas, J. B. Foresman, J. V. Ortiz, J. Cioslowski, 
 and D. J. Fox, Gaussian, Inc., Wallingford CT, 2009.
 
 ******************************************
 Gaussian 09:  EM64L-G09RevA.02 11-Jun-2009
                10-Feb-2017 
 ******************************************
 %chk=structure_285.chk
 %NProcShared=8
 Will use up to    8 processors via shared memory.
 ----------------------------------------------------------------------
 # b3lyp/6-31G* Opt=(ModRedundant, maxcycles=1000, calcfc) geom=nocrowd
 ----------------------------------------------------------------------
 1/6=1000,10=4,14=-1,18=120,19=15,26=3,38=1/1,3;
 2/9=110,12=1,17=6,18=5,40=1/2;
 3/5=1,6=6,7=1,11=2,16=1,25=1,30=1,71=2,74=-5/1,2,3;
 4//1;
 5/5=2,38=5/2;
 8/6=4,10=90,11=11/1;
 11/6=1,8=1,9=11,15=111,16=1/1,2,10;
 10/6=1,7=6,13=1/2;
 6/7=2,8=2,9=2,10=2,28=1/1;
 7/10=1,18=20,25=1/1,2,3,16;
 1/6=1000,10=4,14=-1,18=20,19=15/3(2);
 2/9=110,12=1/2;
 99//99;
 2/9=110,12=1/2;
 3/5=1,6=6,7=1,11=2,16=1,25=1,30=1,71=1,74=-5/1,2,3;
 4/5=5,16=3/1;
 5/5=2,38=5/2;
 7//1,2,3,16;
 1/6=1000,14=-1,18=20,19=15/3(-5);
 2/9=110,12=1/2;
 6/7=2,8=2,9=2,10=2,19=2,28=1/1;
 99/9=1/99;
 ------------------
 Phi Psi fixed scan
 ------------------
 Symbolic Z-matrix:
 Charge =  0 Multiplicity = 1
 H                     1.7437    1.5164   -1.3919 
 C                     1.8708    2.3503   -0.7015 
 H                     1.709     2.0051    0.3197 
 H                     1.1495    3.1323   -0.9387 
 C                     3.2798    2.9381   -0.8014 
 O                     4.0982    2.4665   -1.5877 
 N                     3.5554    3.9697    0. 
 H                     2.8491    4.3224    0.63 
 C                     4.8533    4.6139    0. 
 H                     5.4076    4.3155    0.8898 
 C                     5.6613    4.2208   -1.2322 
 H                     5.1233    4.5214   -2.1312 
 H                     6.6305    4.7189   -1.2058 
 H                     5.8085    3.1409   -1.2414 
 C                     4.7127    6.1294    0. 
 O                     4.928     6.7758    1.0229 
 N                     4.3498    6.6961   -1.153 
 H                     4.1839    6.1223   -1.9675 
 C                     4.1821    8.1295   -1.2823 
 H                     4.3948    8.6084   -0.3265 
 H                     4.8683    8.5094   -2.0392 
 H                     3.1567    8.3506   -1.5786 
 
 The following ModRedundant input section has been read:
 D    5    7    9   15 F                                                       
 D    7    9   15   17 F                                                       

 GradGradGradGradGradGradGradGradGradGradGradGradGradGradGradGradGradGrad
 Berny optimization.
 Initialization pass.
                           ----------------------------
                           !    Initial Parameters    !
                           ! (Angstroms and Degrees)  !
 --------------------------                            --------------------------
 ! Name  Definition              Value          Derivative Info.                !
 --------------------------------------------------------------------------------
 ! R1    R(1,2)                  1.09           calculate D2E/DX2 analytically  !
 ! R2    R(2,3)                  1.09           calculate D2E/DX2 analytically  !
 ! R3    R(2,4)                  1.09           calculate D2E/DX2 analytically  !
 ! R4    R(2,5)                  1.53           calculate D2E/DX2 analytically  !
 ! R5    R(5,6)                  1.229          calculate D2E/DX2 analytically  !
 ! R6    R(5,7)                  1.3351         calculate D2E/DX2 analytically  !
 ! R7    R(7,8)                  1.01           calculate D2E/DX2 analytically  !
 ! R8    R(7,9)                  1.449          calculate D2E/DX2 analytically  !
 ! R9    R(9,10)                 1.09           calculate D2E/DX2 analytically  !
 ! R10   R(9,11)                 1.525          calculate D2E/DX2 analytically  !
 ! R11   R(9,15)                 1.522          calculate D2E/DX2 analytically  !
 ! R12   R(11,12)                1.09           calculate D2E/DX2 analytically  !
 ! R13   R(11,13)                1.09           calculate D2E/DX2 analytically  !
 ! R14   R(11,14)                1.0899         calculate D2E/DX2 analytically  !
 ! R15   R(15,16)                1.229          calculate D2E/DX2 analytically  !
 ! R16   R(15,17)                1.335          calculate D2E/DX2 analytically  !
 ! R17   R(17,18)                1.01           calculate D2E/DX2 analytically  !
 ! R18   R(17,19)                1.449          calculate D2E/DX2 analytically  !
 ! R19   R(19,20)                1.09           calculate D2E/DX2 analytically  !
 ! R20   R(19,21)                1.09           calculate D2E/DX2 analytically  !
 ! R21   R(19,22)                1.09           calculate D2E/DX2 analytically  !
 ! A1    A(1,2,3)              109.4991         calculate D2E/DX2 analytically  !
 ! A2    A(1,2,4)              109.5033         calculate D2E/DX2 analytically  !
 ! A3    A(1,2,5)              111.0965         calculate D2E/DX2 analytically  !
 ! A4    A(3,2,4)              109.4419         calculate D2E/DX2 analytically  !
 ! A5    A(3,2,5)              108.6351         calculate D2E/DX2 analytically  !
 ! A6    A(4,2,5)              108.6381         calculate D2E/DX2 analytically  !
 ! A7    A(2,5,6)              120.5047         calculate D2E/DX2 analytically  !
 ! A8    A(2,5,7)              116.6015         calculate D2E/DX2 analytically  !
 ! A9    A(6,5,7)              122.8938         calculate D2E/DX2 analytically  !
 ! A10   A(5,7,8)              119.9924         calculate D2E/DX2 analytically  !
 ! A11   A(5,7,9)              121.9002         calculate D2E/DX2 analytically  !
 ! A12   A(8,7,9)              118.1074         calculate D2E/DX2 analytically  !
 ! A13   A(7,9,10)             109.5            calculate D2E/DX2 analytically  !
 ! A14   A(7,9,11)             111.0992         calculate D2E/DX2 analytically  !
 ! A15   A(7,9,15)             111.0966         calculate D2E/DX2 analytically  !
 ! A16   A(10,9,11)            108.6382         calculate D2E/DX2 analytically  !
 ! A17   A(10,9,15)            108.6373         calculate D2E/DX2 analytically  !
 ! A18   A(11,9,15)            107.7947         calculate D2E/DX2 analytically  !
 ! A19   A(9,11,12)            109.5007         calculate D2E/DX2 analytically  !
 ! A20   A(9,11,13)            109.4959         calculate D2E/DX2 analytically  !
 ! A21   A(9,11,14)            109.4978         calculate D2E/DX2 analytically  !
 ! A22   A(12,11,13)           109.441          calculate D2E/DX2 analytically  !
 ! A23   A(12,11,14)           109.4482         calculate D2E/DX2 analytically  !
 ! A24   A(13,11,14)           109.4436         calculate D2E/DX2 analytically  !
 ! A25   A(9,15,16)            120.4983         calculate D2E/DX2 analytically  !
 ! A26   A(9,15,17)            116.6018         calculate D2E/DX2 analytically  !
 ! A27   A(16,15,17)           122.8999         calculate D2E/DX2 analytically  !
 ! A28   A(15,17,18)           119.9973         calculate D2E/DX2 analytically  !
 ! A29   A(15,17,19)           121.9018         calculate D2E/DX2 analytically  !
 ! A30   A(18,17,19)           118.1009         calculate D2E/DX2 analytically  !
 ! A31   A(17,19,20)           109.4996         calculate D2E/DX2 analytically  !
 ! A32   A(17,19,21)           109.5054         calculate D2E/DX2 analytically  !
 ! A33   A(17,19,22)           109.4995         calculate D2E/DX2 analytically  !
 ! A34   A(20,19,21)           109.4465         calculate D2E/DX2 analytically  !
 ! A35   A(20,19,22)           109.4394         calculate D2E/DX2 analytically  !
 ! A36   A(21,19,22)           109.4369         calculate D2E/DX2 analytically  !
 ! D1    D(1,2,5,6)              0.0029         calculate D2E/DX2 analytically  !
 ! D2    D(1,2,5,7)            179.998          calculate D2E/DX2 analytically  !
 ! D3    D(3,2,5,6)            120.5113         calculate D2E/DX2 analytically  !
 ! D4    D(3,2,5,7)            -59.4936         calculate D2E/DX2 analytically  !
 ! D5    D(4,2,5,6)           -120.5126         calculate D2E/DX2 analytically  !
 ! D6    D(4,2,5,7)             59.4825         calculate D2E/DX2 analytically  !
 ! D7    D(2,5,7,8)              0.0069         calculate D2E/DX2 analytically  !
 ! D8    D(2,5,7,9)            180.0            calculate D2E/DX2 analytically  !
 ! D9    D(6,5,7,8)           -179.9982         calculate D2E/DX2 analytically  !
 ! D10   D(6,5,7,9)             -0.0051         calculate D2E/DX2 analytically  !
 ! D11   D(5,7,9,10)          -104.9962         calculate D2E/DX2 analytically  !
 ! D12   D(5,7,9,11)            15.0064         calculate D2E/DX2 analytically  !
 ! D13   D(5,7,9,15)           135.004          frozen, calculate D2E/DX2 analyt!
 ! D14   D(8,7,9,10)            74.9971         calculate D2E/DX2 analytically  !
 ! D15   D(8,7,9,11)          -165.0003         calculate D2E/DX2 analytically  !
 ! D16   D(8,7,9,15)           -45.0028         calculate D2E/DX2 analytically  !
 ! D17   D(7,9,11,12)           60.0024         calculate D2E/DX2 analytically  !
 ! D18   D(7,9,11,13)          179.9986         calculate D2E/DX2 analytically  !
 ! D19   D(7,9,11,14)          -60.0038         calculate D2E/DX2 analytically  !
 ! D20   D(10,9,11,12)        -179.4843         calculate D2E/DX2 analytically  !
 ! D21   D(10,9,11,13)         -59.4881         calculate D2E/DX2 analytically  !
 ! D22   D(10,9,11,14)          60.5095         calculate D2E/DX2 analytically  !
 ! D23   D(15,9,11,12)         -61.938          calculate D2E/DX2 analytically  !
 ! D24   D(15,9,11,13)          58.0582         calculate D2E/DX2 analytically  !
 ! D25   D(15,9,11,14)         178.0558         calculate D2E/DX2 analytically  !
 ! D26   D(7,9,15,16)          105.0004         calculate D2E/DX2 analytically  !
 ! D27   D(7,9,15,17)          -74.9976         frozen, calculate D2E/DX2 analyt!
 ! D28   D(10,9,15,16)         -15.5107         calculate D2E/DX2 analytically  !
 ! D29   D(10,9,15,17)         164.4913         calculate D2E/DX2 analytically  !
 ! D30   D(11,9,15,16)        -133.0576         calculate D2E/DX2 analytically  !
 ! D31   D(11,9,15,17)          46.9444         calculate D2E/DX2 analytically  !
 ! D32   D(9,15,17,18)          -0.0053         calculate D2E/DX2 analytically  !
 ! D33   D(9,15,17,19)        -179.9963         calculate D2E/DX2 analytically  !
 ! D34   D(16,15,17,18)        179.9968         calculate D2E/DX2 analytically  !
 ! D35   D(16,15,17,19)          0.0058         calculate D2E/DX2 analytically  !
 ! D36   D(15,17,19,20)         -0.0095         calculate D2E/DX2 analytically  !
 ! D37   D(15,17,19,21)        119.9986         calculate D2E/DX2 analytically  !
 ! D38   D(15,17,19,22)       -120.0052         calculate D2E/DX2 analytically  !
 ! D39   D(18,17,19,20)        179.9994         calculate D2E/DX2 analytically  !
 ! D40   D(18,17,19,21)        -59.9925         calculate D2E/DX2 analytically  !
 ! D41   D(18,17,19,22)         60.0037         calculate D2E/DX2 analytically  !
 --------------------------------------------------------------------------------
 Trust Radius=3.00D-01 FncErr=1.00D-07 GrdErr=1.00D-06
 Number of steps in this run= 132 maximum allowed number of steps= 132.
 GradGradGradGradGradGradGradGradGradGradGradGradGradGradGradGradGradGrad

                          Input orientation:                          
 ---------------------------------------------------------------------
 Center     Atomic      Atomic             Coordinates (Angstroms)
 Number     Number       Type             X           Y           Z
 ---------------------------------------------------------------------
      1          1           0        1.743700    1.516400   -1.391900
      2          6           0        1.870800    2.350300   -0.701500
      3          1           0        1.709000    2.005100    0.319700
      4          1           0        1.149500    3.132300   -0.938700
      5          6           0        3.279800    2.938100   -0.801400
      6          8           0        4.098200    2.466500   -1.587700
      7          7           0        3.555400    3.969700    0.000000
      8          1           0        2.849100    4.322400    0.630000
      9          6           0        4.853300    4.613900    0.000000
     10          1           0        5.407600    4.315500    0.889800
     11          6           0        5.661300    4.220800   -1.232200
     12          1           0        5.123300    4.521400   -2.131200
     13          1           0        6.630500    4.718900   -1.205800
     14          1           0        5.808500    3.140900   -1.241400
     15          6           0        4.712700    6.129400    0.000000
     16          8           0        4.928000    6.775800    1.022900
     17          7           0        4.349800    6.696100   -1.153000
     18          1           0        4.183900    6.122300   -1.967500
     19          6           0        4.182100    8.129500   -1.282300
     20          1           0        4.394800    8.608400   -0.326500
     21          1           0        4.868300    8.509400   -2.039200
     22          1           0        3.156700    8.350600   -1.578600
 ---------------------------------------------------------------------
                    Distance matrix (angstroms):
                    1          2          3          4          5
     1  H    0.000000
     2  C    1.090044   0.000000
     3  H    1.780339   1.090042   0.000000
     4  H    1.780336   1.089982   1.779660   0.000000
     5  C    2.174747   1.529957   2.143541   2.143535   0.000000
     6  O    2.546507   2.400034   3.091818   3.091815   1.229005
     7  N    3.352361   2.439761   2.714969   2.714913   1.335064
     8  H    3.630926   2.572769   2.601152   2.601115   2.037325
     9  C    4.604509   3.809369   4.098130   4.098101   2.434430
    10  H    5.144442   4.347781   4.398023   4.782760   3.047117
    11  C    4.763074   4.260083   4.789404   4.650518   2.739060
    12  H    4.582389   4.163709   4.898584   4.375242   2.770144
    13  H    5.845635   5.340349   5.823489   5.712268   3.816016
    14  H    4.379983   4.052409   4.531333   4.668831   2.574694
    15  C    5.659692   4.780177   5.112169   4.749754   3.588849
    16  O    6.605476   5.648458   5.797933   5.603573   4.557694
    17  N    5.803285   5.023472   5.581053   4.794634   3.923148
    18  H    5.244064   4.602301   5.320503   4.382478   3.509461
    19  C    7.049177   6.251287   6.796389   5.855487   5.291129
    20  H    7.645906   6.758329   7.157840   6.394875   5.798367
    21  H    7.686623   6.979180   7.606018   6.629765   5.924092
    22  H    6.981240   6.198907   6.779731   5.627520   5.469401
                    6          7          8          9         10
     6  O    0.000000
     7  N    2.252783   0.000000
     8  H    3.150049   1.010028   0.000000
     9  C    2.775301   1.448978   2.121012   0.000000
    10  H    3.357281   2.083739   2.571666   1.089970   0.000000
    11  C    2.376390   2.452791   3.374401   1.525027   2.139209
    12  H    2.359838   2.702720   3.582710   2.150225   3.041326
    13  H    3.410527   3.386959   4.222127   2.150214   2.459625
    14  H    1.870793   2.702673   3.695420   2.150165   2.466256
    15  C    4.039213   2.450234   2.671171   1.522008   2.136554
    16  O    5.106258   3.287028   3.239655   2.392847   2.510141
    17  N    4.259317   3.064920   3.326506   2.432792   3.310473
    18  H    3.676475   2.983246   3.430501   2.567961   3.595293
    19  C    5.671850   4.397838   4.464055   3.801874   4.557024
    20  H    6.277064   4.725329   4.655521   4.033963   4.575384
    21  H    6.108482   5.146933   5.360295   4.396986   5.143800
    22  H    5.958954   4.673674   4.604229   4.396971   5.238471
                   11         12         13         14         15
    11  C    0.000000
    12  H    1.089957   0.000000
    13  H    1.090023   1.779613   0.000000
    14  H    1.089925   1.779613   1.779617   0.000000
    15  C    2.461892   2.701161   2.668599   3.416575   0.000000
    16  O    3.485861   3.881856   3.477995   4.372051   1.229029
    17  N    2.802395   2.506890   3.018891   3.843835   1.335011
    18  H    2.517753   1.863371   2.921570   3.472073   2.037336
    19  C    4.179531   3.824248   4.199132   5.247188   2.434385
    20  H    4.655679   4.526723   4.571623   5.720939   2.520536
    21  H    4.435334   3.997203   4.262370   5.508289   3.137985
    22  H    4.842341   4.340006   5.039396   5.855486   3.137968
                   16         17         18         19         20
    16  O    0.000000
    17  N    2.252822   0.000000
    18  H    3.150117   1.010039   0.000000
    19  C    2.775395   1.448957   2.120932   0.000000
    20  H    2.337436   2.083751   2.986311   1.090018   0.000000
    21  H    3.519288   2.083807   2.484309   1.089996   1.779703
    22  H    3.519276   2.083745   2.484291   1.090011   1.779637
                   21         22
    21  H    0.000000
    22  H    1.779591   0.000000
 Stoichiometry    C6H12N2O2
 Framework group  C1[X(C6H12N2O2)]
 Deg. of freedom    60
 Full point group                 C1      NOp   1
 Largest Abelian subgroup         C1      NOp   1
 Largest concise Abelian subgroup C1      NOp   1
                         Standard orientation:                         
 ---------------------------------------------------------------------
 Center     Atomic      Atomic             Coordinates (Angstroms)
 Number     Number       Type             X           Y           Z
 ---------------------------------------------------------------------
      1          1           0        3.960155   -1.163257   -0.596301
      2          6           0        3.077806   -1.366093    0.010752
      3          1           0        3.376562   -1.515786    1.048311
      4          1           0        2.581618   -2.264172   -0.357098
      5          6           0        2.088017   -0.201007   -0.049767
      6          8           0        2.338821    0.796334   -0.722717
      7          7           0        0.963486   -0.334577    0.657330
      8          1           0        0.802183   -1.173897    1.195548
      9          6           0       -0.052609    0.698125    0.682171
     10          1           0       -0.012196    1.225464    1.635227
     11          6           0        0.161490    1.706103   -0.442039
     12          1           0        0.114602    1.194446   -1.403296
     13          1           0       -0.615444    2.469435   -0.399075
     14          1           0        1.138368    2.175893   -0.328267
     15          6           0       -1.443188    0.102607    0.514371
     16          8           0       -2.201269    0.007372    1.477052
     17          7           0       -1.777217   -0.299084   -0.714174
     18          1           0       -1.119376   -0.199980   -1.474177
     19          6           0       -3.071636   -0.882335   -1.003613
     20          1           0       -3.665177   -0.922243   -0.090237
     21          1           0       -3.587753   -0.272910   -1.745446
     22          1           0       -2.937122   -1.891414   -1.393215
 ---------------------------------------------------------------------
 Rotational constants (GHZ):      2.4168465      0.7277711      0.7071230
 Standard basis: 6-31G(d) (6D, 7F)
 There are   174 symmetry adapted basis functions of A   symmetry.
 Integral buffers will be    131072 words long.
 Raffenetti 2 integral format.
 Two-electron integral symmetry is turned on.
   174 basis functions,   328 primitive gaussians,   174 cartesian basis functions
    39 alpha electrons       39 beta electrons
       nuclear repulsion energy       563.0554501637 Hartrees.
 NAtoms=   22 NActive=   22 NUniq=   22 SFac= 7.50D-01 NAtFMM=   80 NAOKFM=F Big=F
 One-electron integrals computed using PRISM.
 NBasis=   174 RedAO= T  NBF=   174
 NBsUse=   174 1.00D-06 NBFU=   174
 Harris functional with IExCor=  402 diagonalized for initial guess.
 ExpMin= 1.61D-01 ExpMax= 5.48D+03 ExpMxC= 8.25D+02 IAcc=1 IRadAn=         1 AccDes= 0.00D+00
 HarFok:  IExCor=  402 AccDes= 0.00D+00 IRadAn=         1 IDoV= 1
 ScaDFX=  1.000000  1.000000  1.000000  1.000000
 FoFCou: FMM=F IPFlag=           0 FMFlag=      100000 FMFlg1=           0
         NFxFlg=           0 DoJE=T BraDBF=F KetDBF=T FulRan=T
         Omega=  0.000000  0.000000  1.000000  0.000000  0.000000 ICntrl=     500 IOpCl=  0
         NMat0=    1 NMatS0=    1 NMatT0=    0 NMatD0=    1 NMtDS0=    0 NMtDT0=    0
         I1Cent=           4 NGrid=           0.
 Petite list used in FoFCou.
 Initial guess orbital symmetries:
       Occupied  (A) (A) (A) (A) (A) (A) (A) (A) (A) (A) (A) (A)
                 (A) (A) (A) (A) (A) (A) (A) (A) (A) (A) (A) (A)
                 (A) (A) (A) (A) (A) (A) (A) (A) (A) (A) (A) (A)
                 (A) (A) (A)
       Virtual   (A) (A) (A) (A) (A) (A) (A) (A) (A) (A) (A) (A)
                 (A) (A) (A) (A) (A) (A) (A) (A) (A) (A) (A) (A)
                 (A) (A) (A) (A) (A) (A) (A) (A) (A) (A) (A) (A)
                 (A) (A) (A) (A) (A) (A) (A) (A) (A) (A) (A) (A)
                 (A) (A) (A) (A) (A) (A) (A) (A) (A) (A) (A) (A)
                 (A) (A) (A) (A) (A) (A) (A) (A) (A) (A) (A) (A)
                 (A) (A) (A) (A) (A) (A) (A) (A) (A) (A) (A) (A)
                 (A) (A) (A) (A) (A) (A) (A) (A) (A) (A) (A) (A)
                 (A) (A) (A) (A) (A) (A) (A) (A) (A) (A) (A) (A)
                 (A) (A) (A) (A) (A) (A) (A) (A) (A) (A) (A) (A)
                 (A) (A) (A) (A) (A) (A) (A) (A) (A) (A) (A) (A)
                 (A) (A) (A)
 The electronic state of the initial guess is 1-A.
 Requested convergence on RMS density matrix=1.00D-08 within 128 cycles.
 Requested convergence on MAX density matrix=1.00D-06.
 Requested convergence on             energy=1.00D-06.
 No special actions if energy rises.
 Integral accuracy reduced to 1.0D-05 until final iterations.
 Initial convergence to 1.0D-05 achieved.  Increase integral accuracy.
 SCF Done:  E(RB3LYP) =  -495.814392666     A.U. after   15 cycles
             Convg  =    0.9096D-08             -V/T =  2.0084
 Range of M.O.s used for correlation:     1   174
 NBasis=   174 NAE=    39 NBE=    39 NFC=     0 NFV=     0
 NROrb=    174 NOA=    39 NOB=    39 NVA=   135 NVB=   135
 Symmetrizing basis deriv contribution to polar:
 IMax=3 JMax=2 DiffMx= 0.00D+00
 G2DrvN: will do    23 centers at a time, making    1 passes doing MaxLOS=2.
 Calling FoFCou, ICntrl=  3107 FMM=F I1Cent=   0 AccDes= 0.00D+00.
 FoFDir/FoFCou used for L=0 through L=2.
 End of G2Drv Frequency-dependent properties file   721 does not exist.
 End of G2Drv Frequency-dependent properties file   722 does not exist.
          IDoAtm=1111111111111111111111
          Differentiating once with respect to nuclear coordinates.
          There are    69 degrees of freedom in the 1st order CPHF.  IDoFFX=5.
     63 vectors produced by pass  0 Test12= 7.63D-11 1.45D-07 XBig12= 1.88D-01 9.52D-02.
 AX will form    63 AO Fock derivatives at one time.
     63 vectors produced by pass  1 Test12= 7.63D-11 1.45D-07 XBig12= 2.51D-02 4.37D-02.
     63 vectors produced by pass  2 Test12= 7.63D-11 1.45D-07 XBig12= 6.97D-05 1.21D-03.
     63 vectors produced by pass  3 Test12= 7.63D-11 1.45D-07 XBig12= 9.52D-08 4.84D-05.
     30 vectors produced by pass  4 Test12= 7.63D-11 1.45D-07 XBig12= 1.01D-10 1.34D-06.
 Inverted reduced A of dimension   282 with in-core refinement.
 End of Minotr Frequency-dependent properties file   721 does not exist.
 End of Minotr Frequency-dependent properties file   722 does not exist.

 **********************************************************************

            Population analysis using the SCF density.

 **********************************************************************

 Orbital symmetries:
       Occupied  (A) (A) (A) (A) (A) (A) (A) (A) (A) (A) (A) (A)
                 (A) (A) (A) (A) (A) (A) (A) (A) (A) (A) (A) (A)
                 (A) (A) (A) (A) (A) (A) (A) (A) (A) (A) (A) (A)
                 (A) (A) (A)
       Virtual   (A) (A) (A) (A) (A) (A) (A) (A) (A) (A) (A) (A)
                 (A) (A) (A) (A) (A) (A) (A) (A) (A) (A) (A) (A)
                 (A) (A) (A) (A) (A) (A) (A) (A) (A) (A) (A) (A)
                 (A) (A) (A) (A) (A) (A) (A) (A) (A) (A) (A) (A)
                 (A) (A) (A) (A) (A) (A) (A) (A) (A) (A) (A) (A)
                 (A) (A) (A) (A) (A) (A) (A) (A) (A) (A) (A) (A)
                 (A) (A) (A) (A) (A) (A) (A) (A) (A) (A) (A) (A)
                 (A) (A) (A) (A) (A) (A) (A) (A) (A) (A) (A) (A)
                 (A) (A) (A) (A) (A) (A) (A) (A) (A) (A) (A) (A)
                 (A) (A) (A) (A) (A) (A) (A) (A) (A) (A) (A) (A)
                 (A) (A) (A) (A) (A) (A) (A) (A) (A) (A) (A) (A)
                 (A) (A) (A)
 The electronic state is 1-A.
 Alpha  occ. eigenvalues --  -19.10526 -19.10193 -14.37025 -14.36463 -10.28934
 Alpha  occ. eigenvalues --  -10.27924 -10.23142 -10.21915 -10.19317 -10.16733
 Alpha  occ. eigenvalues --   -1.03892  -1.02890  -0.93636  -0.92450  -0.78911
 Alpha  occ. eigenvalues --   -0.73214  -0.70698  -0.65384  -0.59464  -0.58153
 Alpha  occ. eigenvalues --   -0.54521  -0.51329  -0.46983  -0.45872  -0.45697
 Alpha  occ. eigenvalues --   -0.44106  -0.42148  -0.41501  -0.40206  -0.39971
 Alpha  occ. eigenvalues --   -0.38804  -0.37734  -0.37029  -0.36214  -0.35513
 Alpha  occ. eigenvalues --   -0.26539  -0.25274  -0.24310  -0.22649
 Alpha virt. eigenvalues --    0.02002   0.03584   0.06783   0.07938   0.11725
 Alpha virt. eigenvalues --    0.12663   0.13657   0.15083   0.16266   0.16632
 Alpha virt. eigenvalues --    0.17034   0.17317   0.18531   0.19454   0.20712
 Alpha virt. eigenvalues --    0.22138   0.23273   0.26733   0.27030   0.32527
 Alpha virt. eigenvalues --    0.35903   0.39477   0.42843   0.50855   0.51682
 Alpha virt. eigenvalues --    0.52087   0.52514   0.53534   0.55150   0.57109
 Alpha virt. eigenvalues --    0.58267   0.58758   0.60964   0.64143   0.65675
 Alpha virt. eigenvalues --    0.67256   0.68951   0.70913   0.71458   0.73006
 Alpha virt. eigenvalues --    0.75177   0.76087   0.79954   0.81398   0.83631
 Alpha virt. eigenvalues --    0.86112   0.86729   0.86985   0.87902   0.88671
 Alpha virt. eigenvalues --    0.89695   0.89993   0.91163   0.93043   0.94303
 Alpha virt. eigenvalues --    0.94717   0.95532   0.98424   1.00158   1.02579
 Alpha virt. eigenvalues --    1.04114   1.07843   1.10559   1.14349   1.19657
 Alpha virt. eigenvalues --    1.21471   1.27013   1.30022   1.33356   1.37174
 Alpha virt. eigenvalues --    1.37372   1.40534   1.43953   1.48014   1.49245
 Alpha virt. eigenvalues --    1.49907   1.52199   1.59484   1.63573   1.70310
 Alpha virt. eigenvalues --    1.71890   1.75951   1.80109   1.80884   1.82757
 Alpha virt. eigenvalues --    1.84478   1.85724   1.89598   1.91248   1.93163
 Alpha virt. eigenvalues --    1.94614   1.95974   1.98139   2.01665   2.04410
 Alpha virt. eigenvalues --    2.06319   2.07244   2.13377   2.14852   2.18041
 Alpha virt. eigenvalues --    2.19191   2.26035   2.27173   2.28321   2.29197
 Alpha virt. eigenvalues --    2.31274   2.36694   2.37284   2.40254   2.42302
 Alpha virt. eigenvalues --    2.44227   2.45857   2.49699   2.61923   2.64231
 Alpha virt. eigenvalues --    2.65965   2.68447   2.73133   2.77382   2.90018
 Alpha virt. eigenvalues --    2.91500   2.98098   2.99933   3.15587   3.20138
 Alpha virt. eigenvalues --    3.95821   3.98198   4.08369   4.14415   4.20618
 Alpha virt. eigenvalues --    4.25060   4.28441   4.39440   4.50737   4.68597
          Condensed to atoms (all electrons):
              1          2          3          4          5          6
     1  H    0.499348   0.359806  -0.020743  -0.021118  -0.017212   0.005093
     2  C    0.359806   5.331036   0.351632   0.349968   0.351870  -0.073857
     3  H   -0.020743   0.351632   0.547427  -0.026384  -0.026445   0.001200
     4  H   -0.021118   0.349968  -0.026384   0.555846  -0.027615   0.001287
     5  C   -0.017212   0.351870  -0.026445  -0.027615   4.364162   0.576995
     6  O    0.005093  -0.073857   0.001200   0.001287   0.576995   8.156132
     7  N    0.004608  -0.136802   0.005098   0.005308   0.247250  -0.099731
     8  H   -0.000142   0.001245   0.000770   0.000612  -0.019901   0.003664
     9  C   -0.000100   0.003208  -0.000030   0.000129  -0.031232  -0.012212
    10  H    0.000003  -0.000226   0.000018   0.000002   0.000041   0.000234
    11  C    0.000005   0.000394   0.000017  -0.000036  -0.002037  -0.045719
    12  H    0.000012  -0.000349   0.000006   0.000008   0.001209  -0.005983
    13  H   -0.000001   0.000035  -0.000001  -0.000002   0.000936   0.004623
    14  H    0.000017   0.000158  -0.000030   0.000007  -0.001445   0.002928
    15  C    0.000001  -0.000106  -0.000011   0.000021   0.001418   0.000223
    16  O    0.000000   0.000002   0.000000   0.000000  -0.000062  -0.000001
    17  N    0.000000  -0.000015   0.000000   0.000007   0.000316  -0.000036
    18  H    0.000000  -0.000030   0.000000   0.000020   0.000365  -0.000344
    19  C    0.000000  -0.000001   0.000000   0.000000  -0.000012   0.000000
    20  H    0.000000   0.000000   0.000000   0.000000   0.000001   0.000000
    21  H    0.000000   0.000000   0.000000   0.000000   0.000001   0.000000
    22  H    0.000000   0.000000   0.000000   0.000000   0.000000   0.000000
              7          8          9         10         11         12
     1  H    0.004608  -0.000142  -0.000100   0.000003   0.000005   0.000012
     2  C   -0.136802   0.001245   0.003208  -0.000226   0.000394  -0.000349
     3  H    0.005098   0.000770  -0.000030   0.000018   0.000017   0.000006
     4  H    0.005308   0.000612   0.000129   0.000002  -0.000036   0.000008
     5  C    0.247250  -0.019901  -0.031232   0.000041  -0.002037   0.001209
     6  O   -0.099731   0.003664  -0.012212   0.000234  -0.045719  -0.005983
     7  N    7.155532   0.303299   0.241387  -0.048280  -0.045486  -0.004219
     8  H    0.303299   0.406342  -0.038254   0.000406   0.005951  -0.000189
     9  C    0.241387  -0.038254   5.062705   0.369169   0.345607  -0.026289
    10  H   -0.048280   0.000406   0.369169   0.576417  -0.041050   0.005534
    11  C   -0.045486   0.005951   0.345607  -0.041050   5.183251   0.371732
    12  H   -0.004219  -0.000189  -0.026289   0.005534   0.371732   0.585695
    13  H    0.004453  -0.000077  -0.037618  -0.003153   0.339152  -0.035816
    14  H   -0.004466  -0.000307  -0.016421  -0.002826   0.367847  -0.021800
    15  C   -0.043529   0.000443   0.356453  -0.036439  -0.046633  -0.015287
    16  O   -0.000385   0.001787  -0.073493   0.004635   0.001832  -0.000059
    17  N    0.002249   0.000849  -0.120580   0.006205   0.002751   0.000643
    18  H    0.002907  -0.000040  -0.002209   0.000277   0.001095   0.013126
    19  C   -0.000189  -0.000027   0.006325  -0.000132   0.000024   0.000172
    20  H   -0.000034  -0.000013   0.001102  -0.000024  -0.000105  -0.000004
    21  H   -0.000005   0.000001  -0.000068   0.000006  -0.000054   0.000032
    22  H    0.000041  -0.000005  -0.000225   0.000001   0.000015  -0.000005
             13         14         15         16         17         18
     1  H   -0.000001   0.000017   0.000001   0.000000   0.000000   0.000000
     2  C    0.000035   0.000158  -0.000106   0.000002  -0.000015  -0.000030
     3  H   -0.000001  -0.000030  -0.000011   0.000000   0.000000   0.000000
     4  H   -0.000002   0.000007   0.000021   0.000000   0.000007   0.000020
     5  C    0.000936  -0.001445   0.001418  -0.000062   0.000316   0.000365
     6  O    0.004623   0.002928   0.000223  -0.000001  -0.000036  -0.000344
     7  N    0.004453  -0.004466  -0.043529  -0.000385   0.002249   0.002907
     8  H   -0.000077  -0.000307   0.000443   0.001787   0.000849  -0.000040
     9  C   -0.037618  -0.016421   0.356453  -0.073493  -0.120580  -0.002209
    10  H   -0.003153  -0.002826  -0.036439   0.004635   0.006205   0.000277
    11  C    0.339152   0.367847  -0.046633   0.001832   0.002751   0.001095
    12  H   -0.035816  -0.021800  -0.015287  -0.000059   0.000643   0.013126
    13  H    0.619380  -0.027233   0.000351   0.000425  -0.001094  -0.000579
    14  H   -0.027233   0.486566   0.003489  -0.000090   0.000466  -0.000222
    15  C    0.000351   0.003489   4.401756   0.592892   0.246717  -0.018902
    16  O    0.000425  -0.000090   0.592892   8.093460  -0.108973   0.003735
    17  N   -0.001094   0.000466   0.246717  -0.108973   7.107079   0.295785
    18  H   -0.000579  -0.000222  -0.018902   0.003735   0.295785   0.402146
    19  C   -0.000166   0.000003  -0.028228  -0.010216   0.269570  -0.030962
    20  H   -0.000010   0.000001  -0.000411   0.022835  -0.038047   0.003603
    21  H    0.000029  -0.000003   0.001544   0.000647  -0.044859  -0.000014
    22  H    0.000000   0.000001   0.001682   0.000626  -0.043828  -0.001207
             19         20         21         22
     1  H    0.000000   0.000000   0.000000   0.000000
     2  C   -0.000001   0.000000   0.000000   0.000000
     3  H    0.000000   0.000000   0.000000   0.000000
     4  H    0.000000   0.000000   0.000000   0.000000
     5  C   -0.000012   0.000001   0.000001   0.000000
     6  O    0.000000   0.000000   0.000000   0.000000
     7  N   -0.000189  -0.000034  -0.000005   0.000041
     8  H   -0.000027  -0.000013   0.000001  -0.000005
     9  C    0.006325   0.001102  -0.000068  -0.000225
    10  H   -0.000132  -0.000024   0.000006   0.000001
    11  C    0.000024  -0.000105  -0.000054   0.000015
    12  H    0.000172  -0.000004   0.000032  -0.000005
    13  H   -0.000166  -0.000010   0.000029   0.000000
    14  H    0.000003   0.000001  -0.000003   0.000001
    15  C   -0.028228  -0.000411   0.001544   0.001682
    16  O   -0.010216   0.022835   0.000647   0.000626
    17  N    0.269570  -0.038047  -0.044859  -0.043828
    18  H   -0.030962   0.003603  -0.000014  -0.001207
    19  C    4.967368   0.375268   0.383698   0.380897
    20  H    0.375268   0.475346  -0.024220  -0.024178
    21  H    0.383698  -0.024220   0.560874  -0.038832
    22  H    0.380897  -0.024178  -0.038832   0.569122
 Mulliken atomic charges:
              1
     1  H    0.190423
     2  C   -0.537969
     3  H    0.167475
     4  H    0.161939
     5  C    0.581397
     6  O   -0.514496
     7  N   -0.589007
     8  H    0.333586
     9  C   -0.027355
    10  H    0.169181
    11  C   -0.438554
    12  H    0.131830
    13  H    0.136364
    14  H    0.213362
    15  C    0.582559
    16  O   -0.529596
    17  N   -0.575205
    18  H    0.331451
    19  C   -0.313391
    20  H    0.208888
    21  H    0.161223
    22  H    0.155894
 Sum of Mulliken atomic charges =   0.00000
 Mulliken charges with hydrogens summed into heavy atoms:
              1
     2  C   -0.018132
     5  C    0.581397
     6  O   -0.514496
     7  N   -0.255421
     9  C    0.141826
    11  C    0.043003
    15  C    0.582559
    16  O   -0.529596
    17  N   -0.243755
    19  C    0.212614
 Sum of Mulliken charges with hydrogens summed into heavy atoms =   0.00000
 APT atomic charges:
              1
     1  H    0.685385
     2  C   -1.235173
     3  H    0.462984
     4  H    0.280462
     5  C   -0.011726
     6  O   -0.187124
     7  N   -0.655697
     8  H    0.554487
     9  C   -0.456918
    10  H    0.471869
    11  C   -1.095205
    12  H    0.245106
    13  H    0.463203
    14  H    0.474508
    15  C   -0.317361
    16  O    0.072808
    17  N   -0.295104
    18  H    0.384903
    19  C   -1.385226
    20  H    0.543649
    21  H    0.559288
    22  H    0.440880
 Sum of APT charges=   0.00000
 APT Atomic charges with hydrogens summed into heavy atoms:
              1
     1  H    0.000000
     2  C    0.193658
     3  H    0.000000
     4  H    0.000000
     5  C   -0.011726
     6  O   -0.187124
     7  N   -0.101209
     8  H    0.000000
     9  C    0.014951
    10  H    0.000000
    11  C    0.087612
    12  H    0.000000
    13  H    0.000000
    14  H    0.000000
    15  C   -0.317361
    16  O    0.072808
    17  N    0.089799
    18  H    0.000000
    19  C    0.158592
    20  H    0.000000
    21  H    0.000000
    22  H    0.000000
 Sum of APT charges=   0.00000
 Electronic spatial extent (au):  <R**2>=           1786.9067
 Charge=              0.0000 electrons
 Dipole moment (field-independent basis, Debye):
    X=              0.2478    Y=             -2.7226    Z=             -1.3595  Tot=              3.0533
 Quadrupole moment (field-independent basis, Debye-Ang):
   XX=            -64.5575   YY=            -57.8487   ZZ=            -61.4466
   XY=             -4.1248   XZ=             11.9939   YZ=              1.3743
 Traceless Quadrupole moment (field-independent basis, Debye-Ang):
   XX=             -3.2732   YY=              3.4356   ZZ=             -0.1624
   XY=             -4.1248   XZ=             11.9939   YZ=              1.3743
 Octapole moment (field-independent basis, Debye-Ang**2):
  XXX=             -4.8632  YYY=             -2.3175  ZZZ=             -6.8267  XYY=             -2.1232
  XXY=            -19.2926  XXZ=            -10.7052  XZZ=              5.5492  YZZ=             -3.8644
  YYZ=              4.3345  XYZ=              1.1581
 Hexadecapole moment (field-independent basis, Debye-Ang**3):
 XXXX=          -1561.6331 YYYY=           -388.1526 ZZZZ=           -297.5659 XXXY=            -12.6349
 XXXZ=             51.6568 YYYX=              8.4145 YYYZ=              1.3034 ZZZX=             18.1302
 ZZZY=             -1.6760 XXYY=           -330.7360 XXZZ=           -335.5966 YYZZ=           -111.2934
 XXYZ=             10.5236 YYXZ=              0.8559 ZZXY=             -1.5016
 N-N= 5.630554501637D+02 E-N=-2.282461243083D+03  KE= 4.917010019536D+02
  Exact polarizability:   0.000   0.000   0.000   0.000   0.000   0.000
 Approx polarizability: 112.133   5.463 103.227 -14.199  -5.495 121.558
 Calling FoFJK, ICntrl=    100147 FMM=F ISym2X=0 I1Cent= 0 IOpClX= 0 NMat=1 NMatS=1 NMatT=0.
 ***** Axes restored to original set *****
 -------------------------------------------------------------------
 Center     Atomic                   Forces (Hartrees/Bohr)
 Number     Number              X              Y              Z
 -------------------------------------------------------------------
      1        1           0.003666792    0.001110199   -0.000612806
      2        6           0.005466323    0.007664428    0.003762394
      3        1          -0.005203843   -0.001412982    0.003486881
      4        1          -0.006675807    0.000802193    0.001158237
      5        6          -0.012079458   -0.034875494   -0.023579765
      6        8          -0.027427832   -0.022459683   -0.003161778
      7        7          -0.002392516    0.016888573    0.009883275
      8        1          -0.000326486   -0.000583830    0.001837841
      9        6           0.011000819    0.000609804   -0.009655630
     10        1           0.000775374    0.004872479    0.005724435
     11        6           0.021925858   -0.002560291    0.004404345
     12        1           0.006038832   -0.006095376   -0.004737600
     13        1           0.002630838    0.007936588    0.001438149
     14        1           0.008651368    0.011921219   -0.004342847
     15        6           0.003816031   -0.001355456    0.031569580
     16        8           0.000797047    0.001924470    0.003690620
     17        7          -0.007988151    0.009860082   -0.015634008
     18        1          -0.000030287    0.001318433    0.001621031
     19        6          -0.001177396   -0.000799835   -0.003192141
     20        1           0.000513740   -0.003058866    0.000634914
     21        1           0.001395517    0.004223208   -0.002704786
     22        1          -0.003376763    0.004070137   -0.001590342
 -------------------------------------------------------------------
 Cartesian Forces:  Max     0.034875494 RMS     0.009913230

 GradGradGradGradGradGradGradGradGradGradGradGradGradGradGradGradGradGrad
 Berny optimization.
 Internal  Forces:  Max     0.123088789 RMS     0.021906576
 Search for a local minimum.
 Step number   1 out of a maximum of  132
 All quantities printed in internal units (Hartrees-Bohrs-Radians)
 Mixed Optimization -- RFO/linear search
 Second derivative matrix not updated -- analytic derivatives used.
     Eigenvalues ---   -0.02113  -0.00070  -0.00024   0.00337   0.00735
     Eigenvalues ---    0.01494   0.01573   0.02193   0.04162   0.04258
     Eigenvalues ---    0.04556   0.04994   0.05274   0.05785   0.05851
     Eigenvalues ---    0.05972   0.06416   0.06612   0.11668   0.11888
     Eigenvalues ---    0.12484   0.13132   0.13311   0.13506   0.13683
     Eigenvalues ---    0.14170   0.14230   0.17203   0.17769   0.18527
     Eigenvalues ---    0.18671   0.21181   0.22693   0.23510   0.23650
     Eigenvalues ---    0.26935   0.29078   0.30899   0.33824   0.34565
     Eigenvalues ---    0.34596   0.34777   0.34893   0.35073   0.35375
     Eigenvalues ---    0.35483   0.35832   0.35892   0.36444   0.39370
     Eigenvalues ---    0.43611   0.46772   0.48380   0.50906   0.54194
     Eigenvalues ---    0.80611   0.83372   1.845091000.000001000.00000
     Eigenvalues --- 1000.000001000.000001000.000001000.000001000.00000
     Eigenvalues --- 1000.000001000.000001000.000001000.000001000.00000
     Eigenvalues --- 1000.000001000.000001000.000001000.000001000.00000
     Eigenvalues --- 1000.000001000.000001000.000001000.000001000.00000
     Eigenvalues --- 1000.000001000.000001000.000001000.000001000.00000
     Eigenvalues --- 1000.000001000.000001000.000001000.000001000.00000
     Eigenvalues --- 1000.000001000.000001000.000001000.000001000.00000
     Eigenvalues --- 1000.000001000.000001000.00000
 RFO step:  Lambda=-3.39801581D-02 EMin=-2.11310894D-02
 Linear search not attempted -- first point.
 Maximum step size (   0.300) exceeded in Quadratic search.
    -- Step size scaled by   0.308
 Iteration  1 RMS(Cart)=  0.06356633 RMS(Int)=  0.00181756
 Iteration  2 RMS(Cart)=  0.00270328 RMS(Int)=  0.00010499
 Iteration  3 RMS(Cart)=  0.00000403 RMS(Int)=  0.00010496
 Iteration  4 RMS(Cart)=  0.00000000 RMS(Int)=  0.00010496
 Iteration  1 RMS(Cart)=  0.00003651 RMS(Int)=  0.00001223
 Iteration  2 RMS(Cart)=  0.00001917 RMS(Int)=  0.00001367
 Iteration  3 RMS(Cart)=  0.00001007 RMS(Int)=  0.00001538
 Iteration  4 RMS(Cart)=  0.00000530 RMS(Int)=  0.00001645
 Iteration  5 RMS(Cart)=  0.00000279 RMS(Int)=  0.00001706
 Iteration  6 RMS(Cart)=  0.00000147 RMS(Int)=  0.00001739
 Iteration  7 RMS(Cart)=  0.00000078 RMS(Int)=  0.00001756
 Variable       Old X    -DE/DX   Delta X   Delta X   Delta X     New X
                                 (Linear)    (Quad)   (Total)
    R1        2.05988  -0.00089   0.00000  -0.00001  -0.00001   2.05987
    R2        2.05988   0.00448   0.00000   0.00307   0.00307   2.06295
    R3        2.05977   0.00474   0.00000   0.00377   0.00377   2.06354
    R4        2.89120  -0.00009   0.00000  -0.00124  -0.00124   2.88996
    R5        2.32248  -0.00762   0.00000  -0.00215  -0.00215   2.32034
    R6        2.52291   0.05810   0.00000   0.01863   0.01863   2.54154
    R7        1.90868   0.00117   0.00000   0.00080   0.00080   1.90948
    R8        2.73817   0.05490   0.00000   0.01045   0.01045   2.74862
    R9        2.05975   0.00373   0.00000   0.00384   0.00384   2.06358
   R10        2.88188   0.02052   0.00000   0.00444   0.00444   2.88632
   R11        2.87618   0.01667   0.00000   0.00792   0.00792   2.88409
   R12        2.05972  -0.00075   0.00000  -0.00130  -0.00130   2.05842
   R13        2.05984   0.00600   0.00000   0.00428   0.00428   2.06413
   R14        2.05966  -0.01061   0.00000   0.00228   0.00228   2.06194
   R15        2.32253   0.00422   0.00000  -0.00147  -0.00147   2.32106
   R16        2.52281   0.02753   0.00000   0.01374   0.01374   2.53655
   R17        1.90870  -0.00205   0.00000   0.00026   0.00026   1.90896
   R18        2.73813   0.00530   0.00000   0.00169   0.00169   2.73982
   R19        2.05984  -0.00068   0.00000   0.00032   0.00032   2.06016
   R20        2.05979   0.00423   0.00000   0.00302   0.00302   2.06282
   R21        2.05982   0.00443   0.00000   0.00374   0.00374   2.06357
    A1        1.91112  -0.00006   0.00000   0.00189   0.00193   1.91305
    A2        1.91119  -0.00015   0.00000  -0.00394  -0.00395   1.90724
    A3        1.93900  -0.00788   0.00000  -0.01188  -0.01187   1.92713
    A4        1.91012  -0.00527   0.00000  -0.00750  -0.00756   1.90256
    A5        1.89604   0.00644   0.00000   0.01777   0.01776   1.91380
    A6        1.89609   0.00697   0.00000   0.00375   0.00372   1.89981
    A7        2.10320  -0.02077   0.00000   0.00894   0.00875   2.11195
    A8        2.03508  -0.03882   0.00000  -0.01468  -0.01488   2.02020
    A9        2.14490   0.05959   0.00000   0.00574   0.00555   2.15045
   A10        2.09426  -0.06155   0.00000  -0.01223  -0.01243   2.08183
   A11        2.12756   0.12309   0.00000   0.02507   0.02486   2.15242
   A12        2.06136  -0.06154   0.00000  -0.01284  -0.01304   2.04832
   A13        1.91114  -0.00955   0.00000  -0.00895  -0.00909   1.90205
   A14        1.93905   0.06425   0.00000   0.01547   0.01543   1.95448
   A15        1.93900  -0.03510   0.00000  -0.01238  -0.01303   1.92597
   A16        1.89609  -0.01736   0.00000  -0.01539  -0.01519   1.88090
   A17        1.89608   0.00537   0.00000  -0.01303  -0.01307   1.88301
   A18        1.88137  -0.00837   0.00000   0.03404   0.03408   1.91545
   A19        1.91115   0.01342   0.00000   0.02209   0.02208   1.93323
   A20        1.91106  -0.01142   0.00000  -0.01250  -0.01247   1.89860
   A21        1.91110   0.01283   0.00000   0.00457   0.00453   1.91562
   A22        1.91011  -0.00312   0.00000  -0.00356  -0.00350   1.90661
   A23        1.91023  -0.00870   0.00000  -0.01060  -0.01070   1.89953
   A24        1.91015  -0.00303   0.00000  -0.00002  -0.00001   1.91014
   A25        2.10309  -0.00266   0.00000   0.00638   0.00637   2.10946
   A26        2.03509   0.00449   0.00000  -0.01206  -0.01207   2.02301
   A27        2.14501  -0.00184   0.00000   0.00567   0.00566   2.15066
   A28        2.09435  -0.00171   0.00000  -0.00846  -0.00847   2.08588
   A29        2.12759   0.00384   0.00000   0.00521   0.00520   2.13279
   A30        2.06125  -0.00213   0.00000   0.00325   0.00323   2.06448
   A31        1.91113  -0.00639   0.00000  -0.01005  -0.01003   1.90110
   A32        1.91123   0.00459   0.00000   0.00590   0.00588   1.91711
   A33        1.91113   0.00508   0.00000   0.00925   0.00924   1.92037
   A34        1.91020   0.00000   0.00000   0.00031   0.00032   1.91052
   A35        1.91008  -0.00004   0.00000  -0.00192  -0.00190   1.90818
   A36        1.91003  -0.00326   0.00000  -0.00349  -0.00353   1.90650
    D1        0.00005  -0.00051   0.00000   0.07424   0.07428   0.07433
    D2        3.14156   0.00060   0.00000   0.03899   0.03900  -3.10263
    D3        2.10332  -0.00131   0.00000   0.08072   0.08069   2.18401
    D4       -1.03836  -0.00019   0.00000   0.04547   0.04542  -0.99294
    D5       -2.10334   0.00004   0.00000   0.08404   0.08407  -2.01928
    D6        1.03817   0.00115   0.00000   0.04878   0.04879   1.08696
    D7        0.00012   0.00243   0.00000  -0.04786  -0.04785  -0.04774
    D8        3.14159   0.00011   0.00000  -0.08635  -0.08639   3.05520
    D9       -3.14156   0.00357   0.00000  -0.08404  -0.08399   3.05763
   D10       -0.00009   0.00125   0.00000  -0.12253  -0.12253  -0.12262
   D11       -1.83253  -0.00805   0.00000  -0.02985  -0.02976  -1.86229
   D12        0.26191   0.00473   0.00000  -0.04505  -0.04493   0.21698
   D13        2.35626   0.01364   0.00000   0.00000   0.00000   2.35626
   D14        1.30895  -0.01033   0.00000  -0.06764  -0.06761   1.24134
   D15       -2.87980   0.00245   0.00000  -0.08284  -0.08277  -2.96257
   D16       -0.78545   0.01136   0.00000  -0.03779  -0.03785  -0.82330
   D17        1.04724  -0.00887   0.00000   0.02543   0.02569   1.07293
   D18        3.14157  -0.01147   0.00000   0.02694   0.02714  -3.11447
   D19       -1.04726  -0.01431   0.00000   0.02206   0.02225  -1.02501
   D20       -3.13259   0.00786   0.00000   0.01396   0.01403  -3.11856
   D21       -1.03826   0.00526   0.00000   0.01548   0.01548  -1.02278
   D22        1.05609   0.00241   0.00000   0.01060   0.01059   1.06668
   D23       -1.08102   0.00030   0.00000   0.00890   0.00870  -1.07232
   D24        1.01331  -0.00230   0.00000   0.01041   0.01016   1.02347
   D25        3.10766  -0.00514   0.00000   0.00553   0.00527   3.11293
   D26        1.83260  -0.02689   0.00000  -0.01081  -0.01076   1.82184
   D27       -1.30895  -0.02528   0.00000   0.00000   0.00000  -1.30895
   D28       -0.27071   0.00317   0.00000   0.01636   0.01629  -0.25442
   D29        2.87092   0.00478   0.00000   0.02717   0.02705   2.89797
   D30       -2.32229   0.02543   0.00000   0.02296   0.02294  -2.29935
   D31        0.81934   0.02704   0.00000   0.03376   0.03370   0.85304
   D32       -0.00009  -0.00071   0.00000   0.00018   0.00019   0.00009
   D33       -3.14153  -0.00090   0.00000  -0.00881  -0.00876   3.13289
   D34        3.14154   0.00095   0.00000   0.01127   0.01123  -3.13042
   D35        0.00010   0.00076   0.00000   0.00228   0.00228   0.00238
   D36       -0.00017   0.00017   0.00000   0.03454   0.03455   0.03439
   D37        2.09437  -0.00093   0.00000   0.03238   0.03237   2.12674
   D38       -2.09449   0.00101   0.00000   0.03739   0.03743  -2.05706
   D39        3.14158  -0.00002   0.00000   0.02572   0.02571  -3.11590
   D40       -1.04707  -0.00112   0.00000   0.02355   0.02352  -1.02355
   D41        1.04726   0.00083   0.00000   0.02857   0.02858   1.07584
         Item               Value     Threshold  Converged?
 Maximum Force            0.123089     0.000450     NO 
 RMS     Force            0.021709     0.000300     NO 
 Maximum Displacement     0.294362     0.001800     NO 
 RMS     Displacement     0.063352     0.001200     NO 
 Predicted change in Energy=-9.966165D-03
 GradGradGradGradGradGradGradGradGradGradGradGradGradGradGradGradGradGrad

                          Input orientation:                          
 ---------------------------------------------------------------------
 Center     Atomic      Atomic             Coordinates (Angstroms)
 Number     Number       Type             X           Y           Z
 ---------------------------------------------------------------------
      1          1           0        1.714345    1.497921   -1.341460
      2          6           0        1.856389    2.341587   -0.666010
      3          1           0        1.746935    2.006258    0.367097
      4          1           0        1.101011    3.101924   -0.875081
      5          6           0        3.243140    2.955374   -0.863345
      6          8           0        3.995939    2.547530   -1.743470
      7          7           0        3.550249    3.979569   -0.047544
      8          1           0        2.857800    4.314039    0.607940
      9          6           0        4.858137    4.615422   -0.020817
     10          1           0        5.380458    4.315178    0.889950
     11          6           0        5.720336    4.199879   -1.211118
     12          1           0        5.253583    4.498341   -2.148970
     13          1           0        6.695861    4.683580   -1.124623
     14          1           0        5.850851    3.116581   -1.211679
     15          6           0        4.709518    6.134179    0.003012
     16          8           0        4.896325    6.769391    1.037522
     17          7           0        4.355628    6.707163   -1.158098
     18          1           0        4.206932    6.129289   -1.973211
     19          6           0        4.165955    8.138765   -1.286963
     20          1           0        4.390105    8.612595   -0.331058
     21          1           0        4.834533    8.533522   -2.054263
     22          1           0        3.132270    8.355614   -1.564308
 ---------------------------------------------------------------------
                    Distance matrix (angstroms):
                    1          2          3          4          5
     1  H    0.000000
     2  C    1.090037   0.000000
     3  H    1.782873   1.091666   0.000000
     4  H    1.779470   1.091980   1.777838   0.000000
     5  C    2.165635   1.529299   2.157182   2.147168   0.000000
     6  O    2.543415   2.404373   3.131371   3.072794   1.227870
     7  N    3.347139   2.436114   2.705148   2.730174   1.344925
     8  H    3.610840   2.552712   2.572523   2.599016   2.039396
     9  C    4.620210   3.820614   4.078945   4.139618   2.464514
    10  H    5.133860   4.328411   4.336701   4.785498   3.080785
    11  C    4.833790   4.322092   4.805273   4.759894   2.793965
    12  H    4.709650   4.288554   4.983739   4.562525   2.841736
    13  H    5.917004   5.395901   5.821095   5.819472   3.869915
    14  H    4.443826   4.105375   4.535138   4.761774   2.635808
    15  C    5.680982   4.792880   5.094034   4.794470   3.606334
    16  O    6.600981   5.634597   5.749396   5.613624   4.570891
    17  N    5.843475   5.054365   5.588381   4.865222   3.924338
    18  H    5.297326   4.645483   5.341161   4.474100   3.497776
    19  C    7.079136   6.271121   6.796706   5.910439   5.281911
    20  H    7.668062   6.771813   7.149647   6.440620   5.796810
    21  H    7.729381   7.009754   7.615866   6.695664   5.921702
    22  H    7.006291   6.213158   6.779660   5.674707   5.446672
                    6          7          8          9         10
     6  O    0.000000
     7  N    2.263965   0.000000
     8  H    3.153576   1.010453   0.000000
     9  C    2.826145   1.454508   2.118376   0.000000
    10  H    3.460690   2.083553   2.538373   1.092000   0.000000
    11  C    2.446876   2.472189   3.393541   1.527377   2.131501
    12  H    2.356219   2.754353   3.657089   2.167745   3.047077
    13  H    3.497893   3.398618   4.227180   2.144822   2.434032
    14  H    2.011795   2.718957   3.701793   2.156422   2.464700
    15  C    4.052586   2.447204   2.666029   1.526197   2.132038
    16  O    5.135048   3.282133   3.220075   2.400233   2.505858
    17  N    4.215992   3.053152   3.330079   2.433372   3.311551
    18  H    3.595316   2.959851   3.431855   2.554936   3.586900
    19  C    5.612416   4.383396   4.464354   3.807385   4.564405
    20  H    6.239815   4.717061   4.659105   4.036420   4.575965
    21  H    6.052432   5.139532   5.366455   4.414404   5.173089
    22  H    5.874680   4.650274   4.596556   4.398864   5.234773
                   11         12         13         14         15
    11  C    0.000000
    12  H    1.089267   0.000000
    13  H    1.092289   1.778697   0.000000
    14  H    1.091131   1.773274   1.782443   0.000000
    15  C    2.497475   2.757354   2.705801   3.447320   0.000000
    16  O    3.512515   3.929252   3.501972   4.394660   1.228251
    17  N    2.855120   2.582062   3.093978   3.889838   1.342284
    18  H    2.567840   1.945857   3.000824   3.515509   2.039136
    19  C    4.235171   3.895982   4.285450   5.297817   2.444967
    20  H    4.692130   4.580118   4.624221   5.754601   2.521145
    21  H    4.502888   4.057986   4.376166   5.575490   3.163045
    22  H    4.908458   4.440760   5.135790   5.912908   3.143083
                   16         17         18         19         20
    16  O    0.000000
    17  N    2.262073   0.000000
    18  H    3.154284   1.010177   0.000000
    19  C    2.794970   1.449850   2.123819   0.000000
    20  H    2.350887   2.077463   2.982788   1.090189   0.000000
    21  H    3.560212   2.089987   2.486119   1.091595   1.781349
    22  H    3.521010   2.092606   2.505718   1.091992   1.780194
                   21         22
    21  H    0.000000
    22  H    1.780283   0.000000
 Stoichiometry    C6H12N2O2
 Framework group  C1[X(C6H12N2O2)]
 Deg. of freedom    60
 Full point group                 C1      NOp   1
 Largest Abelian subgroup         C1      NOp   1
 Largest concise Abelian subgroup C1      NOp   1
                         Standard orientation:                         
 ---------------------------------------------------------------------
 Center     Atomic      Atomic             Coordinates (Angstroms)
 Number     Number       Type             X           Y           Z
 ---------------------------------------------------------------------
      1          1           0        3.999206   -1.126341   -0.536801
      2          6           0        3.099925   -1.347922    0.037985
      3          1           0        3.362767   -1.495142    1.087258
      4          1           0        2.642922   -2.262369   -0.345884
      5          6           0        2.093082   -0.203343   -0.084316
      6          8           0        2.311795    0.755625   -0.819306
      7          7           0        0.958535   -0.345019    0.623889
      8          1           0        0.808938   -1.192669    1.153158
      9          6           0       -0.063038    0.686657    0.711220
     10          1           0       -0.025439    1.140583    1.703692
     11          6           0        0.154441    1.795119   -0.316833
     12          1           0        0.103022    1.397888   -1.329783
     13          1           0       -0.622131    2.552246   -0.187254
     14          1           0        1.134478    2.250598   -0.166390
     15          6           0       -1.450023    0.077135    0.526736
     16          8           0       -2.197814   -0.089478    1.486761
     17          7           0       -1.777451   -0.266370   -0.728860
     18          1           0       -1.114778   -0.112755   -1.475669
     19          6           0       -3.055965   -0.866013   -1.057335
     20          1           0       -3.656767   -0.936743   -0.150392
     21          1           0       -3.576988   -0.248778   -1.791594
     22          1           0       -2.905190   -1.865757   -1.469920
 ---------------------------------------------------------------------
 Rotational constants (GHZ):      2.3501151      0.7252984      0.7058452
 Standard basis: 6-31G(d) (6D, 7F)
 There are   174 symmetry adapted basis functions of A   symmetry.
 Integral buffers will be    131072 words long.
 Raffenetti 2 integral format.
 Two-electron integral symmetry is turned on.
   174 basis functions,   328 primitive gaussians,   174 cartesian basis functions
    39 alpha electrons       39 beta electrons
       nuclear repulsion energy       560.5711327496 Hartrees.
 NAtoms=   22 NActive=   22 NUniq=   22 SFac= 7.50D-01 NAtFMM=   80 NAOKFM=F Big=F
 One-electron integrals computed using PRISM.
 NBasis=   174 RedAO= T  NBF=   174
 NBsUse=   174 1.00D-06 NBFU=   174
 Initial guess read from the read-write file.
 B after Tr=     0.000000    0.000000    0.000000
         Rot=    1.000000    0.000000    0.000000    0.000000 Ang=   0.00 deg.
 Initial guess orbital symmetries:
       Occupied  (A) (A) (A) (A) (A) (A) (A) (A) (A) (A) (A) (A)
                 (A) (A) (A) (A) (A) (A) (A) (A) (A) (A) (A) (A)
                 (A) (A) (A) (A) (A) (A) (A) (A) (A) (A) (A) (A)
                 (A) (A) (A)
       Virtual   (A) (A) (A) (A) (A) (A) (A) (A) (A) (A) (A) (A)
                 (A) (A) (A) (A) (A) (A) (A) (A) (A) (A) (A) (A)
                 (A) (A) (A) (A) (A) (A) (A) (A) (A) (A) (A) (A)
                 (A) (A) (A) (A) (A) (A) (A) (A) (A) (A) (A) (A)
                 (A) (A) (A) (A) (A) (A) (A) (A) (A) (A) (A) (A)
                 (A) (A) (A) (A) (A) (A) (A) (A) (A) (A) (A) (A)
                 (A) (A) (A) (A) (A) (A) (A) (A) (A) (A) (A) (A)
                 (A) (A) (A) (A) (A) (A) (A) (A) (A) (A) (A) (A)
                 (A) (A) (A) (A) (A) (A) (A) (A) (A) (A) (A) (A)
                 (A) (A) (A) (A) (A) (A) (A) (A) (A) (A) (A) (A)
                 (A) (A) (A) (A) (A) (A) (A) (A) (A) (A) (A) (A)
                 (A) (A) (A)
 Harris functional with IExCor=  402 diagonalized for initial guess.
 ExpMin= 1.61D-01 ExpMax= 5.48D+03 ExpMxC= 8.25D+02 IAcc=1 IRadAn=         1 AccDes= 0.00D+00
 HarFok:  IExCor=  402 AccDes= 0.00D+00 IRadAn=         1 IDoV= 1
 ScaDFX=  1.000000  1.000000  1.000000  1.000000
 FoFCou: FMM=F IPFlag=           0 FMFlag=      100000 FMFlg1=           0
         NFxFlg=           0 DoJE=T BraDBF=F KetDBF=T FulRan=T
         Omega=  0.000000  0.000000  1.000000  0.000000  0.000000 ICntrl=     500 IOpCl=  0
         NMat0=    1 NMatS0=    1 NMatT0=    0 NMatD0=    1 NMtDS0=    0 NMtDT0=    0
         I1Cent=           4 NGrid=           0.
 Petite list used in FoFCou.
 Requested convergence on RMS density matrix=1.00D-08 within 128 cycles.
 Requested convergence on MAX density matrix=1.00D-06.
 Requested convergence on             energy=1.00D-06.
 No special actions if energy rises.
 Integral accuracy reduced to 1.0D-05 until final iterations.
 Initial convergence to 1.0D-05 achieved.  Increase integral accuracy.
 SCF Done:  E(RB3LYP) =  -495.824119212     A.U. after   12 cycles
             Convg  =    0.7691D-08             -V/T =  2.0087
 Calling FoFJK, ICntrl=      2127 FMM=F ISym2X=0 I1Cent= 0 IOpClX= 0 NMat=1 NMatS=1 NMatT=0.
 ***** Axes restored to original set *****
 -------------------------------------------------------------------
 Center     Atomic                   Forces (Hartrees/Bohr)
 Number     Number              X              Y              Z
 -------------------------------------------------------------------
      1        1           0.002575000    0.000849277   -0.000666046
      2        6           0.004589800    0.005397590    0.003138212
      3        1          -0.003703076   -0.001071924    0.002617706
      4        1          -0.004881074    0.000354073    0.001044539
      5        6          -0.011982644   -0.021298075   -0.020935452
      6        8          -0.018704427   -0.015479497   -0.001580133
      7        7          -0.000402354    0.010877110    0.006666548
      8        1           0.000498395   -0.001617103    0.002670069
      9        6           0.008405816   -0.001238836   -0.006258751
     10        1          -0.000191362    0.004736966    0.004893507
     11        6           0.015351438   -0.002064218    0.004135423
     12        1           0.004710965   -0.004289122   -0.003174619
     13        1           0.002076552    0.004966103    0.001379683
     14        1           0.005943037    0.008181879   -0.003316395
     15        6           0.002387970   -0.000979552    0.021891008
     16        8           0.000643874    0.001289374    0.002524255
     17        7          -0.005141652    0.007399942   -0.011326803
     18        1          -0.000103336    0.000898658    0.001264712
     19        6          -0.000974137   -0.000848691   -0.002509119
     20        1           0.000436275   -0.002218663    0.000467989
     21        1           0.000935779    0.003148549   -0.001896133
     22        1          -0.002470837    0.003006161   -0.001030202
 -------------------------------------------------------------------
 Cartesian Forces:  Max     0.021891008 RMS     0.007043915

 GradGradGradGradGradGradGradGradGradGradGradGradGradGradGradGradGradGrad
 Berny optimization.
 Using GEDIIS/GDIIS optimizer.
 Internal  Forces:  Max     0.085968330 RMS     0.015312028
 Search for a local minimum.
 Step number   2 out of a maximum of  132
 All quantities printed in internal units (Hartrees-Bohrs-Radians)
 Mixed Optimization -- RFO/linear search
 Update second derivatives using D2CorX and points    1    2
 DE= -9.73D-03 DEPred=-9.97D-03 R= 9.76D-01
 SS=  1.41D+00  RLast= 3.00D-01 DXNew= 5.0454D-01 8.9998D-01
 Trust test= 9.76D-01 RLast= 3.00D-01 DXMaxT set to 5.05D-01
 Use linear search instead of GDIIS.
 Linear search step of   0.551 exceeds DXMaxT=   0.505 but not scaled.
 Quartic linear search produced a step of  1.85465.
 Iteration  1 RMS(Cart)=  0.11405321 RMS(Int)=  0.00636968
 Iteration  2 RMS(Cart)=  0.01073275 RMS(Int)=  0.00056533
 Iteration  3 RMS(Cart)=  0.00009085 RMS(Int)=  0.00056166
 Iteration  4 RMS(Cart)=  0.00000002 RMS(Int)=  0.00056166
 Iteration  1 RMS(Cart)=  0.00022121 RMS(Int)=  0.00007653
 Iteration  2 RMS(Cart)=  0.00011809 RMS(Int)=  0.00008552
 Iteration  3 RMS(Cart)=  0.00006308 RMS(Int)=  0.00009637
 Iteration  4 RMS(Cart)=  0.00003371 RMS(Int)=  0.00010336
 Iteration  5 RMS(Cart)=  0.00001804 RMS(Int)=  0.00010737
 Iteration  6 RMS(Cart)=  0.00000968 RMS(Int)=  0.00010959
 Iteration  7 RMS(Cart)=  0.00000521 RMS(Int)=  0.00011079
 Iteration  8 RMS(Cart)=  0.00000281 RMS(Int)=  0.00011145
 Iteration  9 RMS(Cart)=  0.00000153 RMS(Int)=  0.00011180
 Iteration 10 RMS(Cart)=  0.00000085 RMS(Int)=  0.00011199
 Variable       Old X    -DE/DX   Delta X   Delta X   Delta X     New X
                                 (Linear)    (Quad)   (Total)
    R1        2.05987  -0.00058  -0.00002   0.00000  -0.00002   2.05985
    R2        2.06295   0.00317   0.00569   0.00000   0.00569   2.06864
    R3        2.06354   0.00342   0.00700   0.00000   0.00700   2.07054
    R4        2.88996  -0.00015  -0.00231   0.00000  -0.00231   2.88765
    R5        2.32034  -0.00519  -0.00398   0.00000  -0.00398   2.31636
    R6        2.54154   0.04108   0.03456   0.00000   0.03456   2.57610
    R7        1.90948   0.00085   0.00149   0.00000   0.00149   1.91097
    R8        2.74862   0.03852   0.01938   0.00000   0.01938   2.76800
    R9        2.06358   0.00269   0.00711   0.00000   0.00711   2.07069
   R10        2.88632   0.01476   0.00823   0.00000   0.00823   2.89456
   R11        2.88409   0.01221   0.01468   0.00000   0.01468   2.89878
   R12        2.05842  -0.00046  -0.00242   0.00000  -0.00242   2.05600
   R13        2.06413   0.00416   0.00794   0.00000   0.00794   2.07207
   R14        2.06194  -0.00741   0.00423   0.00000   0.00423   2.06617
   R15        2.32106   0.00289  -0.00273   0.00000  -0.00273   2.31833
   R16        2.53655   0.01978   0.02549   0.00000   0.02549   2.56204
   R17        1.90896  -0.00152   0.00048   0.00000   0.00048   1.90944
   R18        2.73982   0.00376   0.00313   0.00000   0.00313   2.74295
   R19        2.06016  -0.00046   0.00060   0.00000   0.00060   2.06076
   R20        2.06282   0.00304   0.00560   0.00000   0.00560   2.06842
   R21        2.06357   0.00320   0.00694   0.00000   0.00694   2.07051
    A1        1.91305  -0.00004   0.00358   0.00000   0.00376   1.91681
    A2        1.90724  -0.00020  -0.00733   0.00000  -0.00742   1.89982
    A3        1.92713  -0.00575  -0.02201   0.00000  -0.02195   1.90519
    A4        1.90256  -0.00394  -0.01402   0.00000  -0.01433   1.88824
    A5        1.91380   0.00477   0.03293   0.00000   0.03288   1.94667
    A6        1.89981   0.00518   0.00689   0.00000   0.00669   1.90650
    A7        2.11195  -0.01408   0.01622   0.00000   0.01518   2.12713
    A8        2.02020  -0.02683  -0.02759   0.00000  -0.02862   1.99158
    A9        2.15045   0.04092   0.01029   0.00000   0.00927   2.15972
   A10        2.08183  -0.04286  -0.02306   0.00000  -0.02411   2.05771
   A11        2.15242   0.08597   0.04611   0.00000   0.04508   2.19750
   A12        2.04832  -0.04312  -0.02419   0.00000  -0.02521   2.02311
   A13        1.90205  -0.00700  -0.01685   0.00000  -0.01763   1.88442
   A14        1.95448   0.04530   0.02862   0.00000   0.02839   1.98287
   A15        1.92597  -0.02531  -0.02417   0.00000  -0.02758   1.89839
   A16        1.88090  -0.01170  -0.02817   0.00000  -0.02700   1.85390
   A17        1.88301   0.00344  -0.02424   0.00000  -0.02454   1.85847
   A18        1.91545  -0.00576   0.06321   0.00000   0.06346   1.97892
   A19        1.93323   0.00974   0.04095   0.00000   0.04086   1.97408
   A20        1.89860  -0.00789  -0.02312   0.00000  -0.02292   1.87568
   A21        1.91562   0.00909   0.00839   0.00000   0.00812   1.92375
   A22        1.90661  -0.00219  -0.00648   0.00000  -0.00613   1.90048
   A23        1.89953  -0.00665  -0.01984   0.00000  -0.02034   1.87920
   A24        1.91014  -0.00220  -0.00003   0.00000  -0.00001   1.91012
   A25        2.10946  -0.00203   0.01181   0.00000   0.01171   2.12116
   A26        2.02301   0.00345  -0.02239   0.00000  -0.02249   2.00052
   A27        2.15066  -0.00144   0.01049   0.00000   0.01040   2.16107
   A28        2.08588  -0.00130  -0.01571   0.00000  -0.01576   2.07011
   A29        2.13279   0.00275   0.00965   0.00000   0.00959   2.14238
   A30        2.06448  -0.00145   0.00600   0.00000   0.00594   2.07042
   A31        1.90110  -0.00470  -0.01860   0.00000  -0.01852   1.88258
   A32        1.91711   0.00341   0.01090   0.00000   0.01081   1.92792
   A33        1.92037   0.00377   0.01713   0.00000   0.01707   1.93744
   A34        1.91052  -0.00003   0.00059   0.00000   0.00065   1.91117
   A35        1.90818  -0.00005  -0.00353   0.00000  -0.00342   1.90476
   A36        1.90650  -0.00241  -0.00655   0.00000  -0.00677   1.89973
    D1        0.07433  -0.00061   0.13775   0.00000   0.13791   0.21224
    D2       -3.10263   0.00069   0.07233   0.00000   0.07239  -3.03023
    D3        2.18401  -0.00125   0.14966   0.00000   0.14950   2.33352
    D4       -0.99294   0.00005   0.08423   0.00000   0.08399  -0.90895
    D5       -2.01928  -0.00012   0.15591   0.00000   0.15605  -1.86323
    D6        1.08696   0.00118   0.09049   0.00000   0.09053   1.17749
    D7       -0.04774   0.00112  -0.08875   0.00000  -0.08873  -0.13646
    D8        3.05520  -0.00041  -0.16023   0.00000  -0.16048   2.89472
    D9        3.05763   0.00117  -0.15578   0.00000  -0.15553   2.90210
   D10       -0.12262  -0.00036  -0.22725   0.00000  -0.22728  -0.34990
   D11       -1.86229  -0.00687  -0.05519   0.00000  -0.05461  -1.91690
   D12        0.21698   0.00203  -0.08332   0.00000  -0.08256   0.13443
   D13        2.35626   0.00813   0.00000   0.00000   0.00000   2.35626
   D14        1.24134  -0.00844  -0.12539   0.00000  -0.12513   1.11621
   D15       -2.96257   0.00046  -0.15352   0.00000  -0.15307  -3.11565
   D16       -0.82330   0.00655  -0.07020   0.00000  -0.07052  -0.89381
   D17        1.07293  -0.00528   0.04764   0.00000   0.04906   1.12199
   D18       -3.11447  -0.00703   0.05034   0.00000   0.05145  -3.06303
   D19       -1.02501  -0.00908   0.04127   0.00000   0.04234  -0.98267
   D20       -3.11856   0.00570   0.02602   0.00000   0.02632  -3.09224
   D21       -1.02278   0.00395   0.02871   0.00000   0.02871  -0.99407
   D22        1.06668   0.00190   0.01964   0.00000   0.01960   1.08628
   D23       -1.07232   0.00001   0.01614   0.00000   0.01508  -1.05724
   D24        1.02347  -0.00174   0.01884   0.00000   0.01747   1.04093
   D25        3.11293  -0.00380   0.00977   0.00000   0.00836   3.12129
   D26        1.82184  -0.01854  -0.01996   0.00000  -0.01969   1.80215
   D27       -1.30895  -0.01750   0.00000   0.00000   0.00000  -1.30895
   D28       -0.25442   0.00240   0.03021   0.00000   0.02979  -0.22463
   D29        2.89797   0.00345   0.05017   0.00000   0.04948   2.94745
   D30       -2.29935   0.01758   0.04254   0.00000   0.04240  -2.25695
   D31        0.85304   0.01863   0.06251   0.00000   0.06209   0.91513
   D32        0.00009  -0.00043   0.00035   0.00000   0.00040   0.00049
   D33        3.13289  -0.00064  -0.01626   0.00000  -0.01602   3.11687
   D34       -3.13042   0.00065   0.02083   0.00000   0.02060  -3.10982
   D35        0.00238   0.00044   0.00423   0.00000   0.00418   0.00656
   D36        0.03439   0.00017   0.06408   0.00000   0.06412   0.09851
   D37        2.12674  -0.00070   0.06003   0.00000   0.05998   2.18671
   D38       -2.05706   0.00085   0.06941   0.00000   0.06961  -1.98745
   D39       -3.11590  -0.00004   0.04767   0.00000   0.04759  -3.06831
   D40       -1.02355  -0.00091   0.04362   0.00000   0.04345  -0.98010
   D41        1.07584   0.00064   0.05301   0.00000   0.05308   1.12892
         Item               Value     Threshold  Converged?
 Maximum Force            0.085993     0.000450     NO 
 RMS     Force            0.015190     0.000300     NO 
 Maximum Displacement     0.496533     0.001800     NO 
 RMS     Displacement     0.115517     0.001200     NO 
 Predicted change in Energy=-1.126881D-02
 GradGradGradGradGradGradGradGradGradGradGradGradGradGradGradGradGradGrad

                          Input orientation:                          
 ---------------------------------------------------------------------
 Center     Atomic      Atomic             Coordinates (Angstroms)
 Number     Number       Type             X           Y           Z
 ---------------------------------------------------------------------
      1          1           0        1.685672    1.470685   -1.259941
      2          6           0        1.846895    2.329151   -0.607869
      3          1           0        1.837013    2.007630    0.438479
      4          1           0        1.028852    3.043287   -0.753957
      5          6           0        3.170560    2.997587   -0.976821
      6          8           0        3.773301    2.715576   -2.006224
      7          7           0        3.540519    4.003149   -0.134014
      8          1           0        2.876456    4.300194    0.568405
      9          6           0        4.868187    4.617473   -0.060270
     10          1           0        5.329941    4.312054    0.885353
     11          6           0        5.819461    4.157446   -1.169170
     12          1           0        5.489105    4.449912   -2.163680
     13          1           0        6.798119    4.611145   -0.972491
     14          1           0        5.914392    3.068264   -1.157940
     15          6           0        4.703951    6.141106    0.007714
     16          8           0        4.839732    6.754703    1.061337
     17          7           0        4.365944    6.725802   -1.167872
     18          1           0        4.248021    6.140516   -1.983045
     19          6           0        4.136666    8.153205   -1.297580
     20          1           0        4.383876    8.619789   -0.343436
     21          1           0        4.771104    8.572686   -2.084717
     22          1           0        3.088535    8.362339   -1.538762
 ---------------------------------------------------------------------
                    Distance matrix (angstroms):
                    1          2          3          4          5
     1  H    0.000000
     2  C    1.090025   0.000000
     3  H    1.787693   1.094677   0.000000
     4  H    1.777782   1.095685   1.774151   0.000000
     5  C    2.148599   1.528077   2.182071   2.153756   0.000000
     6  O    2.542614   2.411589   3.197964   3.034397   1.225764
     7  N    3.334898   2.427997   2.685475   2.759372   1.363213
     8  H    3.573085   2.515676   2.520549   2.596554   2.042304
     9  C    4.633561   3.829424   4.030886   4.207107   2.519134
    10  H    5.094739   4.277058   4.208398   4.774565   3.139816
    11  C    4.931038   4.408968   4.802721   4.935958   2.898094
    12  H    4.915144   4.492646   5.106246   4.884646   2.982203
    13  H    6.006849   5.463979   5.777690   5.982506   3.970236
    14  H    4.521586   4.170539   4.505388   4.902277   2.750712
    15  C    5.703490   4.803406   5.048813   4.866516   3.633499
    16  O    6.577027   5.597217   5.651458   5.620739   4.588698
    17  N    5.899881   5.098015   5.589007   4.986825   3.919826
    18  H    5.375485   4.709885   5.362601   4.633199   3.471515
    19  C    7.117926   6.295900   6.787518   6.005439   5.255155
    20  H    7.696101   6.788101   7.128713   6.520896   5.786404
    21  H    7.787077   7.050802   7.620720   6.808056   5.905160
    22  H    7.038513   6.229573   6.771862   5.757650   5.394727
                    6          7          8          9         10
     6  O    0.000000
     7  N    2.284119   0.000000
     8  H    3.153420   1.011242   0.000000
     9  C    2.933040   1.464764   2.112556   0.000000
    10  H    3.651450   2.082441   2.473901   1.095764   0.000000
    11  C    2.639397   2.507773   3.420647   1.531734   2.117687
[...]
    13  H    6.184270   5.602993   6.042076   5.984887   4.109619
    14  H    5.025264   4.459846   4.697763   5.081020   2.993293
    15  C    5.422824   4.763532   5.472580   4.640481   3.666534
    16  O    6.309736   5.549864   6.180035   5.253974   4.612982
    17  N    5.449011   5.037557   5.916481   4.956999   3.962037
    18  H    4.876731   4.617566   5.532087   4.707512   3.488889
    19  C    6.502304   6.171174   7.115649   5.931001   5.268939
    20  H    7.148819   6.685597   7.562402   6.345221   5.808429
    21  H    7.182665   6.940269   7.894092   6.809121   5.936836
    22  H    6.265583   6.041938   7.052461   5.689432   5.375368
                    6          7          8          9         10
     6  O    0.000000
     7  N    2.302109   0.000000
     8  H    3.160000   1.011501   0.000000
     9  C    3.021006   1.472402   2.090542   0.000000
    10  H    3.717311   2.086355   2.392948   1.096552   0.000000
    11  C    2.834721   2.544336   3.430529   1.531983   2.144597
    12  H    2.628847   2.852515   3.798642   2.202815   3.080610
    13  H    3.919018   3.449749   4.217721   2.139645   2.445392
    14  H    2.562499   2.843051   3.756986   2.175905   2.483726
    15  C    4.219013   2.438373   2.641659   1.547550   2.097730
    16  O    5.291956   3.272464   3.160776   2.419135   2.444659
    17  N    4.346244   3.037735   3.361804   2.460193   3.309691
    18  H    3.678179   2.890866   3.426941   2.552861   3.582959
    19  C    5.702131   4.344551   4.470482   3.840817   4.563330
    20  H    6.349632   4.702351   4.680362   4.058623   4.548149
    21  H    6.180785   5.125573   5.392355   4.496133   5.257837
    22  H    5.904875   4.570288   4.565146   4.407203   5.178758
                   11         12         13         14         15
    11  C    0.000000
    12  H    1.091749   0.000000
    13  H    1.095776   1.778465   0.000000
    14  H    1.090486   1.753956   1.779813   0.000000
    15  C    2.568573   2.910685   2.737401   3.512723   0.000000
    16  O    3.545083   4.053287   3.488879   4.408651   1.225955
    17  N    2.985762   2.813904   3.193964   4.025070   1.362829
    18  H    2.738744   2.236888   3.168234   3.698821   2.043609
    19  C    4.380748   4.145886   4.417297   5.444526   2.471210
    20  H    4.770109   4.761547   4.657811   5.829282   2.526641
    21  H    4.705216   4.321784   4.603055   5.781481   3.242830
    22  H    5.079007   4.757737   5.289214   6.089442   3.135204
                   16         17         18         19         20
    16  O    0.000000
    17  N    2.283826   0.000000
    18  H    3.160972   1.010211   0.000000
    19  C    2.836947   1.452041   2.128960   0.000000
    20  H    2.385099   2.060862   2.971862   1.090753   0.000000
    21  H    3.671319   2.105576   2.505924   1.095526   1.783669
    22  H    3.494018   2.118803   2.545834   1.097504   1.780270
                   21         22
    21  H    0.000000
    22  H    1.782788   0.000000
 Stoichiometry    C6H12N2O2
 Framework group  C1[X(C6H12N2O2)]
 Deg. of freedom    60
 Full point group                 C1      NOp   1
 Largest Abelian subgroup         C1      NOp   1
 Largest concise Abelian subgroup C1      NOp   1
                         Standard orientation:                         
 ---------------------------------------------------------------------
 Center     Atomic      Atomic             Coordinates (Angstroms)
 Number     Number       Type             X           Y           Z
 ---------------------------------------------------------------------
      1          1           0        3.449254   -1.834800   -0.655726
      2          6           0        3.031085   -1.413417    0.261717
      3          1           0        3.867034   -1.034738    0.860455
      4          1           0        2.529283   -2.205898    0.826327
      5          6           0        2.124492   -0.243463   -0.113321
      6          8           0        2.457370    0.566391   -0.968031
      7          7           0        0.945381   -0.202972    0.588143
      8          1           0        0.827712   -0.911514    1.300363
      9          6           0       -0.097463    0.835936    0.621514
     10          1           0       -0.107506    1.266302    1.630033
     11          6           0        0.069686    1.978725   -0.384999
     12          1           0        0.099296    1.636393   -1.421265
     13          1           0       -0.778953    2.661114   -0.263007
     14          1           0        0.994825    2.526987   -0.204207
     15          6           0       -1.469216    0.128009    0.511773
     16          8           0       -2.193148   -0.001602    1.492634
     17          7           0       -1.788166   -0.332947   -0.730440
     18          1           0       -1.093922   -0.255269   -1.460178
     19          6           0       -3.000358   -1.084778   -1.002042
     20          1           0       -3.632119   -1.017590   -0.115416
     21          1           0       -3.533905   -0.662442   -1.860609
     22          1           0       -2.784635   -2.141489   -1.205363
 ---------------------------------------------------------------------
 Rotational constants (GHZ):      2.1383337      0.7208590      0.6862547

 **********************************************************************

            Population analysis using the SCF density.

 **********************************************************************

 Orbital symmetries:
       Occupied  (A) (A) (A) (A) (A) (A) (A) (A) (A) (A) (A) (A)
                 (A) (A) (A) (A) (A) (A) (A) (A) (A) (A) (A) (A)
                 (A) (A) (A) (A) (A) (A) (A) (A) (A) (A) (A) (A)
                 (A) (A) (A)
       Virtual   (A) (A) (A) (A) (A) (A) (A) (A) (A) (A) (A) (A)
                 (A) (A) (A) (A) (A) (A) (A) (A) (A) (A) (A) (A)
                 (A) (A) (A) (A) (A) (A) (A) (A) (A) (A) (A) (A)
                 (A) (A) (A) (A) (A) (A) (A) (A) (A) (A) (A) (A)
                 (A) (A) (A) (A) (A) (A) (A) (A) (A) (A) (A) (A)
                 (A) (A) (A) (A) (A) (A) (A) (A) (A) (A) (A) (A)
                 (A) (A) (A) (A) (A) (A) (A) (A) (A) (A) (A) (A)
                 (A) (A) (A) (A) (A) (A) (A) (A) (A) (A) (A) (A)
                 (A) (A) (A) (A) (A) (A) (A) (A) (A) (A) (A) (A)
                 (A) (A) (A) (A) (A) (A) (A) (A) (A) (A) (A) (A)
                 (A) (A) (A) (A) (A) (A) (A) (A) (A) (A) (A) (A)
                 (A) (A) (A)
 The electronic state is 1-A.
 Alpha  occ. eigenvalues --  -19.11452 -19.10905 -14.36772 -14.36529 -10.29240
 Alpha  occ. eigenvalues --  -10.28609 -10.24061 -10.22104 -10.19457 -10.18501
 Alpha  occ. eigenvalues --   -1.03478  -1.02818  -0.93001  -0.91870  -0.78424
 Alpha  occ. eigenvalues --   -0.73023  -0.70901  -0.65583  -0.58840  -0.56828
 Alpha  occ. eigenvalues --   -0.53480  -0.50974  -0.46948  -0.45389  -0.45206
 Alpha  occ. eigenvalues --   -0.44266  -0.42547  -0.41332  -0.40406  -0.39853
 Alpha  occ. eigenvalues --   -0.39106  -0.38054  -0.37637  -0.36431  -0.35607
 Alpha  occ. eigenvalues --   -0.26997  -0.25388  -0.24899  -0.23906
 Alpha virt. eigenvalues --    0.01623   0.03209   0.06657   0.08141   0.11547
 Alpha virt. eigenvalues --    0.12467   0.13611   0.15345   0.15545   0.16065
 Alpha virt. eigenvalues --    0.16475   0.17699   0.17781   0.18628   0.19162
 Alpha virt. eigenvalues --    0.20399   0.22035   0.25603   0.26452   0.30749
 Alpha virt. eigenvalues --    0.35422   0.38687   0.41668   0.49870   0.51087
 Alpha virt. eigenvalues --    0.51846   0.52766   0.53478   0.53953   0.56093
 Alpha virt. eigenvalues --    0.56713   0.59408   0.60607   0.63799   0.65055
 Alpha virt. eigenvalues --    0.66818   0.67523   0.70204   0.71502   0.72779
 Alpha virt. eigenvalues --    0.74364   0.77458   0.79126   0.80574   0.83188
 Alpha virt. eigenvalues --    0.84507   0.85689   0.86095   0.87079   0.88360
 Alpha virt. eigenvalues --    0.88952   0.90061   0.90688   0.92217   0.93772
 Alpha virt. eigenvalues --    0.94467   0.95039   0.96291   0.96832   1.00166
 Alpha virt. eigenvalues --    1.02511   1.07389   1.08151   1.14777   1.17072
 Alpha virt. eigenvalues --    1.18144   1.24709   1.27876   1.29982   1.34608
 Alpha virt. eigenvalues --    1.36499   1.38270   1.42981   1.45165   1.47890
 Alpha virt. eigenvalues --    1.49815   1.52594   1.61077   1.63925   1.67932
 Alpha virt. eigenvalues --    1.69442   1.74321   1.78107   1.79134   1.80744
 Alpha virt. eigenvalues --    1.82031   1.84498   1.85428   1.87906   1.90843
 Alpha virt. eigenvalues --    1.92052   1.93826   1.97678   1.99051   2.00668
 Alpha virt. eigenvalues --    2.04077   2.04679   2.08353   2.13371   2.18884
 Alpha virt. eigenvalues --    2.20573   2.22519   2.25468   2.28142   2.29743
 Alpha virt. eigenvalues --    2.30864   2.32865   2.34790   2.38966   2.40367
 Alpha virt. eigenvalues --    2.40884   2.45526   2.47046   2.57325   2.61618
 Alpha virt. eigenvalues --    2.65706   2.66790   2.72597   2.77163   2.87721
 Alpha virt. eigenvalues --    2.89247   2.97813   2.98503   3.12200   3.16818
 Alpha virt. eigenvalues --    3.90666   3.96942   4.08277   4.12255   4.17573
 Alpha virt. eigenvalues --    4.22740   4.24874   4.39048   4.51605   4.64290
          Condensed to atoms (all electrons):
              1          2          3          4          5          6
     1  H    0.516270   0.360893  -0.022556  -0.025643  -0.020186   0.002234
     2  C    0.360893   5.324879   0.362742   0.339065   0.343837  -0.080679
     3  H   -0.022556   0.362742   0.519829  -0.025972  -0.019817   0.000061
     4  H   -0.025643   0.339065  -0.025972   0.580384  -0.026207   0.003065
     5  C   -0.020186   0.343837  -0.019817  -0.026207   4.319643   0.588352
     6  O    0.002234  -0.080679   0.000061   0.003065   0.588352   8.075388
     7  N    0.002931  -0.119710   0.000159   0.007013   0.264261  -0.086028
     8  H   -0.000059   0.002451  -0.000041   0.002072  -0.016975   0.003372
     9  C   -0.000100   0.004506  -0.000195   0.000276  -0.024490  -0.005246
    10  H   -0.000004  -0.000277   0.000039   0.000009   0.001380   0.000117
    11  C    0.000004   0.000390   0.000002  -0.000025  -0.001965   0.001397
    12  H   -0.000003   0.000021   0.000003  -0.000003   0.001618   0.002078
    13  H    0.000000   0.000013   0.000000  -0.000001   0.000415   0.000857
    14  H    0.000003   0.000011  -0.000007  -0.000001   0.001923   0.003227
    15  C    0.000008  -0.000184  -0.000003  -0.000008   0.000237  -0.000077
    16  O    0.000000   0.000001   0.000000  -0.000001  -0.000071   0.000000
    17  N    0.000001  -0.000018   0.000000   0.000004   0.000453  -0.000036
    18  H   -0.000004   0.000003   0.000001   0.000001   0.000853  -0.000027
    19  C    0.000000  -0.000001   0.000000   0.000000  -0.000010   0.000000
    20  H    0.000000   0.000000   0.000000   0.000000   0.000001   0.000000
    21  H    0.000000   0.000000   0.000000   0.000000   0.000000   0.000000
    22  H    0.000000   0.000000   0.000000   0.000000   0.000000   0.000000
              7          8          9         10         11         12
     1  H    0.002931  -0.000059  -0.000100  -0.000004   0.000004  -0.000003
     2  C   -0.119710   0.002451   0.004506  -0.000277   0.000390   0.000021
     3  H    0.000159  -0.000041  -0.000195   0.000039   0.000002   0.000003
     4  H    0.007013   0.002072   0.000276   0.000009  -0.000025  -0.000003
     5  C    0.264261  -0.016975  -0.024490   0.001380  -0.001965   0.001618
     6  O   -0.086028   0.003372  -0.005246   0.000117   0.001397   0.002078
     7  N    7.142097   0.295038   0.238626  -0.043785  -0.038258  -0.004162
     8  H    0.295038   0.412849  -0.036782  -0.001769   0.005176  -0.000075
     9  C    0.238626  -0.036782   5.060308   0.361560   0.349280  -0.025353
    10  H   -0.043785  -0.001769   0.361560   0.583137  -0.038053   0.004633
    11  C   -0.038258   0.005176   0.349280  -0.038053   5.097188   0.371850
    12  H   -0.004162  -0.000075  -0.025353   0.004633   0.371850   0.546620
    13  H    0.003738  -0.000092  -0.035446  -0.002436   0.355366  -0.029919
    14  H   -0.003733  -0.000147  -0.019578  -0.004572   0.370012  -0.026044
    15  C   -0.053454   0.000994   0.346475  -0.043647  -0.035190  -0.008485
    16  O   -0.001029   0.002194  -0.072657   0.007209   0.001522  -0.000034
    17  N    0.004038   0.000339  -0.117890   0.006855   0.003689   0.002192
    18  H    0.002777  -0.000080  -0.000943   0.000219   0.000778   0.006086
    19  C   -0.000259  -0.000016   0.005718  -0.000173  -0.000062  -0.000059
    20  H   -0.000040  -0.000011   0.001032  -0.000025  -0.000072   0.000000
    21  H   -0.000005   0.000000  -0.000088   0.000004  -0.000027   0.000012
    22  H    0.000064   0.000000  -0.000189   0.000002   0.000012   0.000002
             13         14         15         16         17         18
     1  H    0.000000   0.000003   0.000008   0.000000   0.000001  -0.000004
     2  C    0.000013   0.000011  -0.000184   0.000001  -0.000018   0.000003
     3  H    0.000000  -0.000007  -0.000003   0.000000   0.000000   0.000001
     4  H   -0.000001  -0.000001  -0.000008  -0.000001   0.000004   0.000001
     5  C    0.000415   0.001923   0.000237  -0.000071   0.000453   0.000853
     6  O    0.000857   0.003227  -0.000077   0.000000  -0.000036  -0.000027
     7  N    0.003738  -0.003733  -0.053454  -0.001029   0.004038   0.002777
     8  H   -0.000092  -0.000147   0.000994   0.002194   0.000339  -0.000080
     9  C   -0.035446  -0.019578   0.346475  -0.072657  -0.117890  -0.000943
    10  H   -0.002436  -0.004572  -0.043647   0.007209   0.006855   0.000219
    11  C    0.355366   0.370012  -0.035190   0.001522   0.003689   0.000778
    12  H   -0.029919  -0.026044  -0.008485  -0.000034   0.002192   0.006086
    13  H    0.584145  -0.027771  -0.001445   0.000477   0.000106  -0.000225
    14  H   -0.027771   0.521682   0.003239  -0.000081   0.000141  -0.000176
    15  C   -0.001445   0.003239   4.417944   0.589674   0.253137  -0.020249
    16  O    0.000477  -0.000081   0.589674   8.071971  -0.101963   0.003334
    17  N    0.000106   0.000141   0.253137  -0.101963   7.073884   0.302153
    18  H   -0.000225  -0.000176  -0.020249   0.003334   0.302153   0.400784
    19  C   -0.000070   0.000004  -0.025920  -0.007997   0.272852  -0.032725
    20  H   -0.000006   0.000001  -0.000718   0.020854  -0.041007   0.003987
    21  H    0.000002  -0.000001   0.002127   0.000466  -0.040376  -0.000591
    22  H    0.000000   0.000000   0.000522   0.000517  -0.042751  -0.000892
             19         20         21         22
     1  H    0.000000   0.000000   0.000000   0.000000
     2  C   -0.000001   0.000000   0.000000   0.000000
     3  H    0.000000   0.000000   0.000000   0.000000
     4  H    0.000000   0.000000   0.000000   0.000000
     5  C   -0.000010   0.000001   0.000000   0.000000
     6  O    0.000000   0.000000   0.000000   0.000000
     7  N   -0.000259  -0.000040  -0.000005   0.000064
     8  H   -0.000016  -0.000011   0.000000   0.000000
     9  C    0.005718   0.001032  -0.000088  -0.000189
    10  H   -0.000173  -0.000025   0.000004   0.000002
    11  C   -0.000062  -0.000072  -0.000027   0.000012
    12  H   -0.000059   0.000000   0.000012   0.000002
    13  H   -0.000070  -0.000006   0.000002   0.000000
    14  H    0.000004   0.000001  -0.000001   0.000000
    15  C   -0.025920  -0.000718   0.002127   0.000522
    16  O   -0.007997   0.020854   0.000466   0.000517
    17  N    0.272852  -0.041007  -0.040376  -0.042751
    18  H   -0.032725   0.003987  -0.000591  -0.000892
    19  C    4.961741   0.376674   0.379834   0.381439
    20  H    0.376674   0.485691  -0.022988  -0.026919
    21  H    0.379834  -0.022988   0.562549  -0.040375
    22  H    0.381439  -0.026919  -0.040375   0.571268
 Mulliken atomic charges:
              1
     1  H    0.186212
     2  C   -0.537943
     3  H    0.185756
     4  H    0.145971
     5  C    0.586746
     6  O   -0.508053
     7  N   -0.610281
     8  H    0.331562
     9  C   -0.028824
    10  H    0.169577
    11  C   -0.443012
    12  H    0.159023
    13  H    0.152293
    14  H    0.181867
    15  C    0.575024
    16  O   -0.514387
    17  N   -0.575801
    18  H    0.334938
    19  C   -0.310970
    20  H    0.203546
    21  H    0.159457
    22  H    0.157299
 Sum of Mulliken atomic charges =   0.00000
 Mulliken charges with hydrogens summed into heavy atoms:
              1
     2  C   -0.020004
     5  C    0.586746
     6  O   -0.508053
     7  N   -0.278720
     9  C    0.140753
    11  C    0.050171
    15  C    0.575024
    16  O   -0.514387
    17  N   -0.240863
    19  C    0.209332
 Sum of Mulliken charges with hydrogens summed into heavy atoms =   0.00000
 Electronic spatial extent (au):  <R**2>=           1843.0900
 Charge=              0.0000 electrons
 Dipole moment (field-independent basis, Debye):
    X=             -0.0169    Y=             -1.9775    Z=             -0.7051  Tot=              2.0995
 Quadrupole moment (field-independent basis, Debye-Ang):
   XX=            -65.2183   YY=            -56.6571   ZZ=            -61.9268
   XY=             -3.4016   XZ=             13.3063   YZ=              1.5747
 Traceless Quadrupole moment (field-independent basis, Debye-Ang):
   XX=             -3.9509   YY=              4.6103   ZZ=             -0.6594
   XY=             -3.4016   XZ=             13.3063   YZ=              1.5747
 Octapole moment (field-independent basis, Debye-Ang**2):
  XXX=             -5.2273  YYY=              0.4857  ZZZ=             -6.7498  XYY=             -1.1398
  XXY=            -19.7284  XXZ=             -4.4735  XZZ=              3.3771  YZZ=             -4.2851
  YYZ=              2.4693  XYZ=              0.7834
 Hexadecapole moment (field-independent basis, Debye-Ang**3):
 XXXX=          -1567.2658 YYYY=           -449.8665 ZZZZ=           -308.8555 XXXY=            -11.1339
 XXXZ=             69.6177 YYYX=              7.5090 YYYZ=              0.9449 ZZZX=             17.2855
 ZZZY=             -0.4773 XXYY=           -331.8190 XXZZ=           -342.3595 YYZZ=           -124.6357
 XXYZ=             16.0663 YYXZ=             -2.4240 ZZXY=             -2.1632
 N-N= 5.518710057002D+02 E-N=-2.259657935942D+03  KE= 4.912283982051D+02
 1\1\GINC-NODE006\FOpt\RB3LYP\6-31G(d)\C6H12N2O2\STEBOSS\10-Feb-2017\0\
 \# b3lyp/6-31G* Opt=(ModRedundant, maxcycles=1000, calcfc) geom=nocrow
 d\\Phi Psi fixed scan\\0,1\H,1.2324548174,2.2686754662,-1.5692303383\C
 ,1.7635450806,2.4392470536,-0.6295613226\H,1.8433272346,1.4740136933,-
 0.1170625114\H,1.177523469,3.1189915114,-0.0025507623\C,3.1683751562,2
 .9424555057,-0.9529652779\O,3.827752856,2.4425265086,-1.8543491727\N,3
 .5910933933,3.973251596,-0.1512403575\H,2.957284758,4.2507232886,0.586
 6151591\C,4.9150348572,4.6099663408,-0.0525444182\H,5.3199324066,4.385
 4911899,0.9414853424\C,5.9440542697,4.1706380767,-1.0990065698\H,5.615
 9883686,4.3503989701,-2.124665012\H,6.8670167709,4.7335257199,-0.92005
 8079\H,6.1566429694,3.104384476,-1.014934234\C,4.6982291908,6.14195475
 29,-0.0222532778\O,4.8092591359,6.7748678199,1.0218055694\N,4.37377330
 04,6.7072834788,-1.2190967964\H,4.2222656238,6.096210076,-2.0091359042
 \C,4.0637981196,8.1185391202,-1.3629590484\H,4.3308074909,8.6089241534
 ,-0.4259580163\H,4.6422272067,8.5606682255,-2.1815672947\H,2.995913524
 4,8.2809629767,-1.5572676771\\Version=EM64L-G09RevA.02\State=1-A\HF=-4
 95.8391161\RMSD=8.735e-09\RMSF=3.008e-04\Dipole=-0.7312062,0.2869319,-
 0.2555734\Quadrupole=4.3305667,-2.0096276,-2.3209391,0.2464443,-2.1116
 777,-9.8658691\PG=C01 [X(C6H12N2O2)]\\@


 THERE ARE PEOPLE SO ADDICTED TO EXAGERATING THEY
 CAN'T TELL THE TRUTH WITHOUT LYING. -- FORTUNE COOKIE
 Job cpu time:  0 days  1 hours 26 minutes 51.0 seconds.
 File lengths (MBytes):  RWF=    186 Int=      0 D2E=      0 Chk=      4 Scr=      2
 Normal termination of Gaussian 09 at Fri Feb 10 19:38:00 2017.
