 Entering Gaussian System, Link 0=g09
 Initial command:
 /home/steboss/Software/g09/l1.exe /tmp/Gau-21094.inp -scrdir=/tmp/
 Entering Link 1 = /home/steboss/Software/g09/l1.exe PID=     21096.
  
 Copyright (c) 1988,1990,1992,1993,1995,1998,2003,2009, Gaussian, Inc.
                  All Rights Reserved.
  
 This is part of the Gaussian(R) 09 program.  It is based on
 the Gaussian(R) 03 system (copyright 2003, Gaussian, Inc.),
 the Gaussian(R) 98 system (copyright 1998, Gaussian, Inc.),
 the Gaussian(R) 94 system (copyright 1995, Gaussian, Inc.),
 the Gaussian 92(TM) system (copyright 1992, Gaussian, Inc.),
 the Gaussian 90(TM) system (copyright 1990, Gaussian, Inc.),
 the Gaussian 88(TM) system (copyright 1988, Gaussian, Inc.),
 the Gaussian 86(TM) system (copyright 1986, Carnegie Mellon
 University), and the Gaussian 82(TM) system (copyright 1983,
 Carnegie Mellon University). Gaussian is a federally registered
 trademark of Gaussian, Inc.
  
 This software contains proprietary and confidential information,
 including trade secrets, belonging to Gaussian, Inc.
  
 This software is provided under written license and may be
 used, copied, transmitted, or stored only in accord with that
 written license.
  
 The following legend is applicable only to US Government
 contracts under FAR:
  
                    RESTRICTED RIGHTS LEGEND
  
 Use, reproduction and disclosure by the US Government is
 subject to restrictions as set forth in subparagraphs (a)
 and (c) of the Commercial Computer Software - Restricted
 Rights clause in FAR 52.227-19.
  
 Gaussian, Inc.
 340 Quinnipiac St., Bldg. 40, Wallingford CT 06492
  
  
 ---------------------------------------------------------------
 Warning -- This program may not be used in any manner that
 competes with the business of Gaussian, Inc. or will provide
 assistance to any competitor of Gaussian, Inc.  The licensee
 of this program is prohibited from giving any competitor of
 Gaussian, Inc. access to this program.  By using this program,
 the user acknowledges that Gaussian, Inc. is engaged in the
 business of creating and licensing software in the field of
 computational chemistry and represents and warrants to the
 licensee that it is not a competitor of Gaussian, Inc. and that
 it will not use this program in any manner prohibited above.
 ---------------------------------------------------------------
  

 Cite this work as:
 Gaussian 09, Revision A.02,
 M. J. Frisch, G. W. Trucks, H. B. Schlegel, G. E. Scuseria, 
 M. A. Robb, J. R. Cheeseman, G. Scalmani, V. Barone, B. Mennucci, 
 G. A. Petersson, H. Nakatsuji, M. Caricato, X. Li, H. P. Hratchian, 
 A. F. Izmaylov, J. Bloino, G. Zheng, J. L. Sonnenberg, M. Hada, 
 M. Ehara, K. Toyota, R. Fukuda, J. Hasegawa, M. Ishida, T. Nakajima, 
 Y. Honda, O. Kitao, H. Nakai, T. Vreven, J. A. Montgomery, Jr., 
 J. E. Peralta, F. Ogliaro, M. Bearpark, J. J. Heyd, E. Brothers, 
 K. N. Kudin, V. N. Staroverov, R. Kobayashi, J. Normand, 
 K. Raghavachari, A. Rendell, J. C. Burant, S. S. Iyengar, J. Tomasi, 
 M. Cossi, N. Rega, J. M. Millam, M. Klene, J. E. Knox, J. B. Cross, 
 V. Bakken, C. Adamo, J. Jaramillo, R. Gomperts, R. E. Stratmann, 
 O. Yazyev, A. J. Austin, R. Cammi, C. Pomelli, J. W. Ochterski, 
 R. L. Martin, K. Morokuma, V. G. Zakrzewski, G. A. Voth, 
 P. Salvador, J. J. Dannenberg, S. Dapprich, A. D. Daniels, 
 O. Farkas, J. B. Foresman, J. V. Ortiz, J. Cioslowski, 
 and D. J. Fox, Gaussian, Inc., Wallingford CT, 2009.
 
 ******************************************
 Gaussian 09:  EM64L-G09RevA.02 11-Jun-2009
                 9-Feb-2017 
 ******************************************
 %chk=structure_45.chk
 %NProcShared=8
 Will use up to    8 processors via shared memory.
 -------------------------------------------
 # HF/6-31G* Opt=(ModRedundant) geom=nocrowd
 -------------------------------------------
 1/18=120,19=15,38=1/1,3;
 2/9=110,12=1,17=6,18=5,40=1/2;
 3/5=1,6=6,7=1,11=9,16=1,25=1,30=1,71=1/1,2,3;
 4//1;
 5/5=2,38=5/2;
 6/7=2,8=2,9=2,10=2,28=1/1;
 7//1,2,3,16;
 1/18=20,19=15/3(2);
 2/9=110,12=1/2;
 99//99;
 2/9=110,12=1/2;
 3/5=1,6=6,7=1,11=9,16=1,25=1,30=1,71=1/1,2,3;
 4/5=5,16=3/1;
 5/5=2,38=5/2;
 7//1,2,3,16;
 1/18=20,19=15/3(-5);
 2/9=110,12=1/2;
 6/7=2,8=2,9=2,10=2,19=2,28=1/1;
 99/9=1/99;
 ------------------
 Phi Psi fixed scan
 ------------------
 Symbolic Z-matrix:
 Charge =  0 Multiplicity = 1
 H                     1.1248    2.7631   -1.9684 
 C                     1.5589    2.9786   -0.9921 
 H                     1.6873    2.0489   -0.4377 
 H                     0.896     3.6429   -0.4377 
 C                     2.9235    3.656    -1.1334 
 O                     3.3922    3.8887   -2.2454 
 N                     3.5554    3.9697    0. 
 H                     3.1293    3.7581    0.8909 
 C                     4.8533    4.6139    0. 
 H                     5.4076    4.3155    0.8898 
 C                     5.6613    4.2208   -1.2322 
 H                     5.1233    4.5214   -2.1312 
 H                     6.6305    4.7189   -1.2058 
 H                     5.8085    3.1409   -1.2414 
 C                     4.7127    6.1294    0. 
 O                     5.4006    6.8197   -0.7488 
 N                     3.817     6.6467    0.8441 
 H                     3.2747    6.038     1.4403 
 C                     3.5895    8.0746    0.9387 
 H                     4.2439    8.5944    0.2391 
 H                     2.5501    8.2943    0.695 
 H                     3.8031    8.4106    1.9534 
 
 The following ModRedundant input section has been read:
 D    5    7    9   15 F                                                       
 D    7    9   15   17 F                                                       

 GradGradGradGradGradGradGradGradGradGradGradGradGradGradGradGradGradGrad
 Berny optimization.
 Initialization pass.
                           ----------------------------
                           !    Initial Parameters    !
                           ! (Angstroms and Degrees)  !
 --------------------------                            --------------------------
 ! Name  Definition              Value          Derivative Info.                !
 --------------------------------------------------------------------------------
 ! R1    R(1,2)                  1.09           estimate D2E/DX2                !
 ! R2    R(2,3)                  1.09           estimate D2E/DX2                !
 ! R3    R(2,4)                  1.09           estimate D2E/DX2                !
 ! R4    R(2,5)                  1.53           estimate D2E/DX2                !
 ! R5    R(5,6)                  1.229          estimate D2E/DX2                !
 ! R6    R(5,7)                  1.335          estimate D2E/DX2                !
 ! R7    R(7,8)                  1.01           estimate D2E/DX2                !
 ! R8    R(7,9)                  1.449          estimate D2E/DX2                !
 ! R9    R(9,10)                 1.09           estimate D2E/DX2                !
 ! R10   R(9,11)                 1.525          estimate D2E/DX2                !
 ! R11   R(9,15)                 1.522          estimate D2E/DX2                !
 ! R12   R(11,12)                1.09           estimate D2E/DX2                !
 ! R13   R(11,13)                1.09           estimate D2E/DX2                !
 ! R14   R(11,14)                1.0899         estimate D2E/DX2                !
 ! R15   R(15,16)                1.229          estimate D2E/DX2                !
 ! R16   R(15,17)                1.3351         estimate D2E/DX2                !
 ! R17   R(17,18)                1.01           estimate D2E/DX2                !
 ! R18   R(17,19)                1.449          estimate D2E/DX2                !
 ! R19   R(19,20)                1.0899         estimate D2E/DX2                !
 ! R20   R(19,21)                1.09           estimate D2E/DX2                !
 ! R21   R(19,22)                1.09           estimate D2E/DX2                !
 ! A1    A(1,2,3)              109.5024         estimate D2E/DX2                !
 ! A2    A(1,2,4)              109.5034         estimate D2E/DX2                !
 ! A3    A(1,2,5)              111.1015         estimate D2E/DX2                !
 ! A4    A(3,2,4)              109.4359         estimate D2E/DX2                !
 ! A5    A(3,2,5)              108.6343         estimate D2E/DX2                !
 ! A6    A(4,2,5)              108.6362         estimate D2E/DX2                !
 ! A7    A(2,5,6)              120.4997         estimate D2E/DX2                !
 ! A8    A(2,5,7)              116.6012         estimate D2E/DX2                !
 ! A9    A(6,5,7)              122.8991         estimate D2E/DX2                !
 ! A10   A(5,7,8)              119.9973         estimate D2E/DX2                !
 ! A11   A(5,7,9)              121.9001         estimate D2E/DX2                !
 ! A12   A(8,7,9)              118.1026         estimate D2E/DX2                !
 ! A13   A(7,9,10)             109.5            estimate D2E/DX2                !
 ! A14   A(7,9,11)             111.0992         estimate D2E/DX2                !
 ! A15   A(7,9,15)             111.0966         estimate D2E/DX2                !
 ! A16   A(10,9,11)            108.6382         estimate D2E/DX2                !
 ! A17   A(10,9,15)            108.6373         estimate D2E/DX2                !
 ! A18   A(11,9,15)            107.7947         estimate D2E/DX2                !
 ! A19   A(9,11,12)            109.5007         estimate D2E/DX2                !
 ! A20   A(9,11,13)            109.4959         estimate D2E/DX2                !
 ! A21   A(9,11,14)            109.4978         estimate D2E/DX2                !
 ! A22   A(12,11,13)           109.441          estimate D2E/DX2                !
 ! A23   A(12,11,14)           109.4482         estimate D2E/DX2                !
 ! A24   A(13,11,14)           109.4436         estimate D2E/DX2                !
 ! A25   A(9,15,16)            120.5022         estimate D2E/DX2                !
 ! A26   A(9,15,17)            116.6022         estimate D2E/DX2                !
 ! A27   A(16,15,17)           122.8956         estimate D2E/DX2                !
 ! A28   A(15,17,18)           119.996          estimate D2E/DX2                !
 ! A29   A(15,17,19)           121.9004         estimate D2E/DX2                !
 ! A30   A(18,17,19)           118.1036         estimate D2E/DX2                !
 ! A31   A(17,19,20)           109.4999         estimate D2E/DX2                !
 ! A32   A(17,19,21)           109.497          estimate D2E/DX2                !
 ! A33   A(17,19,22)           109.4979         estimate D2E/DX2                !
 ! A34   A(20,19,21)           109.4462         estimate D2E/DX2                !
 ! A35   A(20,19,22)           109.4431         estimate D2E/DX2                !
 ! A36   A(21,19,22)           109.4433         estimate D2E/DX2                !
 ! D1    D(1,2,5,6)              0.002          estimate D2E/DX2                !
 ! D2    D(1,2,5,7)            179.9996         estimate D2E/DX2                !
 ! D3    D(3,2,5,6)            120.5171         estimate D2E/DX2                !
 ! D4    D(3,2,5,7)            -59.4853         estimate D2E/DX2                !
 ! D5    D(4,2,5,6)           -120.5155         estimate D2E/DX2                !
 ! D6    D(4,2,5,7)             59.482          estimate D2E/DX2                !
 ! D7    D(2,5,7,8)              0.0055         estimate D2E/DX2                !
 ! D8    D(2,5,7,9)            179.9962         estimate D2E/DX2                !
 ! D9    D(6,5,7,8)           -179.997          estimate D2E/DX2                !
 ! D10   D(6,5,7,9)             -0.0063         estimate D2E/DX2                !
 ! D11   D(5,7,9,10)          -149.9973         estimate D2E/DX2                !
 ! D12   D(5,7,9,11)           -29.9947         estimate D2E/DX2                !
 ! D13   D(5,7,9,15)            90.0028         Frozen                          !
 ! D14   D(8,7,9,10)            29.9935         estimate D2E/DX2                !
 ! D15   D(8,7,9,11)           149.9961         estimate D2E/DX2                !
 ! D16   D(8,7,9,15)           -90.0063         estimate D2E/DX2                !
 ! D17   D(7,9,11,12)           60.0024         estimate D2E/DX2                !
 ! D18   D(7,9,11,13)          179.9986         estimate D2E/DX2                !
 ! D19   D(7,9,11,14)          -60.0038         estimate D2E/DX2                !
 ! D20   D(10,9,11,12)        -179.4843         estimate D2E/DX2                !
 ! D21   D(10,9,11,13)         -59.4881         estimate D2E/DX2                !
 ! D22   D(10,9,11,14)          60.5095         estimate D2E/DX2                !
 ! D23   D(15,9,11,12)         -61.938          estimate D2E/DX2                !
 ! D24   D(15,9,11,13)          58.0582         estimate D2E/DX2                !
 ! D25   D(15,9,11,14)         178.0558         estimate D2E/DX2                !
 ! D26   D(7,9,15,16)         -134.9972         estimate D2E/DX2                !
 ! D27   D(7,9,15,17)           45.0006         Frozen                          !
 ! D28   D(10,9,15,16)         104.4917         estimate D2E/DX2                !
 ! D29   D(10,9,15,17)         -75.5105         estimate D2E/DX2                !
 ! D30   D(11,9,15,16)         -13.0552         estimate D2E/DX2                !
 ! D31   D(11,9,15,17)         166.9426         estimate D2E/DX2                !
 ! D32   D(9,15,17,18)          -0.0011         estimate D2E/DX2                !
 ! D33   D(9,15,17,19)        -179.9993         estimate D2E/DX2                !
 ! D34   D(16,15,17,18)        179.9966         estimate D2E/DX2                !
 ! D35   D(16,15,17,19)         -0.0015         estimate D2E/DX2                !
 ! D36   D(15,17,19,20)         -0.002          estimate D2E/DX2                !
 ! D37   D(15,17,19,21)        120.0007         estimate D2E/DX2                !
 ! D38   D(15,17,19,22)       -120.0014         estimate D2E/DX2                !
 ! D39   D(18,17,19,20)        179.9998         estimate D2E/DX2                !
 ! D40   D(18,17,19,21)        -59.9975         estimate D2E/DX2                !
 ! D41   D(18,17,19,22)         60.0004         estimate D2E/DX2                !
 --------------------------------------------------------------------------------
 Trust Radius=3.00D-01 FncErr=1.00D-07 GrdErr=1.00D-07
 Number of steps in this run= 108 maximum allowed number of steps= 132.
 GradGradGradGradGradGradGradGradGradGradGradGradGradGradGradGradGradGrad

                          Input orientation:                          
 ---------------------------------------------------------------------
 Center     Atomic      Atomic             Coordinates (Angstroms)
 Number     Number       Type             X           Y           Z
 ---------------------------------------------------------------------
      1          1           0        1.124800    2.763100   -1.968400
      2          6           0        1.558900    2.978600   -0.992100
      3          1           0        1.687300    2.048900   -0.437700
      4          1           0        0.896000    3.642900   -0.437700
      5          6           0        2.923500    3.656000   -1.133400
      6          8           0        3.392200    3.888700   -2.245400
      7          7           0        3.555400    3.969700    0.000000
      8          1           0        3.129300    3.758100    0.890900
      9          6           0        4.853300    4.613900    0.000000
     10          1           0        5.407600    4.315500    0.889800
     11          6           0        5.661300    4.220800   -1.232200
     12          1           0        5.123300    4.521400   -2.131200
     13          1           0        6.630500    4.718900   -1.205800
     14          1           0        5.808500    3.140900   -1.241400
     15          6           0        4.712700    6.129400    0.000000
     16          8           0        5.400600    6.819700   -0.748800
     17          7           0        3.817000    6.646700    0.844100
     18          1           0        3.274700    6.038000    1.440300
     19          6           0        3.589500    8.074600    0.938700
     20          1           0        4.243900    8.594400    0.239100
     21          1           0        2.550100    8.294300    0.695000
     22          1           0        3.803100    8.410600    1.953400
 ---------------------------------------------------------------------
                    Distance matrix (angstroms):
                    1          2          3          4          5
     1  H    0.000000
     2  C    1.089975   0.000000
     3  H    1.780317   1.090040   0.000000
     4  H    1.780292   1.089996   1.779604   0.000000
     5  C    2.174814   1.530023   2.143586   2.143578   0.000000
     6  O    2.546528   2.400007   3.091816   3.091797   1.228972
     7  N    3.352357   2.439786   2.714931   2.714919   1.335028
     8  H    3.630928   2.572832   2.601136   2.601169   2.037294
     9  C    4.604538   3.809402   4.098093   4.098127   2.434398
    10  H    5.377883   4.487911   4.554159   4.750703   3.270937
    11  C    4.821484   4.293064   4.597940   4.865520   2.797197
    12  H    4.371055   4.047558   4.559309   4.637863   2.565861
    13  H    5.892321   5.366138   5.670459   5.884917   3.857052
    14  H    4.754819   4.259999   4.338512   5.003058   2.932613
    15  C    5.299019   4.567084   5.098540   4.576184   3.256308
    16  O    6.018795   5.438005   6.053587   5.520893   4.036451
    17  N    5.499131   4.682478   5.226701   4.381560   3.695015
    18  H    5.192906   4.268544   4.686112   3.862849   3.524372
    19  C    6.537431   5.815543   6.466986   5.365574   4.925564
    20  H    6.971793   6.345257   7.059591   6.015301   5.292920
    21  H    6.302329   5.664402   6.405658   5.065035   4.999630
    22  H    7.378893   6.574118   7.117949   6.074500   5.736571
                    6          7          8          9         10
     6  O    0.000000
     7  N    2.252780   0.000000
     8  H    3.150008   1.009970   0.000000
     9  C    2.775347   1.448978   2.120913   0.000000
    10  H    3.751463   2.083739   2.345495   1.089970   0.000000
    11  C    2.507126   2.452791   3.336565   1.525027   2.139209
    12  H    1.846634   2.702720   3.700237   2.150225   3.041326
    13  H    3.500941   3.386959   4.192575   2.150214   2.459625
    14  H    2.721346   2.702673   3.479332   2.150165   2.466256
    15  C    3.436026   2.450234   2.987293   1.522008   2.136554
    16  O    3.855417   3.476775   4.149797   2.392863   2.992670
    17  N    4.163175   2.819090   2.969702   2.432838   2.822515
    18  H    4.268218   2.535966   2.349665   2.567976   2.796305
    19  C    5.263001   4.211000   4.341226   3.801946   4.175968
    20  H    5.389039   4.681779   5.005694   4.033970   4.481807
    21  H    5.363245   4.493976   4.577222   4.396942   4.902459
    22  H    6.184363   4.857851   4.819613   4.397002   4.524987
                   11         12         13         14         15
    11  C    0.000000
    12  H    1.089957   0.000000
    13  H    1.090023   1.779613   0.000000
    14  H    1.089925   1.779613   1.779617   0.000000
    15  C    2.461892   2.701161   2.668599   3.416575   0.000000
    16  O    2.656298   2.696314   2.476866   3.733980   1.228992
    17  N    3.687473   3.882748   3.979232   4.539385   1.335059
    18  H    4.017503   4.298024   4.472501   4.690932   2.037317
    19  C    4.884356   4.939844   5.010717   5.832512   2.434448
    20  H    4.827227   4.793850   4.775259   5.863490   2.520549
    21  H    5.476045   5.370618   5.748582   6.397214   3.137938
    22  H    5.581700   5.792475   5.621689   6.480595   3.137996
                   16         17         18         19         20
    16  O    0.000000
    17  N    2.252787   0.000000
    18  H    3.150026   1.009980   0.000000
    19  C    2.775340   1.449001   2.120953   0.000000
    20  H    2.337405   2.083700   2.986203   1.089895   0.000000
    21  H    3.519141   2.083711   2.484232   1.089959   1.779568
    22  H    3.519212   2.083767   2.484292   1.090017   1.779582
                   21         22
    21  H    0.000000
    22  H    1.779636   0.000000
 Stoichiometry    C6H12N2O2
 Framework group  C1[X(C6H12N2O2)]
 Deg. of freedom    60
 Full point group                 C1      NOp   1
 Largest Abelian subgroup         C1      NOp   1
 Largest concise Abelian subgroup C1      NOp   1
                         Standard orientation:                         
 ---------------------------------------------------------------------
 Center     Atomic      Atomic             Coordinates (Angstroms)
 Number     Number       Type             X           Y           Z
 ---------------------------------------------------------------------
      1          1           0        3.549038   -1.462784   -0.946805
      2          6           0        2.849800   -1.502557   -0.111623
      3          1           0        3.400072   -1.437730    0.827092
      4          1           0        2.297235   -2.441552   -0.144033
      5          6           0        1.851063   -0.345133   -0.173788
      6          8           0        1.905286    0.477232   -1.085462
      7          7           0        0.940708   -0.288077    0.801044
      8          1           0        0.936297   -0.987739    1.529394
      9          6           0       -0.059341    0.759103    0.854470
     10          1           0       -0.324482    0.956348    1.893138
     11          6           0        0.462944    2.049302    0.231323
     12          1           0        0.724040    1.869967   -0.811593
     13          1           0       -0.308394    2.817597    0.285267
     14          1           0        1.346792    2.383781    0.774345
     15          6           0       -1.317493    0.354116    0.099786
     16          8           0       -1.868511    1.144100   -0.663579
     17          7           0       -1.771797   -0.882652    0.315181
     18          1           0       -1.284003   -1.495918    0.952378
     19          6           0       -2.960002   -1.387364   -0.342877
     20          1           0       -3.370952   -0.615764   -0.993742
     21          1           0       -2.702159   -2.263909   -0.937180
     22          1           0       -3.701893   -1.662670    0.406750
 ---------------------------------------------------------------------
 Rotational constants (GHZ):      2.0506544      0.8955371      0.7304968
 Standard basis: 6-31G(d) (6D, 7F)
 There are   174 symmetry adapted basis functions of A   symmetry.
 Integral buffers will be    131072 words long.
 Raffenetti 1 integral format.
 Two-electron integral symmetry is turned on.
   174 basis functions,   328 primitive gaussians,   174 cartesian basis functions
    39 alpha electrons       39 beta electrons
       nuclear repulsion energy       568.1115996203 Hartrees.
 NAtoms=   22 NActive=   22 NUniq=   22 SFac= 7.50D-01 NAtFMM=   80 NAOKFM=F Big=F
 One-electron integrals computed using PRISM.
 NBasis=   174 RedAO= T  NBF=   174
 NBsUse=   174 1.00D-06 NBFU=   174
 Harris functional with IExCor=  205 diagonalized for initial guess.
 ExpMin= 1.61D-01 ExpMax= 5.48D+03 ExpMxC= 8.25D+02 IAcc=1 IRadAn=         1 AccDes= 0.00D+00
 HarFok:  IExCor=  205 AccDes= 0.00D+00 IRadAn=         1 IDoV= 1
 ScaDFX=  1.000000  1.000000  1.000000  1.000000
 FoFCou: FMM=F IPFlag=           0 FMFlag=      100000 FMFlg1=           0
         NFxFlg=           0 DoJE=T BraDBF=F KetDBF=T FulRan=T
         Omega=  0.000000  0.000000  1.000000  0.000000  0.000000 ICntrl=     500 IOpCl=  0
         NMat0=    1 NMatS0=    1 NMatT0=    0 NMatD0=    1 NMtDS0=    0 NMtDT0=    0
         I1Cent=           4 NGrid=           0.
 Petite list used in FoFCou.
 Initial guess orbital symmetries:
       Occupied  (A) (A) (A) (A) (A) (A) (A) (A) (A) (A) (A) (A)
                 (A) (A) (A) (A) (A) (A) (A) (A) (A) (A) (A) (A)
                 (A) (A) (A) (A) (A) (A) (A) (A) (A) (A) (A) (A)
                 (A) (A) (A)
       Virtual   (A) (A) (A) (A) (A) (A) (A) (A) (A) (A) (A) (A)
                 (A) (A) (A) (A) (A) (A) (A) (A) (A) (A) (A) (A)
                 (A) (A) (A) (A) (A) (A) (A) (A) (A) (A) (A) (A)
                 (A) (A) (A) (A) (A) (A) (A) (A) (A) (A) (A) (A)
                 (A) (A) (A) (A) (A) (A) (A) (A) (A) (A) (A) (A)
                 (A) (A) (A) (A) (A) (A) (A) (A) (A) (A) (A) (A)
                 (A) (A) (A) (A) (A) (A) (A) (A) (A) (A) (A) (A)
                 (A) (A) (A) (A) (A) (A) (A) (A) (A) (A) (A) (A)
                 (A) (A) (A) (A) (A) (A) (A) (A) (A) (A) (A) (A)
                 (A) (A) (A) (A) (A) (A) (A) (A) (A) (A) (A) (A)
                 (A) (A) (A) (A) (A) (A) (A) (A) (A) (A) (A) (A)
                 (A) (A) (A)
 The electronic state of the initial guess is 1-A.
 Requested convergence on RMS density matrix=1.00D-08 within 128 cycles.
 Requested convergence on MAX density matrix=1.00D-06.
 Requested convergence on             energy=1.00D-06.
 No special actions if energy rises.
 Integral accuracy reduced to 1.0D-05 until final iterations.
 Initial convergence to 1.0D-05 achieved.  Increase integral accuracy.
 SCF Done:  E(RHF) =  -492.822100165     A.U. after   15 cycles
             Convg  =    0.6465D-08             -V/T =  2.0017

 **********************************************************************

            Population analysis using the SCF density.

 **********************************************************************

 Orbital symmetries:
       Occupied  (A) (A) (A) (A) (A) (A) (A) (A) (A) (A) (A) (A)
                 (A) (A) (A) (A) (A) (A) (A) (A) (A) (A) (A) (A)
                 (A) (A) (A) (A) (A) (A) (A) (A) (A) (A) (A) (A)
                 (A) (A) (A)
       Virtual   (A) (A) (A) (A) (A) (A) (A) (A) (A) (A) (A) (A)
                 (A) (A) (A) (A) (A) (A) (A) (A) (A) (A) (A) (A)
                 (A) (A) (A) (A) (A) (A) (A) (A) (A) (A) (A) (A)
                 (A) (A) (A) (A) (A) (A) (A) (A) (A) (A) (A) (A)
                 (A) (A) (A) (A) (A) (A) (A) (A) (A) (A) (A) (A)
                 (A) (A) (A) (A) (A) (A) (A) (A) (A) (A) (A) (A)
                 (A) (A) (A) (A) (A) (A) (A) (A) (A) (A) (A) (A)
                 (A) (A) (A) (A) (A) (A) (A) (A) (A) (A) (A) (A)
                 (A) (A) (A) (A) (A) (A) (A) (A) (A) (A) (A) (A)
                 (A) (A) (A) (A) (A) (A) (A) (A) (A) (A) (A) (A)
                 (A) (A) (A) (A) (A) (A) (A) (A) (A) (A) (A) (A)
                 (A) (A) (A)
 The electronic state is 1-A.
 Alpha  occ. eigenvalues --  -20.51890 -20.51379 -15.60563 -15.59302 -11.35858
 Alpha  occ. eigenvalues --  -11.34144 -11.28129 -11.26055 -11.24379 -11.18574
 Alpha  occ. eigenvalues --   -1.38486  -1.36978  -1.25504  -1.22963  -1.05473
 Alpha  occ. eigenvalues --   -0.98864  -0.95972  -0.87102  -0.81206  -0.77700
 Alpha  occ. eigenvalues --   -0.73027  -0.70670  -0.65337  -0.63916  -0.62242
 Alpha  occ. eigenvalues --   -0.61913  -0.59272  -0.58111  -0.56829  -0.55077
 Alpha  occ. eigenvalues --   -0.53824  -0.52410  -0.51495  -0.50248  -0.49912
 Alpha  occ. eigenvalues --   -0.43577  -0.39685  -0.38791  -0.37881
 Alpha virt. eigenvalues --    0.17055   0.19604   0.20545   0.24617   0.25979
 Alpha virt. eigenvalues --    0.26847   0.28671   0.31156   0.31385   0.31852
 Alpha virt. eigenvalues --    0.32599   0.32747   0.34940   0.36135   0.36763
 Alpha virt. eigenvalues --    0.38826   0.42594   0.44773   0.48100   0.52213
 Alpha virt. eigenvalues --    0.53104   0.58273   0.61298   0.70001   0.71953
 Alpha virt. eigenvalues --    0.73310   0.74623   0.76325   0.77279   0.80465
 Alpha virt. eigenvalues --    0.81212   0.82175   0.82874   0.88574   0.91441
 Alpha virt. eigenvalues --    0.93202   0.94821   0.95241   0.97629   0.98932
 Alpha virt. eigenvalues --    1.00168   1.01091   1.02245   1.06152   1.09122
 Alpha virt. eigenvalues --    1.12415   1.13354   1.13547   1.14100   1.15393
 Alpha virt. eigenvalues --    1.16692   1.17457   1.18569   1.19518   1.20440
 Alpha virt. eigenvalues --    1.22142   1.22746   1.23102   1.26210   1.28816
 Alpha virt. eigenvalues --    1.31123   1.33232   1.36546   1.39763   1.44707
 Alpha virt. eigenvalues --    1.53043   1.54926   1.56214   1.58533   1.60939
 Alpha virt. eigenvalues --    1.64751   1.66951   1.69366   1.71504   1.74801
 Alpha virt. eigenvalues --    1.78669   1.83410   1.90025   1.95578   1.98284
 Alpha virt. eigenvalues --    2.01882   2.05495   2.10030   2.12400   2.12704
 Alpha virt. eigenvalues --    2.15177   2.15888   2.16678   2.21145   2.22438
 Alpha virt. eigenvalues --    2.23424   2.24880   2.29899   2.33415   2.36986
 Alpha virt. eigenvalues --    2.38205   2.39668   2.42765   2.45438   2.48525
 Alpha virt. eigenvalues --    2.51413   2.54761   2.58938   2.62213   2.64210
 Alpha virt. eigenvalues --    2.66221   2.66826   2.70090   2.73223   2.77356
 Alpha virt. eigenvalues --    2.79533   2.82491   2.86454   2.92206   2.98600
 Alpha virt. eigenvalues --    3.02268   3.05619   3.07043   3.09327   3.24403
 Alpha virt. eigenvalues --    3.31825   3.36190   3.41084   3.53232   3.58113
 Alpha virt. eigenvalues --    4.37296   4.43748   4.50713   4.53050   4.63541
 Alpha virt. eigenvalues --    4.67639   4.73602   4.86716   4.92472   5.06418
          Condensed to atoms (all electrons):
              1          2          3          4          5          6
     1  H    0.447275   0.385552  -0.017847  -0.018051  -0.029635   0.003701
     2  C    0.385552   5.253047   0.374163   0.373197   0.375967  -0.064880
     3  H   -0.017847   0.374163   0.516119  -0.024815  -0.036797   0.001106
     4  H   -0.018051   0.373197  -0.024815   0.520261  -0.035322   0.001120
     5  C   -0.029635   0.375967  -0.036797  -0.035322   4.194293   0.583672
     6  O    0.003701  -0.064880   0.001106   0.001120   0.583672   8.254674
     7  N    0.003791  -0.122520   0.004190   0.003875   0.241641  -0.101422
     8  H   -0.000020  -0.000418   0.000460   0.000502  -0.019220   0.002524
     9  C   -0.000051   0.002729  -0.000016  -0.000203  -0.031926   0.005892
    10  H    0.000001  -0.000062   0.000007  -0.000002   0.002661  -0.000019
    11  C    0.000009  -0.000520   0.000001   0.000016  -0.004897  -0.053337
    12  H    0.000008   0.000155   0.000003  -0.000013  -0.002498  -0.009373
    13  H    0.000000   0.000016  -0.000001   0.000000   0.000496   0.001975
    14  H    0.000001  -0.000106   0.000010   0.000000  -0.000131  -0.001424
    15  C    0.000001  -0.000103   0.000003   0.000015  -0.001613   0.001188
    16  O    0.000000   0.000001   0.000000   0.000000   0.000214  -0.000196
    17  N    0.000000  -0.000062   0.000000   0.000039   0.001851  -0.000126
    18  H    0.000000  -0.000012  -0.000002   0.000029   0.000131  -0.000028
    19  C    0.000000   0.000001   0.000000  -0.000001  -0.000048   0.000001
    20  H    0.000000   0.000000   0.000000   0.000000  -0.000002   0.000000
    21  H    0.000000   0.000000   0.000000  -0.000001  -0.000004   0.000000
    22  H    0.000000   0.000000   0.000000   0.000000   0.000001   0.000000
              7          8          9         10         11         12
     1  H    0.003791  -0.000020  -0.000051   0.000001   0.000009   0.000008
     2  C   -0.122520  -0.000418   0.002729  -0.000062  -0.000520   0.000155
     3  H    0.004190   0.000460  -0.000016   0.000007   0.000001   0.000003
     4  H    0.003875   0.000502  -0.000203  -0.000002   0.000016  -0.000013
     5  C    0.241641  -0.019220  -0.031926   0.002661  -0.004897  -0.002498
     6  O   -0.101422   0.002524   0.005892  -0.000019  -0.053337  -0.009373
     7  N    7.446243   0.325357   0.154762  -0.042923  -0.047566  -0.001211
     8  H    0.325357   0.331226  -0.023424  -0.003239   0.002871  -0.000168
     9  C    0.154762  -0.023424   5.142022   0.408475   0.354494  -0.030979
    10  H   -0.042923  -0.003239   0.408475   0.501741  -0.028290   0.003097
    11  C   -0.047566   0.002871   0.354494  -0.028290   5.160429   0.400526
    12  H   -0.001211  -0.000168  -0.030979   0.003097   0.400526   0.408316
    13  H    0.003720  -0.000078  -0.031778  -0.002840   0.379732  -0.019232
    14  H   -0.000859  -0.000089  -0.045823  -0.003186   0.387352  -0.020053
    15  C   -0.068887   0.001282   0.366170  -0.041128  -0.063508  -0.003470
    16  O    0.001671  -0.000040  -0.079414   0.001265  -0.003020   0.002005
    17  N    0.001013  -0.000056  -0.122843   0.000726   0.003638   0.000012
    18  H    0.006155   0.001185  -0.001045   0.000646   0.000126  -0.000010
    19  C   -0.000306  -0.000003   0.004099  -0.000203  -0.000101  -0.000004
    20  H   -0.000047   0.000001   0.000642  -0.000022  -0.000012  -0.000002
    21  H    0.000035   0.000001  -0.000011  -0.000002   0.000005   0.000000
    22  H   -0.000005   0.000000  -0.000132   0.000015  -0.000001   0.000000
             13         14         15         16         17         18
     1  H    0.000000   0.000001   0.000001   0.000000   0.000000   0.000000
     2  C    0.000016  -0.000106  -0.000103   0.000001  -0.000062  -0.000012
     3  H   -0.000001   0.000010   0.000003   0.000000   0.000000  -0.000002
     4  H    0.000000   0.000000   0.000015   0.000000   0.000039   0.000029
     5  C    0.000496  -0.000131  -0.001613   0.000214   0.001851   0.000131
     6  O    0.001975  -0.001424   0.001188  -0.000196  -0.000126  -0.000028
     7  N    0.003720  -0.000859  -0.068887   0.001671   0.001013   0.006155
     8  H   -0.000078  -0.000089   0.001282  -0.000040  -0.000056   0.001185
     9  C   -0.031778  -0.045823   0.366170  -0.079414  -0.122843  -0.001045
    10  H   -0.002840  -0.003186  -0.041128   0.001265   0.000726   0.000646
    11  C    0.379732   0.387352  -0.063508  -0.003020   0.003638   0.000126
    12  H   -0.019232  -0.020053  -0.003470   0.002005   0.000012  -0.000010
    13  H    0.517928  -0.026615  -0.003348   0.002355   0.000164  -0.000012
    14  H   -0.026615   0.559102   0.006235   0.000581  -0.000059  -0.000010
    15  C   -0.003348   0.006235   4.170367   0.593920   0.288106  -0.025136
    16  O    0.002355   0.000581   0.593920   8.202023  -0.095939   0.002473
    17  N    0.000164  -0.000059   0.288106  -0.095939   7.325964   0.326699
    18  H   -0.000012  -0.000010  -0.025136   0.002473   0.326699   0.340693
    19  C    0.000000   0.000002  -0.024975  -0.005133   0.188548  -0.023577
    20  H   -0.000001   0.000000  -0.001990   0.011149  -0.031567   0.002344
    21  H    0.000000   0.000000   0.000812   0.000353  -0.048463  -0.000670
    22  H    0.000000   0.000000   0.000886   0.000386  -0.048237  -0.001353
             19         20         21         22
     1  H    0.000000   0.000000   0.000000   0.000000
     2  C    0.000001   0.000000   0.000000   0.000000
     3  H    0.000000   0.000000   0.000000   0.000000
     4  H   -0.000001   0.000000  -0.000001   0.000000
     5  C   -0.000048  -0.000002  -0.000004   0.000001
     6  O    0.000001   0.000000   0.000000   0.000000
     7  N   -0.000306  -0.000047   0.000035  -0.000005
     8  H   -0.000003   0.000001   0.000001   0.000000
     9  C    0.004099   0.000642  -0.000011  -0.000132
    10  H   -0.000203  -0.000022  -0.000002   0.000015
    11  C   -0.000101  -0.000012   0.000005  -0.000001
    12  H   -0.000004  -0.000002   0.000000   0.000000
    13  H    0.000000  -0.000001   0.000000   0.000000
    14  H    0.000002   0.000000   0.000000   0.000000
    15  C   -0.024975  -0.001990   0.000812   0.000886
    16  O   -0.005133   0.011149   0.000353   0.000386
    17  N    0.188548  -0.031567  -0.048463  -0.048237
    18  H   -0.023577   0.002344  -0.000670  -0.001353
    19  C    4.950154   0.396280   0.402823   0.402388
    20  H    0.396280   0.427058  -0.022308  -0.022217
    21  H    0.402823  -0.022308   0.536138  -0.037411
    22  H    0.402388  -0.022217  -0.037411   0.539439
 Mulliken atomic charges:
              1
     1  H    0.225264
     2  C   -0.576144
     3  H    0.183416
     4  H    0.179354
     5  C    0.761165
     6  O   -0.625049
     7  N   -0.806705
     8  H    0.381344
     9  C   -0.071638
    10  H    0.203281
    11  C   -0.487948
    12  H    0.272892
    13  H    0.177521
    14  H    0.145071
    15  C    0.805173
    16  O   -0.634653
    17  N   -0.789409
    18  H    0.371374
    19  C   -0.289946
    20  H    0.240693
    21  H    0.168703
    22  H    0.166242
 Sum of Mulliken atomic charges =   0.00000
 Mulliken charges with hydrogens summed into heavy atoms:
              1
     2  C    0.011890
     5  C    0.761165
     6  O   -0.625049
     7  N   -0.425362
     9  C    0.131643
    11  C    0.107536
    15  C    0.805173
    16  O   -0.634653
    17  N   -0.418035
    19  C    0.285692
 Sum of Mulliken charges with hydrogens summed into heavy atoms =   0.00000
 Electronic spatial extent (au):  <R**2>=           1685.8101
 Charge=              0.0000 electrons
 Dipole moment (field-independent basis, Debye):
    X=              0.5068    Y=             -5.4534    Z=              4.9723  Tot=              7.3973
 Quadrupole moment (field-independent basis, Debye-Ang):
   XX=            -60.8911   YY=            -59.1343   ZZ=            -60.5780
   XY=              1.5737   XZ=              1.7499   YZ=              1.6055
 Traceless Quadrupole moment (field-independent basis, Debye-Ang):
   XX=             -0.6900   YY=              1.0668   ZZ=             -0.3768
   XY=              1.5737   XZ=              1.7499   YZ=              1.6055
 Octapole moment (field-independent basis, Debye-Ang**2):
  XXX=              0.0125  YYY=            -10.1200  ZZZ=              6.8668  XYY=              2.6705
  XXY=            -26.6777  XXZ=              7.9863  XZZ=             -3.8467  YZZ=             -6.3855
  YYZ=              4.6891  XYZ=             -1.8472
 Hexadecapole moment (field-independent basis, Debye-Ang**3):
 XXXX=          -1326.6475 YYYY=           -590.1429 ZZZZ=           -203.4754 XXXY=              8.0347
 XXXZ=             11.1905 YYYX=              8.2588 YYYZ=             -8.1681 ZZZX=              4.7426
 ZZZY=             -9.7624 XXYY=           -329.3061 XXZZ=           -271.3770 YYZZ=           -128.1040
 XXYZ=             15.2604 YYXZ=             -7.4291 ZZXY=             -3.0829
 N-N= 5.681115996203D+02 E-N=-2.291742894493D+03  KE= 4.919702367366D+02
 Calling FoFJK, ICntrl=      2127 FMM=F ISym2X=0 I1Cent= 0 IOpClX= 0 NMat=1 NMatS=1 NMatT=0.
 ***** Axes restored to original set *****
 -------------------------------------------------------------------
 Center     Atomic                   Forces (Hartrees/Bohr)
 Number     Number              X              Y              Z
 -------------------------------------------------------------------
      1        1           0.006808263    0.003467865    0.005974612
      2        6           0.008049543    0.002774884    0.004691323
      3        1          -0.004512993    0.002528195   -0.000491488
      4        1          -0.000619132   -0.004906036   -0.000623301
      5        6          -0.007870209   -0.002295432   -0.063810351
      6        8          -0.048265084   -0.013630645    0.036912956
      7        7           0.001292553   -0.003763921    0.029997769
      8        1           0.003909505   -0.000559593   -0.015801098
      9        6           0.011269682    0.002606386   -0.012066506
     10        1          -0.006268444    0.000800450    0.000237992
     11        6           0.020234912    0.002864752   -0.007910247
     12        1           0.022649288   -0.003213611    0.014333115
     13        1          -0.004223851   -0.005141247    0.003745741
     14        1          -0.000216017    0.003294197   -0.001492344
     15        6           0.029837834    0.025249897   -0.033113595
     16        8          -0.025159871   -0.021470284    0.031819639
     17        7          -0.010369295    0.001072872    0.013339682
     18        1           0.008989295    0.010432509   -0.011277833
     19        6          -0.002594202    0.002680028    0.002392192
     20        1          -0.005390905   -0.006775375    0.005909383
     21        1           0.004207207    0.002252506    0.001566956
     22        1          -0.001758079    0.001731605   -0.004334597
 -------------------------------------------------------------------
 Cartesian Forces:  Max     0.063810351 RMS     0.015836275

 GradGradGradGradGradGradGradGradGradGradGradGradGradGradGradGradGradGrad
 Berny optimization.
 Internal  Forces:  Max     0.103479348 RMS     0.019846370
 Search for a local minimum.
 Step number   1 out of a maximum of  108
 All quantities printed in internal units (Hartrees-Bohrs-Radians)
 Mixed Optimization -- RFO/linear search
 Second derivative matrix not updated -- first step.
     Eigenvalues ---    0.00369   0.00435   0.00998   0.01044   0.01269
     Eigenvalues ---    0.01422   0.01660   0.02551   0.02551   0.03503
     Eigenvalues ---    0.05232   0.05841   0.05844   0.05844   0.07165
     Eigenvalues ---    0.07464   0.07686   0.07686   0.15421   0.16000
     Eigenvalues ---    0.16000   0.16000   0.16000   0.16000   0.16000
     Eigenvalues ---    0.16000   0.16000   0.16000   0.16000   0.16000
     Eigenvalues ---    0.16180   0.22000   0.22000   0.25000   0.25000
     Eigenvalues ---    0.25000   0.25000   0.29421   0.29887   0.30174
     Eigenvalues ---    0.34808   0.34810   0.34811   0.34813   0.34816
     Eigenvalues ---    0.34816   0.34817   0.34818   0.34821   0.34825
     Eigenvalues ---    0.38376   0.38379   0.45976   0.45978   0.58327
     Eigenvalues ---    0.58334   0.91508   0.915161000.000001000.00000
     Eigenvalues --- 1000.000001000.000001000.000001000.000001000.00000
     Eigenvalues --- 1000.000001000.000001000.000001000.000001000.00000
     Eigenvalues --- 1000.000001000.000001000.000001000.000001000.00000
     Eigenvalues --- 1000.000001000.000001000.000001000.000001000.00000
     Eigenvalues --- 1000.000001000.000001000.000001000.000001000.00000
     Eigenvalues --- 1000.000001000.000001000.000001000.000001000.00000
     Eigenvalues --- 1000.000001000.000001000.000001000.000001000.00000
     Eigenvalues --- 1000.000001000.000001000.00000
 RFO step:  Lambda=-1.07609315D-01 EMin= 3.68804035D-03
 Linear search not attempted -- first point.
 Maximum step size (   0.300) exceeded in Quadratic search.
    -- Step size scaled by   0.481
 Iteration  1 RMS(Cart)=  0.15803987 RMS(Int)=  0.00700725
 Iteration  2 RMS(Cart)=  0.01173818 RMS(Int)=  0.00029457
 Iteration  3 RMS(Cart)=  0.00005534 RMS(Int)=  0.00029323
 Iteration  4 RMS(Cart)=  0.00000003 RMS(Int)=  0.00029323
 Iteration  1 RMS(Cart)=  0.00009424 RMS(Int)=  0.00003103
 Iteration  2 RMS(Cart)=  0.00005550 RMS(Int)=  0.00003454
 Iteration  3 RMS(Cart)=  0.00003345 RMS(Int)=  0.00003917
 Iteration  4 RMS(Cart)=  0.00002061 RMS(Int)=  0.00004250
 Iteration  5 RMS(Cart)=  0.00001296 RMS(Int)=  0.00004468
 Iteration  6 RMS(Cart)=  0.00000829 RMS(Int)=  0.00004607
 Iteration  7 RMS(Cart)=  0.00000537 RMS(Int)=  0.00004696
 Iteration  8 RMS(Cart)=  0.00000352 RMS(Int)=  0.00004754
 Iteration  9 RMS(Cart)=  0.00000233 RMS(Int)=  0.00004791
 Iteration 10 RMS(Cart)=  0.00000155 RMS(Int)=  0.00004815
 Iteration 11 RMS(Cart)=  0.00000103 RMS(Int)=  0.00004831
 Iteration 12 RMS(Cart)=  0.00000069 RMS(Int)=  0.00004841
 Variable       Old X    -DE/DX   Delta X   Delta X   Delta X     New X
                                 (Linear)    (Quad)   (Total)
    R1        2.05975  -0.00875   0.00000  -0.00923  -0.00923   2.05052
    R2        2.05988  -0.00294   0.00000  -0.00310  -0.00310   2.05678
    R3        2.05979  -0.00293   0.00000  -0.00309  -0.00309   2.05670
    R4        2.89132  -0.00950   0.00000  -0.01138  -0.01138   2.87995
    R5        2.32242  -0.05439   0.00000  -0.02558  -0.02558   2.29684
    R6        2.52284   0.03953   0.00000   0.02752   0.02752   2.55036
    R7        1.90857  -0.01547   0.00000  -0.01312  -0.01312   1.89545
    R8        2.73817   0.04420   0.00000   0.04326   0.04326   2.78143
    R9        2.05975  -0.00321   0.00000  -0.00339  -0.00339   2.05635
   R10        2.88188   0.01392   0.00000   0.01648   0.01648   2.89836
   R11        2.87618   0.01532   0.00000   0.01800   0.01800   2.89418
   R12        2.05972  -0.02389   0.00000  -0.02521  -0.02521   2.03451
   R13        2.05984  -0.00601   0.00000  -0.00635  -0.00635   2.05350
   R14        2.05966  -0.00328   0.00000  -0.00346  -0.00346   2.05620
   R15        2.32246  -0.04553   0.00000  -0.02141  -0.02141   2.30104
   R16        2.52290   0.01386   0.00000   0.00965   0.00965   2.53254
   R17        1.90859  -0.01777   0.00000  -0.01507  -0.01507   1.89352
   R18        2.73822   0.00112   0.00000   0.00110   0.00110   2.73931
   R19        2.05960  -0.01026   0.00000  -0.01083  -0.01083   2.04878
   R20        2.05972  -0.00391   0.00000  -0.00412  -0.00412   2.05560
   R21        2.05983  -0.00385   0.00000  -0.00406  -0.00406   2.05577
    A1        1.91118   0.00040   0.00000   0.00043   0.00047   1.91165
    A2        1.91120   0.00039   0.00000   0.00023   0.00027   1.91146
    A3        1.93909  -0.00823   0.00000  -0.01517  -0.01513   1.92396
    A4        1.91002  -0.00462   0.00000  -0.00751  -0.00758   1.90244
    A5        1.89603   0.00627   0.00000   0.01149   0.01148   1.90750
    A6        1.89606   0.00583   0.00000   0.01062   0.01060   1.90666
    A7        2.10312  -0.01732   0.00000  -0.02330  -0.02333   2.07979
    A8        2.03507  -0.03243   0.00000  -0.04362  -0.04365   1.99143
    A9        2.14499   0.04975   0.00000   0.06692   0.06689   2.21189
   A10        2.09435  -0.05610   0.00000  -0.08381  -0.08381   2.01053
   A11        2.12756   0.10348   0.00000   0.15193   0.15193   2.27949
   A12        2.06128  -0.04738   0.00000  -0.06812  -0.06813   1.99315
   A13        1.91114  -0.01928   0.00000  -0.03241  -0.03183   1.87931
   A14        1.93905   0.05138   0.00000   0.08333   0.08372   2.02276
   A15        1.93900  -0.01615   0.00000  -0.01439  -0.01614   1.92287
   A16        1.89609  -0.01885   0.00000  -0.04225  -0.04153   1.85456
   A17        1.89608   0.00752   0.00000  -0.00003  -0.00056   1.89552
   A18        1.88137  -0.00525   0.00000   0.00404   0.00314   1.88451
   A19        1.91115   0.01570   0.00000   0.02982   0.02978   1.94093
   A20        1.91106  -0.00700   0.00000  -0.01450  -0.01446   1.89660
   A21        1.91110   0.00072   0.00000   0.00160   0.00146   1.91256
   A22        1.91011  -0.00503   0.00000  -0.00964  -0.00952   1.90058
   A23        1.91023  -0.00387   0.00000  -0.00314  -0.00334   1.90689
   A24        1.91015  -0.00052   0.00000  -0.00417  -0.00422   1.90594
   A25        2.10316   0.00556   0.00000   0.00748   0.00720   2.11036
   A26        2.03509  -0.00019   0.00000  -0.00025  -0.00052   2.03458
   A27        2.14493  -0.00537   0.00000  -0.00722  -0.00748   2.13745
   A28        2.09433  -0.00388   0.00000  -0.00578  -0.00578   2.08854
   A29        2.12756   0.00724   0.00000   0.01063   0.01063   2.13820
   A30        2.06130  -0.00336   0.00000  -0.00485  -0.00485   2.05644
   A31        1.91113  -0.00495   0.00000  -0.00934  -0.00932   1.90181
   A32        1.91108   0.00459   0.00000   0.00846   0.00844   1.91952
   A33        1.91110   0.00465   0.00000   0.00859   0.00858   1.91967
   A34        1.91020  -0.00056   0.00000  -0.00148  -0.00146   1.90874
   A35        1.91014  -0.00051   0.00000  -0.00134  -0.00133   1.90882
   A36        1.91015  -0.00323   0.00000  -0.00490  -0.00495   1.90520
    D1        0.00004   0.00155   0.00000   0.00635   0.00619   0.00622
    D2        3.14159  -0.00169   0.00000  -0.00662  -0.00645   3.13514
    D3        2.10342   0.00101   0.00000   0.00494   0.00472   2.10814
    D4       -1.03822  -0.00223   0.00000  -0.00803  -0.00791  -1.04613
    D5       -2.10339   0.00239   0.00000   0.00858   0.00846  -2.09493
    D6        1.03816  -0.00085   0.00000  -0.00439  -0.00418   1.03398
    D7        0.00010  -0.00494   0.00000  -0.01425  -0.01399  -0.01390
    D8        3.14153  -0.00161   0.00000  -0.00813  -0.00792   3.13360
    D9       -3.14154  -0.00827   0.00000  -0.02756  -0.02777   3.11388
   D10       -0.00011  -0.00494   0.00000  -0.02145  -0.02170  -0.02181
   D11       -2.61795  -0.01230   0.00000  -0.03019  -0.02998  -2.64792
   D12       -0.52351  -0.01582   0.00000  -0.05118  -0.05141  -0.57492
   D13        1.57085   0.00109   0.00000   0.00000   0.00000   1.57085
   D14        0.52349  -0.00903   0.00000  -0.02419  -0.02396   0.49953
   D15        2.61793  -0.01255   0.00000  -0.04518  -0.04539   2.57254
   D16       -1.57091   0.00436   0.00000   0.00600   0.00602  -1.56488
   D17        1.04724   0.00900   0.00000   0.03517   0.03594   1.08318
   D18        3.14157   0.00817   0.00000   0.03276   0.03340  -3.10821
   D19       -1.04726   0.00368   0.00000   0.01974   0.02039  -1.02687
   D20       -3.13259   0.00475   0.00000   0.01930   0.01913  -3.11347
   D21       -1.03826   0.00392   0.00000   0.01689   0.01659  -1.02168
   D22        1.05609  -0.00057   0.00000   0.00388   0.00358   1.05967
   D23       -1.08102   0.00064   0.00000  -0.00124  -0.00159  -1.08261
   D24        1.01331  -0.00019   0.00000  -0.00365  -0.00413   1.00918
   D25        3.10766  -0.00468   0.00000  -0.01667  -0.01714   3.09052
   D26       -2.35615  -0.02824   0.00000  -0.04196  -0.04191  -2.39806
   D27        0.78541  -0.02635   0.00000   0.00000   0.00000   0.78541
   D28        1.82372   0.00076   0.00000   0.00708   0.00698   1.83070
   D29       -1.31791   0.00265   0.00000   0.04904   0.04889  -1.26902
   D30       -0.22786   0.02192   0.00000   0.05493   0.05456  -0.17330
   D31        2.91370   0.02381   0.00000   0.09688   0.09647   3.01017
   D32       -0.00002  -0.00151   0.00000  -0.02354  -0.02332  -0.02334
   D33       -3.14158  -0.00118   0.00000  -0.02225  -0.02204   3.11957
   D34        3.14153   0.00042   0.00000   0.01951   0.01930  -3.12235
   D35       -0.00003   0.00076   0.00000   0.02080   0.02059   0.02056
   D36       -0.00003  -0.00012   0.00000  -0.00052  -0.00052  -0.00055
   D37        2.09441  -0.00103   0.00000  -0.00287  -0.00290   2.09151
   D38       -2.09442   0.00068   0.00000   0.00158   0.00161  -2.09281
   D39        3.14159   0.00020   0.00000   0.00075   0.00075  -3.14085
   D40       -1.04715  -0.00070   0.00000  -0.00160  -0.00163  -1.04879
   D41        1.04720   0.00101   0.00000   0.00285   0.00288   1.05008
         Item               Value     Threshold  Converged?
 Maximum Force            0.103479     0.000450     NO 
 RMS     Force            0.019586     0.000300     NO 
 Maximum Displacement     0.670864     0.001800     NO 
 RMS     Displacement     0.159200     0.001200     NO 
 Predicted change in Energy=-4.416794D-02
 GradGradGradGradGradGradGradGradGradGradGradGradGradGradGradGradGradGrad

                          Input orientation:                          
 ---------------------------------------------------------------------
 Center     Atomic      Atomic             Coordinates (Angstroms)
 Number     Number       Type             X           Y           Z
 ---------------------------------------------------------------------
      1          1           0        0.920826    2.742388   -1.789226
      2          6           0        1.468826    2.985377   -0.884753
      3          1           0        1.651920    2.076298   -0.314960
      4          1           0        0.882120    3.672080   -0.277513
      5          6           0        2.801210    3.637165   -1.234765
      6          8           0        3.086923    3.810436   -2.403367
      7          7           0        3.545619    3.979820   -0.162461
      8          1           0        3.130382    3.777461    0.727874
      9          6           0        4.872411    4.611635   -0.079766
     10          1           0        5.339517    4.279399    0.845199
     11          6           0        5.852716    4.260888   -1.205980
     12          1           0        5.478306    4.583069   -2.162599
     13          1           0        6.798325    4.759906   -1.011966
     14          1           0        6.013646    3.184976   -1.227454
     15          6           0        4.729683    6.135846   -0.035058
     16          8           0        5.468855    6.852717   -0.684993
     17          7           0        3.791710    6.626279    0.786966
     18          1           0        3.216983    5.997651    1.314729
     19          6           0        3.564976    8.048738    0.949715
     20          1           0        4.258986    8.590791    0.317303
     21          1           0        2.545685    8.297861    0.662941
     22          1           0        3.723876    8.334320    1.987333
 ---------------------------------------------------------------------
                    Distance matrix (angstroms):
                    1          2          3          4          5
     1  H    0.000000
     2  C    1.085089   0.000000
     3  H    1.775284   1.088399   0.000000
     4  H    1.775134   1.088359   1.772150   0.000000
     5  C    2.154970   1.524003   2.145510   2.144868   0.000000
     6  O    2.491961   2.367520   3.070491   3.065870   1.215437
     7  N    3.326731   2.413233   2.689377   2.683686   1.349590
     8  H    3.505610   2.447189   2.483406   2.465074   1.994991
     9  C    4.693757   3.857086   4.105461   4.104179   2.563881
    10  H    5.369117   4.432773   4.449493   4.636562   3.343907
    11  C    5.193221   4.576964   4.817990   5.090733   3.114730
    12  H    4.929313   4.501271   4.933446   5.050581   2.987047
    13  H    6.262547   5.618602   5.845772   6.060055   4.157777
    14  H    5.142789   4.562091   4.592000   5.241395   3.244113
    15  C    5.394445   4.613092   5.102048   4.575223   3.376642
    16  O    6.228860   5.567447   6.125365   5.596484   4.214067
    17  N    5.473878   4.631047   5.147355   4.280901   3.742097
    18  H    5.050109   4.119171   4.525739   3.659932   3.499240
    19  C    6.530748   5.778992   6.397596   5.278157   4.981694
    20  H    7.055819   6.375782   7.045223   5.995894   5.391886
    21  H    6.286220   5.637150   6.361050   5.004973   5.038717
    22  H    7.306791   6.476521   6.982578   5.911141   5.770312
                    6          7          8          9         10
     6  O    0.000000
     7  N    2.293634   0.000000
     8  H    3.131717   1.003029   0.000000
     9  C    3.037929   1.471871   2.093512   0.000000
    10  H    3.980865   2.079229   2.268476   1.088176   0.000000
    11  C    3.047335   2.547671   3.374107   1.533747   2.114486
    12  H    2.524607   2.846004   3.810064   2.169359   3.026272
    13  H    4.075781   3.451128   4.176847   2.144791   2.409993
    14  H    3.215537   2.803060   3.533774   2.157536   2.438873
    15  C    3.703387   2.463064   2.949882   1.531532   2.143162
    16  O    4.228698   3.496486   4.113618   2.396768   2.996695
    17  N    4.313226   2.822360   2.925168   2.444980   2.811928
    18  H    4.315677   2.522247   2.298073   2.570233   2.770920
    19  C    5.425394   4.218223   4.299057   3.818756   4.167474
    20  H    5.623840   4.690429   4.960893   4.045694   4.475971
    21  H    5.461883   4.508507   4.558520   4.421938   4.897627
    22  H    6.336363   4.859533   4.764813   4.410263   4.511890
                   11         12         13         14         15
    11  C    0.000000
    12  H    1.076616   0.000000
    13  H    1.086663   1.760021   0.000000
    14  H    1.088093   1.765148   1.772727   0.000000
    15  C    2.479461   2.738244   2.669614   3.431910   0.000000
    16  O    2.671396   2.708268   2.500852   3.747451   1.217660
    17  N    3.716807   3.964750   3.969791   4.564806   1.340165
    18  H    4.039481   4.382514   4.446519   4.711174   2.032064
    19  C    4.922254   5.035692   5.011901   5.864489   2.446523
    20  H    4.858851   4.868110   4.784441   5.889647   2.524375
    21  H    5.543146   5.512134   5.779912   6.460801   3.151406
    22  H    5.596611   5.862751   5.587886   6.487962   3.151984
                   16         17         18         19         20
    16  O    0.000000
    17  N    2.242934   0.000000
    18  H    3.130648   1.002007   0.000000
    19  C    2.779836   1.449582   2.112178   0.000000
    20  H    2.342922   2.073219   2.967323   1.084165   0.000000
    21  H    3.528497   2.088576   2.483231   1.087776   1.772195
    22  H    3.518725   2.088753   2.483820   1.087869   1.772320
                   21         22
    21  H    0.000000
    22  H    1.772986   0.000000
 Stoichiometry    C6H12N2O2
 Framework group  C1[X(C6H12N2O2)]
 Deg. of freedom    60
 Full point group                 C1      NOp   1
 Largest Abelian subgroup         C1      NOp   1
 Largest concise Abelian subgroup C1      NOp   1
                         Standard orientation:                         
 ---------------------------------------------------------------------
 Center     Atomic      Atomic             Coordinates (Angstroms)
 Number     Number       Type             X           Y           Z
 ---------------------------------------------------------------------
      1          1           0       -3.650654   -1.532509    0.684234
      2          6           0       -2.896136   -1.458262   -0.092044
      3          1           0       -3.378348   -1.290675   -1.053293
      4          1           0       -2.328458   -2.385742   -0.137283
      5          6           0       -1.947571   -0.302684    0.203674
      6          8           0       -2.118055    0.361577    1.207157
      7          7           0       -0.969533   -0.144226   -0.712691
      8          1           0       -0.977262   -0.808047   -1.464588
      9          6           0        0.119109    0.843273   -0.790862
     10          1           0        0.365338    0.981117   -1.841812
     11          6           0       -0.200557    2.237829   -0.238226
     12          1           0       -0.430064    2.197020    0.812851
     13          1           0        0.665954    2.877010   -0.384661
     14          1           0       -1.049249    2.657011   -0.774841
     15          6           0        1.360538    0.319516   -0.062767
     16          8           0        2.017954    1.049128    0.657071
     17          7           0        1.702634   -0.954122   -0.301218
     18          1           0        1.139814   -1.512375   -0.914084
     19          6           0        2.868538   -1.572906    0.297999
     20          1           0        3.367458   -0.846609    0.929652
     21          1           0        2.567754   -2.427825    0.899580
     22          1           0        3.553288   -1.906179   -0.478858
 ---------------------------------------------------------------------
 Rotational constants (GHZ):      1.9227445      0.8660652      0.6951615
 Standard basis: 6-31G(d) (6D, 7F)
 There are   174 symmetry adapted basis functions of A   symmetry.
 Integral buffers will be    131072 words long.
 Raffenetti 1 integral format.
 Two-electron integral symmetry is turned on.
   174 basis functions,   328 primitive gaussians,   174 cartesian basis functions
    39 alpha electrons       39 beta electrons
       nuclear repulsion energy       559.2813406339 Hartrees.
 NAtoms=   22 NActive=   22 NUniq=   22 SFac= 7.50D-01 NAtFMM=   80 NAOKFM=F Big=F
 One-electron integrals computed using PRISM.
 NBasis=   174 RedAO= T  NBF=   174
 NBsUse=   174 1.00D-06 NBFU=   174
 Initial guess read from the read-write file.
 B after Tr=     0.000000    0.000000    0.000000
         Rot=    1.000000    0.000000    0.000000    0.000000 Ang=   0.00 deg.
 Initial guess orbital symmetries:
       Occupied  (A) (A) (A) (A) (A) (A) (A) (A) (A) (A) (A) (A)
                 (A) (A) (A) (A) (A) (A) (A) (A) (A) (A) (A) (A)
                 (A) (A) (A) (A) (A) (A) (A) (A) (A) (A) (A) (A)
                 (A) (A) (A)
       Virtual   (A) (A) (A) (A) (A) (A) (A) (A) (A) (A) (A) (A)
                 (A) (A) (A) (A) (A) (A) (A) (A) (A) (A) (A) (A)
                 (A) (A) (A) (A) (A) (A) (A) (A) (A) (A) (A) (A)
                 (A) (A) (A) (A) (A) (A) (A) (A) (A) (A) (A) (A)
                 (A) (A) (A) (A) (A) (A) (A) (A) (A) (A) (A) (A)
                 (A) (A) (A) (A) (A) (A) (A) (A) (A) (A) (A) (A)
                 (A) (A) (A) (A) (A) (A) (A) (A) (A) (A) (A) (A)
                 (A) (A) (A) (A) (A) (A) (A) (A) (A) (A) (A) (A)
                 (A) (A) (A) (A) (A) (A) (A) (A) (A) (A) (A) (A)
                 (A) (A) (A) (A) (A) (A) (A) (A) (A) (A) (A) (A)
                 (A) (A) (A) (A) (A) (A) (A) (A) (A) (A) (A) (A)
                 (A) (A) (A)
 Harris functional with IExCor=  205 diagonalized for initial guess.
 ExpMin= 1.61D-01 ExpMax= 5.48D+03 ExpMxC= 8.25D+02 IAcc=1 IRadAn=         1 AccDes= 0.00D+00
 HarFok:  IExCor=  205 AccDes= 0.00D+00 IRadAn=         1 IDoV= 1
 ScaDFX=  1.000000  1.000000  1.000000  1.000000
 FoFCou: FMM=F IPFlag=           0 FMFlag=      100000 FMFlg1=           0
         NFxFlg=           0 DoJE=T BraDBF=F KetDBF=T FulRan=T
         Omega=  0.000000  0.000000  1.000000  0.000000  0.000000 ICntrl=     500 IOpCl=  0
         NMat0=    1 NMatS0=    1 NMatT0=    0 NMatD0=    1 NMtDS0=    0 NMtDT0=    0
         I1Cent=           4 NGrid=           0.
 Petite list used in FoFCou.
 Requested convergence on RMS density matrix=1.00D-08 within 128 cycles.
 Requested convergence on MAX density matrix=1.00D-06.
 Requested convergence on             energy=1.00D-06.
 No special actions if energy rises.
 Integral accuracy reduced to 1.0D-05 until final iterations.
 Initial convergence to 1.0D-05 achieved.  Increase integral accuracy.
 SCF Done:  E(RHF) =  -492.839466232     A.U. after   17 cycles
             Convg  =    0.5456D-08             -V/T =  2.0019
 Calling FoFJK, ICntrl=      2127 FMM=F ISym2X=0 I1Cent= 0 IOpClX= 0 NMat=1 NMatS=1 NMatT=0.
 ***** Axes restored to original set *****
 -------------------------------------------------------------------
 Center     Atomic                   Forces (Hartrees/Bohr)
 Number     Number              X              Y              Z
 -------------------------------------------------------------------
      1        1           0.004611239    0.002294524    0.002816305
      2        6           0.004667793    0.001043108    0.005357092
      3        1          -0.003601745    0.001383024    0.000078944
      4        1          -0.001334696   -0.003490458   -0.000092311
      5        6          -0.010170915   -0.000648638   -0.044448827
      6        8           0.003759920    0.000589079    0.032882902
      7        7           0.011290489   -0.003707347    0.021418425
      8        1           0.003248966   -0.002083074   -0.008392275
      9        6           0.000822609    0.003652011   -0.017377708
     10        1          -0.007373682    0.001951803    0.001514641
     11        6          -0.001889923   -0.008438480    0.002212667
     12        1           0.000527380   -0.000421767   -0.000588973
     13        1          -0.004328539   -0.002772419   -0.000282956
     14        1          -0.000456644    0.002242624   -0.000792149
     15        6           0.024190385    0.018694733   -0.014776774
     16        8          -0.017525070   -0.015905073    0.015805509
     17        7          -0.008264330    0.000460799    0.008816872
     18        1           0.004994271    0.006262272   -0.006698706
     19        6          -0.001718303    0.000304885    0.001119801
     20        1          -0.003311149   -0.003802884    0.003036189
     21        1           0.002598433    0.001278874    0.001051414
     22        1          -0.000736489    0.001112405   -0.002660082
 -------------------------------------------------------------------
 Cartesian Forces:  Max     0.044448827 RMS     0.010105771

 GradGradGradGradGradGradGradGradGradGradGradGradGradGradGradGradGradGrad
 Berny optimization.
 Using GEDIIS/GDIIS optimizer.
 Internal  Forces:  Max     0.030648006 RMS     0.006056154
 Search for a local minimum.
 Step number   2 out of a maximum of  108
 All quantities printed in internal units (Hartrees-Bohrs-Radians)
 Mixed Optimization -- RFO/linear search
 Update second derivatives using D2CorX and points    1    2
 DE= -1.74D-02 DEPred=-4.42D-02 R= 3.93D-01
 Trust test= 3.93D-01 RLast= 3.00D-01 DXMaxT set to 3.00D-01
 Use linear search instead of GDIIS.
     Eigenvalues ---    0.00369   0.00438   0.00994   0.01044   0.01337
     Eigenvalues ---    0.01424   0.01659   0.02551   0.02565   0.03762
     Eigenvalues ---    0.05128   0.05676   0.05914   0.06022   0.07220
     Eigenvalues ---    0.07362   0.07603   0.07711   0.15792   0.15983
     Eigenvalues ---    0.16000   0.16000   0.16000   0.16000   0.16000
     Eigenvalues ---    0.16000   0.16000   0.16000   0.16000   0.16558
     Eigenvalues ---    0.17336   0.21972   0.24222   0.24881   0.24980
     Eigenvalues ---    0.25000   0.29384   0.29808   0.30052   0.34342
     Eigenvalues ---    0.34673   0.34808   0.34811   0.34812   0.34813
     Eigenvalues ---    0.34816   0.34817   0.34820   0.34822   0.36822
     Eigenvalues ---    0.38376   0.45577   0.45976   0.56171   0.58142
     Eigenvalues ---    0.77258   0.87171   0.915621000.000001000.00000
     Eigenvalues --- 1000.000001000.000001000.000001000.000001000.00000
     Eigenvalues --- 1000.000001000.000001000.000001000.000001000.00000
     Eigenvalues --- 1000.000001000.000001000.000001000.000001000.00000
     Eigenvalues --- 1000.000001000.000001000.000001000.000001000.00000
     Eigenvalues --- 1000.000001000.000001000.000001000.000001000.00000
     Eigenvalues --- 1000.000001000.000001000.000001000.000001000.00000
     Eigenvalues --- 1000.000001000.000001000.000001000.000001000.00000
     Eigenvalues --- 1000.000001000.000001000.00000
 RFO step:  Lambda=-7.61692834D-03 EMin= 3.68804116D-03
 Quartic linear search produced a step of -0.12979.
 Iteration  1 RMS(Cart)=  0.06612162 RMS(Int)=  0.00117778
 Iteration  2 RMS(Cart)=  0.00176077 RMS(Int)=  0.00037450
 Iteration  3 RMS(Cart)=  0.00000131 RMS(Int)=  0.00037450
 Iteration  4 RMS(Cart)=  0.00000000 RMS(Int)=  0.00037450
 Iteration  1 RMS(Cart)=  0.00014872 RMS(Int)=  0.00004916
 Iteration  2 RMS(Cart)=  0.00009051 RMS(Int)=  0.00005459
 Iteration  3 RMS(Cart)=  0.00005635 RMS(Int)=  0.00006213
 Iteration  4 RMS(Cart)=  0.00003579 RMS(Int)=  0.00006786
 Iteration  5 RMS(Cart)=  0.00002310 RMS(Int)=  0.00007178
 Iteration  6 RMS(Cart)=  0.00001511 RMS(Int)=  0.00007439
 Iteration  7 RMS(Cart)=  0.00000998 RMS(Int)=  0.00007613
 Iteration  8 RMS(Cart)=  0.00000664 RMS(Int)=  0.00007728
 Iteration  9 RMS(Cart)=  0.00000444 RMS(Int)=  0.00007805
 Iteration 10 RMS(Cart)=  0.00000298 RMS(Int)=  0.00007856
 Iteration 11 RMS(Cart)=  0.00000201 RMS(Int)=  0.00007890
 Iteration 12 RMS(Cart)=  0.00000135 RMS(Int)=  0.00007913
 Iteration 13 RMS(Cart)=  0.00000091 RMS(Int)=  0.00007929
 Variable       Old X    -DE/DX   Delta X   Delta X   Delta X     New X
                                 (Linear)    (Quad)   (Total)
    R1        2.05052  -0.00519   0.00120  -0.01579  -0.01459   2.03593
    R2        2.05678  -0.00172   0.00040  -0.00525  -0.00485   2.05193
    R3        2.05670  -0.00153   0.00040  -0.00479  -0.00439   2.05231
    R4        2.87995  -0.00245   0.00148  -0.01077  -0.00930   2.87065
    R5        2.29684  -0.03065   0.00332  -0.03847  -0.03515   2.26169
    R6        2.55036   0.00355  -0.00357   0.01522   0.01165   2.56200
    R7        1.89545  -0.00837   0.00170  -0.02019  -0.01849   1.87696
    R8        2.78143  -0.00980  -0.00562  -0.00683  -0.01244   2.76899
    R9        2.05635  -0.00247   0.00044  -0.00718  -0.00674   2.04961
   R10        2.89836  -0.00218  -0.00214  -0.00077  -0.00291   2.89546
   R11        2.89418   0.00851  -0.00234   0.02982   0.02748   2.92165
   R12        2.03451   0.00021   0.00327  -0.00802  -0.00475   2.02976
   R13        2.05350  -0.00509   0.00082  -0.01457  -0.01375   2.03975
   R14        2.05620  -0.00227   0.00045  -0.00671  -0.00626   2.04994
   R15        2.30104  -0.02844   0.00278  -0.03483  -0.03205   2.26900
   R16        2.53254   0.00942  -0.00125   0.01735   0.01610   2.54864
   R17        1.89352  -0.01032   0.00196  -0.02450  -0.02254   1.87097
   R18        2.73931  -0.00030  -0.00014  -0.00030  -0.00044   2.73887
   R19        2.04878  -0.00579   0.00141  -0.01780  -0.01639   2.03238
   R20        2.05560  -0.00242   0.00054  -0.00730  -0.00677   2.04883
   R21        2.05577  -0.00235   0.00053  -0.00712  -0.00659   2.04918
    A1        1.91165  -0.00009  -0.00006  -0.00217  -0.00202   1.90963
    A2        1.91146  -0.00024  -0.00003  -0.00379  -0.00362   1.90784
    A3        1.92396  -0.00578   0.00196  -0.03628  -0.03410   1.88985
    A4        1.90244  -0.00373   0.00098  -0.01678  -0.01633   1.88611
    A5        1.90750   0.00498  -0.00149   0.03018   0.02852   1.93602
    A6        1.90666   0.00490  -0.00138   0.02914   0.02758   1.93424
    A7        2.07979   0.01433   0.00303   0.04102   0.04393   2.12373
    A8        1.99143   0.00007   0.00567  -0.01342  -0.00787   1.98356
    A9        2.21189  -0.01440  -0.00868  -0.02729  -0.03608   2.17581
   A10        2.01053   0.00438   0.01088  -0.01111  -0.00036   2.01017
   A11        2.27949  -0.01264  -0.01972  -0.00196  -0.02180   2.25768
   A12        1.99315   0.00826   0.00884   0.01321   0.02192   2.01507
   A13        1.87931  -0.00182   0.00413  -0.04538  -0.04124   1.83807
   A14        2.02276  -0.01117  -0.01087  -0.03399  -0.04621   1.97655
   A15        1.92287   0.00522   0.00209   0.02706   0.03018   1.95305
   A16        1.85456   0.00418   0.00539   0.01537   0.01941   1.87397
   A17        1.89552  -0.00502   0.00007  -0.01565  -0.01591   1.87961
   A18        1.88451   0.00846  -0.00041   0.05122   0.05105   1.93556
   A19        1.94093   0.00122  -0.00386   0.01407   0.01020   1.95113
   A20        1.89660  -0.00071   0.00188  -0.00640  -0.00452   1.89208
   A21        1.91256   0.00059  -0.00019   0.00253   0.00235   1.91491
   A22        1.90058   0.00000   0.00124  -0.00078   0.00045   1.90103
   A23        1.90689  -0.00098   0.00043  -0.00825  -0.00780   1.89909
   A24        1.90594  -0.00013   0.00055  -0.00137  -0.00081   1.90512
   A25        2.11036   0.00152  -0.00093   0.00737   0.00637   2.11673
   A26        2.03458  -0.00075   0.00007  -0.00301  -0.00301   2.03156
   A27        2.13745  -0.00076   0.00097  -0.00556  -0.00467   2.13278
   A28        2.08854  -0.00214   0.00075  -0.01021  -0.00952   2.07903
   A29        2.13820   0.00383  -0.00138   0.01784   0.01640   2.15460
   A30        2.05644  -0.00169   0.00063  -0.00766  -0.00709   2.04936
   A31        1.90181  -0.00261   0.00121  -0.01773  -0.01646   1.88535
   A32        1.91952   0.00275  -0.00110   0.01741   0.01624   1.93576
   A33        1.91967   0.00259  -0.00111   0.01656   0.01537   1.93505
   A34        1.90874  -0.00048   0.00019  -0.00449  -0.00424   1.90449
   A35        1.90882  -0.00044   0.00017  -0.00440  -0.00417   1.90465
   A36        1.90520  -0.00183   0.00064  -0.00752  -0.00707   1.89813
    D1        0.00622  -0.00020  -0.00080  -0.01154  -0.01261  -0.00639
    D2        3.13514   0.00009   0.00084   0.01280   0.01391  -3.13414
    D3        2.10814  -0.00076  -0.00061  -0.01770  -0.01887   2.08927
    D4       -1.04613  -0.00046   0.00103   0.00664   0.00764  -1.03849
    D5       -2.09493   0.00059  -0.00110  -0.00276  -0.00384  -2.09877
    D6        1.03398   0.00088   0.00054   0.02158   0.02268   1.05666
    D7       -0.01390  -0.00020   0.00182   0.00145   0.00358  -0.01032
    D8        3.13360  -0.00078   0.00103  -0.02966  -0.02816   3.10544
    D9        3.11388   0.00038   0.00360   0.02857   0.03171  -3.13760
   D10       -0.02181  -0.00020   0.00282  -0.00254  -0.00003  -0.02184
   D11       -2.64792  -0.00166   0.00389  -0.03041  -0.02718  -2.67510
   D12       -0.57492  -0.00469   0.00667  -0.06526  -0.05754  -0.63246
   D13        1.57085   0.00253   0.00000   0.00000   0.00000   1.57084
   D14        0.49953  -0.00223   0.00311  -0.06120  -0.05894   0.44059
   D15        2.57254  -0.00526   0.00589  -0.09606  -0.08930   2.48324
   D16       -1.56488   0.00196  -0.00078  -0.03080  -0.03176  -1.59665
   D17        1.08318   0.00406  -0.00467   0.03964   0.03467   1.11785
   D18       -3.10821   0.00435  -0.00434   0.04319   0.03856  -3.06966
   D19       -1.02687   0.00411  -0.00265   0.03919   0.03625  -0.99063
   D20       -3.11347  -0.00204  -0.00248  -0.02755  -0.03041   3.13931
   D21       -1.02168  -0.00175  -0.00215  -0.02400  -0.02652  -1.04820
   D22        1.05967  -0.00199  -0.00046  -0.02799  -0.02883   1.03083
   D23       -1.08261  -0.00163   0.00021  -0.01298  -0.01211  -1.09471
   D24        1.00918  -0.00134   0.00054  -0.00943  -0.00822   1.00096
   D25        3.09052  -0.00158   0.00222  -0.01343  -0.01053   3.08000
   D26       -2.39806   0.00011   0.00544  -0.03145  -0.02638  -2.42444
   D27        0.78541  -0.00010   0.00000   0.00000   0.00000   0.78541
   D28        1.83070   0.00230  -0.00091   0.01720   0.01603   1.84674
   D29       -1.26902   0.00208  -0.00635   0.04865   0.04241  -1.22660
   D30       -0.17330  -0.00444  -0.00708  -0.01948  -0.02568  -0.19898
   D31        3.01017  -0.00465  -0.01252   0.01196   0.00070   3.01087
   D32       -0.02334  -0.00070   0.00303  -0.04002  -0.03711  -0.06045
   D33        3.11957  -0.00010   0.00286  -0.01910  -0.01637   3.10320
   D34       -3.12235  -0.00098  -0.00250  -0.00838  -0.01075  -3.13311
   D35        0.02056  -0.00038  -0.00267   0.01254   0.00999   0.03055
   D36       -0.00055  -0.00030   0.00007  -0.01011  -0.01004  -0.01060
   D37        2.09151  -0.00084   0.00038  -0.01601  -0.01574   2.07577
   D38       -2.09281   0.00027  -0.00021  -0.00381  -0.00393  -2.09674
   D39       -3.14085   0.00029  -0.00010   0.01046   0.01037  -3.13048
   D40       -1.04879  -0.00025   0.00021   0.00455   0.00467  -1.04411
   D41        1.05008   0.00086  -0.00037   0.01675   0.01648   1.06656
         Item               Value     Threshold  Converged?
 Maximum Force            0.030648     0.000450     NO 
 RMS     Force            0.006105     0.000300     NO 
 Maximum Displacement     0.197569     0.001800     NO 
 RMS     Displacement     0.066475     0.001200     NO 
 Predicted change in Energy=-4.838268D-03
 GradGradGradGradGradGradGradGradGradGradGradGradGradGradGradGradGradGrad

                          Input orientation:                          
 ---------------------------------------------------------------------
 Center     Atomic      Atomic             Coordinates (Angstroms)
 Number     Number       Type             X           Y           Z
 ---------------------------------------------------------------------
      1          1           0        1.001480    2.690123   -1.820586
      2          6           0        1.509025    2.932192   -0.901610
      3          1           0        1.702655    2.020097   -0.345168
      4          1           0        0.870274    3.567531   -0.295134
      5          6           0        2.806445    3.642950   -1.246775
      6          8           0        3.128415    3.847739   -2.381152
      7          7           0        3.541081    3.991184   -0.161828
      8          1           0        3.140850    3.749858    0.714592
      9          6           0        4.850946    4.644767   -0.097426
     10          1           0        5.287120    4.320331    0.841118
     11          6           0        5.800323    4.208409   -1.218113
     12          1           0        5.432714    4.494314   -2.186006
     13          1           0        6.758601    4.677654   -1.055047
     14          1           0        5.923092    3.130849   -1.194897
     15          6           0        4.725208    6.184977   -0.049592
     16          8           0        5.466742    6.890797   -0.676993
     17          7           0        3.797909    6.685080    0.792406
     18          1           0        3.214746    6.060713    1.292745
     19          6           0        3.582984    8.104393    0.992330
     20          1           0        4.283454    8.637315    0.374256
     21          1           0        2.574701    8.386520    0.710815
     22          1           0        3.744735    8.377308    2.029266
 ---------------------------------------------------------------------
                    Distance matrix (angstroms):
                    1          2          3          4          5
     1  H    0.000000
     2  C    1.077365   0.000000
     3  H    1.765628   1.085835   0.000000
     4  H    1.764671   1.086035   1.757815   0.000000
     5  C    2.120151   1.519083   2.159838   2.158719   0.000000
     6  O    2.485591   2.376908   3.085174   3.086938   1.196836
     7  N    3.300577   2.407902   2.701594   2.707482   1.355752
     8  H    3.482394   2.437938   2.486679   2.491647   1.992540
     9  C    4.648473   3.840320   4.106338   4.128592   2.550416
    10  H    5.301788   4.386118   4.421170   4.622370   3.312384
    11  C    5.069227   4.488223   4.726694   5.056481   3.046945
    12  H    4.798383   4.414208   4.839812   5.024956   2.916207
    13  H    6.138466   5.534277   5.755791   6.040052   4.089854
    14  H    4.980762   4.428257   4.446110   5.150848   3.158864
    15  C    5.405236   4.652997   5.154553   4.666029   3.402469
    16  O    6.236347   5.602190   6.164591   5.684842   4.236784
    17  N    5.532398   4.710929   5.238915   4.412811   3.794181
    18  H    5.094335   4.184773   4.614733   3.772780   3.530077
    19  C    6.625027   5.885574   6.507165   5.440540   5.051839
    20  H    7.138471   6.470991   7.139024   6.148218   5.454629
    21  H    6.428993   5.786647   6.512059   5.209574   5.136859
    22  H    7.395329   6.575540   7.086760   6.066245   5.833265
                    6          7          8          9         10
     6  O    0.000000
     7  N    2.261917   0.000000
     8  H    3.097317   0.993245   0.000000
     9  C    2.969474   1.465287   2.093959   0.000000
    10  H    3.907222   2.040317   2.224393   1.084607   0.000000
    11  C    2.936297   2.503418   3.319400   1.532209   2.125167
    12  H    2.401237   2.815797   3.770985   2.173306   3.035613
    13  H    3.952919   3.409035   4.132862   2.134776   2.426598
    14  H    3.119512   2.735212   3.430772   2.155433   2.442270
    15  C    3.667234   2.495492   3.003993   1.546073   2.141498
    16  O    4.199063   3.518710   4.148708   2.399948   2.990689
    17  N    4.309315   2.869425   3.008872   2.462430   2.795024
    18  H    4.289782   2.550534   2.383227   2.571891   2.743653
    19  C    5.450332   4.272274   4.385726   3.842434   4.152839
    20  H    5.645036   4.735508   5.030766   4.060168   4.456642
    21  H    5.519728   4.584144   4.671100   4.453679   4.889590
    22  H    6.352058   4.907184   4.848334   4.436032   4.499969
                   11         12         13         14         15
    11  C    0.000000
    12  H    1.074102   0.000000
    13  H    1.079387   1.752329   0.000000
    14  H    1.084780   1.755507   1.763587   0.000000
    15  C    2.535376   2.814812   2.723536   3.474816   0.000000
    16  O    2.756681   2.832209   2.590333   3.822786   1.200702
    17  N    3.766396   4.042644   4.025982   4.593292   1.348683
    18  H    4.052239   4.413014   4.470334   4.701872   2.024550
    19  C    4.998133   5.153250   5.100866   5.915759   2.464637
    20  H    4.944869   5.004018   4.883459   5.955822   2.527599
[...]
    12  H    4.754189   4.288250   4.443944   5.021940   2.912612
    13  H    6.075107   5.382915   5.413149   5.920013   4.058133
    14  H    4.863198   4.132287   3.913373   4.776184   3.104899
    15  C    5.371737   4.724684   5.260166   4.899206   3.335346
    16  O    6.192849   5.648556   6.160340   5.948185   4.172750
    17  N    5.553083   4.907692   5.585792   4.796270   3.750951
    18  H    4.928249   4.250483   4.967504   3.981071   3.319047
    19  C    6.583045   6.077336   6.861094   5.922755   4.944058
    20  H    7.446730   6.902285   7.611315   6.817892   5.663821
    21  H    6.413772   6.077378   6.950519   6.006118   4.939813
    22  H    6.960863   6.438786   7.248263   6.104749   5.491425
                    6          7          8          9         10
     6  O    0.000000
     7  N    2.255739   0.000000
     8  H    3.085930   0.996093   0.000000
     9  C    2.868725   1.466681   2.082487   0.000000
    10  H    3.868893   2.030792   2.157539   1.085777   0.000000
    11  C    2.986030   2.529274   3.138140   1.525775   2.127805
    12  H    2.466802   2.885693   3.681471   2.169222   3.038316
    13  H    3.984775   3.430931   3.968378   2.140437   2.407369
    14  H    3.273607   2.735114   3.084186   2.149333   2.479081
    15  C    3.399838   2.484031   3.200155   1.534431   2.085421
    16  O    3.935745   3.522758   4.303017   2.391351   2.937589
    17  N    4.023573   2.833130   3.338646   2.440240   2.692724
    18  H    3.824012   2.407687   2.747759   2.543826   2.757292
    19  C    5.026876   4.206739   4.739998   3.800827   4.066655
    20  H    5.673802   4.843689   5.385173   4.131017   4.290865
    21  H    4.812832   4.487796   5.156002   4.209582   4.705557
    22  H    5.729077   4.707203   5.071241   4.503217   4.617986
                   11         12         13         14         15
    11  C    0.000000
    12  H    1.077788   0.000000
    13  H    1.081733   1.752833   0.000000
    14  H    1.085798   1.763211   1.760441   0.000000
    15  C    2.539877   2.807995   2.765322   3.474247   0.000000
    16  O    2.776391   2.823752   2.661872   3.844179   1.198019
    17  N    3.765163   4.059956   4.049624   4.574536   1.355842
    18  H    4.011191   4.334757   4.492709   4.648998   2.006063
    19  C    4.968048   5.109334   5.116650   5.877759   2.430745
    20  H    5.122294   5.306373   5.041835   6.090892   2.671199
    21  H    5.231166   5.147461   5.464652   6.178585   2.823386
    22  H    5.811088   6.031538   5.999049   6.640831   3.306200
                   16         17         18         19         20
    16  O    0.000000
    17  N    2.244562   0.000000
    18  H    3.082962   0.994139   0.000000
    19  C    2.752704   1.448208   2.099588   0.000000
    20  H    2.608360   2.074761   2.931391   1.079663   0.000000
    21  H    2.959888   2.113492   2.634578   1.085319   1.755377
    22  H    3.784057   2.067311   2.338346   1.082445   1.759427
                   21         22
    21  H    0.000000
    22  H    1.765746   0.000000
 Stoichiometry    C6H12N2O2
 Framework group  C1[X(C6H12N2O2)]
 Deg. of freedom    60
 Full point group                 C1      NOp   1
 Largest Abelian subgroup         C1      NOp   1
 Largest concise Abelian subgroup C1      NOp   1
                         Standard orientation:                         
 ---------------------------------------------------------------------
 Center     Atomic      Atomic             Coordinates (Angstroms)
 Number     Number       Type             X           Y           Z
 ---------------------------------------------------------------------
      1          1           0       -3.611754   -1.529214    0.760432
      2          6           0       -3.113924   -1.182969   -0.133084
      3          1           0       -3.791754   -0.535162   -0.681453
      4          1           0       -2.869678   -2.029004   -0.766365
      5          6           0       -1.878740   -0.402384    0.265180
      6          8           0       -1.710488    0.007355    1.375055
      7          7           0       -0.960615   -0.232538   -0.738828
      8          1           0       -1.298957   -0.462844   -1.646951
      9          6           0        0.062297    0.818517   -0.729425
     10          1           0        0.336338    0.938892   -1.773131
     11          6           0       -0.398891    2.175121   -0.205097
     12          1           0       -0.597844    2.146374    0.853779
     13          1           0        0.374459    2.908626   -0.389614
     14          1           0       -1.299365    2.481499   -0.728774
     15          6           0        1.356051    0.345313   -0.053587
     16          8           0        2.005833    1.074555    0.640126
     17          7           0        1.776611   -0.890385   -0.420311
     18          1           0        1.077879   -1.513654   -0.754408
     19          6           0        2.947227   -1.474578    0.200725
     20          1           0        3.771133   -0.779459    0.140236
     21          1           0        2.780892   -1.717189    1.245421
     22          1           0        3.209808   -2.377810   -0.334917
 ---------------------------------------------------------------------
 Rotational constants (GHZ):      2.0498159      0.8487546      0.7126292

 **********************************************************************

            Population analysis using the SCF density.

 **********************************************************************

 Orbital symmetries:
       Occupied  (A) (A) (A) (A) (A) (A) (A) (A) (A) (A) (A) (A)
                 (A) (A) (A) (A) (A) (A) (A) (A) (A) (A) (A) (A)
                 (A) (A) (A) (A) (A) (A) (A) (A) (A) (A) (A) (A)
                 (A) (A) (A)
       Virtual   (A) (A) (A) (A) (A) (A) (A) (A) (A) (A) (A) (A)
                 (A) (A) (A) (A) (A) (A) (A) (A) (A) (A) (A) (A)
                 (A) (A) (A) (A) (A) (A) (A) (A) (A) (A) (A) (A)
                 (A) (A) (A) (A) (A) (A) (A) (A) (A) (A) (A) (A)
                 (A) (A) (A) (A) (A) (A) (A) (A) (A) (A) (A) (A)
                 (A) (A) (A) (A) (A) (A) (A) (A) (A) (A) (A) (A)
                 (A) (A) (A) (A) (A) (A) (A) (A) (A) (A) (A) (A)
                 (A) (A) (A) (A) (A) (A) (A) (A) (A) (A) (A) (A)
                 (A) (A) (A) (A) (A) (A) (A) (A) (A) (A) (A) (A)
                 (A) (A) (A) (A) (A) (A) (A) (A) (A) (A) (A) (A)
                 (A) (A) (A) (A) (A) (A) (A) (A) (A) (A) (A) (A)
                 (A) (A) (A)
 The electronic state is 1-A.
 Alpha  occ. eigenvalues --  -20.53640 -20.52091 -15.59770 -15.57597 -11.35855
 Alpha  occ. eigenvalues --  -11.33845 -11.28471 -11.25101 -11.24248 -11.20902
 Alpha  occ. eigenvalues --   -1.40477  -1.38827  -1.25060  -1.22109  -1.05495
 Alpha  occ. eigenvalues --   -0.99681  -0.95579  -0.87718  -0.80223  -0.76782
 Alpha  occ. eigenvalues --   -0.71714  -0.70129  -0.65750  -0.64025  -0.62642
 Alpha  occ. eigenvalues --   -0.61494  -0.60457  -0.59045  -0.57394  -0.55669
 Alpha  occ. eigenvalues --   -0.54676  -0.53029  -0.52266  -0.51429  -0.50562
 Alpha  occ. eigenvalues --   -0.43943  -0.42360  -0.39054  -0.38555
 Alpha virt. eigenvalues --    0.17969   0.18813   0.21969   0.24931   0.26068
 Alpha virt. eigenvalues --    0.27575   0.29046   0.29807   0.31152   0.31628
 Alpha virt. eigenvalues --    0.32459   0.33598   0.34490   0.35188   0.36983
 Alpha virt. eigenvalues --    0.39091   0.42444   0.44765   0.47135   0.50384
 Alpha virt. eigenvalues --    0.52691   0.57303   0.60689   0.70058   0.72750
 Alpha virt. eigenvalues --    0.73193   0.74999   0.75888   0.76758   0.77794
 Alpha virt. eigenvalues --    0.81355   0.82272   0.84409   0.89727   0.91112
 Alpha virt. eigenvalues --    0.92592   0.94822   0.95790   0.98424   0.99757
 Alpha virt. eigenvalues --    1.01148   1.02852   1.02999   1.08689   1.09158
 Alpha virt. eigenvalues --    1.12165   1.12693   1.13067   1.13477   1.15184
 Alpha virt. eigenvalues --    1.17318   1.18165   1.18495   1.19671   1.20530
 Alpha virt. eigenvalues --    1.22521   1.22909   1.24410   1.25378   1.26677
 Alpha virt. eigenvalues --    1.28276   1.34300   1.36992   1.37729   1.41152
 Alpha virt. eigenvalues --    1.43244   1.49592   1.53362   1.56086   1.60029
 Alpha virt. eigenvalues --    1.62949   1.65672   1.69719   1.72198   1.74057
 Alpha virt. eigenvalues --    1.76438   1.83862   1.91433   1.96235   1.98010
 Alpha virt. eigenvalues --    2.01943   2.05484   2.08391   2.11399   2.12719
 Alpha virt. eigenvalues --    2.13081   2.14424   2.17903   2.19537   2.21010
 Alpha virt. eigenvalues --    2.22842   2.25605   2.30145   2.32338   2.33733
 Alpha virt. eigenvalues --    2.36169   2.37842   2.39242   2.45622   2.51288
 Alpha virt. eigenvalues --    2.52411   2.56444   2.57326   2.62828   2.64694
 Alpha virt. eigenvalues --    2.69552   2.70615   2.71039   2.74807   2.78296
 Alpha virt. eigenvalues --    2.78988   2.83216   2.88184   2.90617   2.94762
 Alpha virt. eigenvalues --    3.01321   3.05760   3.07241   3.10845   3.25232
 Alpha virt. eigenvalues --    3.34164   3.38086   3.42018   3.49862   3.57263
 Alpha virt. eigenvalues --    4.37024   4.40651   4.47663   4.52458   4.64020
 Alpha virt. eigenvalues --    4.69066   4.71924   4.87811   4.93610   5.03664
          Condensed to atoms (all electrons):
              1          2          3          4          5          6
     1  H    0.455502   0.383964  -0.016928  -0.019901  -0.031814   0.003644
     2  C    0.383964   5.283843   0.374004   0.375790   0.371414  -0.071713
     3  H   -0.016928   0.374004   0.499075  -0.025371  -0.027675   0.000484
     4  H   -0.019901   0.375790  -0.025371   0.517997  -0.035563   0.001762
     5  C   -0.031814   0.371414  -0.027675  -0.035563   4.159633   0.621219
     6  O    0.003644  -0.071713   0.000484   0.001762   0.621219   8.113100
     7  N    0.004349  -0.125633   0.001095   0.004960   0.247058  -0.103484
     8  H    0.000086   0.000419   0.000071  -0.000190  -0.022527   0.002892
     9  C   -0.000085   0.003697  -0.000221   0.000113  -0.027167   0.007944
    10  H    0.000001  -0.000045   0.000007  -0.000011   0.003614   0.000070
    11  C    0.000000  -0.000355   0.000035   0.000010  -0.003562  -0.006136
    12  H    0.000001   0.000153  -0.000010  -0.000003   0.001067   0.004463
    13  H    0.000000   0.000008  -0.000002   0.000000   0.000321   0.000204
    14  H    0.000003  -0.000159   0.000042  -0.000002  -0.001048  -0.000262
    15  C    0.000004  -0.000072   0.000003  -0.000020  -0.003271   0.002468
    16  O    0.000000   0.000000   0.000000   0.000000   0.000120  -0.000159
    17  N    0.000001  -0.000012   0.000000   0.000004   0.001052  -0.000235
    18  H   -0.000002  -0.000020   0.000001   0.000020   0.000628  -0.000107
    19  C    0.000000   0.000000   0.000000   0.000000  -0.000050   0.000001
    20  H    0.000000   0.000000   0.000000   0.000000   0.000001   0.000000
    21  H    0.000000   0.000000   0.000000   0.000000  -0.000004   0.000001
    22  H    0.000000   0.000000   0.000000   0.000000   0.000000   0.000000
              7          8          9         10         11         12
     1  H    0.004349   0.000086  -0.000085   0.000001   0.000000   0.000001
     2  C   -0.125633   0.000419   0.003697  -0.000045  -0.000355   0.000153
     3  H    0.001095   0.000071  -0.000221   0.000007   0.000035  -0.000010
     4  H    0.004960  -0.000190   0.000113  -0.000011   0.000010  -0.000003
     5  C    0.247058  -0.022527  -0.027167   0.003614  -0.003562   0.001067
     6  O   -0.103484   0.002892   0.007944   0.000070  -0.006136   0.004463
     7  N    7.439691   0.328634   0.171733  -0.045554  -0.050992  -0.002721
     8  H    0.328634   0.343097  -0.030378  -0.006823   0.001816  -0.000130
     9  C    0.171733  -0.030378   5.107281   0.414996   0.349616  -0.029077
    10  H   -0.045554  -0.006823   0.414996   0.511904  -0.034777   0.003430
    11  C   -0.050992   0.001816   0.349616  -0.034777   5.104661   0.394091
    12  H   -0.002721  -0.000130  -0.029077   0.003430   0.394091   0.445037
    13  H    0.003628  -0.000100  -0.031259  -0.002942   0.387225  -0.019686
    14  H    0.000151   0.000420  -0.044585  -0.002773   0.388300  -0.024401
    15  C   -0.059140   0.004235   0.368825  -0.044711  -0.055941  -0.003849
    16  O    0.001140  -0.000047  -0.076696   0.000675   0.005092   0.001604
    17  N    0.002168  -0.000636  -0.127889   0.001996   0.003779   0.000054
    18  H    0.009886  -0.000261  -0.004765   0.000608   0.000107  -0.000003
    19  C   -0.000180   0.000013   0.004959  -0.000203  -0.000090  -0.000006
    20  H   -0.000015   0.000001  -0.000010  -0.000009  -0.000011   0.000000
    21  H    0.000007  -0.000001   0.000064  -0.000002   0.000010  -0.000001
    22  H   -0.000011   0.000001  -0.000016  -0.000002   0.000000   0.000000
             13         14         15         16         17         18
     1  H    0.000000   0.000003   0.000004   0.000000   0.000001  -0.000002
     2  C    0.000008  -0.000159  -0.000072   0.000000  -0.000012  -0.000020
     3  H   -0.000002   0.000042   0.000003   0.000000   0.000000   0.000001
     4  H    0.000000  -0.000002  -0.000020   0.000000   0.000004   0.000020
     5  C    0.000321  -0.001048  -0.003271   0.000120   0.001052   0.000628
     6  O    0.000204  -0.000262   0.002468  -0.000159  -0.000235  -0.000107
     7  N    0.003628   0.000151  -0.059140   0.001140   0.002168   0.009886
     8  H   -0.000100   0.000420   0.004235  -0.000047  -0.000636  -0.000261
     9  C   -0.031259  -0.044585   0.368825  -0.076696  -0.127889  -0.004765
    10  H   -0.002942  -0.002773  -0.044711   0.000675   0.001996   0.000608
    11  C    0.387225   0.388300  -0.055941   0.005092   0.003779   0.000107
    12  H   -0.019686  -0.024401  -0.003849   0.001604   0.000054  -0.000003
    13  H    0.502499  -0.026824  -0.002658   0.002186   0.000024  -0.000016
    14  H   -0.026824   0.557576   0.005287   0.000280  -0.000039  -0.000010
    15  C   -0.002658   0.005287   4.157650   0.613277   0.290090  -0.022190
    16  O    0.002186   0.000280   0.613277   8.144894  -0.103051   0.002592
    17  N    0.000024  -0.000039   0.290090  -0.103051   7.308129   0.324527
    18  H   -0.000016  -0.000010  -0.022190   0.002592   0.324527   0.325487
    19  C   -0.000003   0.000001  -0.031579   0.006332   0.211077  -0.024562
    20  H    0.000001   0.000000  -0.003704   0.004326  -0.038452   0.002803
    21  H    0.000000   0.000000  -0.003040   0.001286  -0.048429   0.000735
    22  H    0.000000   0.000000   0.004364   0.000362  -0.039597  -0.003909
             19         20         21         22
     1  H    0.000000   0.000000   0.000000   0.000000
     2  C    0.000000   0.000000   0.000000   0.000000
     3  H    0.000000   0.000000   0.000000   0.000000
     4  H    0.000000   0.000000   0.000000   0.000000
     5  C   -0.000050   0.000001  -0.000004   0.000000
     6  O    0.000001   0.000000   0.000001   0.000000
     7  N   -0.000180  -0.000015   0.000007  -0.000011
     8  H    0.000013   0.000001  -0.000001   0.000001
     9  C    0.004959  -0.000010   0.000064  -0.000016
    10  H   -0.000203  -0.000009  -0.000002  -0.000002
    11  C   -0.000090  -0.000011   0.000010   0.000000
    12  H   -0.000006   0.000000  -0.000001   0.000000
    13  H   -0.000003   0.000001   0.000000   0.000000
    14  H    0.000001   0.000000   0.000000   0.000000
    15  C   -0.031579  -0.003704  -0.003040   0.004364
    16  O    0.006332   0.004326   0.001286   0.000362
    17  N    0.211077  -0.038452  -0.048429  -0.039597
    18  H   -0.024562   0.002803   0.000735  -0.003909
    19  C    4.905891   0.403049   0.406205   0.397743
    20  H    0.403049   0.486152  -0.032358  -0.024534
    21  H    0.406205  -0.032358   0.532028  -0.033532
    22  H    0.397743  -0.024534  -0.033532   0.534731
 Mulliken atomic charges:
              1
     1  H    0.221177
     2  C   -0.595282
     3  H    0.195389
     4  H    0.180406
     5  C    0.746556
     6  O   -0.576154
     7  N   -0.826770
     8  H    0.379410
     9  C   -0.057080
    10  H    0.200552
    11  C   -0.482879
    12  H    0.229989
    13  H    0.187395
    14  H    0.148043
    15  C    0.783973
    16  O   -0.604211
    17  N   -0.784560
    18  H    0.388452
    19  C   -0.278598
    20  H    0.202761
    21  H    0.177032
    22  H    0.164399
 Sum of Mulliken atomic charges =   0.00000
 Mulliken charges with hydrogens summed into heavy atoms:
              1
     2  C    0.001690
     5  C    0.746556
     6  O   -0.576154
     7  N   -0.447361
     9  C    0.143471
    11  C    0.082548
    15  C    0.783973
    16  O   -0.604211
    17  N   -0.396108
    19  C    0.265595
 Sum of Mulliken charges with hydrogens summed into heavy atoms =   0.00000
 Electronic spatial extent (au):  <R**2>=           1736.0563
 Charge=              0.0000 electrons
 Dipole moment (field-independent basis, Debye):
    X=             -2.3143    Y=             -3.2239    Z=             -5.0916  Tot=              6.4555
 Quadrupole moment (field-independent basis, Debye-Ang):
   XX=            -58.7927   YY=            -57.7583   ZZ=            -62.7995
   XY=             -3.6302   XZ=              3.7130   YZ=             -1.9901
 Traceless Quadrupole moment (field-independent basis, Debye-Ang):
   XX=              0.9908   YY=              2.0252   ZZ=             -3.0160
   XY=             -3.6302   XZ=              3.7130   YZ=             -1.9901
 Octapole moment (field-independent basis, Debye-Ang**2):
  XXX=            -15.2954  YYY=             -7.5547  ZZZ=             -8.6865  XYY=             -1.8595
  XXY=            -22.7398  XXZ=            -11.1783  XZZ=              1.0473  YZZ=             -2.3651
  YYZ=             -2.3785  XYZ=             -4.6242
 Hexadecapole moment (field-independent basis, Debye-Ang**3):
 XXXX=          -1381.3117 YYYY=           -561.5504 ZZZZ=           -218.7746 XXXY=            -17.1175
 XXXZ=              6.9386 YYYX=             -6.0727 YYYZ=              7.1869 ZZZX=             16.7343
 ZZZY=              3.5863 XXYY=           -329.5851 XXZZ=           -294.5238 YYZZ=           -129.2131
 XXYZ=            -14.9797 YYXZ=             -9.4023 ZZXY=              2.8490
 N-N= 5.623726686471D+02 E-N=-2.280199996196D+03  KE= 4.921098438854D+02
 1\1\GINC-RODAN\FOpt\RHF\6-31G(d)\C6H12N2O2\STEBOSS\09-Feb-2017\0\\# HF
 /6-31G* Opt=(ModRedundant) geom=nocrowd\\Phi Psi fixed scan\\0,1\H,0.8
 818385886,2.8464467152,-1.7116119675\C,1.5961179745,2.7797287326,-0.90
 44899295\H,2.0260631741,1.782257868,-0.9005472178\H,1.0917073804,2.933
 3397647,0.0433758514\C,2.690214543,3.801788309,-1.132425639\O,2.862452
 1837,4.3302416151,-2.1902950002\N,3.4423617934,4.0920158358,-0.0234278
 5\H,3.3139955225,3.4600908114,0.7357788655\C,4.7815299781,4.6866705622
 ,-0.0879903609\H,5.2409138429,4.4226876816,0.8597386395\C,5.6767585247
 ,4.1619316685,-1.2065626362\H,5.3251340263,4.4721314607,-2.1770069988\
 H,6.6796389901,4.5424767676,-1.0666951132\H,5.709173232,3.0772627423,-
 1.1691539299\C,4.7235169231,6.2198022616,-0.0631148835\O,5.4687219895,
 6.8877366564,-0.7217370975\N,3.8824640801,6.7476341147,0.860102794\H,3
 .1278578264,6.1698103544,1.151653183\C,3.6894981126,8.1810629695,0.933
 2694672\H,4.6497670381,8.6704110592,0.9972528216\H,3.1647407506,8.5703
 106589,0.0666475793\H,3.1190335252,8.4092613904,1.8244394226\\Version=
 EM64L-G09RevA.02\State=1-A\HF=-492.8490248\RMSD=6.663e-09\RMSF=1.647e-
 03\Dipole=-1.0227298,-1.3295679,1.9070624\Quadrupole=-0.6427887,3.8962
 939,-3.2535052,-2.3569038,-1.4103261,0.6156392\PG=C01 [X(C6H12N2O2)]\\
 @


 REPARTEE - WHAT YOU THINK OF AFTER YOU BECOME A DEPARTEE.
 Job cpu time:  0 days  0 hours 19 minutes 44.9 seconds.
 File lengths (MBytes):  RWF=     25 Int=      0 D2E=      0 Chk=      3 Scr=      1
 Normal termination of Gaussian 09 at Thu Feb  9 20:45:18 2017.
