 Entering Gaussian System, Link 0=g09
 Initial command:
 /home/steboss/Software/g09/l1.exe /tmp/Gau-27220.inp -scrdir=/tmp/
 Entering Link 1 = /home/steboss/Software/g09/l1.exe PID=     27222.
  
 Copyright (c) 1988,1990,1992,1993,1995,1998,2003,2009, Gaussian, Inc.
                  All Rights Reserved.
  
 This is part of the Gaussian(R) 09 program.  It is based on
 the Gaussian(R) 03 system (copyright 2003, Gaussian, Inc.),
 the Gaussian(R) 98 system (copyright 1998, Gaussian, Inc.),
 the Gaussian(R) 94 system (copyright 1995, Gaussian, Inc.),
 the Gaussian 92(TM) system (copyright 1992, Gaussian, Inc.),
 the Gaussian 90(TM) system (copyright 1990, Gaussian, Inc.),
 the Gaussian 88(TM) system (copyright 1988, Gaussian, Inc.),
 the Gaussian 86(TM) system (copyright 1986, Carnegie Mellon
 University), and the Gaussian 82(TM) system (copyright 1983,
 Carnegie Mellon University). Gaussian is a federally registered
 trademark of Gaussian, Inc.
  
 This software contains proprietary and confidential information,
 including trade secrets, belonging to Gaussian, Inc.
  
 This software is provided under written license and may be
 used, copied, transmitted, or stored only in accord with that
 written license.
  
 The following legend is applicable only to US Government
 contracts under FAR:
  
                    RESTRICTED RIGHTS LEGEND
  
 Use, reproduction and disclosure by the US Government is
 subject to restrictions as set forth in subparagraphs (a)
 and (c) of the Commercial Computer Software - Restricted
 Rights clause in FAR 52.227-19.
  
 Gaussian, Inc.
 340 Quinnipiac St., Bldg. 40, Wallingford CT 06492
  
  
 ---------------------------------------------------------------
 Warning -- This program may not be used in any manner that
 competes with the business of Gaussian, Inc. or will provide
 assistance to any competitor of Gaussian, Inc.  The licensee
 of this program is prohibited from giving any competitor of
 Gaussian, Inc. access to this program.  By using this program,
 the user acknowledges that Gaussian, Inc. is engaged in the
 business of creating and licensing software in the field of
 computational chemistry and represents and warrants to the
 licensee that it is not a competitor of Gaussian, Inc. and that
 it will not use this program in any manner prohibited above.
 ---------------------------------------------------------------
  

 Cite this work as:
 Gaussian 09, Revision A.02,
 M. J. Frisch, G. W. Trucks, H. B. Schlegel, G. E. Scuseria, 
 M. A. Robb, J. R. Cheeseman, G. Scalmani, V. Barone, B. Mennucci, 
 G. A. Petersson, H. Nakatsuji, M. Caricato, X. Li, H. P. Hratchian, 
 A. F. Izmaylov, J. Bloino, G. Zheng, J. L. Sonnenberg, M. Hada, 
 M. Ehara, K. Toyota, R. Fukuda, J. Hasegawa, M. Ishida, T. Nakajima, 
 Y. Honda, O. Kitao, H. Nakai, T. Vreven, J. A. Montgomery, Jr., 
 J. E. Peralta, F. Ogliaro, M. Bearpark, J. J. Heyd, E. Brothers, 
 K. N. Kudin, V. N. Staroverov, R. Kobayashi, J. Normand, 
 K. Raghavachari, A. Rendell, J. C. Burant, S. S. Iyengar, J. Tomasi, 
 M. Cossi, N. Rega, J. M. Millam, M. Klene, J. E. Knox, J. B. Cross, 
 V. Bakken, C. Adamo, J. Jaramillo, R. Gomperts, R. E. Stratmann, 
 O. Yazyev, A. J. Austin, R. Cammi, C. Pomelli, J. W. Ochterski, 
 R. L. Martin, K. Morokuma, V. G. Zakrzewski, G. A. Voth, 
 P. Salvador, J. J. Dannenberg, S. Dapprich, A. D. Daniels, 
 O. Farkas, J. B. Foresman, J. V. Ortiz, J. Cioslowski, 
 and D. J. Fox, Gaussian, Inc., Wallingford CT, 2009.
 
 ******************************************
 Gaussian 09:  EM64L-G09RevA.02 11-Jun-2009
                 9-Feb-2017 
 ******************************************
 %chk=structure_90.chk
 %NProcShared=8
 Will use up to    8 processors via shared memory.
 -------------------------------------------
 # HF/6-31G* Opt=(ModRedundant) geom=nocrowd
 -------------------------------------------
 1/18=120,19=15,38=1/1,3;
 2/9=110,12=1,17=6,18=5,40=1/2;
 3/5=1,6=6,7=1,11=9,16=1,25=1,30=1,71=1/1,2,3;
 4//1;
 5/5=2,38=5/2;
 6/7=2,8=2,9=2,10=2,28=1/1;
 7//1,2,3,16;
 1/18=20,19=15/3(2);
 2/9=110,12=1/2;
 99//99;
 2/9=110,12=1/2;
 3/5=1,6=6,7=1,11=9,16=1,25=1,30=1,71=1/1,2,3;
 4/5=5,16=3/1;
 5/5=2,38=5/2;
 7//1,2,3,16;
 1/18=20,19=15/3(-5);
 2/9=110,12=1/2;
 6/7=2,8=2,9=2,10=2,19=2,28=1/1;
 99/9=1/99;
 ------------------
 Phi Psi fixed scan
 ------------------
 Symbolic Z-matrix:
 Charge =  0 Multiplicity = 1
 H                     1.1248    2.7631   -1.9684 
 C                     1.5589    2.9786   -0.9921 
 H                     1.6873    2.0489   -0.4377 
 H                     0.896     3.6429   -0.4377 
 C                     2.9235    3.656    -1.1334 
 O                     3.3922    3.8887   -2.2454 
 N                     3.5554    3.9697    0. 
 H                     3.1293    3.7581    0.8909 
 C                     4.8533    4.6139    0. 
 H                     5.4076    4.3155    0.8898 
 C                     5.6613    4.2208   -1.2322 
 H                     5.1233    4.5214   -2.1312 
 H                     6.6305    4.7189   -1.2058 
 H                     5.8085    3.1409   -1.2414 
 C                     4.7127    6.1294    0. 
 O                     4.6551    6.7505   -1.0589 
 N                     4.6575    6.7246    1.1937 
 H                     4.7088    6.171     2.0369 
 C                     4.5242    8.1613    1.3276 
 H                     4.482     8.6165    0.3381 
 H                     3.6091    8.3926    1.8727 
 H                     5.3811    8.5569    1.8727 
 
 The following ModRedundant input section has been read:
 D    5    7    9   15 F                                                       
 D    7    9   15   17 F                                                       

 GradGradGradGradGradGradGradGradGradGradGradGradGradGradGradGradGradGrad
 Berny optimization.
 Initialization pass.
                           ----------------------------
                           !    Initial Parameters    !
                           ! (Angstroms and Degrees)  !
 --------------------------                            --------------------------
 ! Name  Definition              Value          Derivative Info.                !
 --------------------------------------------------------------------------------
 ! R1    R(1,2)                  1.09           estimate D2E/DX2                !
 ! R2    R(2,3)                  1.09           estimate D2E/DX2                !
 ! R3    R(2,4)                  1.09           estimate D2E/DX2                !
 ! R4    R(2,5)                  1.53           estimate D2E/DX2                !
 ! R5    R(5,6)                  1.229          estimate D2E/DX2                !
 ! R6    R(5,7)                  1.335          estimate D2E/DX2                !
 ! R7    R(7,8)                  1.01           estimate D2E/DX2                !
 ! R8    R(7,9)                  1.449          estimate D2E/DX2                !
 ! R9    R(9,10)                 1.09           estimate D2E/DX2                !
 ! R10   R(9,11)                 1.525          estimate D2E/DX2                !
 ! R11   R(9,15)                 1.522          estimate D2E/DX2                !
 ! R12   R(11,12)                1.09           estimate D2E/DX2                !
 ! R13   R(11,13)                1.09           estimate D2E/DX2                !
 ! R14   R(11,14)                1.0899         estimate D2E/DX2                !
 ! R15   R(15,16)                1.229          estimate D2E/DX2                !
 ! R16   R(15,17)                1.335          estimate D2E/DX2                !
 ! R17   R(17,18)                1.01           estimate D2E/DX2                !
 ! R18   R(17,19)                1.4491         estimate D2E/DX2                !
 ! R19   R(19,20)                1.09           estimate D2E/DX2                !
 ! R20   R(19,21)                1.09           estimate D2E/DX2                !
 ! R21   R(19,22)                1.0899         estimate D2E/DX2                !
 ! A1    A(1,2,3)              109.5024         estimate D2E/DX2                !
 ! A2    A(1,2,4)              109.5034         estimate D2E/DX2                !
 ! A3    A(1,2,5)              111.1015         estimate D2E/DX2                !
 ! A4    A(3,2,4)              109.4359         estimate D2E/DX2                !
 ! A5    A(3,2,5)              108.6343         estimate D2E/DX2                !
 ! A6    A(4,2,5)              108.6362         estimate D2E/DX2                !
 ! A7    A(2,5,6)              120.4997         estimate D2E/DX2                !
 ! A8    A(2,5,7)              116.6012         estimate D2E/DX2                !
 ! A9    A(6,5,7)              122.8991         estimate D2E/DX2                !
 ! A10   A(5,7,8)              119.9973         estimate D2E/DX2                !
 ! A11   A(5,7,9)              121.9001         estimate D2E/DX2                !
 ! A12   A(8,7,9)              118.1026         estimate D2E/DX2                !
 ! A13   A(7,9,10)             109.5            estimate D2E/DX2                !
 ! A14   A(7,9,11)             111.0992         estimate D2E/DX2                !
 ! A15   A(7,9,15)             111.0966         estimate D2E/DX2                !
 ! A16   A(10,9,11)            108.6382         estimate D2E/DX2                !
 ! A17   A(10,9,15)            108.6373         estimate D2E/DX2                !
 ! A18   A(11,9,15)            107.7947         estimate D2E/DX2                !
 ! A19   A(9,11,12)            109.5007         estimate D2E/DX2                !
 ! A20   A(9,11,13)            109.4959         estimate D2E/DX2                !
 ! A21   A(9,11,14)            109.4978         estimate D2E/DX2                !
 ! A22   A(12,11,13)           109.441          estimate D2E/DX2                !
 ! A23   A(12,11,14)           109.4482         estimate D2E/DX2                !
 ! A24   A(13,11,14)           109.4436         estimate D2E/DX2                !
 ! A25   A(9,15,16)            120.501          estimate D2E/DX2                !
 ! A26   A(9,15,17)            116.5998         estimate D2E/DX2                !
 ! A27   A(16,15,17)           122.8992         estimate D2E/DX2                !
 ! A28   A(15,17,18)           120.001          estimate D2E/DX2                !
 ! A29   A(15,17,19)           121.9017         estimate D2E/DX2                !
 ! A30   A(18,17,19)           118.0973         estimate D2E/DX2                !
 ! A31   A(17,19,20)           109.4951         estimate D2E/DX2                !
 ! A32   A(17,19,21)           109.5019         estimate D2E/DX2                !
 ! A33   A(17,19,22)           109.497          estimate D2E/DX2                !
 ! A34   A(20,19,21)           109.443          estimate D2E/DX2                !
 ! A35   A(20,19,22)           109.4435         estimate D2E/DX2                !
 ! A36   A(21,19,22)           109.4467         estimate D2E/DX2                !
 ! D1    D(1,2,5,6)              0.002          estimate D2E/DX2                !
 ! D2    D(1,2,5,7)            179.9996         estimate D2E/DX2                !
 ! D3    D(3,2,5,6)            120.5171         estimate D2E/DX2                !
 ! D4    D(3,2,5,7)            -59.4853         estimate D2E/DX2                !
 ! D5    D(4,2,5,6)           -120.5155         estimate D2E/DX2                !
 ! D6    D(4,2,5,7)             59.482          estimate D2E/DX2                !
 ! D7    D(2,5,7,8)              0.0055         estimate D2E/DX2                !
 ! D8    D(2,5,7,9)            179.9962         estimate D2E/DX2                !
 ! D9    D(6,5,7,8)           -179.997          estimate D2E/DX2                !
 ! D10   D(6,5,7,9)             -0.0063         estimate D2E/DX2                !
 ! D11   D(5,7,9,10)          -149.9973         estimate D2E/DX2                !
 ! D12   D(5,7,9,11)           -29.9947         estimate D2E/DX2                !
 ! D13   D(5,7,9,15)            90.0028         Frozen                          !
 ! D14   D(8,7,9,10)            29.9935         estimate D2E/DX2                !
 ! D15   D(8,7,9,11)           149.9961         estimate D2E/DX2                !
 ! D16   D(8,7,9,15)           -90.0063         estimate D2E/DX2                !
 ! D17   D(7,9,11,12)           60.0024         estimate D2E/DX2                !
 ! D18   D(7,9,11,13)          179.9986         estimate D2E/DX2                !
 ! D19   D(7,9,11,14)          -60.0038         estimate D2E/DX2                !
 ! D20   D(10,9,11,12)        -179.4843         estimate D2E/DX2                !
 ! D21   D(10,9,11,13)         -59.4881         estimate D2E/DX2                !
 ! D22   D(10,9,11,14)          60.5095         estimate D2E/DX2                !
 ! D23   D(15,9,11,12)         -61.938          estimate D2E/DX2                !
 ! D24   D(15,9,11,13)          58.0582         estimate D2E/DX2                !
 ! D25   D(15,9,11,14)         178.0558         estimate D2E/DX2                !
 ! D26   D(7,9,15,16)          -90.0012         estimate D2E/DX2                !
 ! D27   D(7,9,15,17)           90.0009         Frozen                          !
 ! D28   D(10,9,15,16)         149.4877         estimate D2E/DX2                !
 ! D29   D(10,9,15,17)         -30.5102         estimate D2E/DX2                !
 ! D30   D(11,9,15,16)          31.9408         estimate D2E/DX2                !
 ! D31   D(11,9,15,17)        -148.0571         estimate D2E/DX2                !
 ! D32   D(9,15,17,18)          -0.0048         estimate D2E/DX2                !
 ! D33   D(9,15,17,19)        -179.9994         estimate D2E/DX2                !
 ! D34   D(16,15,17,18)        179.9974         estimate D2E/DX2                !
 ! D35   D(16,15,17,19)          0.0028         estimate D2E/DX2                !
 ! D36   D(15,17,19,20)         -0.0031         estimate D2E/DX2                !
 ! D37   D(15,17,19,21)        119.9958         estimate D2E/DX2                !
 ! D38   D(15,17,19,22)       -119.9997         estimate D2E/DX2                !
 ! D39   D(18,17,19,20)       -179.9978         estimate D2E/DX2                !
 ! D40   D(18,17,19,21)        -59.9989         estimate D2E/DX2                !
 ! D41   D(18,17,19,22)         60.0057         estimate D2E/DX2                !
 --------------------------------------------------------------------------------
 Trust Radius=3.00D-01 FncErr=1.00D-07 GrdErr=1.00D-07
 Number of steps in this run= 108 maximum allowed number of steps= 132.
 GradGradGradGradGradGradGradGradGradGradGradGradGradGradGradGradGradGrad

                          Input orientation:                          
 ---------------------------------------------------------------------
 Center     Atomic      Atomic             Coordinates (Angstroms)
 Number     Number       Type             X           Y           Z
 ---------------------------------------------------------------------
      1          1           0        1.124800    2.763100   -1.968400
      2          6           0        1.558900    2.978600   -0.992100
      3          1           0        1.687300    2.048900   -0.437700
      4          1           0        0.896000    3.642900   -0.437700
      5          6           0        2.923500    3.656000   -1.133400
      6          8           0        3.392200    3.888700   -2.245400
      7          7           0        3.555400    3.969700    0.000000
      8          1           0        3.129300    3.758100    0.890900
      9          6           0        4.853300    4.613900    0.000000
     10          1           0        5.407600    4.315500    0.889800
     11          6           0        5.661300    4.220800   -1.232200
     12          1           0        5.123300    4.521400   -2.131200
     13          1           0        6.630500    4.718900   -1.205800
     14          1           0        5.808500    3.140900   -1.241400
     15          6           0        4.712700    6.129400    0.000000
     16          8           0        4.655100    6.750500   -1.058900
     17          7           0        4.657500    6.724600    1.193700
     18          1           0        4.708800    6.171000    2.036900
     19          6           0        4.524200    8.161300    1.327600
     20          1           0        4.482000    8.616500    0.338100
     21          1           0        3.609100    8.392600    1.872700
     22          1           0        5.381100    8.556900    1.872700
 ---------------------------------------------------------------------
                    Distance matrix (angstroms):
                    1          2          3          4          5
     1  H    0.000000
     2  C    1.089975   0.000000
     3  H    1.780317   1.090040   0.000000
     4  H    1.780292   1.089996   1.779604   0.000000
     5  C    2.174814   1.530023   2.143586   2.143578   0.000000
     6  O    2.546528   2.400007   3.091816   3.091797   1.228972
     7  N    3.352357   2.439786   2.714931   2.714919   1.335028
     8  H    3.630928   2.572832   2.601136   2.601169   2.037294
     9  C    4.604538   3.809402   4.098093   4.098127   2.434398
    10  H    5.377883   4.487911   4.554159   4.750703   3.270937
    11  C    4.821484   4.293064   4.597940   4.865520   2.797197
    12  H    4.371055   4.047558   4.559309   4.637863   2.565861
    13  H    5.892321   5.366138   5.670459   5.884917   3.857052
    14  H    4.754819   4.259999   4.338512   5.003058   2.932613
    15  C    5.299019   4.567084   5.098540   4.576184   3.256308
    16  O    5.402737   4.880384   5.594530   4.916696   3.546818
    17  N    6.178376   5.330249   5.774576   5.129057   4.223560
    18  H    6.364061   5.411851   5.678452   5.201190   4.423045
    19  C    7.180536   6.405809   6.966040   6.057727   5.377405
    20  H    7.131131   6.488441   7.179525   6.180450   5.403776
    21  H    7.253762   6.459241   7.019529   5.937888   5.651731
    22  H    8.150967   7.343958   7.831741   7.042831   6.252620
                    6          7          8          9         10
     6  O    0.000000
     7  N    2.252780   0.000000
     8  H    3.150008   1.009970   0.000000
     9  C    2.775347   1.448978   2.120913   0.000000
    10  H    3.751463   2.083739   2.345495   1.089970   0.000000
    11  C    2.507126   2.452791   3.336565   1.525027   2.139209
    12  H    1.846634   2.702720   3.700237   2.150225   3.041326
    13  H    3.500941   3.386959   4.192575   2.150214   2.459625
    14  H    2.721346   2.702673   3.479332   2.150165   2.466256
    15  C    3.436026   2.450234   2.987293   1.522008   2.136554
    16  O    3.345534   3.172295   3.883844   2.392825   3.208257
    17  N    4.633651   3.198284   3.350702   2.432758   2.541411
    18  H    5.027964   3.213256   3.103260   2.567957   2.290642
    19  C    5.683561   4.502289   4.639464   3.801957   3.970169
    20  H    5.496747   4.750332   5.073405   4.033978   4.433927
    21  H    6.106628   4.803325   4.761589   4.397000   4.563271
    22  H    6.535026   5.280397   5.391013   4.396911   4.353880
                   11         12         13         14         15
    11  C    0.000000
    12  H    1.089957   0.000000
    13  H    1.090023   1.779613   0.000000
    14  H    1.089925   1.779613   1.779617   0.000000
    15  C    2.461892   2.701161   2.668599   3.416575   0.000000
    16  O    2.727976   2.517524   2.837461   3.793791   1.228964
    17  N    3.627895   4.015722   3.697724   4.483014   1.335002
    18  H    3.923971   4.501783   4.039385   4.597619   2.037328
    19  C    4.834575   5.056787   4.764948   5.783909   2.434476
    20  H    4.814433   4.824785   4.710729   5.851207   2.520556
    21  H    5.590693   5.771499   5.665871   6.489633   3.137995
    22  H    5.340476   5.690601   5.076259   6.262056   3.137917
                   16         17         18         19         20
    16  O    0.000000
    17  N    2.252750   0.000000
    18  H    3.150029   1.009995   0.000000
    19  C    2.775405   1.449070   2.120962   0.000000
    20  H    2.337419   2.083780   2.986274   1.089999   0.000000
    21  H    3.519217   2.083844   2.484312   1.089973   1.779630
    22  H    3.519153   2.083737   2.484244   1.089913   1.779587
                   21         22
    21  H    0.000000
    22  H    1.779601   0.000000
 Stoichiometry    C6H12N2O2
 Framework group  C1[X(C6H12N2O2)]
 Deg. of freedom    60
 Full point group                 C1      NOp   1
 Largest Abelian subgroup         C1      NOp   1
 Largest concise Abelian subgroup C1      NOp   1
                         Standard orientation:                         
 ---------------------------------------------------------------------
 Center     Atomic      Atomic             Coordinates (Angstroms)
 Number     Number       Type             X           Y           Z
 ---------------------------------------------------------------------
      1          1           0       -3.763521   -1.264562    0.898397
      2          6           0       -2.998672   -1.449207    0.144106
      3          1           0       -3.463861   -1.503344   -0.840199
      4          1           0       -2.495061   -2.391564    0.359586
      5          6           0       -1.956095   -0.329459    0.131188
      6          8           0       -2.049064    0.618349    0.907970
      7          7           0       -0.964790   -0.445844   -0.755418
      8          1           0       -0.931224   -1.243931   -1.373455
      9          6           0        0.083760    0.548010   -0.866477
     10          1           0        0.444787    0.582712   -1.894334
     11          6           0       -0.428912    1.932137   -0.482981
     12          1           0       -0.785440    1.915626    0.546883
     13          1           0        0.379083    2.657889   -0.575593
     14          1           0       -1.247100    2.213546   -1.145789
     15          6           0        1.253300    0.215101    0.048867
     16          8           0        1.283471    0.639476    1.201841
     17          7           0        2.218967   -0.547813   -0.468512
     18          1           0        2.149378   -0.872812   -1.422254
     19          6           0        3.384487   -0.934334    0.300882
     20          1           0        3.316071   -0.510264    1.302671
     21          1           0        3.431253   -2.021148    0.369374
     22          1           0        4.283926   -0.562634   -0.189791
 ---------------------------------------------------------------------
 Rotational constants (GHZ):      2.3842009      0.7852630      0.7133164
 Standard basis: 6-31G(d) (6D, 7F)
 There are   174 symmetry adapted basis functions of A   symmetry.
 Integral buffers will be    131072 words long.
 Raffenetti 1 integral format.
 Two-electron integral symmetry is turned on.
   174 basis functions,   328 primitive gaussians,   174 cartesian basis functions
    39 alpha electrons       39 beta electrons
       nuclear repulsion energy       565.3953929900 Hartrees.
 NAtoms=   22 NActive=   22 NUniq=   22 SFac= 7.50D-01 NAtFMM=   80 NAOKFM=F Big=F
 One-electron integrals computed using PRISM.
 NBasis=   174 RedAO= T  NBF=   174
 NBsUse=   174 1.00D-06 NBFU=   174
 Harris functional with IExCor=  205 diagonalized for initial guess.
 ExpMin= 1.61D-01 ExpMax= 5.48D+03 ExpMxC= 8.25D+02 IAcc=1 IRadAn=         1 AccDes= 0.00D+00
 HarFok:  IExCor=  205 AccDes= 0.00D+00 IRadAn=         1 IDoV= 1
 ScaDFX=  1.000000  1.000000  1.000000  1.000000
 FoFCou: FMM=F IPFlag=           0 FMFlag=      100000 FMFlg1=           0
         NFxFlg=           0 DoJE=T BraDBF=F KetDBF=T FulRan=T
         Omega=  0.000000  0.000000  1.000000  0.000000  0.000000 ICntrl=     500 IOpCl=  0
         NMat0=    1 NMatS0=    1 NMatT0=    0 NMatD0=    1 NMtDS0=    0 NMtDT0=    0
         I1Cent=           4 NGrid=           0.
 Petite list used in FoFCou.
 Initial guess orbital symmetries:
       Occupied  (A) (A) (A) (A) (A) (A) (A) (A) (A) (A) (A) (A)
                 (A) (A) (A) (A) (A) (A) (A) (A) (A) (A) (A) (A)
                 (A) (A) (A) (A) (A) (A) (A) (A) (A) (A) (A) (A)
                 (A) (A) (A)
       Virtual   (A) (A) (A) (A) (A) (A) (A) (A) (A) (A) (A) (A)
                 (A) (A) (A) (A) (A) (A) (A) (A) (A) (A) (A) (A)
                 (A) (A) (A) (A) (A) (A) (A) (A) (A) (A) (A) (A)
                 (A) (A) (A) (A) (A) (A) (A) (A) (A) (A) (A) (A)
                 (A) (A) (A) (A) (A) (A) (A) (A) (A) (A) (A) (A)
                 (A) (A) (A) (A) (A) (A) (A) (A) (A) (A) (A) (A)
                 (A) (A) (A) (A) (A) (A) (A) (A) (A) (A) (A) (A)
                 (A) (A) (A) (A) (A) (A) (A) (A) (A) (A) (A) (A)
                 (A) (A) (A) (A) (A) (A) (A) (A) (A) (A) (A) (A)
                 (A) (A) (A) (A) (A) (A) (A) (A) (A) (A) (A) (A)
                 (A) (A) (A) (A) (A) (A) (A) (A) (A) (A) (A) (A)
                 (A) (A) (A)
 The electronic state of the initial guess is 1-A.
 Requested convergence on RMS density matrix=1.00D-08 within 128 cycles.
 Requested convergence on MAX density matrix=1.00D-06.
 Requested convergence on             energy=1.00D-06.
 No special actions if energy rises.
 Integral accuracy reduced to 1.0D-05 until final iterations.
 Initial convergence to 1.0D-05 achieved.  Increase integral accuracy.
 SCF Done:  E(RHF) =  -492.821453326     A.U. after   15 cycles
             Convg  =    0.6131D-08             -V/T =  2.0018

 **********************************************************************

            Population analysis using the SCF density.

 **********************************************************************

 Orbital symmetries:
       Occupied  (A) (A) (A) (A) (A) (A) (A) (A) (A) (A) (A) (A)
                 (A) (A) (A) (A) (A) (A) (A) (A) (A) (A) (A) (A)
                 (A) (A) (A) (A) (A) (A) (A) (A) (A) (A) (A) (A)
                 (A) (A) (A)
       Virtual   (A) (A) (A) (A) (A) (A) (A) (A) (A) (A) (A) (A)
                 (A) (A) (A) (A) (A) (A) (A) (A) (A) (A) (A) (A)
                 (A) (A) (A) (A) (A) (A) (A) (A) (A) (A) (A) (A)
                 (A) (A) (A) (A) (A) (A) (A) (A) (A) (A) (A) (A)
                 (A) (A) (A) (A) (A) (A) (A) (A) (A) (A) (A) (A)
                 (A) (A) (A) (A) (A) (A) (A) (A) (A) (A) (A) (A)
                 (A) (A) (A) (A) (A) (A) (A) (A) (A) (A) (A) (A)
                 (A) (A) (A) (A) (A) (A) (A) (A) (A) (A) (A) (A)
                 (A) (A) (A) (A) (A) (A) (A) (A) (A) (A) (A) (A)
                 (A) (A) (A) (A) (A) (A) (A) (A) (A) (A) (A) (A)
                 (A) (A) (A) (A) (A) (A) (A) (A) (A) (A) (A) (A)
                 (A) (A) (A)
 The electronic state is 1-A.
 Alpha  occ. eigenvalues --  -20.51135 -20.51063 -15.60042 -15.59582 -11.35117
 Alpha  occ. eigenvalues --  -11.34022 -11.28107 -11.26122 -11.23745 -11.18837
 Alpha  occ. eigenvalues --   -1.37842  -1.36632  -1.24608  -1.23279  -1.05284
 Alpha  occ. eigenvalues --   -0.98608  -0.95863  -0.87083  -0.80503  -0.78020
 Alpha  occ. eigenvalues --   -0.72433  -0.70207  -0.64865  -0.63910  -0.62011
 Alpha  occ. eigenvalues --   -0.61753  -0.58888  -0.57565  -0.56295  -0.55055
 Alpha  occ. eigenvalues --   -0.54084  -0.52485  -0.50578  -0.50346  -0.49901
 Alpha  occ. eigenvalues --   -0.43296  -0.38837  -0.38660  -0.37638
 Alpha virt. eigenvalues --    0.17799   0.20108   0.21341   0.23401   0.26285
 Alpha virt. eigenvalues --    0.27539   0.27943   0.30708   0.31616   0.31995
 Alpha virt. eigenvalues --    0.32772   0.33380   0.33892   0.36665   0.37334
 Alpha virt. eigenvalues --    0.39279   0.42098   0.45881   0.46578   0.50526
 Alpha virt. eigenvalues --    0.52945   0.59228   0.63118   0.70239   0.72153
 Alpha virt. eigenvalues --    0.74414   0.75038   0.76503   0.78405   0.79798
 Alpha virt. eigenvalues --    0.82017   0.82520   0.82944   0.86615   0.91071
 Alpha virt. eigenvalues --    0.93348   0.94592   0.95426   0.97090   0.98294
 Alpha virt. eigenvalues --    1.00889   1.02755   1.03914   1.06146   1.08928
 Alpha virt. eigenvalues --    1.11065   1.12878   1.14072   1.14639   1.15842
 Alpha virt. eigenvalues --    1.16522   1.17144   1.18224   1.19163   1.20342
 Alpha virt. eigenvalues --    1.21209   1.22311   1.24018   1.26392   1.30952
 Alpha virt. eigenvalues --    1.31604   1.35070   1.40014   1.42401   1.46987
 Alpha virt. eigenvalues --    1.48121   1.52140   1.55856   1.60634   1.60889
 Alpha virt. eigenvalues --    1.64106   1.65910   1.71684   1.73556   1.74766
 Alpha virt. eigenvalues --    1.79837   1.82188   1.88334   1.96507   1.97814
 Alpha virt. eigenvalues --    1.98443   2.05720   2.09849   2.11292   2.13723
 Alpha virt. eigenvalues --    2.14636   2.16621   2.18597   2.21813   2.24061
 Alpha virt. eigenvalues --    2.25158   2.26800   2.28826   2.35301   2.36710
 Alpha virt. eigenvalues --    2.37899   2.39354   2.44333   2.47844   2.49206
 Alpha virt. eigenvalues --    2.53505   2.56227   2.58478   2.63070   2.64746
 Alpha virt. eigenvalues --    2.66206   2.66959   2.70709   2.71961   2.77723
 Alpha virt. eigenvalues --    2.79853   2.81126   2.84762   2.94619   2.97818
 Alpha virt. eigenvalues --    3.00276   3.06005   3.10975   3.13181   3.27781
 Alpha virt. eigenvalues --    3.28758   3.37844   3.39138   3.54956   3.56166
 Alpha virt. eigenvalues --    4.40072   4.42636   4.49238   4.59356   4.63893
 Alpha virt. eigenvalues --    4.65466   4.77268   4.83356   4.93491   5.05492
          Condensed to atoms (all electrons):
              1          2          3          4          5          6
     1  H    0.449190   0.385501  -0.018290  -0.017872  -0.029579   0.003748
     2  C    0.385501   5.252825   0.373060   0.374345   0.376021  -0.064535
     3  H   -0.018290   0.373060   0.521771  -0.024972  -0.036812   0.001132
     4  H   -0.017872   0.374345  -0.024972   0.515809  -0.035644   0.001031
     5  C   -0.029579   0.376021  -0.036812  -0.035644   4.193799   0.580227
     6  O    0.003748  -0.064535   0.001132   0.001031   0.580227   8.253700
     7  N    0.003755  -0.122586   0.004338   0.003979   0.240409  -0.100526
     8  H   -0.000024  -0.000574   0.000477   0.000494  -0.018226   0.002540
     9  C   -0.000060   0.002847  -0.000005  -0.000208  -0.030194   0.006780
    10  H    0.000001  -0.000053   0.000005  -0.000001   0.002802  -0.000038
    11  C    0.000009  -0.000556   0.000002   0.000015  -0.005669  -0.052005
    12  H    0.000008   0.000180   0.000001  -0.000012  -0.002501  -0.007720
    13  H    0.000000   0.000017  -0.000001   0.000000   0.000550   0.002117
    14  H    0.000001  -0.000116   0.000009   0.000000  -0.000114  -0.001351
    15  C    0.000002  -0.000129   0.000001   0.000037  -0.001633  -0.000438
    16  O    0.000000   0.000020   0.000000   0.000003   0.003494  -0.000871
    17  N    0.000000  -0.000003   0.000000  -0.000001   0.000155   0.000003
    18  H    0.000000  -0.000001   0.000000   0.000000  -0.000013  -0.000001
    19  C    0.000000   0.000000   0.000000   0.000000  -0.000002   0.000000
    20  H    0.000000   0.000000   0.000000   0.000000  -0.000002   0.000000
    21  H    0.000000   0.000000   0.000000   0.000000   0.000000   0.000000
    22  H    0.000000   0.000000   0.000000   0.000000   0.000000   0.000000
              7          8          9         10         11         12
     1  H    0.003755  -0.000024  -0.000060   0.000001   0.000009   0.000008
     2  C   -0.122586  -0.000574   0.002847  -0.000053  -0.000556   0.000180
     3  H    0.004338   0.000477  -0.000005   0.000005   0.000002   0.000001
     4  H    0.003979   0.000494  -0.000208  -0.000001   0.000015  -0.000012
     5  C    0.240409  -0.018226  -0.030194   0.002802  -0.005669  -0.002501
     6  O   -0.100526   0.002540   0.006780  -0.000038  -0.052005  -0.007720
     7  N    7.407195   0.326331   0.181822  -0.044279  -0.045938  -0.001188
     8  H    0.326331   0.328383  -0.023653  -0.003404   0.002954  -0.000163
     9  C    0.181822  -0.023653   5.106368   0.411418   0.356208  -0.026511
    10  H   -0.044279  -0.003404   0.411418   0.538952  -0.033314   0.003118
    11  C   -0.045938   0.002954   0.356208  -0.033314   5.172543   0.392801
    12  H   -0.001188  -0.000163  -0.026511   0.003118   0.392801   0.382606
    13  H    0.003854  -0.000083  -0.036860  -0.002559   0.376323  -0.019651
    14  H   -0.000788  -0.000103  -0.045207  -0.003808   0.389283  -0.018794
    15  C   -0.064114   0.000550   0.339510  -0.057689  -0.058838  -0.005464
    16  O   -0.000267  -0.000078  -0.082751   0.002598  -0.000189   0.005253
    17  N    0.003584   0.000759  -0.108132   0.005537   0.002537   0.000224
    18  H    0.000593   0.000136   0.000716   0.002021   0.000040  -0.000006
    19  C   -0.000250  -0.000005   0.004552  -0.000190  -0.000112  -0.000002
    20  H   -0.000024   0.000001   0.000631  -0.000032  -0.000011  -0.000003
    21  H    0.000029  -0.000004  -0.000108   0.000002  -0.000002   0.000000
    22  H   -0.000002   0.000001  -0.000096  -0.000017   0.000009   0.000000
             13         14         15         16         17         18
     1  H    0.000000   0.000001   0.000002   0.000000   0.000000   0.000000
     2  C    0.000017  -0.000116  -0.000129   0.000020  -0.000003  -0.000001
     3  H   -0.000001   0.000009   0.000001   0.000000   0.000000   0.000000
     4  H    0.000000   0.000000   0.000037   0.000003  -0.000001   0.000000
     5  C    0.000550  -0.000114  -0.001633   0.003494   0.000155  -0.000013
     6  O    0.002117  -0.001351  -0.000438  -0.000871   0.000003  -0.000001
     7  N    0.003854  -0.000788  -0.064114  -0.000267   0.003584   0.000593
     8  H   -0.000083  -0.000103   0.000550  -0.000078   0.000759   0.000136
     9  C   -0.036860  -0.045207   0.339510  -0.082751  -0.108132   0.000716
    10  H   -0.002559  -0.003808  -0.057689   0.002598   0.005537   0.002021
    11  C    0.376323   0.389283  -0.058838  -0.000189   0.002537   0.000040
    12  H   -0.019651  -0.018794  -0.005464   0.005253   0.000224  -0.000006
    13  H    0.555837  -0.026538  -0.002489  -0.000448   0.000113  -0.000014
    14  H   -0.026538   0.552010   0.006284   0.000392  -0.000077  -0.000010
    15  C   -0.002489   0.006284   4.217983   0.589371   0.281360  -0.022005
    16  O   -0.000448   0.000392   0.589371   8.197426  -0.096270   0.002400
    17  N    0.000113  -0.000077   0.281360  -0.096270   7.325492   0.326092
    18  H   -0.000014  -0.000010  -0.022005   0.002400   0.326092   0.334872
    19  C   -0.000008   0.000002  -0.026120  -0.004709   0.185400  -0.023027
    20  H   -0.000001   0.000000  -0.001837   0.011384  -0.031499   0.002359
    21  H    0.000000   0.000000   0.001255   0.000352  -0.048162  -0.001167
    22  H    0.000000   0.000000   0.000708   0.000383  -0.047780  -0.000936
             19         20         21         22
     1  H    0.000000   0.000000   0.000000   0.000000
     2  C    0.000000   0.000000   0.000000   0.000000
     3  H    0.000000   0.000000   0.000000   0.000000
     4  H    0.000000   0.000000   0.000000   0.000000
     5  C   -0.000002  -0.000002   0.000000   0.000000
     6  O    0.000000   0.000000   0.000000   0.000000
     7  N   -0.000250  -0.000024   0.000029  -0.000002
     8  H   -0.000005   0.000001  -0.000004   0.000001
     9  C    0.004552   0.000631  -0.000108  -0.000096
    10  H   -0.000190  -0.000032   0.000002  -0.000017
    11  C   -0.000112  -0.000011  -0.000002   0.000009
    12  H   -0.000002  -0.000003   0.000000   0.000000
    13  H   -0.000008  -0.000001   0.000000   0.000000
    14  H    0.000002   0.000000   0.000000   0.000000
    15  C   -0.026120  -0.001837   0.001255   0.000708
    16  O   -0.004709   0.011384   0.000352   0.000383
    17  N    0.185400  -0.031499  -0.048162  -0.047780
    18  H   -0.023027   0.002359  -0.001167  -0.000936
    19  C    4.955913   0.395770   0.402177   0.402748
    20  H    0.395770   0.425659  -0.022246  -0.022100
    21  H    0.402177  -0.022246   0.537873  -0.036882
    22  H    0.402748  -0.022100  -0.036882   0.534374
 Mulliken atomic charges:
              1
     1  H    0.223611
     2  C   -0.576263
     3  H    0.179283
     4  H    0.182998
     5  C    0.762931
     6  O   -0.623794
     7  N   -0.795928
     8  H    0.383692
     9  C   -0.057069
    10  H    0.178930
    11  C   -0.496091
    12  H    0.297826
    13  H    0.149842
    14  H    0.148924
    15  C    0.803695
    16  O   -0.627492
    17  N   -0.799333
    18  H    0.377950
    19  C   -0.292138
    20  H    0.241952
    21  H    0.166882
    22  H    0.169592
 Sum of Mulliken atomic charges =   0.00000
 Mulliken charges with hydrogens summed into heavy atoms:
              1
     2  C    0.009628
     5  C    0.762931
     6  O   -0.623794
     7  N   -0.412236
     9  C    0.121861
    11  C    0.100501
    15  C    0.803695
    16  O   -0.627492
    17  N   -0.421382
    19  C    0.286288
 Sum of Mulliken charges with hydrogens summed into heavy atoms =   0.00000
 Electronic spatial extent (au):  <R**2>=           1752.1378
 Charge=              0.0000 electrons
 Dipole moment (field-independent basis, Debye):
    X=              1.4096    Y=             -4.6003    Z=             -5.7086  Tot=              7.4658
 Quadrupole moment (field-independent basis, Debye-Ang):
   XX=            -54.6753   YY=            -58.9865   ZZ=            -61.8501
   XY=              2.0509   XZ=             -0.3533   YZ=             -1.1328
 Traceless Quadrupole moment (field-independent basis, Debye-Ang):
   XX=              3.8287   YY=             -0.4826   ZZ=             -3.3461
   XY=              2.0509   XZ=             -0.3533   YZ=             -1.1328
 Octapole moment (field-independent basis, Debye-Ang**2):
  XXX=             18.5621  YYY=             -5.5561  ZZZ=             -8.8606  XYY=             -0.1139
  XXY=            -22.9970  XXZ=             -8.8343  XZZ=              3.8585  YZZ=             -9.2168
  YYZ=             -2.5372  XYZ=              1.4034
 Hexadecapole moment (field-independent basis, Debye-Ang**3):
 XXXX=          -1468.3271 YYYY=           -461.2672 ZZZZ=           -238.2067 XXXY=              4.8118
 XXXZ=              8.6040 YYYX=             -2.9687 YYYZ=             11.5942 ZZZX=             -8.3836
 ZZZY=             12.4115 XXYY=           -334.6270 XXZZ=           -298.9111 YYZZ=           -114.4574
 XXYZ=             -8.2324 YYXZ=             -2.7336 ZZXY=             -2.9868
 N-N= 5.653953929900D+02 E-N=-2.286502547282D+03  KE= 4.919548976587D+02
 Calling FoFJK, ICntrl=      2127 FMM=F ISym2X=0 I1Cent= 0 IOpClX= 0 NMat=1 NMatS=1 NMatT=0.
 ***** Axes restored to original set *****
 -------------------------------------------------------------------
 Center     Atomic                   Forces (Hartrees/Bohr)
 Number     Number              X              Y              Z
 -------------------------------------------------------------------
      1        1           0.006913597    0.003484909    0.005933462
      2        6           0.007969094    0.002998632    0.005007786
      3        1          -0.004526824    0.002401928   -0.000411630
      4        1          -0.000493293   -0.004905881   -0.000651119
      5        6          -0.007128621   -0.000106363   -0.067240123
      6        8          -0.048006460   -0.016787582    0.037789981
      7        7           0.002024483   -0.000962456    0.029009935
      8        1           0.003846263    0.002850524   -0.015160312
      9        6           0.014005991    0.002328461   -0.007451393
     10        1          -0.006750639   -0.002253955    0.000080658
     11        6           0.016145286    0.003197530   -0.008352790
     12        1           0.021374271   -0.002464667    0.015098981
     13        1          -0.001076719   -0.003908738    0.003817180
     14        1           0.000964512    0.003709422   -0.001241635
     15        6          -0.005209420    0.021002451   -0.049149853
     16        8           0.000913659   -0.019610072    0.041617915
     17        7          -0.000416623    0.000489376    0.017336670
     18        1           0.000075594    0.008100420   -0.013843125
     19        6          -0.000813107    0.003232769    0.003253848
     20        1           0.000554713   -0.006359979    0.008396333
     21        1           0.004023372    0.002326253   -0.001936092
     22        1          -0.004389128    0.001237018   -0.001904675
 -------------------------------------------------------------------
 Cartesian Forces:  Max     0.067240123 RMS     0.016076882

 GradGradGradGradGradGradGradGradGradGradGradGradGradGradGradGradGradGrad
 Berny optimization.
 Internal  Forces:  Max     0.103222453 RMS     0.019815224
 Search for a local minimum.
 Step number   1 out of a maximum of  108
 All quantities printed in internal units (Hartrees-Bohrs-Radians)
 Mixed Optimization -- RFO/linear search
 Second derivative matrix not updated -- first step.
     Eigenvalues ---    0.00369   0.00435   0.00999   0.01043   0.01269
     Eigenvalues ---    0.01422   0.01660   0.02551   0.02552   0.03503
     Eigenvalues ---    0.05232   0.05841   0.05844   0.05844   0.07165
     Eigenvalues ---    0.07464   0.07685   0.07686   0.15421   0.16000
     Eigenvalues ---    0.16000   0.16000   0.16000   0.16000   0.16000
     Eigenvalues ---    0.16000   0.16000   0.16000   0.16000   0.16000
     Eigenvalues ---    0.16180   0.22000   0.22000   0.25000   0.25000
     Eigenvalues ---    0.25000   0.25000   0.29421   0.29887   0.30174
     Eigenvalues ---    0.34808   0.34810   0.34813   0.34813   0.34816
     Eigenvalues ---    0.34816   0.34816   0.34818   0.34821   0.34823
     Eigenvalues ---    0.38367   0.38379   0.45973   0.45978   0.58334
     Eigenvalues ---    0.58340   0.91516   0.915191000.000001000.00000
     Eigenvalues --- 1000.000001000.000001000.000001000.000001000.00000
     Eigenvalues --- 1000.000001000.000001000.000001000.000001000.00000
     Eigenvalues --- 1000.000001000.000001000.000001000.000001000.00000
     Eigenvalues --- 1000.000001000.000001000.000001000.000001000.00000
     Eigenvalues --- 1000.000001000.000001000.000001000.000001000.00000
     Eigenvalues --- 1000.000001000.000001000.000001000.000001000.00000
     Eigenvalues --- 1000.000001000.000001000.000001000.000001000.00000
     Eigenvalues --- 1000.000001000.000001000.00000
 RFO step:  Lambda=-1.05793617D-01 EMin= 3.68804035D-03
 Linear search not attempted -- first point.
 Maximum step size (   0.300) exceeded in Quadratic search.
    -- Step size scaled by   0.493
 Iteration  1 RMS(Cart)=  0.16407023 RMS(Int)=  0.00734368
 Iteration  2 RMS(Cart)=  0.01312702 RMS(Int)=  0.00027612
 Iteration  3 RMS(Cart)=  0.00007591 RMS(Int)=  0.00027400
 Iteration  4 RMS(Cart)=  0.00000004 RMS(Int)=  0.00027400
 Iteration  1 RMS(Cart)=  0.00011312 RMS(Int)=  0.00003721
 Iteration  2 RMS(Cart)=  0.00005961 RMS(Int)=  0.00004159
 Iteration  3 RMS(Cart)=  0.00003141 RMS(Int)=  0.00004679
 Iteration  4 RMS(Cart)=  0.00001654 RMS(Int)=  0.00005010
 Iteration  5 RMS(Cart)=  0.00000871 RMS(Int)=  0.00005196
 Iteration  6 RMS(Cart)=  0.00000458 RMS(Int)=  0.00005298
 Iteration  7 RMS(Cart)=  0.00000241 RMS(Int)=  0.00005352
 Iteration  8 RMS(Cart)=  0.00000127 RMS(Int)=  0.00005381
 Iteration  9 RMS(Cart)=  0.00000066 RMS(Int)=  0.00005396
 Variable       Old X    -DE/DX   Delta X   Delta X   Delta X     New X
                                 (Linear)    (Quad)   (Total)
    R1        2.05975  -0.00876   0.00000  -0.00950  -0.00950   2.05025
    R2        2.05988  -0.00279   0.00000  -0.00303  -0.00303   2.05685
    R3        2.05979  -0.00302   0.00000  -0.00328  -0.00328   2.05652
    R4        2.89132  -0.00965   0.00000  -0.01188  -0.01188   2.87945
    R5        2.32242  -0.05568   0.00000  -0.02686  -0.02686   2.29556
    R6        2.52284   0.04108   0.00000   0.02936   0.02936   2.55220
    R7        1.90857  -0.01559   0.00000  -0.01358  -0.01358   1.89499
    R8        2.73817   0.04020   0.00000   0.04044   0.04044   2.77861
    R9        2.05975  -0.00275   0.00000  -0.00298  -0.00298   2.05676
   R10        2.88188   0.01215   0.00000   0.01479   0.01479   2.89667
   R11        2.87618   0.01086   0.00000   0.01312   0.01312   2.88930
   R12        2.05972  -0.02368   0.00000  -0.02570  -0.02570   2.03402
   R13        2.05984  -0.00265   0.00000  -0.00288  -0.00288   2.05697
   R14        2.05966  -0.00353   0.00000  -0.00383  -0.00383   2.05583
   R15        2.32241  -0.04581   0.00000  -0.02210  -0.02210   2.30030
   R16        2.52279   0.01417   0.00000   0.01013   0.01013   2.53291
   R17        1.90861  -0.01599   0.00000  -0.01393  -0.01393   1.89469
   R18        2.73835   0.00121   0.00000   0.00122   0.00122   2.73957
   R19        2.05980  -0.01030   0.00000  -0.01118  -0.01118   2.04862
   R20        2.05975  -0.00385   0.00000  -0.00418  -0.00418   2.05557
   R21        2.05964  -0.00395   0.00000  -0.00429  -0.00429   2.05535
    A1        1.91118   0.00044   0.00000   0.00051   0.00055   1.91173
    A2        1.91120   0.00050   0.00000   0.00043   0.00047   1.91166
    A3        1.93909  -0.00838   0.00000  -0.01593  -0.01589   1.92320
    A4        1.91002  -0.00459   0.00000  -0.00767  -0.00775   1.90227
    A5        1.89603   0.00636   0.00000   0.01203   0.01201   1.90804
    A6        1.89606   0.00572   0.00000   0.01074   0.01072   1.90678
    A7        2.10312  -0.01758   0.00000  -0.02433  -0.02434   2.07877
    A8        2.03507  -0.03352   0.00000  -0.04640  -0.04642   1.98866
    A9        2.14499   0.05110   0.00000   0.07074   0.07072   2.21572
   A10        2.09435  -0.05446   0.00000  -0.08330  -0.08332   2.01103
   A11        2.12756   0.10322   0.00000   0.15605   0.15603   2.28359
   A12        2.06128  -0.04876   0.00000  -0.07275  -0.07277   1.98851
   A13        1.91114  -0.01838   0.00000  -0.03129  -0.03077   1.88037
   A14        1.93905   0.05372   0.00000   0.08925   0.08982   2.02886
   A15        1.93900  -0.02150   0.00000  -0.02599  -0.02761   1.91139
   A16        1.89609  -0.01929   0.00000  -0.04236  -0.04167   1.85442
   A17        1.89608   0.00977   0.00000   0.00673   0.00595   1.90203
   A18        1.88137  -0.00487   0.00000   0.00219   0.00187   1.88324
   A19        1.91115   0.01321   0.00000   0.02618   0.02612   1.93727
   A20        1.91106  -0.00659   0.00000  -0.01432  -0.01428   1.89679
   A21        1.91110   0.00172   0.00000   0.00359   0.00346   1.91456
   A22        1.91011  -0.00420   0.00000  -0.00859  -0.00849   1.90162
   A23        1.91023  -0.00288   0.00000  -0.00113  -0.00134   1.90889
   A24        1.91015  -0.00127   0.00000  -0.00575  -0.00578   1.90437
   A25        2.10314   0.00805   0.00000   0.01114   0.01098   2.11412
   A26        2.03505  -0.00628   0.00000  -0.00869  -0.00884   2.02621
   A27        2.14500  -0.00177   0.00000  -0.00245  -0.00259   2.14240
   A28        2.09441  -0.00464   0.00000  -0.00730  -0.00730   2.08711
   A29        2.12759   0.00757   0.00000   0.01145   0.01145   2.13904
   A30        2.06119  -0.00294   0.00000  -0.00415  -0.00415   2.05704
   A31        1.91105  -0.00509   0.00000  -0.00989  -0.00987   1.90118
   A32        1.91117   0.00480   0.00000   0.00913   0.00912   1.92029
   A33        1.91108   0.00430   0.00000   0.00819   0.00817   1.91925
   A34        1.91014  -0.00050   0.00000  -0.00135  -0.00133   1.90881
   A35        1.91015  -0.00032   0.00000  -0.00107  -0.00105   1.90910
   A36        1.91021  -0.00320   0.00000  -0.00502  -0.00507   1.90514
    D1        0.00004   0.00100   0.00000   0.00432   0.00420   0.00424
    D2        3.14159  -0.00114   0.00000  -0.00458  -0.00446   3.13713
    D3        2.10342   0.00047   0.00000   0.00288   0.00271   2.10613
    D4       -1.03822  -0.00167   0.00000  -0.00602  -0.00595  -1.04417
    D5       -2.10339   0.00187   0.00000   0.00670   0.00662  -2.09677
    D6        1.03816  -0.00028   0.00000  -0.00221  -0.00204   1.03612
    D7        0.00010  -0.00423   0.00000  -0.01438  -0.01411  -0.01401
    D8        3.14153  -0.00043   0.00000  -0.00221  -0.00215   3.13938
    D9       -3.14154  -0.00643   0.00000  -0.02352  -0.02358   3.11807
   D10       -0.00011  -0.00263   0.00000  -0.01135  -0.01162  -0.01173
   D11       -2.61795  -0.01067   0.00000  -0.02837  -0.02795  -2.64589
   D12       -0.52351  -0.01268   0.00000  -0.04503  -0.04491  -0.56842
   D13        1.57085   0.00270   0.00000   0.00000   0.00000   1.57084
   D14        0.52349  -0.00693   0.00000  -0.01643  -0.01611   0.50737
   D15        2.61793  -0.00894   0.00000  -0.03309  -0.03308   2.58485
   D16       -1.57091   0.00643   0.00000   0.01195   0.01183  -1.55907
   D17        1.04724   0.00662   0.00000   0.03001   0.03081   1.07805
   D18        3.14157   0.00553   0.00000   0.02676   0.02743  -3.11419
   D19       -1.04726   0.00099   0.00000   0.01314   0.01380  -1.03346
   D20       -3.13259   0.00464   0.00000   0.01914   0.01899  -3.11360
   D21       -1.03826   0.00356   0.00000   0.01588   0.01561  -1.02266
   D22        1.05609  -0.00098   0.00000   0.00226   0.00198   1.05807
   D23       -1.08102   0.00318   0.00000   0.00552   0.00513  -1.07589
   D24        1.01331   0.00209   0.00000   0.00227   0.00175   1.01505
   D25        3.10766  -0.00245   0.00000  -0.01135  -0.01188   3.09578
   D26       -1.57082  -0.02581   0.00000  -0.03129  -0.03124  -1.60206
   D27        1.57081  -0.02646   0.00000   0.00000   0.00000   1.57081
   D28        2.60905   0.00392   0.00000   0.01916   0.01913   2.62819
   D29       -0.53250   0.00328   0.00000   0.05045   0.05038  -0.48212
   D30        0.55747   0.02418   0.00000   0.06452   0.06419   0.62167
   D31       -2.58408   0.02354   0.00000   0.09581   0.09544  -2.48864
   D32       -0.00008   0.00094   0.00000  -0.01376  -0.01361  -0.01369
   D33       -3.14158   0.00086   0.00000  -0.01407  -0.01391   3.12769
   D34        3.14155   0.00028   0.00000   0.01835   0.01819  -3.12344
   D35        0.00005   0.00020   0.00000   0.01804   0.01789   0.01794
   D36       -0.00005   0.00000   0.00000   0.00003   0.00003  -0.00003
   D37        2.09432  -0.00079   0.00000  -0.00210  -0.00213   2.09220
   D38       -2.09439   0.00087   0.00000   0.00238   0.00241  -2.09198
   D39       -3.14155  -0.00008   0.00000  -0.00027  -0.00027   3.14136
   D40       -1.04718  -0.00086   0.00000  -0.00240  -0.00243  -1.04960
   D41        1.04730   0.00080   0.00000   0.00208   0.00211   1.04940
         Item               Value     Threshold  Converged?
 Maximum Force            0.103222     0.000450     NO 
 RMS     Force            0.019557     0.000300     NO 
 Maximum Displacement     0.694163     0.001800     NO 
 RMS     Displacement     0.166506     0.001200     NO 
 Predicted change in Energy=-4.403590D-02
 GradGradGradGradGradGradGradGradGradGradGradGradGradGradGradGradGradGrad

                          Input orientation:                          
 ---------------------------------------------------------------------
 Center     Atomic      Atomic             Coordinates (Angstroms)
 Number     Number       Type             X           Y           Z
 ---------------------------------------------------------------------
      1          1           0        0.918175    2.748694   -1.770831
      2          6           0        1.469826    3.001849   -0.871551
      3          1           0        1.645983    2.100830   -0.286889
      4          1           0        0.890459    3.703639   -0.274780
      5          6           0        2.806634    3.636025   -1.235617
      6          8           0        3.090539    3.784597   -2.407351
      7          7           0        3.555577    3.987057   -0.167962
      8          1           0        3.139738    3.801231    0.725415
      9          6           0        4.883757    4.612936   -0.089090
     10          1           0        5.349901    4.285824    0.838435
     11          6           0        5.866980    4.260283   -1.210939
     12          1           0        5.490635    4.578568   -2.167813
     13          1           0        6.812134    4.764291   -1.017311
     14          1           0        6.033490    3.185342   -1.228086
     15          6           0        4.730675    6.133913   -0.059212
     16          8           0        4.749808    6.788605   -1.085251
     17          7           0        4.614144    6.690976    1.154323
     18          1           0        4.619324    6.107240    1.969481
     19          6           0        4.479011    8.121548    1.346354
     20          1           0        4.491001    8.609038    0.378133
     21          1           0        3.540584    8.342754    1.849988
     22          1           0        5.304026    8.494959    1.948752
 ---------------------------------------------------------------------
                    Distance matrix (angstroms):
                    1          2          3          4          5
     1  H    0.000000
     2  C    1.084947   0.000000
     3  H    1.775251   1.088438   0.000000
     4  H    1.775065   1.088261   1.771993   0.000000
     5  C    2.154086   1.523738   2.145697   2.144646   0.000000
     6  O    2.489461   2.366027   3.068903   3.065088   1.214758
     7  N    3.325450   2.411644   2.686734   2.682273   1.350565
     8  H    3.503486   2.444978   2.479400   2.463568   1.995970
     9  C    4.693558   3.855226   4.102801   4.099723   2.565798
    10  H    5.367610   4.430308   4.445173   4.633014   3.345466
    11  C    5.204714   4.586262   4.830520   5.094312   3.123464
    12  H    4.940994   4.509240   4.945544   5.050812   2.993533
    13  H    6.274487   5.627407   5.858042   6.061565   4.167095
    14  H    5.162527   4.581246   4.616518   5.256253   3.258186
    15  C    5.378150   4.593784   5.082609   4.549720   3.365309
    16  O    5.610019   5.014326   5.678586   5.006840   3.706386
    17  N    6.144778   5.253624   5.653009   4.983207   4.279210
    18  H    6.242457   5.256829   5.475699   4.971764   4.434569
    19  C    7.159885   6.339213   6.851465   5.918083   5.439057
    20  H    7.192131   6.490745   7.133943   6.119896   5.492917
    21  H    7.161066   6.341930   6.864209   5.749712   5.675645
    22  H    8.129608   7.268387   7.698327   6.883343   6.323481
                    6          7          8          9         10
     6  O    0.000000
     7  N    2.296108   0.000000
     8  H    3.133196   1.002784   0.000000
     9  C    3.045671   1.470377   2.088992   0.000000
    10  H    3.986361   2.078870   2.265486   1.088391   0.000000
    11  C    3.060442   2.550498   3.376100   1.532853   2.113755
    12  H    2.539337   2.844951   3.808115   2.165773   3.023746
    13  H    4.091734   3.454078   4.177449   2.145493   2.410571
    14  H    3.226567   2.811879   3.545319   2.158059   2.439029
    15  C    3.704469   2.449831   2.930550   1.528953   2.145844
    16  O    3.677661   3.180610   3.846458   2.396626   3.213191
    17  N    4.842927   3.190640   3.272379   2.436600   2.534932
    18  H    5.185414   3.193024   3.009079   2.557457   2.265075
    19  C    5.901467   4.498878   4.565563   3.812438   3.966007
    20  H    5.744166   4.747204   5.006148   4.042448   4.431677
    21  H    6.253341   4.800463   4.695825   4.413126   4.555826
    22  H    6.786948   5.278137   5.311476   4.404489   4.353357
                   11         12         13         14         15
    11  C    0.000000
    12  H    1.076359   0.000000
    13  H    1.088500   1.761962   0.000000
    14  H    1.087896   1.766029   1.773074   0.000000
    15  C    2.475511   2.728156   2.669511   3.428945   0.000000
    16  O    2.766999   2.570026   2.890615   3.827760   1.217269
    17  N    3.615568   4.033249   3.641328   4.469886   1.340361
    18  H    3.883680   4.495912   3.941175   4.556510   2.031922
    19  C    4.834830   5.091706   4.722452   5.780162   2.447375
    20  H    4.830128   4.870914   4.702872   5.863078   2.524868
    21  H    5.607849   5.840764   5.632925   6.502924   3.152831
    22  H    5.313478   5.684984   4.998980   6.230284   3.152013
                   16         17         18         19         20
    16  O    0.000000
    17  N    2.245802   0.000000
    18  H    3.132518   1.002625   0.000000
    19  C    2.786175   1.449715   2.113152   0.000000
    20  H    2.349989   2.072823   2.967801   1.084085   0.000000
    21  H    3.534576   2.089223   2.485051   1.087761   1.772161
    22  H    3.524765   2.088398   2.484038   1.087643   1.772249
                   21         22
    21  H    0.000000
    22  H    1.772752   0.000000
 Stoichiometry    C6H12N2O2
 Framework group  C1[X(C6H12N2O2)]
 Deg. of freedom    60
 Full point group                 C1      NOp   1
 Largest Abelian subgroup         C1      NOp   1
 Largest concise Abelian subgroup C1      NOp   1
                         Standard orientation:                         
 ---------------------------------------------------------------------
 Center     Atomic      Atomic             Coordinates (Angstroms)
 Number     Number       Type             X           Y           Z
 ---------------------------------------------------------------------
      1          1           0       -3.806676   -1.451585    0.654130
      2          6           0       -2.985971   -1.495573   -0.054119
      3          1           0       -3.378984   -1.468080   -1.068752
      4          1           0       -2.433265   -2.422410    0.086596
      5          6           0       -2.046909   -0.313962    0.155014
      6          8           0       -2.295245    0.490343    1.030833
      7          7           0       -0.991100   -0.297258   -0.687016
      8          1           0       -0.947077   -1.063459   -1.332441
      9          6           0        0.123266    0.653684   -0.813140
     10          1           0        0.457347    0.637520   -1.848864
     11          6           0       -0.194631    2.117484   -0.487765
     12          1           0       -0.508526    2.225601    0.536115
     13          1           0        0.702572    2.712818   -0.647258
     14          1           0       -0.982309    2.476807   -1.146527
     15          6           0        1.276435    0.211613    0.088232
     16          8           0        1.374682    0.620509    1.230552
     17          7           0        2.176342   -0.612056   -0.467020
     18          1           0        2.056740   -0.907339   -1.417683
     19          6           0        3.333584   -1.103724    0.254595
     20          1           0        3.320131   -0.697380    1.259555
     21          1           0        3.307620   -2.190036    0.304370
     22          1           0        4.245583   -0.791212   -0.248955
 ---------------------------------------------------------------------
 Rotational constants (GHZ):      2.1877742      0.7656089      0.6823693
 Standard basis: 6-31G(d) (6D, 7F)
 There are   174 symmetry adapted basis functions of A   symmetry.
 Integral buffers will be    131072 words long.
 Raffenetti 1 integral format.
 Two-electron integral symmetry is turned on.
   174 basis functions,   328 primitive gaussians,   174 cartesian basis functions
    39 alpha electrons       39 beta electrons
       nuclear repulsion energy       556.4734597432 Hartrees.
 NAtoms=   22 NActive=   22 NUniq=   22 SFac= 7.50D-01 NAtFMM=   80 NAOKFM=F Big=F
 One-electron integrals computed using PRISM.
 NBasis=   174 RedAO= T  NBF=   174
 NBsUse=   174 1.00D-06 NBFU=   174
 Initial guess read from the read-write file.
 B after Tr=     0.000000    0.000000    0.000000
         Rot=    1.000000    0.000000    0.000000    0.000000 Ang=   0.00 deg.
 Initial guess orbital symmetries:
       Occupied  (A) (A) (A) (A) (A) (A) (A) (A) (A) (A) (A) (A)
                 (A) (A) (A) (A) (A) (A) (A) (A) (A) (A) (A) (A)
                 (A) (A) (A) (A) (A) (A) (A) (A) (A) (A) (A) (A)
                 (A) (A) (A)
       Virtual   (A) (A) (A) (A) (A) (A) (A) (A) (A) (A) (A) (A)
                 (A) (A) (A) (A) (A) (A) (A) (A) (A) (A) (A) (A)
                 (A) (A) (A) (A) (A) (A) (A) (A) (A) (A) (A) (A)
                 (A) (A) (A) (A) (A) (A) (A) (A) (A) (A) (A) (A)
                 (A) (A) (A) (A) (A) (A) (A) (A) (A) (A) (A) (A)
                 (A) (A) (A) (A) (A) (A) (A) (A) (A) (A) (A) (A)
                 (A) (A) (A) (A) (A) (A) (A) (A) (A) (A) (A) (A)
                 (A) (A) (A) (A) (A) (A) (A) (A) (A) (A) (A) (A)
                 (A) (A) (A) (A) (A) (A) (A) (A) (A) (A) (A) (A)
                 (A) (A) (A) (A) (A) (A) (A) (A) (A) (A) (A) (A)
                 (A) (A) (A) (A) (A) (A) (A) (A) (A) (A) (A) (A)
                 (A) (A) (A)
 Harris functional with IExCor=  205 diagonalized for initial guess.
 ExpMin= 1.61D-01 ExpMax= 5.48D+03 ExpMxC= 8.25D+02 IAcc=1 IRadAn=         1 AccDes= 0.00D+00
 HarFok:  IExCor=  205 AccDes= 0.00D+00 IRadAn=         1 IDoV= 1
 ScaDFX=  1.000000  1.000000  1.000000  1.000000
 FoFCou: FMM=F IPFlag=           0 FMFlag=      100000 FMFlg1=           0
         NFxFlg=           0 DoJE=T BraDBF=F KetDBF=T FulRan=T
         Omega=  0.000000  0.000000  1.000000  0.000000  0.000000 ICntrl=     500 IOpCl=  0
         NMat0=    1 NMatS0=    1 NMatT0=    0 NMatD0=    1 NMtDS0=    0 NMtDT0=    0
         I1Cent=           4 NGrid=           0.
 Petite list used in FoFCou.
 Requested convergence on RMS density matrix=1.00D-08 within 128 cycles.
 Requested convergence on MAX density matrix=1.00D-06.
 Requested convergence on             energy=1.00D-06.
 No special actions if energy rises.
 Integral accuracy reduced to 1.0D-05 until final iterations.
 Initial convergence to 1.0D-05 achieved.  Increase integral accuracy.
 SCF Done:  E(RHF) =  -492.838531719     A.U. after   14 cycles
             Convg  =    0.6494D-08             -V/T =  2.0019
 Calling FoFJK, ICntrl=      2127 FMM=F ISym2X=0 I1Cent= 0 IOpClX= 0 NMat=1 NMatS=1 NMatT=0.
 ***** Axes restored to original set *****
 -------------------------------------------------------------------
 Center     Atomic                   Forces (Hartrees/Bohr)
 Number     Number              X              Y              Z
 -------------------------------------------------------------------
      1        1           0.004616264    0.002235288    0.002669070
      2        6           0.004350599    0.001312029    0.005697099
      3        1          -0.003553683    0.001310976    0.000099786
      4        1          -0.001275873   -0.003455067   -0.000039230
      5        6          -0.009964268   -0.000339049   -0.045575185
      6        8           0.004342548   -0.000340953    0.033149827
      7        7           0.011691595   -0.001934631    0.019416923
      8        1           0.002621821    0.001087049   -0.007780159
      9        6           0.003199299    0.003361652   -0.011512318
     10        1          -0.007825065   -0.000831820    0.000949304
     11        6          -0.004726281   -0.007394315    0.000775875
     12        1           0.000084140   -0.000010310   -0.000080630
     13        1          -0.002629708   -0.002351950    0.000126522
     14        1           0.000481497    0.002499649   -0.000627194
     15        6           0.004378710    0.015966790   -0.031118580
     16        8          -0.003093812   -0.015450238    0.024810948
     17        7          -0.002248133    0.000409805    0.012682755
     18        1           0.000477578    0.004781791   -0.007697507
     19        6          -0.000975550    0.000537633    0.002067283
     20        1           0.000054045   -0.003587593    0.004488847
     21        1           0.002455137    0.001455301   -0.001129932
     22        1          -0.002460862    0.000737962   -0.001373502
 -------------------------------------------------------------------
 Cartesian Forces:  Max     0.045575185 RMS     0.010090465

 GradGradGradGradGradGradGradGradGradGradGradGradGradGradGradGradGradGrad
 Berny optimization.
 Using GEDIIS/GDIIS optimizer.
 Internal  Forces:  Max     0.031002535 RMS     0.005968518
 Search for a local minimum.
 Step number   2 out of a maximum of  108
 All quantities printed in internal units (Hartrees-Bohrs-Radians)
 Mixed Optimization -- RFO/linear search
 Update second derivatives using D2CorX and points    1    2
 DE= -1.71D-02 DEPred=-4.40D-02 R= 3.88D-01
 Trust test= 3.88D-01 RLast= 3.00D-01 DXMaxT set to 3.00D-01
 Use linear search instead of GDIIS.
     Eigenvalues ---    0.00369   0.00438   0.00995   0.01043   0.01339
     Eigenvalues ---    0.01421   0.01658   0.02551   0.02560   0.03728
     Eigenvalues ---    0.05091   0.05690   0.05912   0.06005   0.07223
     Eigenvalues ---    0.07359   0.07601   0.07714   0.15828   0.15971
     Eigenvalues ---    0.15999   0.16000   0.16000   0.16000   0.16000
     Eigenvalues ---    0.16000   0.16000   0.16000   0.16000   0.16450
     Eigenvalues ---    0.17344   0.21969   0.24199   0.24840   0.24988
     Eigenvalues ---    0.25000   0.29390   0.29820   0.30123   0.34371
     Eigenvalues ---    0.34686   0.34808   0.34811   0.34813   0.34814
     Eigenvalues ---    0.34816   0.34816   0.34821   0.34822   0.36827
     Eigenvalues ---    0.38367   0.45620   0.45975   0.55933   0.58111
     Eigenvalues ---    0.75737   0.87064   0.916021000.000001000.00000
     Eigenvalues --- 1000.000001000.000001000.000001000.000001000.00000
     Eigenvalues --- 1000.000001000.000001000.000001000.000001000.00000
     Eigenvalues --- 1000.000001000.000001000.000001000.000001000.00000
     Eigenvalues --- 1000.000001000.000001000.000001000.000001000.00000
     Eigenvalues --- 1000.000001000.000001000.000001000.000001000.00000
     Eigenvalues --- 1000.000001000.000001000.000001000.000001000.00000
     Eigenvalues --- 1000.000001000.000001000.000001000.000001000.00000
     Eigenvalues --- 1000.000001000.000001000.00000
 RFO step:  Lambda=-6.89077419D-03 EMin= 3.68804224D-03
 Quartic linear search produced a step of -0.14930.
 Iteration  1 RMS(Cart)=  0.05619414 RMS(Int)=  0.00125125
 Iteration  2 RMS(Cart)=  0.00178190 RMS(Int)=  0.00033912
 Iteration  3 RMS(Cart)=  0.00000177 RMS(Int)=  0.00033911
 Iteration  4 RMS(Cart)=  0.00000000 RMS(Int)=  0.00033911
 Iteration  1 RMS(Cart)=  0.00004016 RMS(Int)=  0.00001483
 Iteration  2 RMS(Cart)=  0.00002101 RMS(Int)=  0.00001656
 Iteration  3 RMS(Cart)=  0.00001104 RMS(Int)=  0.00001867
 Iteration  4 RMS(Cart)=  0.00000587 RMS(Int)=  0.00002006
 Iteration  5 RMS(Cart)=  0.00000319 RMS(Int)=  0.00002088
 Iteration  6 RMS(Cart)=  0.00000179 RMS(Int)=  0.00002135
 Iteration  7 RMS(Cart)=  0.00000106 RMS(Int)=  0.00002162
 Iteration  8 RMS(Cart)=  0.00000065 RMS(Int)=  0.00002177
 Variable       Old X    -DE/DX   Delta X   Delta X   Delta X     New X
                                 (Linear)    (Quad)   (Total)
    R1        2.05025  -0.00508   0.00142  -0.01601  -0.01460   2.03566
    R2        2.05685  -0.00161   0.00045  -0.00507  -0.00462   2.05223
    R3        2.05652  -0.00157   0.00049  -0.00509  -0.00460   2.05192
    R4        2.87945  -0.00220   0.00177  -0.01086  -0.00909   2.87036
    R5        2.29556  -0.03100   0.00401  -0.04075  -0.03673   2.25882
    R6        2.55220   0.00380  -0.00438   0.01827   0.01389   2.56608
    R7        1.89499  -0.00822   0.00203  -0.02073  -0.01870   1.87629
    R8        2.77861  -0.01195  -0.00604  -0.00932  -0.01536   2.76325
    R9        2.05676  -0.00229   0.00045  -0.00670  -0.00625   2.05051
   R10        2.89667  -0.00283  -0.00221  -0.00206  -0.00426   2.89241
   R11        2.88930   0.00502  -0.00196   0.01899   0.01703   2.90634
   R12        2.03402   0.00004   0.00384  -0.01032  -0.00648   2.02754
   R13        2.05697  -0.00335   0.00043  -0.00919  -0.00876   2.04821
   R14        2.05583  -0.00239   0.00057  -0.00727  -0.00669   2.04913
   R15        2.30030  -0.02927   0.00330  -0.03699  -0.03369   2.26661
   R16        2.53291   0.01022  -0.00151   0.01913   0.01762   2.55053
   R17        1.89469  -0.00904   0.00208  -0.02237  -0.02029   1.87440
   R18        2.73957  -0.00022  -0.00018   0.00002  -0.00016   2.73940
   R19        2.04862  -0.00562   0.00167  -0.01799  -0.01632   2.03230
   R20        2.05557  -0.00235   0.00062  -0.00731  -0.00668   2.04889
   R21        2.05535  -0.00237   0.00064  -0.00742  -0.00678   2.04857
    A1        1.91173  -0.00009  -0.00008  -0.00216  -0.00203   1.90970
    A2        1.91166  -0.00016  -0.00007  -0.00312  -0.00299   1.90867
    A3        1.92320  -0.00578   0.00237  -0.03668  -0.03410   1.88910
    A4        1.90227  -0.00368   0.00116  -0.01679  -0.01615   1.88612
    A5        1.90804   0.00496  -0.00179   0.03032   0.02837   1.93640
    A6        1.90678   0.00479  -0.00160   0.02872   0.02695   1.93373
    A7        2.07877   0.01449   0.00363   0.03891   0.04216   2.12093
    A8        1.98866  -0.00055   0.00693  -0.01911  -0.01253   1.97613
    A9        2.21572  -0.01393  -0.01056  -0.01940  -0.03028   2.18544
   A10        2.01103   0.00523   0.01244  -0.01167   0.00070   2.01173
   A11        2.28359  -0.01235  -0.02330   0.01005  -0.01331   2.27028
   A12        1.98851   0.00713   0.01086   0.00139   0.01219   2.00070
   A13        1.88037  -0.00126   0.00459  -0.03510  -0.03031   1.85006
   A14        2.02886  -0.00862  -0.01341  -0.02571  -0.03903   1.98984
   A15        1.91139   0.00037   0.00412  -0.01335  -0.00843   1.90296
   A16        1.85442   0.00351   0.00622   0.02334   0.02817   1.88259
   A17        1.90203  -0.00282  -0.00089   0.01568   0.01374   1.91577
   A18        1.88324   0.00890  -0.00028   0.03823   0.03736   1.92061
   A19        1.93727   0.00010  -0.00390   0.00890   0.00499   1.94226
   A20        1.89679  -0.00058   0.00213  -0.00697  -0.00484   1.89195
   A21        1.91456   0.00148  -0.00052   0.00806   0.00755   1.92212
   A22        1.90162   0.00036   0.00127   0.00031   0.00157   1.90318
   A23        1.90889  -0.00057   0.00020  -0.00439  -0.00419   1.90470
   A24        1.90437  -0.00082   0.00086  -0.00621  -0.00533   1.89904
   A25        2.11412   0.00291  -0.00164   0.01443   0.01218   2.12630
   A26        2.02621  -0.00430   0.00132  -0.01699  -0.01628   2.00993
   A27        2.14240   0.00145   0.00039   0.00427   0.00405   2.14645
   A28        2.08711  -0.00257   0.00109  -0.01302  -0.01193   2.07518
   A29        2.13904   0.00392  -0.00171   0.01881   0.01710   2.15613
   A30        2.05704  -0.00135   0.00062  -0.00579  -0.00518   2.05186
   A31        1.90118  -0.00280   0.00147  -0.01906  -0.01752   1.88366
   A32        1.92029   0.00293  -0.00136   0.01873   0.01731   1.93759
   A33        1.91925   0.00240  -0.00122   0.01553   0.01424   1.93349
   A34        1.90881  -0.00043   0.00020  -0.00406  -0.00379   1.90502
   A35        1.90910  -0.00028   0.00016  -0.00362  -0.00342   1.90569
   A36        1.90514  -0.00182   0.00076  -0.00769  -0.00712   1.89802
    D1        0.00424  -0.00044  -0.00063  -0.02136  -0.02242  -0.01818
    D2        3.13713   0.00036   0.00067   0.02301   0.02412  -3.12193
    D3        2.10613  -0.00102  -0.00040  -0.02769  -0.02882   2.07731
    D4       -1.04417  -0.00021   0.00089   0.01669   0.01773  -1.02644
    D5       -2.09677   0.00032  -0.00099  -0.01289  -0.01404  -2.11081
    D6        1.03612   0.00113   0.00030   0.03148   0.03251   1.06863
    D7       -0.01401  -0.00001   0.00211  -0.01576  -0.01302  -0.02703
    D8        3.13938   0.00022   0.00032   0.00960   0.01056  -3.13324
    D9        3.11807   0.00105   0.00352   0.03311   0.03599  -3.12913
   D10       -0.01173   0.00128   0.00173   0.05846   0.05957   0.04784
   D11       -2.64589  -0.00056   0.00417  -0.00885  -0.00516  -2.65106
   D12       -0.56842  -0.00250   0.00671  -0.02132  -0.01451  -0.58293
   D13        1.57084   0.00334   0.00000   0.00000   0.00000   1.57085
   D14        0.50737  -0.00032   0.00241   0.01631   0.01836   0.52573
   D15        2.58485  -0.00226   0.00494   0.00385   0.00901   2.59386
   D16       -1.55907   0.00358  -0.00177   0.02517   0.02353  -1.53555
   D17        1.07805   0.00221  -0.00460   0.00596   0.00124   1.07929
   D18       -3.11419   0.00235  -0.00410   0.00733   0.00312  -3.11107
   D19       -1.03346   0.00187  -0.00206   0.00035  -0.00184  -1.03530
   D20       -3.11360  -0.00215  -0.00284  -0.03754  -0.04082   3.12876
   D21       -1.02266  -0.00202  -0.00233  -0.03617  -0.03894  -1.06160
   D22        1.05807  -0.00249  -0.00030  -0.04315  -0.04390   1.01417
   D23       -1.07589   0.00072  -0.00077   0.01121   0.01101  -1.06489
   D24        1.01505   0.00085  -0.00026   0.01258   0.01289   1.02794
   D25        3.09578   0.00038   0.00177   0.00560   0.00793   3.10371
   D26       -1.60206   0.00178   0.00466   0.05967   0.06444  -1.53763
   D27        1.57081  -0.00033   0.00000   0.00000   0.00000   1.57081
   D28        2.62819   0.00473  -0.00286   0.10057   0.09788   2.72607
   D29       -0.48212   0.00261  -0.00752   0.04089   0.03345  -0.44868
   D30        0.62167  -0.00266  -0.00958   0.04476   0.03514   0.65681
   D31       -2.48864  -0.00477  -0.01425  -0.01492  -0.02929  -2.51793
   D32       -0.01369   0.00155   0.00203   0.04089   0.04280   0.02911
   D33        3.12769   0.00167   0.00208   0.04571   0.04765  -3.10784
   D34       -3.12344  -0.00064  -0.00272  -0.02004  -0.02262   3.13712
   D35        0.01794  -0.00051  -0.00267  -0.01522  -0.01777   0.00017
   D36       -0.00003  -0.00012   0.00000  -0.00331  -0.00331  -0.00334
   D37        2.09220  -0.00061   0.00032  -0.00872  -0.00850   2.08369
   D38       -2.09198   0.00051  -0.00036   0.00347   0.00320  -2.08878
   D39        3.14136   0.00001   0.00004   0.00143   0.00148  -3.14035
   D40       -1.04960  -0.00048   0.00036  -0.00397  -0.00371  -1.05331
   D41        1.04940   0.00063  -0.00031   0.00821   0.00799   1.05740
         Item               Value     Threshold  Converged?
 Maximum Force            0.031003     0.000450     NO 
 RMS     Force            0.006006     0.000300     NO 
 Maximum Displacement     0.167065     0.001800     NO 
 RMS     Displacement     0.056079     0.001200     NO 
 Predicted change in Energy=-3.877649D-03
 GradGradGradGradGradGradGradGradGradGradGradGradGradGradGradGradGradGrad

                          Input orientation:                          
 ---------------------------------------------------------------------
 Center     Atomic      Atomic             Coordinates (Angstroms)
 Number     Number       Type             X           Y           Z
 ---------------------------------------------------------------------
      1          1           0        0.981815    2.777329   -1.775076
      2          6           0        1.496488    3.042896   -0.866783
      3          1           0        1.631029    2.155508   -0.255376
      4          1           0        0.893889    3.750474   -0.305332
      5          6           0        2.836308    3.653051   -1.240603
      6          8           0        3.178945    3.757687   -2.380970
      7          7           0        3.583930    4.004598   -0.162918
      8          1           0        3.157619    3.843719    0.719241
      9          6           0        4.907968    4.621593   -0.096482
     10          1           0        5.347330    4.287023    0.837558
     11          6           0        5.846310    4.206194   -1.232124
     12          1           0        5.456024    4.500630   -2.187196
     13          1           0        6.804655    4.688396   -1.077784
     14          1           0        5.990245    3.131474   -1.223027
     15          6           0        4.748131    6.151116   -0.077623
     16          8           0        4.691917    6.793750   -1.088818
     17          7           0        4.636811    6.701343    1.149775
     18          1           0        4.688424    6.111859    1.945819
     19          6           0        4.438363    8.119261    1.376829
     20          1           0        4.404842    8.606412    0.418627
     21          1           0        3.507514    8.302459    1.901711
     22          1           0        5.253843    8.533427    1.958752
 ---------------------------------------------------------------------
                    Distance matrix (angstroms):
                    1          2          3          4          5
     1  H    0.000000
     2  C    1.077223   0.000000
     3  H    1.765680   1.085991   0.000000
     4  H    1.764905   1.085827   1.757779   0.000000
     5  C    2.119362   1.518930   2.160093   2.158058   0.000000
     6  O    2.481046   2.373678   3.079151   3.087039   1.195318
     7  N    3.297915   2.403687   2.691004   2.705768   1.357913
     8  H    3.477489   2.432313   2.475967   2.486548   1.995140
     9  C    4.651201   3.837166   4.104285   4.112821   2.557120
    10  H    5.306858   4.391083   4.421397   4.628954   3.320527
    11  C    5.098996   4.517486   4.788313   5.058962   3.060416
    12  H    4.812292   4.421131   4.884886   4.991715   2.911587
    13  H    6.167970   5.561369   5.818787   6.034363   4.104415
    14  H    5.051192   4.508725   4.570735   5.215186   3.196821
    15  C    5.333753   4.566945   5.070779   4.546440   3.353792
    16  O    5.510667   4.932441   5.619337   4.929543   3.651070
    17  N    6.108325   5.226124   5.627947   4.983415   4.271745
    18  H    6.221182   5.245734   5.463116   5.004230   4.430503
    19  C    7.100596   6.281552   6.790549   5.871904   5.418907
    20  H    7.106874   6.408082   7.054253   6.035813   5.454276
    21  H    7.101055   6.274695   6.779324   5.694089   5.651695
    22  H    8.082348   7.228229   7.661919   6.856523   6.316519
                    6          7          8          9         10
     6  O    0.000000
     7  N    2.268200   0.000000
     8  H    3.101478   0.992888   0.000000
     9  C    2.992447   1.462250   2.081877   0.000000
    10  H    3.916760   2.047021   2.237264   1.085083   0.000000
    11  C    2.938680   2.510419   3.341896   1.530596   2.130516
    12  H    2.403040   2.801515   3.763187   2.164736   3.034234
    13  H    3.963620   3.417254   4.152547   2.136548   2.439965
    14  H    3.104251   2.770655   3.507630   2.158908   2.448396
    15  C    3.673725   2.443395   2.913554   1.537968   2.161351
    16  O    3.629934   3.140748   3.784948   2.397849   3.228649
    17  N    4.822515   3.178704   3.246441   2.439681   2.535993
    18  H    5.151869   3.179187   2.998719   2.537733   2.234374
    19  C    5.893260   4.475637   4.511427   3.824245   3.975309
    20  H    5.731553   4.710497   4.932461   4.049352   4.440823
    21  H    6.253341   4.768663   4.626124   4.416200   4.543245
    22  H    6.778354   5.272607   5.284307   4.432387   4.392922
                   11         12         13         14         15
    11  C    0.000000
    12  H    1.072930   0.000000
    13  H    1.083866   1.756376   0.000000
    14  H    1.084354   1.757726   1.763056   0.000000
    15  C    2.514278   2.770472   2.714620   3.460207   0.000000
    16  O    2.837007   2.654938   2.982666   3.887922   1.199439
    17  N    3.655421   4.080396   3.703177   4.495102   1.349685
    18  H    3.882214   4.501898   3.955611   4.540817   2.024704
    19  C    4.909281   5.180000   4.836868   5.834861   2.466775
    20  H    4.915763   4.975213   4.832100   5.931566   2.528357
    21  H    5.663063   5.913523   5.727999   6.532000   3.175716
    22  H    5.409034   5.787332   5.139049   6.312456   3.174582
                   16         17         18         19         20
    16  O    0.000000
    17  N    2.241178   0.000000
    18  H    3.110308   0.991888   0.000000
    19  C    2.810816   1.449629   2.101414   0.000000
    20  H    2.374984   2.053698   2.938627   1.075449   0.000000
    21  H    3.552785   2.098640   2.489020   1.084224   1.759864
[...]
    16  O    5.484387   4.777034   5.393345   4.645967   3.606714
    17  N    6.123666   5.151276   5.359718   4.971799   4.264213
    18  H    6.396636   5.381336   5.396999   5.308244   4.550446
    19  C    7.148921   6.199158   6.488153   5.818705   5.419626
    20  H    6.846780   5.960804   6.381274   5.438952   5.289402
    21  H    7.683528   6.679054   6.832689   6.244715   6.065912
    22  H    7.928735   7.020956   7.358060   6.707189   6.085323
                    6          7          8          9         10
     6  O    0.000000
     7  N    2.268361   0.000000
     8  H    3.107103   0.994890   0.000000
     9  C    2.949572   1.459349   2.080868   0.000000
    10  H    3.870288   2.032074   2.270698   1.086424   0.000000
    11  C    2.882253   2.517890   3.380816   1.524406   2.124946
    12  H    2.463885   2.879162   3.831908   2.162693   3.030941
    13  H    3.943589   3.416389   4.162987   2.133793   2.384203
    14  H    2.908336   2.723242   3.566714   2.153228   2.493862
    15  C    3.675990   2.437312   2.796092   1.535348   2.142627
    16  O    3.644469   3.129056   3.636683   2.401609   3.224380
    17  N    4.843317   3.174741   3.114548   2.440136   2.501531
    18  H    5.243480   3.288700   3.071276   2.553951   2.180963
    19  C    5.926291   4.482512   4.379784   3.807494   3.932642
    20  H    5.737987   4.583238   4.515600   4.129214   4.488375
    21  H    6.713215   5.049380   4.747546   4.501023   4.430357
    22  H    6.439556   5.155338   5.192843   4.233417   4.344956
                   11         12         13         14         15
    11  C    0.000000
    12  H    1.076175   0.000000
    13  H    1.085816   1.761281   0.000000
    14  H    1.082816   1.758290   1.760685   0.000000
    15  C    2.526195   2.737261   2.791993   3.465380   0.000000
    16  O    2.890242   2.642346   3.156679   3.910053   1.197566
    17  N    3.656273   4.045710   3.738192   4.507582   1.356709
    18  H    3.825651   4.441431   3.833559   4.525363   2.029393
    19  C    4.876577   5.092265   4.845410   5.818590   2.441878
    20  H    5.169306   5.183514   5.290103   6.132620   2.670370
    21  H    5.701126   6.025123   5.664763   6.569002   3.311506
    22  H    5.036810   5.217670   4.791696   6.038456   2.850478
                   16         17         18         19         20
    16  O    0.000000
    17  N    2.240306   0.000000
    18  H    3.102191   0.993477   0.000000
    19  C    2.757232   1.448312   2.104076   0.000000
    20  H    2.611554   2.075826   2.917343   1.079745   0.000000
    21  H    3.786929   2.068864   2.318805   1.082209   1.760658
    22  H    2.968485   2.109877   2.678269   1.084899   1.754877
                   21         22
    21  H    0.000000
    22  H    1.765018   0.000000
 Stoichiometry    C6H12N2O2
 Framework group  C1[X(C6H12N2O2)]
 Deg. of freedom    60
 Full point group                 C1      NOp   1
 Largest Abelian subgroup         C1      NOp   1
 Largest concise Abelian subgroup C1      NOp   1
                         Standard orientation:                         
 ---------------------------------------------------------------------
 Center     Atomic      Atomic             Coordinates (Angstroms)
 Number     Number       Type             X           Y           Z
 ---------------------------------------------------------------------
      1          1           0       -3.780967   -1.496611    0.428511
      2          6           0       -2.816730   -1.629723   -0.039127
      3          1           0       -2.951489   -1.916620   -1.076532
      4          1           0       -2.290568   -2.431881    0.469899
      5          6           0       -2.027306   -0.341724    0.099207
      6          8           0       -2.335510    0.503537    0.886041
      7          7           0       -0.965180   -0.256126   -0.754255
      8          1           0       -0.773256   -1.073499   -1.287989
      9          6           0        0.106257    0.734693   -0.752347
     10          1           0        0.457592    0.770200   -1.779780
     11          6           0       -0.317840    2.144400   -0.356519
     12          1           0       -0.560708    2.201333    0.690346
     13          1           0        0.502670    2.823259   -0.568442
     14          1           0       -1.178758    2.452608   -0.936448
     15          6           0        1.252222    0.227260    0.134542
     16          8           0        1.282295    0.414536    1.316992
     17          7           0        2.189766   -0.512058   -0.509724
     18          1           0        2.230417   -0.469243   -1.501445
     19          6           0        3.348404   -1.023909    0.192540
     20          1           0        3.032541   -1.511819    1.102499
     21          1           0        3.849300   -1.745442   -0.439657
     22          1           0        4.046805   -0.235568    0.452847
 ---------------------------------------------------------------------
 Rotational constants (GHZ):      2.1907094      0.7862545      0.6944319

 **********************************************************************

            Population analysis using the SCF density.

 **********************************************************************

 Orbital symmetries:
       Occupied  (A) (A) (A) (A) (A) (A) (A) (A) (A) (A) (A) (A)
                 (A) (A) (A) (A) (A) (A) (A) (A) (A) (A) (A) (A)
                 (A) (A) (A) (A) (A) (A) (A) (A) (A) (A) (A) (A)
                 (A) (A) (A)
       Virtual   (A) (A) (A) (A) (A) (A) (A) (A) (A) (A) (A) (A)
                 (A) (A) (A) (A) (A) (A) (A) (A) (A) (A) (A) (A)
                 (A) (A) (A) (A) (A) (A) (A) (A) (A) (A) (A) (A)
                 (A) (A) (A) (A) (A) (A) (A) (A) (A) (A) (A) (A)
                 (A) (A) (A) (A) (A) (A) (A) (A) (A) (A) (A) (A)
                 (A) (A) (A) (A) (A) (A) (A) (A) (A) (A) (A) (A)
                 (A) (A) (A) (A) (A) (A) (A) (A) (A) (A) (A) (A)
                 (A) (A) (A) (A) (A) (A) (A) (A) (A) (A) (A) (A)
                 (A) (A) (A) (A) (A) (A) (A) (A) (A) (A) (A) (A)
                 (A) (A) (A) (A) (A) (A) (A) (A) (A) (A) (A) (A)
                 (A) (A) (A) (A) (A) (A) (A) (A) (A) (A) (A) (A)
                 (A) (A) (A)
 The electronic state is 1-A.
 Alpha  occ. eigenvalues --  -20.52514 -20.51964 -15.59173 -15.58929 -11.34765
 Alpha  occ. eigenvalues --  -11.34380 -11.28594 -11.26136 -11.23067 -11.20890
 Alpha  occ. eigenvalues --   -1.39578  -1.38713  -1.24420  -1.23117  -1.05422
 Alpha  occ. eigenvalues --   -0.98846  -0.96291  -0.87850  -0.80006  -0.77329
 Alpha  occ. eigenvalues --   -0.72087  -0.69788  -0.65625  -0.64177  -0.62653
 Alpha  occ. eigenvalues --   -0.61701  -0.60026  -0.58837  -0.56388  -0.55778
 Alpha  occ. eigenvalues --   -0.54631  -0.53043  -0.51575  -0.51290  -0.51133
 Alpha  occ. eigenvalues --   -0.44218  -0.40895  -0.39557  -0.37696
 Alpha virt. eigenvalues --    0.18185   0.19784   0.21858   0.23579   0.26090
 Alpha virt. eigenvalues --    0.27872   0.28675   0.30645   0.31148   0.32109
 Alpha virt. eigenvalues --    0.32697   0.33631   0.34268   0.35266   0.37062
 Alpha virt. eigenvalues --    0.39536   0.40851   0.44623   0.46254   0.48952
 Alpha virt. eigenvalues --    0.52249   0.59515   0.62768   0.69987   0.72799
 Alpha virt. eigenvalues --    0.73952   0.74840   0.75521   0.76641   0.78909
 Alpha virt. eigenvalues --    0.80614   0.82667   0.83127   0.87343   0.89006
 Alpha virt. eigenvalues --    0.92051   0.94480   0.95667   0.98256   1.00227
 Alpha virt. eigenvalues --    1.01324   1.02515   1.03950   1.08664   1.09200
 Alpha virt. eigenvalues --    1.09957   1.12897   1.13887   1.14546   1.14943
 Alpha virt. eigenvalues --    1.16827   1.17639   1.18769   1.19281   1.21093
 Alpha virt. eigenvalues --    1.21678   1.22446   1.24031   1.25889   1.27252
 Alpha virt. eigenvalues --    1.31024   1.34311   1.37245   1.41150   1.43591
 Alpha virt. eigenvalues --    1.45918   1.47865   1.52601   1.56739   1.61336
 Alpha virt. eigenvalues --    1.66386   1.66707   1.70112   1.71725   1.74829
 Alpha virt. eigenvalues --    1.79671   1.83035   1.85921   1.94943   1.95777
 Alpha virt. eigenvalues --    2.00353   2.06616   2.07184   2.10585   2.12268
 Alpha virt. eigenvalues --    2.13914   2.14719   2.19428   2.20622   2.21915
 Alpha virt. eigenvalues --    2.24618   2.27893   2.28439   2.32132   2.35397
 Alpha virt. eigenvalues --    2.36906   2.40123   2.41871   2.45054   2.49870
 Alpha virt. eigenvalues --    2.54174   2.56551   2.56880   2.61345   2.65064
 Alpha virt. eigenvalues --    2.66430   2.69367   2.70828   2.73539   2.76799
 Alpha virt. eigenvalues --    2.80310   2.83029   2.86034   2.92913   2.97238
 Alpha virt. eigenvalues --    3.01922   3.05665   3.10122   3.14226   3.28258
 Alpha virt. eigenvalues --    3.30723   3.38956   3.40510   3.53947   3.56876
 Alpha virt. eigenvalues --    4.37234   4.39941   4.50392   4.59464   4.64804
 Alpha virt. eigenvalues --    4.69746   4.73875   4.81701   4.93772   5.05251
          Condensed to atoms (all electrons):
              1          2          3          4          5          6
     1  H    0.459531   0.384551  -0.020298  -0.016921  -0.031985   0.003752
     2  C    0.384551   5.283061   0.374507   0.374098   0.375838  -0.071661
     3  H   -0.020298   0.374507   0.526162  -0.025669  -0.036663   0.001852
     4  H   -0.016921   0.374098  -0.025669   0.497678  -0.027241   0.000434
     5  C   -0.031985   0.375838  -0.036663  -0.027241   4.138266   0.621385
     6  O    0.003752  -0.071661   0.001852   0.000434   0.621385   8.121828
     7  N    0.004333  -0.129425   0.005558   0.001149   0.240122  -0.097909
     8  H    0.000060  -0.000283   0.000091   0.000107  -0.020130   0.002648
     9  C   -0.000080   0.002979   0.000184  -0.000271  -0.020423   0.004975
    10  H    0.000003  -0.000066  -0.000008  -0.000001   0.002340  -0.000081
    11  C    0.000005  -0.000025  -0.000017  -0.000001  -0.003116  -0.004610
    12  H    0.000000   0.000068  -0.000001  -0.000003   0.001091   0.002354
    13  H    0.000000   0.000009   0.000000   0.000000   0.000250   0.000507
    14  H    0.000000  -0.000070   0.000001   0.000001  -0.000335  -0.000504
    15  C   -0.000001  -0.000224   0.000006   0.000078  -0.001563  -0.000680
    16  O    0.000000   0.000016   0.000000   0.000007   0.002970  -0.000434
    17  N    0.000000  -0.000014  -0.000001  -0.000001   0.000092  -0.000004
    18  H    0.000000  -0.000001   0.000000   0.000000  -0.000008   0.000000
    19  C    0.000000   0.000000   0.000000   0.000000  -0.000005   0.000000
    20  H    0.000000   0.000000   0.000000   0.000000   0.000001   0.000000
    21  H    0.000000   0.000000   0.000000   0.000000   0.000000   0.000000
    22  H    0.000000   0.000000   0.000000   0.000000   0.000000   0.000000
              7          8          9         10         11         12
     1  H    0.004333   0.000060  -0.000080   0.000003   0.000005   0.000000
     2  C   -0.129425  -0.000283   0.002979  -0.000066  -0.000025   0.000068
     3  H    0.005558   0.000091   0.000184  -0.000008  -0.000017  -0.000001
     4  H    0.001149   0.000107  -0.000271  -0.000001  -0.000001  -0.000003
     5  C    0.240122  -0.020130  -0.020423   0.002340  -0.003116   0.001091
     6  O   -0.097909   0.002648   0.004975  -0.000081  -0.004610   0.002354
     7  N    7.422944   0.326369   0.192463  -0.051697  -0.040843  -0.001707
     8  H    0.326369   0.339373  -0.026968  -0.003783   0.003249  -0.000116
     9  C    0.192463  -0.026968   5.041741   0.419331   0.348112  -0.029371
    10  H   -0.051697  -0.003783   0.419331   0.554296  -0.035550   0.003644
    11  C   -0.040843   0.003249   0.348112  -0.035550   5.093114   0.391883
    12  H   -0.001707  -0.000116  -0.029371   0.003644   0.391883   0.429910
    13  H    0.003684  -0.000091  -0.037093  -0.003344   0.379728  -0.022103
    14  H   -0.001244  -0.000039  -0.039101  -0.003244   0.394612  -0.020615
    15  C   -0.064886  -0.000480   0.354007  -0.064296  -0.048558  -0.005384
    16  O   -0.000646  -0.000149  -0.074432   0.002709   0.001911   0.005539
    17  N    0.001964   0.002589  -0.109606   0.006268   0.002086   0.000303
    18  H    0.000517   0.000081  -0.000098   0.002648  -0.000160  -0.000007
    19  C   -0.000227  -0.000030   0.004927  -0.000158  -0.000104  -0.000007
    20  H    0.000010  -0.000008   0.000080  -0.000005  -0.000013  -0.000001
    21  H    0.000005  -0.000003  -0.000016  -0.000022   0.000000   0.000000
    22  H   -0.000006   0.000003  -0.000155  -0.000012   0.000029   0.000000
             13         14         15         16         17         18
     1  H    0.000000   0.000000  -0.000001   0.000000   0.000000   0.000000
     2  C    0.000009  -0.000070  -0.000224   0.000016  -0.000014  -0.000001
     3  H    0.000000   0.000001   0.000006   0.000000  -0.000001   0.000000
     4  H    0.000000   0.000001   0.000078   0.000007  -0.000001   0.000000
     5  C    0.000250  -0.000335  -0.001563   0.002970   0.000092  -0.000008
     6  O    0.000507  -0.000504  -0.000680  -0.000434  -0.000004   0.000000
     7  N    0.003684  -0.001244  -0.064886  -0.000646   0.001964   0.000517
     8  H   -0.000091  -0.000039  -0.000480  -0.000149   0.002589   0.000081
     9  C   -0.037093  -0.039101   0.354007  -0.074432  -0.109606  -0.000098
    10  H   -0.003344  -0.003244  -0.064296   0.002709   0.006268   0.002648
    11  C    0.379728   0.394612  -0.048558   0.001911   0.002086  -0.000160
    12  H   -0.022103  -0.020615  -0.005384   0.005539   0.000303  -0.000007
    13  H    0.555672  -0.027479  -0.003297   0.000005   0.000090  -0.000020
    14  H   -0.027479   0.516876   0.005056   0.000081  -0.000077  -0.000007
    15  C   -0.003297   0.005056   4.240133   0.604137   0.267651  -0.020947
    16  O    0.000005   0.000081   0.604137   8.140816  -0.104711   0.002616
    17  N    0.000090  -0.000077   0.267651  -0.104711   7.334267   0.326274
    18  H   -0.000020  -0.000007  -0.020947   0.002616   0.326274   0.335841
    19  C   -0.000013   0.000002  -0.029910   0.008128   0.198620  -0.023815
    20  H    0.000001   0.000000  -0.003289   0.004010  -0.038657   0.002862
    21  H    0.000000   0.000000   0.004378   0.000375  -0.038461  -0.004284
    22  H   -0.000003   0.000000  -0.002869   0.001231  -0.047428   0.000907
             19         20         21         22
     1  H    0.000000   0.000000   0.000000   0.000000
     2  C    0.000000   0.000000   0.000000   0.000000
     3  H    0.000000   0.000000   0.000000   0.000000
     4  H    0.000000   0.000000   0.000000   0.000000
     5  C   -0.000005   0.000001   0.000000   0.000000
     6  O    0.000000   0.000000   0.000000   0.000000
     7  N   -0.000227   0.000010   0.000005  -0.000006
     8  H   -0.000030  -0.000008  -0.000003   0.000003
     9  C    0.004927   0.000080  -0.000016  -0.000155
    10  H   -0.000158  -0.000005  -0.000022  -0.000012
    11  C   -0.000104  -0.000013   0.000000   0.000029
    12  H   -0.000007  -0.000001   0.000000   0.000000
    13  H   -0.000013   0.000001   0.000000  -0.000003
    14  H    0.000002   0.000000   0.000000   0.000000
    15  C   -0.029910  -0.003289   0.004378  -0.002869
    16  O    0.008128   0.004010   0.000375   0.001231
    17  N    0.198620  -0.038657  -0.038461  -0.047428
    18  H   -0.023815   0.002862  -0.004284   0.000907
    19  C    4.910261   0.403816   0.396939   0.406716
    20  H    0.403816   0.480035  -0.024391  -0.031855
    21  H    0.396939  -0.024391   0.531634  -0.032799
    22  H    0.406716  -0.031855  -0.032799   0.527277
 Mulliken atomic charges:
              1
     1  H    0.217049
     2  C   -0.593358
     3  H    0.174298
     4  H    0.196555
     5  C    0.759114
     6  O   -0.583852
     7  N   -0.810528
     8  H    0.377514
     9  C   -0.031186
    10  H    0.171029
    11  C   -0.481732
    12  H    0.244524
    13  H    0.153496
    14  H    0.176086
    15  C    0.770937
    16  O   -0.594177
    17  N   -0.801245
    18  H    0.377602
    19  C   -0.275140
    20  H    0.207406
    21  H    0.166646
    22  H    0.178963
 Sum of Mulliken atomic charges =   0.00000
 Mulliken charges with hydrogens summed into heavy atoms:
              1
     2  C   -0.005456
     5  C    0.759114
     6  O   -0.583852
     7  N   -0.433014
     9  C    0.139843
    11  C    0.092374
    15  C    0.770937
    16  O   -0.594177
    17  N   -0.423643
    19  C    0.277876
 Sum of Mulliken charges with hydrogens summed into heavy atoms =   0.00000
 Electronic spatial extent (au):  <R**2>=           1785.6583
 Charge=              0.0000 electrons
 Dipole moment (field-independent basis, Debye):
    X=              2.3791    Y=             -3.1418    Z=             -5.6413  Tot=              6.8815
 Quadrupole moment (field-independent basis, Debye-Ang):
   XX=            -57.3454   YY=            -57.0557   ZZ=            -62.9895
   XY=              3.1182   XZ=             -1.0363   YZ=             -1.7558
 Traceless Quadrupole moment (field-independent basis, Debye-Ang):
   XX=              1.7848   YY=              2.0745   ZZ=             -3.8594
   XY=              3.1182   XZ=             -1.0363   YZ=             -1.7558
 Octapole moment (field-independent basis, Debye-Ang**2):
  XXX=             29.1741  YYY=             -1.2298  ZZZ=             -9.9300  XYY=             -0.7520
  XXY=            -22.8272  XXZ=            -15.1478  XZZ=              4.9464  YZZ=             -6.7915
  YYZ=             -0.0177  XYZ=              0.9621
 Hexadecapole moment (field-independent basis, Debye-Ang**3):
 XXXX=          -1472.5020 YYYY=           -520.7758 ZZZZ=           -236.1296 XXXY=              3.8188
 XXXZ=              9.0211 YYYX=             -2.6846 YYYZ=              4.5140 ZZZX=            -16.5996
 ZZZY=              7.3457 XXYY=           -332.0942 XXZZ=           -303.9027 YYZZ=           -121.8257
 XXYZ=             -8.1465 YYXZ=              0.1986 ZZXY=             -3.7752
 N-N= 5.596544821042D+02 E-N=-2.274839075334D+03  KE= 4.921039262896D+02
 1\1\GINC-RODAN\FOpt\RHF\6-31G(d)\C6H12N2O2\STEBOSS\09-Feb-2017\0\\# HF
 /6-31G* Opt=(ModRedundant) geom=nocrowd\\Phi Psi fixed scan\\0,1\H,1.1
 021295612,2.5885701704,-1.8045049759\C,1.4859878778,3.1213336964,-0.94
 71994048\H,1.4463780506,2.4808738557,-0.0726017349\H,0.8556422643,3.98
 6484997,-0.7639231573\C,2.8982889969,3.58254448,-1.2537238807\O,3.3196
 831656,3.6181796802,-2.3716327907\N,3.612886961,3.9326361466,-0.144389
 7247\H,3.105077359,3.9419719347,0.7110921439\C,4.9096155058,4.59985157
 39,-0.0894389413\H,5.343867179,4.2918648067,0.8576016332\C,5.883508015
 7,4.2117693515,-1.1961184019\H,5.5686486928,4.5997297552,-2.1492730193
 \H,6.8609200937,4.6172295848,-0.9526775099\H,5.9641707104,3.1339910627
 ,-1.2622804522\C,4.6869959926,6.1184514653,-0.0495653099\O,4.560095930
 8,6.7765941268,-1.0419908684\N,4.571089383,6.6470594685,1.1945401694\H
 ,4.879830122,6.1091288925,1.9706242944\C,4.3970377394,8.0720011608,1.3
 865188114\H,3.608023019,8.4293705184,0.7418537186\H,4.1211594691,8.254
 3702512,2.4169604906\H,5.3013639101,8.6261930207,1.1583289105\\Version
 =EM64L-G09RevA.02\State=1-A\HF=-492.8439271\RMSD=6.241e-09\RMSF=2.282e
 -04\Dipole=-0.1497222,-0.2694061,2.6897943\Quadrupole=3.5815094,-1.145
 1136,-2.4363958,1.3028946,0.6849745,1.286308\PG=C01 [X(C6H12N2O2)]\\@


 WE HAVE LEARNED THAT NOTHING IS SIMPLE AND
 RATIONAL EXCEPT WHAT WE OURSELVES HAVE INVENTED;
 THAT GOD THINKS IN TERMS NEITHER OF EUCLID OR RIEMANN; THAT SCIENCE HAS "EXPLAINED" NOTHING;
 THAT THE MORE WE KNOW THE MORE FANTASTIC THE WORLD BECOMES
 AND THE PROFOUNDER THE SURROUNDING DARKNESS.
   --  ALDOUS HUXLEY
 Job cpu time:  0 days  0 hours 26 minutes 12.5 seconds.
 File lengths (MBytes):  RWF=     25 Int=      0 D2E=      0 Chk=      3 Scr=      1
 Normal termination of Gaussian 09 at Thu Feb  9 20:55:30 2017.
