 Entering Gaussian System, Link 0=g09
 Initial command:
 /home/steboss/Software/g09/l1.exe /tmp/Gau-5666.inp -scrdir=/tmp/
 Entering Link 1 = /home/steboss/Software/g09/l1.exe PID=      5668.
  
 Copyright (c) 1988,1990,1992,1993,1995,1998,2003,2009, Gaussian, Inc.
                  All Rights Reserved.
  
 This is part of the Gaussian(R) 09 program.  It is based on
 the Gaussian(R) 03 system (copyright 2003, Gaussian, Inc.),
 the Gaussian(R) 98 system (copyright 1998, Gaussian, Inc.),
 the Gaussian(R) 94 system (copyright 1995, Gaussian, Inc.),
 the Gaussian 92(TM) system (copyright 1992, Gaussian, Inc.),
 the Gaussian 90(TM) system (copyright 1990, Gaussian, Inc.),
 the Gaussian 88(TM) system (copyright 1988, Gaussian, Inc.),
 the Gaussian 86(TM) system (copyright 1986, Carnegie Mellon
 University), and the Gaussian 82(TM) system (copyright 1983,
 Carnegie Mellon University). Gaussian is a federally registered
 trademark of Gaussian, Inc.
  
 This software contains proprietary and confidential information,
 including trade secrets, belonging to Gaussian, Inc.
  
 This software is provided under written license and may be
 used, copied, transmitted, or stored only in accord with that
 written license.
  
 The following legend is applicable only to US Government
 contracts under FAR:
  
                    RESTRICTED RIGHTS LEGEND
  
 Use, reproduction and disclosure by the US Government is
 subject to restrictions as set forth in subparagraphs (a)
 and (c) of the Commercial Computer Software - Restricted
 Rights clause in FAR 52.227-19.
  
 Gaussian, Inc.
 340 Quinnipiac St., Bldg. 40, Wallingford CT 06492
  
  
 ---------------------------------------------------------------
 Warning -- This program may not be used in any manner that
 competes with the business of Gaussian, Inc. or will provide
 assistance to any competitor of Gaussian, Inc.  The licensee
 of this program is prohibited from giving any competitor of
 Gaussian, Inc. access to this program.  By using this program,
 the user acknowledges that Gaussian, Inc. is engaged in the
 business of creating and licensing software in the field of
 computational chemistry and represents and warrants to the
 licensee that it is not a competitor of Gaussian, Inc. and that
 it will not use this program in any manner prohibited above.
 ---------------------------------------------------------------
  

 Cite this work as:
 Gaussian 09, Revision A.02,
 M. J. Frisch, G. W. Trucks, H. B. Schlegel, G. E. Scuseria, 
 M. A. Robb, J. R. Cheeseman, G. Scalmani, V. Barone, B. Mennucci, 
 G. A. Petersson, H. Nakatsuji, M. Caricato, X. Li, H. P. Hratchian, 
 A. F. Izmaylov, J. Bloino, G. Zheng, J. L. Sonnenberg, M. Hada, 
 M. Ehara, K. Toyota, R. Fukuda, J. Hasegawa, M. Ishida, T. Nakajima, 
 Y. Honda, O. Kitao, H. Nakai, T. Vreven, J. A. Montgomery, Jr., 
 J. E. Peralta, F. Ogliaro, M. Bearpark, J. J. Heyd, E. Brothers, 
 K. N. Kudin, V. N. Staroverov, R. Kobayashi, J. Normand, 
 K. Raghavachari, A. Rendell, J. C. Burant, S. S. Iyengar, J. Tomasi, 
 M. Cossi, N. Rega, J. M. Millam, M. Klene, J. E. Knox, J. B. Cross, 
 V. Bakken, C. Adamo, J. Jaramillo, R. Gomperts, R. E. Stratmann, 
 O. Yazyev, A. J. Austin, R. Cammi, C. Pomelli, J. W. Ochterski, 
 R. L. Martin, K. Morokuma, V. G. Zakrzewski, G. A. Voth, 
 P. Salvador, J. J. Dannenberg, S. Dapprich, A. D. Daniels, 
 O. Farkas, J. B. Foresman, J. V. Ortiz, J. Cioslowski, 
 and D. J. Fox, Gaussian, Inc., Wallingford CT, 2009.
 
 ******************************************
 Gaussian 09:  EM64L-G09RevA.02 11-Jun-2009
                 9-Feb-2017 
 ******************************************
 %chk=structure_165.chk
 %NProcShared=8
 Will use up to    8 processors via shared memory.
 -------------------------------------------
 # HF/6-31G* Opt=(ModRedundant) geom=nocrowd
 -------------------------------------------
 1/18=120,19=15,38=1/1,3;
 2/9=110,12=1,17=6,18=5,40=1/2;
 3/5=1,6=6,7=1,11=9,16=1,25=1,30=1,71=1/1,2,3;
 4//1;
 5/5=2,38=5/2;
 6/7=2,8=2,9=2,10=2,28=1/1;
 7//1,2,3,16;
 1/18=20,19=15/3(2);
 2/9=110,12=1/2;
 99//99;
 2/9=110,12=1/2;
 3/5=1,6=6,7=1,11=9,16=1,25=1,30=1,71=1/1,2,3;
 4/5=5,16=3/1;
 5/5=2,38=5/2;
 7//1,2,3,16;
 1/18=20,19=15/3(-5);
 2/9=110,12=1/2;
 6/7=2,8=2,9=2,10=2,19=2,28=1/1;
 99/9=1/99;
 ------------------
 Phi Psi fixed scan
 ------------------
 Symbolic Z-matrix:
 Charge =  0 Multiplicity = 1
 H                     1.1248    2.7631   -1.9684 
 C                     1.5589    2.9786   -0.9921 
 H                     1.6873    2.0489   -0.4377 
 H                     0.896     3.6429   -0.4377 
 C                     2.9235    3.656    -1.1334 
 O                     3.3922    3.8887   -2.2454 
 N                     3.5554    3.9697    0. 
 H                     3.1293    3.7581    0.8909 
 C                     4.8533    4.6139    0. 
 H                     5.4076    4.3155    0.8898 
 C                     5.6613    4.2208   -1.2322 
 H                     5.1233    4.5214   -2.1312 
 H                     6.6305    4.7189   -1.2058 
 H                     5.8085    3.1409   -1.2414 
 C                     4.7127    6.1294    0. 
 O                     3.6366    6.656    -0.2741 
 N                     5.8056    6.8311    0.309 
 H                     6.6679    6.3528    0.5272 
 C                     5.801     8.2797    0.3436 
 H                     4.8071    8.6467    0.0875 
 H                     6.0669    8.6206    1.3442 
 H                     6.5256    8.6631   -0.3748 
 
 The following ModRedundant input section has been read:
 D    5    7    9   15 F                                                       
 D    7    9   15   17 F                                                       

 GradGradGradGradGradGradGradGradGradGradGradGradGradGradGradGradGradGrad
 Berny optimization.
 Initialization pass.
                           ----------------------------
                           !    Initial Parameters    !
                           ! (Angstroms and Degrees)  !
 --------------------------                            --------------------------
 ! Name  Definition              Value          Derivative Info.                !
 --------------------------------------------------------------------------------
 ! R1    R(1,2)                  1.09           estimate D2E/DX2                !
 ! R2    R(2,3)                  1.09           estimate D2E/DX2                !
 ! R3    R(2,4)                  1.09           estimate D2E/DX2                !
 ! R4    R(2,5)                  1.53           estimate D2E/DX2                !
 ! R5    R(5,6)                  1.229          estimate D2E/DX2                !
 ! R6    R(5,7)                  1.335          estimate D2E/DX2                !
 ! R7    R(7,8)                  1.01           estimate D2E/DX2                !
 ! R8    R(7,9)                  1.449          estimate D2E/DX2                !
 ! R9    R(9,10)                 1.09           estimate D2E/DX2                !
 ! R10   R(9,11)                 1.525          estimate D2E/DX2                !
 ! R11   R(9,15)                 1.522          estimate D2E/DX2                !
 ! R12   R(11,12)                1.09           estimate D2E/DX2                !
 ! R13   R(11,13)                1.09           estimate D2E/DX2                !
 ! R14   R(11,14)                1.0899         estimate D2E/DX2                !
 ! R15   R(15,16)                1.229          estimate D2E/DX2                !
 ! R16   R(15,17)                1.335          estimate D2E/DX2                !
 ! R17   R(17,18)                1.0099         estimate D2E/DX2                !
 ! R18   R(17,19)                1.449          estimate D2E/DX2                !
 ! R19   R(19,20)                1.09           estimate D2E/DX2                !
 ! R20   R(19,21)                1.09           estimate D2E/DX2                !
 ! R21   R(19,22)                1.09           estimate D2E/DX2                !
 ! A1    A(1,2,3)              109.5024         estimate D2E/DX2                !
 ! A2    A(1,2,4)              109.5034         estimate D2E/DX2                !
 ! A3    A(1,2,5)              111.1015         estimate D2E/DX2                !
 ! A4    A(3,2,4)              109.4359         estimate D2E/DX2                !
 ! A5    A(3,2,5)              108.6343         estimate D2E/DX2                !
 ! A6    A(4,2,5)              108.6362         estimate D2E/DX2                !
 ! A7    A(2,5,6)              120.4997         estimate D2E/DX2                !
 ! A8    A(2,5,7)              116.6012         estimate D2E/DX2                !
 ! A9    A(6,5,7)              122.8991         estimate D2E/DX2                !
 ! A10   A(5,7,8)              119.9973         estimate D2E/DX2                !
 ! A11   A(5,7,9)              121.9001         estimate D2E/DX2                !
 ! A12   A(8,7,9)              118.1026         estimate D2E/DX2                !
 ! A13   A(7,9,10)             109.5            estimate D2E/DX2                !
 ! A14   A(7,9,11)             111.0992         estimate D2E/DX2                !
 ! A15   A(7,9,15)             111.0966         estimate D2E/DX2                !
 ! A16   A(10,9,11)            108.6382         estimate D2E/DX2                !
 ! A17   A(10,9,15)            108.6373         estimate D2E/DX2                !
 ! A18   A(11,9,15)            107.7947         estimate D2E/DX2                !
 ! A19   A(9,11,12)            109.5007         estimate D2E/DX2                !
 ! A20   A(9,11,13)            109.4959         estimate D2E/DX2                !
 ! A21   A(9,11,14)            109.4978         estimate D2E/DX2                !
 ! A22   A(12,11,13)           109.441          estimate D2E/DX2                !
 ! A23   A(12,11,14)           109.4482         estimate D2E/DX2                !
 ! A24   A(13,11,14)           109.4436         estimate D2E/DX2                !
 ! A25   A(9,15,16)            120.4997         estimate D2E/DX2                !
 ! A26   A(9,15,17)            116.5985         estimate D2E/DX2                !
 ! A27   A(16,15,17)           122.9018         estimate D2E/DX2                !
 ! A28   A(15,17,18)           120.0035         estimate D2E/DX2                !
 ! A29   A(15,17,19)           121.8963         estimate D2E/DX2                !
 ! A30   A(18,17,19)           118.1002         estimate D2E/DX2                !
 ! A31   A(17,19,20)           109.5046         estimate D2E/DX2                !
 ! A32   A(17,19,21)           109.4999         estimate D2E/DX2                !
 ! A33   A(17,19,22)           109.4988         estimate D2E/DX2                !
 ! A34   A(20,19,21)           109.4397         estimate D2E/DX2                !
 ! A35   A(20,19,22)           109.443          estimate D2E/DX2                !
 ! A36   A(21,19,22)           109.4414         estimate D2E/DX2                !
 ! D1    D(1,2,5,6)              0.002          estimate D2E/DX2                !
 ! D2    D(1,2,5,7)            179.9996         estimate D2E/DX2                !
 ! D3    D(3,2,5,6)            120.5171         estimate D2E/DX2                !
 ! D4    D(3,2,5,7)            -59.4853         estimate D2E/DX2                !
 ! D5    D(4,2,5,6)           -120.5155         estimate D2E/DX2                !
 ! D6    D(4,2,5,7)             59.482          estimate D2E/DX2                !
 ! D7    D(2,5,7,8)              0.0055         estimate D2E/DX2                !
 ! D8    D(2,5,7,9)            179.9962         estimate D2E/DX2                !
 ! D9    D(6,5,7,8)           -179.997          estimate D2E/DX2                !
 ! D10   D(6,5,7,9)             -0.0063         estimate D2E/DX2                !
 ! D11   D(5,7,9,10)          -149.9973         estimate D2E/DX2                !
 ! D12   D(5,7,9,11)           -29.9947         estimate D2E/DX2                !
 ! D13   D(5,7,9,15)            90.0028         Frozen                          !
 ! D14   D(8,7,9,10)            29.9935         estimate D2E/DX2                !
 ! D15   D(8,7,9,11)           149.9961         estimate D2E/DX2                !
 ! D16   D(8,7,9,15)           -90.0063         estimate D2E/DX2                !
 ! D17   D(7,9,11,12)           60.0024         estimate D2E/DX2                !
 ! D18   D(7,9,11,13)          179.9986         estimate D2E/DX2                !
 ! D19   D(7,9,11,14)          -60.0038         estimate D2E/DX2                !
 ! D20   D(10,9,11,12)        -179.4843         estimate D2E/DX2                !
 ! D21   D(10,9,11,13)         -59.4881         estimate D2E/DX2                !
 ! D22   D(10,9,11,14)          60.5095         estimate D2E/DX2                !
 ! D23   D(15,9,11,12)         -61.938          estimate D2E/DX2                !
 ! D24   D(15,9,11,13)          58.0582         estimate D2E/DX2                !
 ! D25   D(15,9,11,14)         178.0558         estimate D2E/DX2                !
 ! D26   D(7,9,15,16)          -15.0014         estimate D2E/DX2                !
 ! D27   D(7,9,15,17)          164.9981         Frozen                          !
 ! D28   D(10,9,15,16)        -135.5125         estimate D2E/DX2                !
 ! D29   D(10,9,15,17)          44.487          estimate D2E/DX2                !
 ! D30   D(11,9,15,16)         106.9406         estimate D2E/DX2                !
 ! D31   D(11,9,15,17)         -73.0599         estimate D2E/DX2                !
 ! D32   D(9,15,17,18)           0.0035         estimate D2E/DX2                !
 ! D33   D(9,15,17,19)         179.9985         estimate D2E/DX2                !
 ! D34   D(16,15,17,18)       -179.997          estimate D2E/DX2                !
 ! D35   D(16,15,17,19)         -0.002          estimate D2E/DX2                !
 ! D36   D(15,17,19,20)          0.0027         estimate D2E/DX2                !
 ! D37   D(15,17,19,21)        120.002          estimate D2E/DX2                !
 ! D38   D(15,17,19,22)       -120.0001         estimate D2E/DX2                !
 ! D39   D(18,17,19,20)        179.9978         estimate D2E/DX2                !
 ! D40   D(18,17,19,21)        -60.0029         estimate D2E/DX2                !
 ! D41   D(18,17,19,22)         59.995          estimate D2E/DX2                !
 --------------------------------------------------------------------------------
 Trust Radius=3.00D-01 FncErr=1.00D-07 GrdErr=1.00D-07
 Number of steps in this run= 108 maximum allowed number of steps= 132.
 GradGradGradGradGradGradGradGradGradGradGradGradGradGradGradGradGradGrad

                          Input orientation:                          
 ---------------------------------------------------------------------
 Center     Atomic      Atomic             Coordinates (Angstroms)
 Number     Number       Type             X           Y           Z
 ---------------------------------------------------------------------
      1          1           0        1.124800    2.763100   -1.968400
      2          6           0        1.558900    2.978600   -0.992100
      3          1           0        1.687300    2.048900   -0.437700
      4          1           0        0.896000    3.642900   -0.437700
      5          6           0        2.923500    3.656000   -1.133400
      6          8           0        3.392200    3.888700   -2.245400
      7          7           0        3.555400    3.969700    0.000000
      8          1           0        3.129300    3.758100    0.890900
      9          6           0        4.853300    4.613900    0.000000
     10          1           0        5.407600    4.315500    0.889800
     11          6           0        5.661300    4.220800   -1.232200
     12          1           0        5.123300    4.521400   -2.131200
     13          1           0        6.630500    4.718900   -1.205800
     14          1           0        5.808500    3.140900   -1.241400
     15          6           0        4.712700    6.129400    0.000000
     16          8           0        3.636600    6.656000   -0.274100
     17          7           0        5.805600    6.831100    0.309000
     18          1           0        6.667900    6.352800    0.527200
     19          6           0        5.801000    8.279700    0.343600
     20          1           0        4.807100    8.646700    0.087500
     21          1           0        6.066900    8.620600    1.344200
     22          1           0        6.525600    8.663100   -0.374800
 ---------------------------------------------------------------------
                    Distance matrix (angstroms):
                    1          2          3          4          5
     1  H    0.000000
     2  C    1.089975   0.000000
     3  H    1.780317   1.090040   0.000000
     4  H    1.780292   1.089996   1.779604   0.000000
     5  C    2.174814   1.530023   2.143586   2.143578   0.000000
     6  O    2.546528   2.400007   3.091816   3.091797   1.228972
     7  N    3.352357   2.439786   2.714931   2.714919   1.335028
     8  H    3.630928   2.572832   2.601136   2.601169   2.037294
     9  C    4.604538   3.809402   4.098093   4.098127   2.434398
    10  H    5.377883   4.487911   4.554159   4.750703   3.270937
    11  C    4.821484   4.293064   4.597940   4.865520   2.797197
    12  H    4.371055   4.047558   4.559309   4.637863   2.565861
    13  H    5.892321   5.366138   5.670459   5.884917   3.857052
    14  H    4.754819   4.259999   4.338512   5.003058   2.932613
    15  C    5.299019   4.567084   5.098540   4.576184   3.256308
    16  O    4.932997   4.284347   5.005188   4.076325   3.201079
    17  N    6.606441   5.879547   6.355108   5.901386   4.524188
    18  H    7.059740   6.308358   6.652891   6.448986   4.904167
    19  C    7.592435   6.919622   7.507052   6.794805   5.642707
    20  H    7.238978   6.621457   7.317100   6.372641   5.472260
    21  H    8.349130   7.590292   8.095882   7.395328   6.377046
    22  H    8.155869   7.573817   8.195166   7.543127   6.214632
                    6          7          8          9         10
     6  O    0.000000
     7  N    2.252780   0.000000
     8  H    3.150008   1.009970   0.000000
     9  C    2.775347   1.448978   2.120913   0.000000
    10  H    3.751463   2.083739   2.345495   1.089970   0.000000
    11  C    2.507126   2.452791   3.336565   1.525027   2.139209
    12  H    1.846634   2.702720   3.700237   2.150225   3.041326
    13  H    3.500941   3.386959   4.192575   2.150214   2.459625
    14  H    2.721346   2.702673   3.479332   2.150165   2.466256
    15  C    3.436026   2.450234   2.987293   1.522008   2.136554
    16  O    3.406421   2.701468   3.164238   2.392836   3.157379
    17  N    4.583359   3.653285   4.116372   2.432762   2.612274
    18  H    4.948668   3.955346   4.403003   2.567973   2.422896
    19  C    5.637918   4.872051   5.280377   3.801879   4.020943
    20  H    5.484791   4.842390   5.230571   4.034014   4.445625
    21  H    6.513841   5.453932   5.699025   4.396970   4.378932
    22  H    6.009346   5.566917   6.098842   4.396940   4.663771
                   11         12         13         14         15
    11  C    0.000000
    12  H    1.089957   0.000000
    13  H    1.090023   1.779613   0.000000
    14  H    1.089925   1.779613   1.779617   0.000000
    15  C    2.461892   2.701161   2.668599   3.416575   0.000000
    16  O    3.308710   3.196187   3.685629   4.243671   1.228995
    17  N    3.034763   3.428531   2.726989   4.002665   1.335026
    18  H    2.941795   3.578674   2.382082   3.766008   2.037315
    19  C    4.356298   4.550685   3.970895   5.377690   2.434389
    20  H    4.696792   4.694754   4.519405   5.751749   2.520589
    21  H    5.114742   5.456393   4.695041   6.064587   3.137963
    22  H    4.606102   4.712225   4.032156   5.635594   3.137948
                   16         17         18         19         20
    16  O    0.000000
    17  N    2.252826   0.000000
    18  H    3.150046   1.009922   0.000000
    19  C    2.775353   1.449020   2.120889   0.000000
    20  H    2.337458   2.083859   2.986284   1.090006   0.000000
    21  H    3.519220   2.083801   2.484272   1.090007   1.779627
    22  H    3.519220   2.083796   2.484218   1.090018   1.779672
                   21         22
    21  H    0.000000
    22  H    1.779655   0.000000
 Stoichiometry    C6H12N2O2
 Framework group  C1[X(C6H12N2O2)]
 Deg. of freedom    60
 Full point group                 C1      NOp   1
 Largest Abelian subgroup         C1      NOp   1
 Largest concise Abelian subgroup C1      NOp   1
                         Standard orientation:                         
 ---------------------------------------------------------------------
 Center     Atomic      Atomic             Coordinates (Angstroms)
 Number     Number       Type             X           Y           Z
 ---------------------------------------------------------------------
      1          1           0        4.002085   -0.879526   -0.697528
      2          6           0        3.324640   -0.919162    0.155433
      3          1           0        3.819344   -0.502282    1.032739
      4          1           0        3.048235   -1.954891    0.352805
      5          6           0        2.050673   -0.116198   -0.115172
      6          8           0        1.896500    0.466845   -1.185997
      7          7           0        1.141230   -0.090757    0.861847
      8          1           0        1.313419   -0.586101    1.724995
      9          6           0       -0.106214    0.634175    0.728080
     10          1           0       -0.433959    0.978430    1.708950
     11          6           0        0.057815    1.845463   -0.183833
     12          1           0        0.376887    1.515967   -1.172585
     13          1           0       -0.893885    2.370503   -0.265982
     14          1           0        0.807642    2.516834    0.234447
     15          6           0       -1.193223   -0.250769    0.134958
     16          8           0       -0.903641   -1.312190   -0.412724
     17          7           0       -2.448758    0.189376    0.245408
     18          1           0       -2.637000    1.068982    0.704539
     19          6           0       -3.572087   -0.561235   -0.278401
     20          1           0       -3.211813   -1.480005   -0.741194
     21          1           0       -4.255383   -0.808095    0.534177
     22          1           0       -4.095371    0.038968   -1.022760
 ---------------------------------------------------------------------
 Rotational constants (GHZ):      2.9230677      0.7443326      0.6835632
 Standard basis: 6-31G(d) (6D, 7F)
 There are   174 symmetry adapted basis functions of A   symmetry.
 Integral buffers will be    131072 words long.
 Raffenetti 1 integral format.
 Two-electron integral symmetry is turned on.
   174 basis functions,   328 primitive gaussians,   174 cartesian basis functions
    39 alpha electrons       39 beta electrons
       nuclear repulsion energy       565.7732731290 Hartrees.
 NAtoms=   22 NActive=   22 NUniq=   22 SFac= 7.50D-01 NAtFMM=   80 NAOKFM=F Big=F
 One-electron integrals computed using PRISM.
 NBasis=   174 RedAO= T  NBF=   174
 NBsUse=   174 1.00D-06 NBFU=   174
 Harris functional with IExCor=  205 diagonalized for initial guess.
 ExpMin= 1.61D-01 ExpMax= 5.48D+03 ExpMxC= 8.25D+02 IAcc=1 IRadAn=         1 AccDes= 0.00D+00
 HarFok:  IExCor=  205 AccDes= 0.00D+00 IRadAn=         1 IDoV= 1
 ScaDFX=  1.000000  1.000000  1.000000  1.000000
 FoFCou: FMM=F IPFlag=           0 FMFlag=      100000 FMFlg1=           0
         NFxFlg=           0 DoJE=T BraDBF=F KetDBF=T FulRan=T
         Omega=  0.000000  0.000000  1.000000  0.000000  0.000000 ICntrl=     500 IOpCl=  0
         NMat0=    1 NMatS0=    1 NMatT0=    0 NMatD0=    1 NMtDS0=    0 NMtDT0=    0
         I1Cent=           4 NGrid=           0.
 Petite list used in FoFCou.
 Initial guess orbital symmetries:
       Occupied  (A) (A) (A) (A) (A) (A) (A) (A) (A) (A) (A) (A)
                 (A) (A) (A) (A) (A) (A) (A) (A) (A) (A) (A) (A)
                 (A) (A) (A) (A) (A) (A) (A) (A) (A) (A) (A) (A)
                 (A) (A) (A)
       Virtual   (A) (A) (A) (A) (A) (A) (A) (A) (A) (A) (A) (A)
                 (A) (A) (A) (A) (A) (A) (A) (A) (A) (A) (A) (A)
                 (A) (A) (A) (A) (A) (A) (A) (A) (A) (A) (A) (A)
                 (A) (A) (A) (A) (A) (A) (A) (A) (A) (A) (A) (A)
                 (A) (A) (A) (A) (A) (A) (A) (A) (A) (A) (A) (A)
                 (A) (A) (A) (A) (A) (A) (A) (A) (A) (A) (A) (A)
                 (A) (A) (A) (A) (A) (A) (A) (A) (A) (A) (A) (A)
                 (A) (A) (A) (A) (A) (A) (A) (A) (A) (A) (A) (A)
                 (A) (A) (A) (A) (A) (A) (A) (A) (A) (A) (A) (A)
                 (A) (A) (A) (A) (A) (A) (A) (A) (A) (A) (A) (A)
                 (A) (A) (A) (A) (A) (A) (A) (A) (A) (A) (A) (A)
                 (A) (A) (A)
 The electronic state of the initial guess is 1-A.
 Requested convergence on RMS density matrix=1.00D-08 within 128 cycles.
 Requested convergence on MAX density matrix=1.00D-06.
 Requested convergence on             energy=1.00D-06.
 No special actions if energy rises.
 Integral accuracy reduced to 1.0D-05 until final iterations.
 Initial convergence to 1.0D-05 achieved.  Increase integral accuracy.
 SCF Done:  E(RHF) =  -492.827236463     A.U. after   15 cycles
             Convg  =    0.3280D-08             -V/T =  2.0018

 **********************************************************************

            Population analysis using the SCF density.

 **********************************************************************

 Orbital symmetries:
       Occupied  (A) (A) (A) (A) (A) (A) (A) (A) (A) (A) (A) (A)
                 (A) (A) (A) (A) (A) (A) (A) (A) (A) (A) (A) (A)
                 (A) (A) (A) (A) (A) (A) (A) (A) (A) (A) (A) (A)
                 (A) (A) (A)
       Virtual   (A) (A) (A) (A) (A) (A) (A) (A) (A) (A) (A) (A)
                 (A) (A) (A) (A) (A) (A) (A) (A) (A) (A) (A) (A)
                 (A) (A) (A) (A) (A) (A) (A) (A) (A) (A) (A) (A)
                 (A) (A) (A) (A) (A) (A) (A) (A) (A) (A) (A) (A)
                 (A) (A) (A) (A) (A) (A) (A) (A) (A) (A) (A) (A)
                 (A) (A) (A) (A) (A) (A) (A) (A) (A) (A) (A) (A)
                 (A) (A) (A) (A) (A) (A) (A) (A) (A) (A) (A) (A)
                 (A) (A) (A) (A) (A) (A) (A) (A) (A) (A) (A) (A)
                 (A) (A) (A) (A) (A) (A) (A) (A) (A) (A) (A) (A)
                 (A) (A) (A) (A) (A) (A) (A) (A) (A) (A) (A) (A)
                 (A) (A) (A) (A) (A) (A) (A) (A) (A) (A) (A) (A)
                 (A) (A) (A)
 The electronic state is 1-A.
 Alpha  occ. eigenvalues --  -20.51168 -20.50559 -15.59186 -15.58993 -11.34543
 Alpha  occ. eigenvalues --  -11.34045 -11.28338 -11.25936 -11.23031 -11.20563
 Alpha  occ. eigenvalues --   -1.37599  -1.36331  -1.23543  -1.23269  -1.05701
 Alpha  occ. eigenvalues --   -0.98431  -0.95200  -0.87884  -0.80084  -0.77700
 Alpha  occ. eigenvalues --   -0.71928  -0.70279  -0.64739  -0.62816  -0.61970
 Alpha  occ. eigenvalues --   -0.61258  -0.58812  -0.57112  -0.55903  -0.55431
 Alpha  occ. eigenvalues --   -0.54867  -0.53548  -0.52329  -0.50173  -0.49327
 Alpha  occ. eigenvalues --   -0.41602  -0.39137  -0.38438  -0.38021
 Alpha virt. eigenvalues --    0.19602   0.20440   0.21378   0.22448   0.26713
 Alpha virt. eigenvalues --    0.27182   0.29874   0.30808   0.31467   0.32354
 Alpha virt. eigenvalues --    0.32441   0.33603   0.34495   0.36232   0.37026
 Alpha virt. eigenvalues --    0.37705   0.42002   0.42902   0.49865   0.51230
 Alpha virt. eigenvalues --    0.55651   0.59602   0.60834   0.72146   0.72611
 Alpha virt. eigenvalues --    0.73594   0.75651   0.77345   0.78267   0.79900
 Alpha virt. eigenvalues --    0.80782   0.82227   0.83521   0.86714   0.90460
 Alpha virt. eigenvalues --    0.93350   0.95527   0.96267   0.97842   0.98443
 Alpha virt. eigenvalues --    1.01225   1.02411   1.04567   1.05302   1.08316
 Alpha virt. eigenvalues --    1.12924   1.13614   1.13929   1.15335   1.16261
 Alpha virt. eigenvalues --    1.16612   1.17780   1.18361   1.20010   1.21223
 Alpha virt. eigenvalues --    1.22202   1.22372   1.23843   1.25181   1.29199
 Alpha virt. eigenvalues --    1.33251   1.34086   1.37779   1.39382   1.41959
 Alpha virt. eigenvalues --    1.52143   1.56061   1.57789   1.59978   1.61513
 Alpha virt. eigenvalues --    1.65226   1.67419   1.70060   1.74485   1.78407
 Alpha virt. eigenvalues --    1.81149   1.83764   1.89160   1.93306   1.97114
 Alpha virt. eigenvalues --    2.03416   2.05784   2.10201   2.10566   2.13592
 Alpha virt. eigenvalues --    2.14636   2.15480   2.18062   2.19888   2.22682
 Alpha virt. eigenvalues --    2.25411   2.27704   2.29625   2.32794   2.35706
 Alpha virt. eigenvalues --    2.39525   2.39686   2.44759   2.45966   2.48645
 Alpha virt. eigenvalues --    2.52743   2.56236   2.59148   2.62521   2.64021
 Alpha virt. eigenvalues --    2.64503   2.66599   2.70447   2.74697   2.75818
 Alpha virt. eigenvalues --    2.79876   2.80539   2.89470   2.95325   2.99517
 Alpha virt. eigenvalues --    3.00925   3.03105   3.07534   3.15274   3.26565
 Alpha virt. eigenvalues --    3.30653   3.37632   3.41566   3.54804   3.57049
 Alpha virt. eigenvalues --    4.35332   4.44199   4.52206   4.55133   4.65343
 Alpha virt. eigenvalues --    4.67672   4.75734   4.84223   4.92852   5.05986
          Condensed to atoms (all electrons):
              1          2          3          4          5          6
     1  H    0.454929   0.385395  -0.019026  -0.017624  -0.029907   0.003724
     2  C    0.385395   5.251695   0.371848   0.375593   0.377397  -0.064701
     3  H   -0.019026   0.371848   0.526778  -0.024437  -0.036344   0.001224
     4  H   -0.017624   0.375593  -0.024437   0.502614  -0.034519   0.000957
     5  C   -0.029907   0.377397  -0.036344  -0.034519   4.165707   0.573614
     6  O    0.003724  -0.064701   0.001224   0.000957   0.573614   8.278526
     7  N    0.003728  -0.119210   0.004092   0.003482   0.257652  -0.099421
     8  H   -0.000022  -0.000672   0.000473   0.000486  -0.017547   0.002498
     9  C   -0.000059   0.003047  -0.000038  -0.000209  -0.035814   0.006609
    10  H    0.000001  -0.000051   0.000006  -0.000001   0.002494  -0.000024
    11  C    0.000006  -0.000511  -0.000003   0.000015  -0.003948  -0.051237
    12  H    0.000008   0.000228   0.000000  -0.000014  -0.002835  -0.005948
    13  H    0.000000   0.000018  -0.000001   0.000000   0.000566   0.002335
    14  H    0.000002  -0.000113   0.000010   0.000000  -0.000211  -0.001817
    15  C    0.000000  -0.000151   0.000006   0.000012   0.000389  -0.000200
    16  O    0.000000  -0.000052   0.000000   0.000098   0.008329  -0.001071
    17  N    0.000000   0.000001   0.000000   0.000000   0.000243   0.000004
    18  H    0.000000   0.000000   0.000000   0.000000  -0.000013   0.000000
    19  C    0.000000   0.000000   0.000000   0.000000  -0.000001   0.000000
    20  H    0.000000   0.000000   0.000000   0.000000  -0.000002   0.000000
    21  H    0.000000   0.000000   0.000000   0.000000   0.000000   0.000000
    22  H    0.000000   0.000000   0.000000   0.000000   0.000000   0.000000
              7          8          9         10         11         12
     1  H    0.003728  -0.000022  -0.000059   0.000001   0.000006   0.000008
     2  C   -0.119210  -0.000672   0.003047  -0.000051  -0.000511   0.000228
     3  H    0.004092   0.000473  -0.000038   0.000006  -0.000003   0.000000
     4  H    0.003482   0.000486  -0.000209  -0.000001   0.000015  -0.000014
     5  C    0.257652  -0.017547  -0.035814   0.002494  -0.003948  -0.002835
     6  O   -0.099421   0.002498   0.006609  -0.000024  -0.051237  -0.005948
     7  N    7.333561   0.326681   0.223946  -0.041643  -0.046819  -0.001502
     8  H    0.326681   0.320829  -0.023817  -0.002656   0.002877  -0.000160
     9  C    0.223946  -0.023817   5.073409   0.414471   0.336118  -0.031252
    10  H   -0.041643  -0.002656   0.414471   0.527117  -0.034645   0.003415
    11  C   -0.046819   0.002877   0.336118  -0.034645   5.210674   0.394784
    12  H   -0.001502  -0.000160  -0.031252   0.003415   0.394784   0.400428
    13  H    0.004130  -0.000080  -0.039827  -0.003018   0.370157  -0.023103
    14  H   -0.000388  -0.000077  -0.039935  -0.004027   0.392359  -0.016375
    15  C   -0.070455   0.000898   0.352584  -0.052714  -0.061184  -0.002551
    16  O   -0.003921   0.000526  -0.079202   0.001849  -0.001251   0.001247
    17  N    0.002252  -0.000031  -0.118967   0.005445   0.001122   0.000171
    18  H    0.000062  -0.000003   0.001277   0.001145   0.000558   0.000001
    19  C   -0.000102   0.000001   0.003741  -0.000244  -0.000221  -0.000003
    20  H   -0.000010   0.000000   0.000612  -0.000024  -0.000037  -0.000002
    21  H    0.000003   0.000000  -0.000075   0.000000  -0.000004   0.000000
    22  H    0.000000   0.000000  -0.000035  -0.000001   0.000031   0.000001
             13         14         15         16         17         18
     1  H    0.000000   0.000002   0.000000   0.000000   0.000000   0.000000
     2  C    0.000018  -0.000113  -0.000151  -0.000052   0.000001   0.000000
     3  H   -0.000001   0.000010   0.000006   0.000000   0.000000   0.000000
     4  H    0.000000   0.000000   0.000012   0.000098   0.000000   0.000000
     5  C    0.000566  -0.000211   0.000389   0.008329   0.000243  -0.000013
     6  O    0.002335  -0.001817  -0.000200  -0.001071   0.000004   0.000000
     7  N    0.004130  -0.000388  -0.070455  -0.003921   0.002252   0.000062
     8  H   -0.000080  -0.000077   0.000898   0.000526  -0.000031  -0.000003
     9  C   -0.039827  -0.039935   0.352584  -0.079202  -0.118967   0.001277
    10  H   -0.003018  -0.004027  -0.052714   0.001849   0.005445   0.001145
    11  C    0.370157   0.392359  -0.061184  -0.001251   0.001122   0.000558
    12  H   -0.023103  -0.016375  -0.002551   0.001247   0.000171   0.000001
    13  H    0.578638  -0.024737  -0.005152  -0.000008   0.001966   0.001265
    14  H   -0.024737   0.519575   0.005363  -0.000075  -0.000043  -0.000065
    15  C   -0.005152   0.005363   4.220293   0.609422   0.265457  -0.021673
    16  O   -0.000008  -0.000075   0.609422   8.191594  -0.099982   0.002407
    17  N    0.001966  -0.000043   0.265457  -0.099982   7.348904   0.324620
    18  H    0.001265  -0.000065  -0.021673   0.002407   0.324620   0.327997
    19  C   -0.000002   0.000005  -0.025680  -0.005268   0.188251  -0.022729
    20  H   -0.000004   0.000000  -0.001867   0.011084  -0.031757   0.002326
    21  H    0.000003   0.000000   0.000453   0.000381  -0.048061  -0.001257
    22  H   -0.000012  -0.000001   0.001418   0.000377  -0.048369  -0.000832
             19         20         21         22
     1  H    0.000000   0.000000   0.000000   0.000000
     2  C    0.000000   0.000000   0.000000   0.000000
     3  H    0.000000   0.000000   0.000000   0.000000
     4  H    0.000000   0.000000   0.000000   0.000000
     5  C   -0.000001  -0.000002   0.000000   0.000000
     6  O    0.000000   0.000000   0.000000   0.000000
     7  N   -0.000102  -0.000010   0.000003   0.000000
     8  H    0.000001   0.000000   0.000000   0.000000
     9  C    0.003741   0.000612  -0.000075  -0.000035
    10  H   -0.000244  -0.000024   0.000000  -0.000001
    11  C   -0.000221  -0.000037  -0.000004   0.000031
    12  H   -0.000003  -0.000002   0.000000   0.000001
    13  H   -0.000002  -0.000004   0.000003  -0.000012
    14  H    0.000005   0.000000   0.000000  -0.000001
    15  C   -0.025680  -0.001867   0.000453   0.001418
    16  O   -0.005268   0.011084   0.000381   0.000377
    17  N    0.188251  -0.031757  -0.048061  -0.048369
    18  H   -0.022729   0.002326  -0.001257  -0.000832
    19  C    4.950192   0.396225   0.402449   0.402720
    20  H    0.396225   0.428941  -0.022526  -0.022180
    21  H    0.402449  -0.022526   0.539383  -0.037147
    22  H    0.402720  -0.022180  -0.037147   0.532806
 Mulliken atomic charges:
              1
     1  H    0.218846
     2  C   -0.579761
     3  H    0.175413
     4  H    0.193548
     5  C    0.774750
     6  O   -0.645072
     7  N   -0.776120
     8  H    0.389797
     9  C   -0.046585
    10  H    0.183106
    11  C   -0.508842
    12  H    0.283464
    13  H    0.136866
    14  H    0.170547
    15  C    0.785333
    16  O   -0.636483
    17  N   -0.791226
    18  H    0.384914
    19  C   -0.289334
    20  H    0.239220
    21  H    0.166398
    22  H    0.171223
 Sum of Mulliken atomic charges =   0.00000
 Mulliken charges with hydrogens summed into heavy atoms:
              1
     2  C    0.008046
     5  C    0.774750
     6  O   -0.645072
     7  N   -0.386323
     9  C    0.136522
    11  C    0.082035
    15  C    0.785333
    16  O   -0.636483
    17  N   -0.406312
    19  C    0.287506
 Sum of Mulliken charges with hydrogens summed into heavy atoms =   0.00000
 Electronic spatial extent (au):  <R**2>=           1781.2405
 Charge=              0.0000 electrons
 Dipole moment (field-independent basis, Debye):
    X=             -1.7510    Y=              1.3748    Z=              4.8966  Tot=              5.3789
 Quadrupole moment (field-independent basis, Debye-Ang):
   XX=            -48.3635   YY=            -62.7224   ZZ=            -60.6652
   XY=             -7.0195   XZ=              4.6766   YZ=              0.2307
 Traceless Quadrupole moment (field-independent basis, Debye-Ang):
   XX=              8.8869   YY=             -5.4721   ZZ=             -3.4148
   XY=             -7.0195   XZ=              4.6766   YZ=              0.2307
 Octapole moment (field-independent basis, Debye-Ang**2):
  XXX=            -19.2661  YYY=              0.8296  ZZZ=              9.0084  XYY=             -0.0707
  XXY=             -8.8303  XXZ=              9.9676  XZZ=             -4.4732  YZZ=             -3.3644
  YYZ=              3.2783  XYZ=             -0.6524
 Hexadecapole moment (field-independent basis, Debye-Ang**3):
 XXXX=          -1575.3001 YYYY=           -394.0904 ZZZZ=           -192.2262 XXXY=            -16.9224
 XXXZ=              9.2043 YYYX=             -4.1347 YYYZ=              0.6345 ZZZX=             10.9746
 ZZZY=             -2.7415 XXYY=           -338.8226 XXZZ=           -325.3238 YYZZ=            -96.4617
 XXYZ=             15.8525 YYXZ=             -2.8996 ZZXY=             -7.7330
 N-N= 5.657732731290D+02 E-N=-2.287338899992D+03  KE= 4.919337732393D+02
 Calling FoFJK, ICntrl=      2127 FMM=F ISym2X=0 I1Cent= 0 IOpClX= 0 NMat=1 NMatS=1 NMatT=0.
 ***** Axes restored to original set *****
 -------------------------------------------------------------------
 Center     Atomic                   Forces (Hartrees/Bohr)
 Number     Number              X              Y              Z
 -------------------------------------------------------------------
      1        1           0.006865656    0.003356612    0.005848414
      2        6           0.008003076    0.003246683    0.004896099
      3        1          -0.004446151    0.002309936   -0.000419013
      4        1           0.000117329   -0.004683696   -0.000888759
      5        6          -0.008100977    0.003430180   -0.057627521
      6        8          -0.043570454   -0.015329958    0.033266752
      7        7           0.011228758   -0.006648705    0.024276622
      8        1           0.003946555    0.005702049   -0.015075922
      9        6           0.002002168    0.002164083   -0.003093515
     10        1          -0.005651386   -0.001181233   -0.000559226
     11        6           0.018750595    0.003995622   -0.009273652
     12        1           0.019156256   -0.003547186    0.012563385
     13        1           0.000106632   -0.005358896    0.002940121
     14        1           0.000952477    0.004890690   -0.002895299
     15        6          -0.057811975    0.016409530   -0.007299665
     16        8           0.039363322   -0.016518913    0.010550691
     17        7           0.015320752    0.000014254    0.005377248
     18        1          -0.013684726    0.006693586   -0.003513530
     19        6           0.002867221    0.003585710   -0.000310326
     20        1           0.008762722   -0.005531509    0.002091156
     21        1          -0.000876050    0.001460890   -0.004545980
     22        1          -0.003301801    0.001540269    0.003691918
 -------------------------------------------------------------------
 Cartesian Forces:  Max     0.057811975 RMS     0.015233502

 GradGradGradGradGradGradGradGradGradGradGradGradGradGradGradGradGradGrad
 Berny optimization.
 Internal  Forces:  Max     0.095754423 RMS     0.018181293
 Search for a local minimum.
 Step number   1 out of a maximum of  108
 All quantities printed in internal units (Hartrees-Bohrs-Radians)
 Mixed Optimization -- RFO/linear search
 Second derivative matrix not updated -- first step.
     Eigenvalues ---    0.00369   0.00435   0.00999   0.01043   0.01269
     Eigenvalues ---    0.01422   0.01660   0.02551   0.02551   0.03503
     Eigenvalues ---    0.05232   0.05841   0.05844   0.05844   0.07165
     Eigenvalues ---    0.07464   0.07685   0.07685   0.15421   0.16000
     Eigenvalues ---    0.16000   0.16000   0.16000   0.16000   0.16000
     Eigenvalues ---    0.16000   0.16000   0.16000   0.16000   0.16000
     Eigenvalues ---    0.16180   0.22000   0.22000   0.25000   0.25000
     Eigenvalues ---    0.25000   0.25000   0.29421   0.29887   0.30174
     Eigenvalues ---    0.34808   0.34810   0.34811   0.34812   0.34812
     Eigenvalues ---    0.34813   0.34816   0.34816   0.34818   0.34821
     Eigenvalues ---    0.38374   0.38379   0.45978   0.45986   0.58334
     Eigenvalues ---    0.58334   0.91506   0.915161000.000001000.00000
     Eigenvalues --- 1000.000001000.000001000.000001000.000001000.00000
     Eigenvalues --- 1000.000001000.000001000.000001000.000001000.00000
     Eigenvalues --- 1000.000001000.000001000.000001000.000001000.00000
     Eigenvalues --- 1000.000001000.000001000.000001000.000001000.00000
     Eigenvalues --- 1000.000001000.000001000.000001000.000001000.00000
     Eigenvalues --- 1000.000001000.000001000.000001000.000001000.00000
     Eigenvalues --- 1000.000001000.000001000.000001000.000001000.00000
     Eigenvalues --- 1000.000001000.000001000.00000
 RFO step:  Lambda=-9.41248329D-02 EMin= 3.68804035D-03
 Linear search not attempted -- first point.
 Maximum step size (   0.300) exceeded in Quadratic search.
    -- Step size scaled by   0.504
 Iteration  1 RMS(Cart)=  0.15879758 RMS(Int)=  0.00712607
 Iteration  2 RMS(Cart)=  0.01208964 RMS(Int)=  0.00028751
 Iteration  3 RMS(Cart)=  0.00007376 RMS(Int)=  0.00028566
 Iteration  4 RMS(Cart)=  0.00000003 RMS(Int)=  0.00028566
 Iteration  1 RMS(Cart)=  0.00011190 RMS(Int)=  0.00003491
 Iteration  2 RMS(Cart)=  0.00005955 RMS(Int)=  0.00003901
 Iteration  3 RMS(Cart)=  0.00003178 RMS(Int)=  0.00004392
 Iteration  4 RMS(Cart)=  0.00001703 RMS(Int)=  0.00004705
 Iteration  5 RMS(Cart)=  0.00000918 RMS(Int)=  0.00004884
 Iteration  6 RMS(Cart)=  0.00000498 RMS(Int)=  0.00004983
 Iteration  7 RMS(Cart)=  0.00000273 RMS(Int)=  0.00005036
 Iteration  8 RMS(Cart)=  0.00000152 RMS(Int)=  0.00005065
 Iteration  9 RMS(Cart)=  0.00000086 RMS(Int)=  0.00005081
 Variable       Old X    -DE/DX   Delta X   Delta X   Delta X     New X
                                 (Linear)    (Quad)   (Total)
    R1        2.05975  -0.00864   0.00000  -0.00984  -0.00984   2.04992
    R2        2.05988  -0.00271   0.00000  -0.00308  -0.00308   2.05679
    R3        2.05979  -0.00338   0.00000  -0.00385  -0.00385   2.05595
    R4        2.89132  -0.01040   0.00000  -0.01349  -0.01349   2.87783
    R5        2.32242  -0.04962   0.00000  -0.02477  -0.02477   2.29765
    R6        2.52284   0.03394   0.00000   0.02524   0.02524   2.54808
    R7        1.90857  -0.01616   0.00000  -0.01470  -0.01470   1.89387
    R8        2.73817   0.02708   0.00000   0.02855   0.02855   2.76672
    R9        2.05975  -0.00301   0.00000  -0.00343  -0.00343   2.05632
   R10        2.88188   0.01796   0.00000   0.02302   0.02302   2.90490
   R11        2.87618   0.00849   0.00000   0.01080   0.01080   2.88698
   R12        2.05972  -0.02080   0.00000  -0.02369  -0.02369   2.03603
   R13        2.05984  -0.00228   0.00000  -0.00260  -0.00260   2.05724
   R14        2.05966  -0.00469   0.00000  -0.00534  -0.00534   2.05432
   R15        2.32246  -0.04390   0.00000  -0.02191  -0.02191   2.30055
   R16        2.52283   0.01217   0.00000   0.00905   0.00905   2.53188
   R17        1.90848  -0.01561   0.00000  -0.01420  -0.01420   1.89428
   R18        2.73825   0.00105   0.00000   0.00111   0.00111   2.73936
   R19        2.05981  -0.01034   0.00000  -0.01178  -0.01178   2.04803
   R20        2.05982  -0.00393   0.00000  -0.00448  -0.00448   2.05534
   R21        2.05984  -0.00409   0.00000  -0.00466  -0.00466   2.05518
    A1        1.91118   0.00041   0.00000   0.00056   0.00061   1.91179
    A2        1.91120   0.00077   0.00000   0.00090   0.00093   1.91212
    A3        1.93909  -0.00815   0.00000  -0.01660  -0.01656   1.92252
    A4        1.91002  -0.00422   0.00000  -0.00743  -0.00751   1.90250
    A5        1.89603   0.00640   0.00000   0.01299   0.01298   1.90900
    A6        1.89606   0.00484   0.00000   0.00971   0.00968   1.90574
    A7        2.10312  -0.01596   0.00000  -0.02337  -0.02338   2.07973
    A8        2.03507  -0.03151   0.00000  -0.04613  -0.04614   1.98894
    A9        2.14499   0.04747   0.00000   0.06950   0.06948   2.21448
   A10        2.09435  -0.04954   0.00000  -0.08009  -0.08013   2.01422
   A11        2.12756   0.09575   0.00000   0.15357   0.15353   2.28109
   A12        2.06128  -0.04621   0.00000  -0.07348  -0.07353   1.98775
   A13        1.91114  -0.01710   0.00000  -0.03212  -0.03160   1.87954
   A14        1.93905   0.05019   0.00000   0.09078   0.09132   2.03037
   A15        1.93900  -0.01883   0.00000  -0.02326  -0.02497   1.91403
   A16        1.89609  -0.01774   0.00000  -0.04244  -0.04174   1.85436
   A17        1.89608   0.00927   0.00000   0.00370   0.00292   1.89900
   A18        1.88137  -0.00633   0.00000   0.00172   0.00120   1.88258
   A19        1.91115   0.01276   0.00000   0.02716   0.02707   1.93821
   A20        1.91106  -0.00405   0.00000  -0.00985  -0.00982   1.90125
   A21        1.91110   0.00310   0.00000   0.00612   0.00599   1.91709
   A22        1.91011  -0.00428   0.00000  -0.00841  -0.00836   1.90175
   A23        1.91023  -0.00451   0.00000  -0.00531  -0.00554   1.90469
   A24        1.91015  -0.00304   0.00000  -0.00974  -0.00974   1.90041
   A25        2.10312   0.00644   0.00000   0.00943   0.00923   2.11234
   A26        2.03503  -0.00696   0.00000  -0.01019  -0.01038   2.02465
   A27        2.14504   0.00052   0.00000   0.00076   0.00058   2.14562
   A28        2.09446  -0.00436   0.00000  -0.00728  -0.00728   2.08718
   A29        2.12749   0.00720   0.00000   0.01154   0.01154   2.13903
   A30        2.06124  -0.00284   0.00000  -0.00426  -0.00426   2.05697
   A31        1.91122  -0.00491   0.00000  -0.01024  -0.01022   1.90100
   A32        1.91113   0.00413   0.00000   0.00843   0.00841   1.91955
   A33        1.91111   0.00473   0.00000   0.00963   0.00961   1.92072
   A34        1.91008  -0.00028   0.00000  -0.00108  -0.00106   1.90902
   A35        1.91014  -0.00056   0.00000  -0.00160  -0.00158   1.90856
   A36        1.91011  -0.00311   0.00000  -0.00515  -0.00521   1.90491
    D1        0.00004   0.00088   0.00000   0.00452   0.00440   0.00444
    D2        3.14159  -0.00108   0.00000  -0.00476  -0.00463   3.13696
    D3        2.10342   0.00048   0.00000   0.00334   0.00317   2.10659
    D4       -1.03822  -0.00148   0.00000  -0.00593  -0.00586  -1.04408
    D5       -2.10339   0.00184   0.00000   0.00740   0.00733  -2.09607
    D6        1.03816  -0.00012   0.00000  -0.00187  -0.00170   1.03645
    D7        0.00010  -0.00489   0.00000  -0.01690  -0.01664  -0.01654
    D8        3.14153   0.00105   0.00000   0.00176   0.00184  -3.13982
    D9       -3.14154  -0.00691   0.00000  -0.02642  -0.02650   3.11514
   D10       -0.00011  -0.00097   0.00000  -0.00776  -0.00802  -0.00813
   D11       -2.61795  -0.01129   0.00000  -0.03096  -0.03058  -2.64853
   D12       -0.52351  -0.01277   0.00000  -0.04729  -0.04728  -0.57079
   D13        1.57085   0.00019   0.00000   0.00000   0.00000   1.57085
   D14        0.52349  -0.00545   0.00000  -0.01263  -0.01233   0.51116
   D15        2.61793  -0.00694   0.00000  -0.02897  -0.02902   2.58890
   D16       -1.57091   0.00602   0.00000   0.01832   0.01826  -1.55265
   D17        1.04724   0.00564   0.00000   0.03071   0.03152   1.07876
   D18        3.14157   0.00574   0.00000   0.03102   0.03173  -3.10989
   D19       -1.04726   0.00143   0.00000   0.01680   0.01747  -1.02979
   D20       -3.13259   0.00407   0.00000   0.01970   0.01952  -3.11307
   D21       -1.03826   0.00416   0.00000   0.02000   0.01973  -1.01853
   D22        1.05609  -0.00014   0.00000   0.00579   0.00547   1.06156
   D23       -1.08102   0.00203   0.00000   0.00220   0.00180  -1.07922
   D24        1.01331   0.00213   0.00000   0.00250   0.00201   1.01532
   D25        3.10766  -0.00218   0.00000  -0.01171  -0.01225   3.09541
   D26       -0.26182  -0.02435   0.00000  -0.03543  -0.03534  -0.29717
   D27        2.87976  -0.02416   0.00000   0.00000   0.00000   2.87976
   D28       -2.36514   0.00247   0.00000   0.01632   0.01628  -2.34886
   D29        0.77644   0.00266   0.00000   0.05175   0.05163   0.82807
   D30        1.86647   0.02197   0.00000   0.06366   0.06332   1.92979
   D31       -1.27514   0.02216   0.00000   0.09909   0.09867  -1.17647
   D32        0.00006  -0.00038   0.00000  -0.01929  -0.01916  -0.01909
   D33        3.14157  -0.00080   0.00000  -0.02119  -0.02105   3.12052
   D34       -3.14154  -0.00018   0.00000   0.01707   0.01693  -3.12461
   D35       -0.00004  -0.00060   0.00000   0.01518   0.01504   0.01500
   D36        0.00005   0.00021   0.00000   0.00095   0.00095   0.00100
   D37        2.09443  -0.00061   0.00000  -0.00148  -0.00151   2.09292
   D38       -2.09440   0.00101   0.00000   0.00329   0.00332  -2.09107
   D39        3.14155  -0.00020   0.00000  -0.00091  -0.00091   3.14064
   D40       -1.04725  -0.00102   0.00000  -0.00334  -0.00337  -1.05062
   D41        1.04711   0.00060   0.00000   0.00143   0.00146   1.04857
         Item               Value     Threshold  Converged?
 Maximum Force            0.095754     0.000450     NO 
 RMS     Force            0.017937     0.000300     NO 
 Maximum Displacement     0.663743     0.001800     NO 
 RMS     Displacement     0.160854     0.001200     NO 
 Predicted change in Energy=-3.971055D-02
 GradGradGradGradGradGradGradGradGradGradGradGradGradGradGradGradGradGrad

                          Input orientation:                          
 ---------------------------------------------------------------------
 Center     Atomic      Atomic             Coordinates (Angstroms)
 Number     Number       Type             X           Y           Z
 ---------------------------------------------------------------------
      1          1           0        0.922450    2.722534   -1.782779
      2          6           0        1.470960    2.975619   -0.881774
      3          1           0        1.651321    2.073609   -0.299982
      4          1           0        0.887287    3.672210   -0.283659
      5          6           0        2.803244    3.619380   -1.241996
      6          8           0        3.088486    3.774906   -2.413652
      7          7           0        3.547858    3.971054   -0.174280
      8          1           0        3.134392    3.782886    0.719045
      9          6           0        4.864471    4.606647   -0.096204
     10          1           0        5.334168    4.281561    0.829966
     11          6           0        5.853702    4.266481   -1.222577
     12          1           0        5.474538    4.584225   -2.179714
     13          1           0        6.797082    4.774324   -1.029498
     14          1           0        6.030033    3.194067   -1.247398
     15          6           0        4.700925    6.125132   -0.058860
     16          8           0        3.656768    6.652313   -0.396315
     17          7           0        5.779275    6.822885    0.322457
     18          1           0        6.618608    6.337266    0.576459
     19          6           0        5.789785    8.271165    0.383597
     20          1           0        4.817761    8.642716    0.080811
     21          1           0        6.001112    8.598781    1.398962
     22          1           0        6.551075    8.667037   -0.284608
 ---------------------------------------------------------------------
                    Distance matrix (angstroms):
                    1          2          3          4          5
     1  H    0.000000
     2  C    1.084769   0.000000
     3  H    1.775117   1.088408   0.000000
     4  H    1.774959   1.087959   1.771875   0.000000
     5  C    2.152711   1.522882   2.145629   2.142917   0.000000
     6  O    2.489417   2.366833   3.070415   3.064750   1.215866
     7  N    3.322474   2.409346   2.685693   2.679536   1.348385
     8  H    3.503734   2.445672   2.481842   2.463158   1.995513
     9  C    4.683369   3.846205   4.096601   4.089781   2.556598
    10  H    5.359128   4.422660   4.440179   4.624524   3.337227
    11  C    5.197580   4.581583   4.829065   5.089205   3.118398
    12  H    4.934060   4.505652   4.945055   5.046748   2.990995
    13  H    6.268060   5.623588   5.857039   6.057773   4.162907
    14  H    5.157167   4.578924   4.618023   5.254070   3.254702
    15  C    5.369026   4.585771   5.076717   4.539956   3.358541
    16  O    4.984169   4.304824   4.999562   4.069857   3.262263
    17  N    6.695793   5.900272   6.323215   5.850272   4.643998
    18  H    7.146923   6.318655   6.604609   6.378901   5.025006
    19  C    7.692297   6.949549   7.483572   6.755006   5.762038
    20  H    7.327685   6.651589   7.302363   6.347235   5.571535
    21  H    8.393245   7.572582   8.024024   7.297501   6.480390
    22  H    8.322443   7.652217   8.214689   7.551609   6.359377
                    6          7          8          9         10
     6  O    0.000000
     7  N    2.294403   0.000000
     8  H    3.133043   1.002193   0.000000
     9  C    3.035866   1.464085   2.082399   0.000000
    10  H    3.977543   2.072638   2.258316   1.088158   0.000000
    11  C    3.050692   2.550122   3.376152   1.537208   2.117328
    12  H    2.530408   2.847778   3.810673   2.171106   3.028116
    13  H    4.082696   3.454576   4.177996   2.152705   2.416721
    14  H    3.217176   2.813624   3.549414   2.163138   2.445877
    15  C    3.697102   2.446004   2.923230   1.527723   2.142373
    16  O    3.559784   2.692641   3.122582   2.394444   3.152444
    17  N    4.900695   3.654984   4.048985   2.433896   2.629451
    18  H    5.288499   3.948680   4.322609   2.554313   2.437207
    19  C    5.944574   4.881436   5.225733   3.809869   4.040269
    20  H    5.736577   4.847902   5.182569   4.040218   4.455062
    21  H    6.803615   5.468949   5.645637   4.411871   4.405333
    22  H    6.360448   5.575280   6.044500   4.400784   4.685674
                   11         12         13         14         15
    11  C    0.000000
    12  H    1.077422   0.000000
    13  H    1.088646   1.763025   0.000000
    14  H    1.087097   1.763612   1.770044   0.000000
    15  C    2.477441   2.733293   2.675947   3.430785   0.000000
    16  O    3.346853   3.280516   3.713400   4.279742   1.217399
    17  N    2.987954   3.371250   2.657125   3.961772   1.339814
    18  H    2.847765   3.461003   2.248052   3.681382   2.031290
    19  C    4.315249   4.501496   3.903765   5.338050   2.446802
    20  H    4.682246   4.691767   4.484969   5.737727   2.524161
    21  H    5.065868   5.403782   4.599723   6.017889   3.151931
    22  H    4.553132   4.628144   3.970969   5.581384   3.152031
                   16         17         18         19         20
    16  O    0.000000
    17  N    2.247391   0.000000
    18  H    3.133376   1.002409   0.000000
    19  C    2.789033   1.449608   2.112844   0.000000
    20  H    2.353138   2.072362   2.967122   1.083771   0.000000
    21  H    3.536623   2.088512   2.484404   1.087638   1.771939
    22  H    3.528258   2.089283   2.484719   1.087555   1.771581
                   21         22
    21  H    0.000000
    22  H    1.772434   0.000000
 Stoichiometry    C6H12N2O2
 Framework group  C1[X(C6H12N2O2)]
 Deg. of freedom    60
 Full point group                 C1      NOp   1
 Largest Abelian subgroup         C1      NOp   1
 Largest concise Abelian subgroup C1      NOp   1
                         Standard orientation:                         
 ---------------------------------------------------------------------
 Center     Atomic      Atomic             Coordinates (Angstroms)
 Number     Number       Type             X           Y           Z
 ---------------------------------------------------------------------
      1          1           0       -4.094186   -0.977697    0.416034
      2          6           0       -3.330235   -0.925593   -0.352332
      3          1           0       -3.743223   -0.460002   -1.245248
      4          1           0       -2.993633   -1.930109   -0.599926
      5          6           0       -2.144316   -0.107745    0.141523
      6          8           0       -2.174062    0.361431    1.262825
      7          7           0       -1.143302    0.001749   -0.755206
      8          1           0       -1.290549   -0.475034   -1.624335
      9          6           0        0.145989    0.689914   -0.667446
     10          1           0        0.434265    0.981815   -1.675304
     11          6           0        0.177604    1.973549    0.177712
     12          1           0       -0.070304    1.766383    1.205555
     13          1           0        1.178082    2.400523    0.134267
     14          1           0       -0.530667    2.695421   -0.221078
     15          6           0        1.201119   -0.264128   -0.110273
     16          8           0        0.880173   -1.285759    0.468799
     17          7           0        2.476579    0.116594   -0.263087
     18          1           0        2.683326    0.975730   -0.736334
     19          6           0        3.589708   -0.667611    0.234237
     20          1           0        3.204275   -1.557971    0.717207
     21          1           0        4.238567   -0.956097   -0.589605
     22          1           0        4.163001   -0.087052    0.953306
 ---------------------------------------------------------------------
 Rotational constants (GHZ):      2.7784123      0.7143872      0.6526614
 Standard basis: 6-31G(d) (6D, 7F)
 There are   174 symmetry adapted basis functions of A   symmetry.
 Integral buffers will be    131072 words long.
 Raffenetti 1 integral format.
 Two-electron integral symmetry is turned on.
   174 basis functions,   328 primitive gaussians,   174 cartesian basis functions
    39 alpha electrons       39 beta electrons
       nuclear repulsion energy       557.6334358079 Hartrees.
 NAtoms=   22 NActive=   22 NUniq=   22 SFac= 7.50D-01 NAtFMM=   80 NAOKFM=F Big=F
 One-electron integrals computed using PRISM.
 NBasis=   174 RedAO= T  NBF=   174
 NBsUse=   174 1.00D-06 NBFU=   174
 Initial guess read from the read-write file.
 B after Tr=     0.000000    0.000000    0.000000
         Rot=    1.000000    0.000000    0.000000    0.000000 Ang=   0.00 deg.
 Initial guess orbital symmetries:
       Occupied  (A) (A) (A) (A) (A) (A) (A) (A) (A) (A) (A) (A)
                 (A) (A) (A) (A) (A) (A) (A) (A) (A) (A) (A) (A)
                 (A) (A) (A) (A) (A) (A) (A) (A) (A) (A) (A) (A)
                 (A) (A) (A)
       Virtual   (A) (A) (A) (A) (A) (A) (A) (A) (A) (A) (A) (A)
                 (A) (A) (A) (A) (A) (A) (A) (A) (A) (A) (A) (A)
                 (A) (A) (A) (A) (A) (A) (A) (A) (A) (A) (A) (A)
                 (A) (A) (A) (A) (A) (A) (A) (A) (A) (A) (A) (A)
                 (A) (A) (A) (A) (A) (A) (A) (A) (A) (A) (A) (A)
                 (A) (A) (A) (A) (A) (A) (A) (A) (A) (A) (A) (A)
                 (A) (A) (A) (A) (A) (A) (A) (A) (A) (A) (A) (A)
                 (A) (A) (A) (A) (A) (A) (A) (A) (A) (A) (A) (A)
                 (A) (A) (A) (A) (A) (A) (A) (A) (A) (A) (A) (A)
                 (A) (A) (A) (A) (A) (A) (A) (A) (A) (A) (A) (A)
                 (A) (A) (A) (A) (A) (A) (A) (A) (A) (A) (A) (A)
                 (A) (A) (A)
 Harris functional with IExCor=  205 diagonalized for initial guess.
 ExpMin= 1.61D-01 ExpMax= 5.48D+03 ExpMxC= 8.25D+02 IAcc=1 IRadAn=         1 AccDes= 0.00D+00
 HarFok:  IExCor=  205 AccDes= 0.00D+00 IRadAn=         1 IDoV= 1
 ScaDFX=  1.000000  1.000000  1.000000  1.000000
 FoFCou: FMM=F IPFlag=           0 FMFlag=      100000 FMFlg1=           0
         NFxFlg=           0 DoJE=T BraDBF=F KetDBF=T FulRan=T
         Omega=  0.000000  0.000000  1.000000  0.000000  0.000000 ICntrl=     500 IOpCl=  0
         NMat0=    1 NMatS0=    1 NMatT0=    0 NMatD0=    1 NMtDS0=    0 NMtDT0=    0
         I1Cent=           4 NGrid=           0.
 Petite list used in FoFCou.
 Requested convergence on RMS density matrix=1.00D-08 within 128 cycles.
 Requested convergence on MAX density matrix=1.00D-06.
 Requested convergence on             energy=1.00D-06.
 No special actions if energy rises.
 Integral accuracy reduced to 1.0D-05 until final iterations.
 Initial convergence to 1.0D-05 achieved.  Increase integral accuracy.
 SCF Done:  E(RHF) =  -492.841314903     A.U. after   16 cycles
             Convg  =    0.9037D-08             -V/T =  2.0019
 Calling FoFJK, ICntrl=      2127 FMM=F ISym2X=0 I1Cent= 0 IOpClX= 0 NMat=1 NMatS=1 NMatT=0.
 ***** Axes restored to original set *****
 -------------------------------------------------------------------
 Center     Atomic                   Forces (Hartrees/Bohr)
 Number     Number              X              Y              Z
 -------------------------------------------------------------------
      1        1           0.004407314    0.002082977    0.002557780
      2        6           0.004167721    0.001423225    0.005441332
      3        1          -0.003432178    0.001183178    0.000136901
      4        1          -0.000938152   -0.003209679   -0.000231157
      5        6          -0.010173455    0.003564916   -0.041207956
      6        8           0.006071695   -0.000633043    0.030967963
      7        7           0.019401530   -0.008630171    0.017068485
      8        1           0.002312753    0.003387697   -0.007374048
      9        6          -0.004876325    0.002810231   -0.008115697
     10        1          -0.006027518   -0.000001443    0.000690154
     11        6          -0.002641246   -0.006854570    0.000624706
     12        1          -0.000508005   -0.000717829   -0.001461619
     13        1          -0.002415662   -0.004137819   -0.001154882
     14        1           0.000167741    0.002776054   -0.001559932
     15        6          -0.038065535    0.012473775   -0.012876131
     16        8           0.025388931   -0.011486030    0.010986609
     17        7           0.010915232    0.002122270    0.006337869
     18        1          -0.007713374    0.004121181   -0.001542676
     19        6           0.002023109    0.000840505    0.000209489
     20        1           0.004526166   -0.002909451    0.001255467
     21        1          -0.000489801    0.000973767   -0.002655634
     22        1          -0.002100942    0.000820261    0.001902976
 -------------------------------------------------------------------
 Cartesian Forces:  Max     0.041207956 RMS     0.010236914

 GradGradGradGradGradGradGradGradGradGradGradGradGradGradGradGradGradGrad
 Berny optimization.
 Using GEDIIS/GDIIS optimizer.
 Internal  Forces:  Max     0.029795280 RMS     0.006416287
 Search for a local minimum.
 Step number   2 out of a maximum of  108
 All quantities printed in internal units (Hartrees-Bohrs-Radians)
 Mixed Optimization -- RFO/linear search
 Update second derivatives using D2CorX and points    1    2
 DE= -1.41D-02 DEPred=-3.97D-02 R= 3.55D-01
 Trust test= 3.55D-01 RLast= 3.00D-01 DXMaxT set to 3.00D-01
 Use linear search instead of GDIIS.
     Eigenvalues ---    0.00369   0.00438   0.00997   0.01043   0.01337
     Eigenvalues ---    0.01420   0.01659   0.02551   0.02559   0.03736
     Eigenvalues ---    0.05092   0.05668   0.05878   0.06021   0.07228
     Eigenvalues ---    0.07360   0.07597   0.07714   0.15793   0.15978
     Eigenvalues ---    0.15999   0.16000   0.16000   0.16000   0.16000
     Eigenvalues ---    0.16000   0.16000   0.16000   0.16000   0.16572
     Eigenvalues ---    0.17361   0.21969   0.24198   0.24821   0.24985
     Eigenvalues ---    0.25000   0.29371   0.29783   0.30090   0.34435
     Eigenvalues ---    0.34632   0.34808   0.34811   0.34811   0.34812
     Eigenvalues ---    0.34813   0.34814   0.34816   0.34821   0.36758
     Eigenvalues ---    0.38373   0.45572   0.45980   0.56172   0.58056
     Eigenvalues ---    0.75038   0.87163   0.916251000.000001000.00000
     Eigenvalues --- 1000.000001000.000001000.000001000.000001000.00000
     Eigenvalues --- 1000.000001000.000001000.000001000.000001000.00000
     Eigenvalues --- 1000.000001000.000001000.000001000.000001000.00000
     Eigenvalues --- 1000.000001000.000001000.000001000.000001000.00000
     Eigenvalues --- 1000.000001000.000001000.000001000.000001000.00000
     Eigenvalues --- 1000.000001000.000001000.000001000.000001000.00000
     Eigenvalues --- 1000.000001000.000001000.000001000.000001000.00000
     Eigenvalues --- 1000.000001000.000001000.00000
 RFO step:  Lambda=-7.07193428D-03 EMin= 3.68804273D-03
 Quartic linear search produced a step of -0.23126.
 Iteration  1 RMS(Cart)=  0.05638451 RMS(Int)=  0.00142586
 Iteration  2 RMS(Cart)=  0.00172089 RMS(Int)=  0.00031905
 Iteration  3 RMS(Cart)=  0.00000138 RMS(Int)=  0.00031905
 Iteration  4 RMS(Cart)=  0.00000000 RMS(Int)=  0.00031905
 Iteration  1 RMS(Cart)=  0.00006964 RMS(Int)=  0.00002903
 Iteration  2 RMS(Cart)=  0.00003784 RMS(Int)=  0.00003230
 Iteration  3 RMS(Cart)=  0.00002118 RMS(Int)=  0.00003665
 Iteration  4 RMS(Cart)=  0.00001233 RMS(Int)=  0.00003981
 Iteration  5 RMS(Cart)=  0.00000749 RMS(Int)=  0.00004189
 Iteration  6 RMS(Cart)=  0.00000474 RMS(Int)=  0.00004322
 Iteration  7 RMS(Cart)=  0.00000309 RMS(Int)=  0.00004407
 Iteration  8 RMS(Cart)=  0.00000206 RMS(Int)=  0.00004462
 Iteration  9 RMS(Cart)=  0.00000138 RMS(Int)=  0.00004498
 Iteration 10 RMS(Cart)=  0.00000094 RMS(Int)=  0.00004521
 Variable       Old X    -DE/DX   Delta X   Delta X   Delta X     New X
                                 (Linear)    (Quad)   (Total)
    R1        2.04992  -0.00484   0.00228  -0.01615  -0.01388   2.03604
    R2        2.05679  -0.00148   0.00071  -0.00498  -0.00426   2.05253
    R3        2.05595  -0.00168   0.00089  -0.00586  -0.00497   2.05098
    R4        2.87783  -0.00243   0.00312  -0.01374  -0.01062   2.86721
    R5        2.29765  -0.02850   0.00573  -0.03970  -0.03397   2.26368
    R6        2.54808   0.00064  -0.00584   0.01649   0.01066   2.55873
    R7        1.89387  -0.00816   0.00340  -0.02231  -0.01891   1.87496
    R8        2.76672  -0.01965  -0.00660  -0.02189  -0.02849   2.73823
    R9        2.05632  -0.00201   0.00079  -0.00634  -0.00554   2.05078
   R10        2.90490   0.00111  -0.00532   0.01567   0.01035   2.91525
   R11        2.88698   0.00759  -0.00250   0.02497   0.02247   2.90945
   R12        2.03603   0.00127   0.00548  -0.01094  -0.00546   2.03057
   R13        2.05724  -0.00423   0.00060  -0.01065  -0.01005   2.04719
   R14        2.05432  -0.00268   0.00124  -0.00888  -0.00764   2.04667
   R15        2.30055  -0.02980   0.00507  -0.03895  -0.03388   2.26667
   R16        2.53188   0.01044  -0.00209   0.01921   0.01711   2.54899
   R17        1.89428  -0.00885   0.00328  -0.02313  -0.01985   1.87443
   R18        2.73936  -0.00022  -0.00026   0.00023  -0.00003   2.73933
   R19        2.04803  -0.00541   0.00273  -0.01851  -0.01578   2.03225
   R20        2.05534  -0.00228   0.00104  -0.00752  -0.00649   2.04885
   R21        2.05518  -0.00234   0.00108  -0.00776  -0.00668   2.04850
    A1        1.91179  -0.00012  -0.00014  -0.00161  -0.00158   1.91021
    A2        1.91212  -0.00003  -0.00021  -0.00183  -0.00191   1.91021
    A3        1.92252  -0.00546   0.00383  -0.03440  -0.03042   1.89210
    A4        1.90250  -0.00338   0.00174  -0.01546  -0.01410   1.88840
    A5        1.90900   0.00488  -0.00300   0.02942   0.02631   1.93531
    A6        1.90574   0.00415  -0.00224   0.02417   0.02179   1.92754
    A7        2.07973   0.01495   0.00541   0.03230   0.03714   2.11687
    A8        1.98894   0.00060   0.01067  -0.02279  -0.01265   1.97628
    A9        2.21448  -0.01554  -0.01607  -0.00902  -0.02557   2.18891
   A10        2.01422   0.00786   0.01853  -0.01507   0.00303   2.01725
   A11        2.28109  -0.01604  -0.03550   0.02487  -0.01106   2.27003
   A12        1.98775   0.00816   0.01700  -0.01064   0.00595   1.99370
   A13        1.87954   0.00022   0.00731  -0.01745  -0.01000   1.86954
   A14        2.03037  -0.01310  -0.02112  -0.03509  -0.05614   1.97422
   A15        1.91403   0.00248   0.00578  -0.01102  -0.00438   1.90965
   A16        1.85436   0.00427   0.00965   0.01795   0.02641   1.88077
   A17        1.89900  -0.00415  -0.00068   0.01622   0.01496   1.91396
   A18        1.88258   0.01036  -0.00028   0.03294   0.03191   1.91449
   A19        1.93821   0.00003  -0.00626   0.01133   0.00505   1.94327
   A20        1.90125   0.00225   0.00227   0.00960   0.01180   1.91304
   A21        1.91709   0.00156  -0.00139   0.00728   0.00591   1.92300
   A22        1.90175  -0.00031   0.00193  -0.00020   0.00163   1.90338
   A23        1.90469  -0.00152   0.00128  -0.01675  -0.01540   1.88929
   A24        1.90041  -0.00207   0.00225  -0.01173  -0.00951   1.89091
   A25        2.11234   0.00371  -0.00213   0.01669   0.01435   2.12670
   A26        2.02465  -0.00350   0.00240  -0.01564  -0.01344   2.01121
   A27        2.14562  -0.00015  -0.00013  -0.00002  -0.00036   2.14527
   A28        2.08718  -0.00187   0.00168  -0.01016  -0.00848   2.07870
   A29        2.13903   0.00344  -0.00267   0.01762   0.01495   2.15398
   A30        2.05697  -0.00158   0.00099  -0.00745  -0.00647   2.05051
   A31        1.90100  -0.00267   0.00236  -0.01827  -0.01586   1.88514
   A32        1.91955   0.00254  -0.00195   0.01627   0.01427   1.93382
   A33        1.92072   0.00259  -0.00222   0.01685   0.01457   1.93529
   A34        1.90902  -0.00030   0.00025  -0.00293  -0.00264   1.90638
   A35        1.90856  -0.00042   0.00037  -0.00415  -0.00374   1.90482
   A36        1.90491  -0.00175   0.00120  -0.00792  -0.00686   1.89804
    D1        0.00444  -0.00057  -0.00102  -0.02423  -0.02569  -0.02125
    D2        3.13696   0.00051   0.00107   0.03013   0.03167  -3.11455
    D3        2.10659  -0.00105  -0.00073  -0.02907  -0.03048   2.07611
    D4       -1.04408   0.00003   0.00136   0.02529   0.02689  -1.01719
    D5       -2.09607   0.00023  -0.00169  -0.01591  -0.01786  -2.11393
    D6        1.03645   0.00131   0.00039   0.03845   0.03950   1.07596
    D7       -0.01654  -0.00044   0.00385  -0.02523  -0.02079  -0.03733
    D8       -3.13982   0.00157  -0.00043   0.03696   0.03727  -3.10255
    D9        3.11514   0.00094   0.00613   0.03437   0.03976  -3.12828
   D10       -0.00813   0.00295   0.00185   0.09655   0.09782   0.08969
   D11       -2.64853  -0.00080   0.00707   0.00325   0.00973  -2.63880
   D12       -0.57079  -0.00351   0.01093  -0.00908   0.00170  -0.56909
   D13        1.57085   0.00268   0.00000   0.00000   0.00000   1.57085
   D14        0.51116   0.00118   0.00285   0.06473   0.06717   0.57834
   D15        2.58890  -0.00153   0.00671   0.05240   0.05915   2.64805
   D16       -1.55265   0.00466  -0.00422   0.06148   0.05745  -1.49520
   D17        1.07876   0.00198  -0.00729  -0.01492  -0.02245   1.05630
   D18       -3.10989   0.00307  -0.00734  -0.00199  -0.00950  -3.11939
   D19       -1.02979   0.00284  -0.00404  -0.00613  -0.01034  -1.04014
   D20       -3.11307  -0.00269  -0.00451  -0.04570  -0.05062   3.11949
   D21       -1.01853  -0.00161  -0.00456  -0.03276  -0.03767  -1.05620
   D22        1.06156  -0.00184  -0.00127  -0.03691  -0.03851   1.02305
   D23       -1.07922  -0.00030  -0.00042  -0.00181  -0.00172  -1.08094
   D24        1.01532   0.00079  -0.00047   0.01112   0.01123   1.02655
   D25        3.09541   0.00056   0.00283   0.00698   0.01039   3.10581
   D26       -0.29717   0.00284   0.00817   0.03186   0.04020  -0.25697
   D27        2.87976   0.00093   0.00000   0.00000   0.00000   2.87976
   D28       -2.34886   0.00357  -0.00377   0.04976   0.04612  -2.30273
   D29        0.82807   0.00166  -0.01194   0.01790   0.00592   0.83399
   D30        1.92979  -0.00476  -0.01464   0.00309  -0.01159   1.91819
   D31       -1.17647  -0.00666  -0.02282  -0.02878  -0.05179  -1.22826
   D32       -0.01909   0.00038   0.00443   0.00159   0.00589  -0.01320
   D33        3.12052   0.00038   0.00487   0.00346   0.00821   3.12873
   D34       -3.12461  -0.00165  -0.00392  -0.03131  -0.03511   3.12347
   D35        0.01500  -0.00165  -0.00348  -0.02944  -0.03279  -0.01779
   D36        0.00100  -0.00005  -0.00022  -0.00148  -0.00170  -0.00070
   D37        2.09292  -0.00053   0.00035  -0.00649  -0.00622   2.08670
   D38       -2.09107   0.00056  -0.00077   0.00471   0.00401  -2.08706
   D39        3.14064  -0.00004   0.00021   0.00037   0.00058   3.14122
   D40       -1.05062  -0.00052   0.00078  -0.00465  -0.00395  -1.05456
   D41        1.04857   0.00056  -0.00034   0.00655   0.00629   1.05486
         Item               Value     Threshold  Converged?
 Maximum Force            0.029795     0.000450     NO 
 RMS     Force            0.006464     0.000300     NO 
 Maximum Displacement     0.210212     0.001800     NO 
 RMS     Displacement     0.056627     0.001200     NO 
 Predicted change in Energy=-3.670194D-03
 GradGradGradGradGradGradGradGradGradGradGradGradGradGradGradGradGradGrad

                          Input orientation:                          
 ---------------------------------------------------------------------
 Center     Atomic      Atomic             Coordinates (Angstroms)
 Number     Number       Type             X           Y           Z
 ---------------------------------------------------------------------
      1          1           0        0.998182    2.719029   -1.794250
      2          6           0        1.501771    2.998991   -0.883831
      3          1           0        1.631498    2.121036   -0.257658
      4          1           0        0.894368    3.715936   -0.340696
      5          6           0        2.843386    3.607986   -1.246149
      6          8           0        3.199725    3.694442   -2.386538
      7          7           0        3.576537    3.966379   -0.165675
      8          1           0        3.141861    3.821099    0.714316
      9          6           0        4.872199    4.610682   -0.089814
     10          1           0        5.340013    4.279736    0.831780
     11          6           0        5.807525    4.229070   -1.255753
     12          1           0        5.387146    4.512507   -2.203151
     13          1           0        6.763790    4.722680   -1.131239
     14          1           0        5.975018    3.159091   -1.265530
     15          6           0        4.682909    6.138222   -0.055192
     16          8           0        3.639655    6.653520   -0.346431
     17          7           0        5.766615    6.843388    0.329219
     18          1           0        6.596688    6.357900    0.572446
     19          6           0        5.790064    8.290567    0.409467
     20          1           0        4.822197    8.655621    0.115370
     21          1           0        6.002278    8.616657    1.421462
     22          1           0        6.541874    8.702261   -0.254151
 ---------------------------------------------------------------------
                    Distance matrix (angstroms):
                    1          2          3          4          5
     1  H    0.000000
     2  C    1.077424   0.000000
     3  H    1.766295   1.086152   0.000000
     4  H    1.765622   1.085331   1.758966   0.000000
     5  C    2.120245   1.517260   2.157963   2.151783   0.000000
     6  O    2.479723   2.371672   3.076860   3.082305   1.197889
     7  N    3.294852   2.399216   2.682708   2.699515   1.354023
     8  H    3.478911   2.433070   2.473083   2.485022   1.994474
     9  C    4.635889   3.819397   4.090068   4.084930   2.541376
    10  H    5.308798   4.394967   4.427183   4.632098   3.316954
    11  C    5.069515   4.493433   4.783221   5.023918   3.028524
    12  H    4.758862   4.373496   4.858906   4.928318   2.864389
    13  H    6.139742   5.542667   5.819975   6.007379   4.077415
    14  H    5.024151   4.492356   4.578158   5.194074   3.163700
    15  C    5.319062   4.545443   5.048751   4.505777   3.347286
    16  O    4.955177   4.267895   4.958224   4.020701   3.273961
    17  N    6.652624   5.868541   6.304302   5.828253   4.636257
    18  H    7.084201   6.273849   6.579756   6.350610   4.995657
    19  C    7.672063   6.932738   7.470063   6.742243   5.774993
    20  H    7.315249   6.634839   7.281518   6.327426   5.589995
    21  H    8.376383   7.558248   8.007262   7.294725   6.494731
    22  H    8.300813   7.637173   8.211231   7.534272   6.372951
                    6          7          8          9         10
     6  O    0.000000
     7  N    2.268957   0.000000
     8  H    3.103978   0.992186   0.000000
     9  C    2.985231   1.449008   2.064979   0.000000
    10  H    3.909088   2.050112   2.248560   1.085224   0.000000
    11  C    2.892252   2.496916   3.339668   1.542685   2.139843
    12  H    2.342578   2.779905   3.745793   2.177384   3.044209
    13  H    3.916070   3.415097   4.163807   2.162227   2.465113
    14  H    3.040643   2.759367   3.519208   2.169248   2.461257
    15  C    3.688776   2.439912   2.887219   1.539613   2.161591
    16  O    3.621011   2.693954   3.065223   2.399626   3.148691
    17  N    4.886729   3.649458   4.021426   2.441422   2.647049
    18  H    5.233445   3.922437   4.288510   2.542679   2.442386
    19  C    5.970919   4.891738   5.204043   3.825351   4.058037
    20  H    5.788372   4.860005   5.153141   4.050448   4.464274
    21  H    6.825201   5.479810   5.628447   4.428190   4.426647
    22  H    6.387118   5.588348   6.026919   4.422198   4.709824
                   11         12         13         14         15
    11  C    0.000000
    12  H    1.074531   0.000000
    13  H    1.083326   1.757361   0.000000
    14  H    1.083053   1.748274   1.756418   0.000000
    15  C    2.520113   2.784354   2.737097   3.465499   0.000000
    16  O    3.377053   3.329425   3.755567   4.302290   1.199472
    17  N    3.057526   3.462643   2.761285   4.020037   1.348869
    18  H    2.914962   3.545759   2.367363   3.741258   2.026015
    19  C    4.389650   4.611058   4.006462   5.401099   2.464607
    20  H    4.737636   4.781224   4.559807   5.783400   2.527011
    21  H    5.143571   5.510014   4.717970   6.083231   3.172362
    22  H    4.642403   4.762986   4.081126   5.663121   3.173268
                   16         17         18         19         20
    16  O    0.000000
    17  N    2.239758   0.000000
    18  H    3.110590   0.991906   0.000000
    19  C    2.806344   1.449593   2.100573   0.000000
[...]
    12  H    4.907280   4.500163   5.106045   4.898217   3.000321
    13  H    6.150207   5.561789   5.901627   5.985448   4.082465
    14  H    4.896438   4.460562   4.732547   5.140420   3.039808
    15  C    5.278589   4.416632   4.821661   4.330368   3.313439
    16  O    4.922640   4.067330   4.582861   3.704310   3.267335
    17  N    6.612852   5.757518   6.115602   5.672957   4.599660
    18  H    7.037784   6.216147   6.516769   6.283223   4.941141
    19  C    7.584143   6.739481   7.169790   6.461694   5.703546
    20  H    7.538446   6.641374   7.023076   6.220167   5.811876
    21  H    8.555729   7.692729   8.059048   7.464191   6.610134
    22  H    7.647223   6.906768   7.480783   6.595676   5.843533
                    6          7          8          9         10
     6  O    0.000000
     7  N    2.267551   0.000000
     8  H    3.091735   0.995514   0.000000
     9  C    2.912776   1.446680   2.054339   0.000000
    10  H    3.841040   2.030141   2.311209   1.087219   0.000000
    11  C    2.824467   2.514589   3.387294   1.533903   2.123161
    12  H    2.448298   2.912628   3.836339   2.182857   3.036541
    13  H    3.893044   3.412881   4.169615   2.153978   2.368351
    14  H    2.795724   2.691572   3.598322   2.155571   2.511686
    15  C    3.690152   2.441306   2.680450   1.537224   2.113882
    16  O    3.730494   2.696937   2.722982   2.400540   3.079505
    17  N    4.858790   3.652940   3.867878   2.442983   2.612892
    18  H    5.109108   3.944551   4.274810   2.553166   2.500437
    19  C    5.929017   4.874981   4.977272   3.811022   4.022070
    20  H    6.201211   4.974901   4.875446   4.149701   4.333362
    21  H    6.824601   5.686802   5.783458   4.503552   4.517115
    22  H    5.885834   5.237108   5.460513   4.222570   4.654194
                   11         12         13         14         15
    11  C    0.000000
    12  H    1.077874   0.000000
    13  H    1.085505   1.763403   0.000000
    14  H    1.081539   1.748546   1.752579   0.000000
    15  C    2.557266   2.784988   2.856576   3.483886   0.000000
    16  O    3.469574   3.448065   3.942674   4.331241   1.199979
    17  N    3.064233   3.364938   2.857034   4.065268   1.351624
    18  H    2.813567   3.282254   2.284362   3.746000   2.028768
    19  C    4.389256   4.481716   4.133163   5.434228   2.441671
    20  H    5.016440   5.130027   4.917288   6.024517   2.682489
    21  H    4.962832   5.157837   4.490203   5.973479   3.308951
    22  H    4.563519   4.400033   4.354843   5.643839   2.844983
                   16         17         18         19         20
    16  O    0.000000
    17  N    2.238253   0.000000
    18  H    3.108626   0.993161   0.000000
    19  C    2.762509   1.448256   2.107014   0.000000
    20  H    2.626107   2.078771   2.905981   1.080106   0.000000
    21  H    3.791080   2.066997   2.304210   1.081965   1.760210
    22  H    2.973342   2.108407   2.709196   1.084490   1.755821
                   21         22
    21  H    0.000000
    22  H    1.764076   0.000000
 Stoichiometry    C6H12N2O2
 Framework group  C1[X(C6H12N2O2)]
 Deg. of freedom    60
 Full point group                 C1      NOp   1
 Largest Abelian subgroup         C1      NOp   1
 Largest concise Abelian subgroup C1      NOp   1
                         Standard orientation:                         
 ---------------------------------------------------------------------
 Center     Atomic      Atomic             Coordinates (Angstroms)
 Number     Number       Type             X           Y           Z
 ---------------------------------------------------------------------
      1          1           0       -4.024282   -0.975842    0.451442
      2          6           0       -3.149266   -1.160199   -0.154135
      3          1           0       -3.428414   -1.190436   -1.201725
      4          1           0       -2.731394   -2.125484    0.115288
      5          6           0       -2.121857   -0.083392    0.126403
      6          8           0       -2.194599    0.624036    1.089908
      7          7           0       -1.141091    0.002511   -0.819442
      8          1           0       -1.095293   -0.776315   -1.437812
      9          6           0        0.123337    0.689967   -0.672787
     10          1           0        0.445423    0.928851   -1.683351
     11          6           0        0.056646    2.013225    0.100128
     12          1           0       -0.082673    1.860682    1.158019
     13          1           0        0.972380    2.573041   -0.062227
     14          1           0       -0.767980    2.609905   -0.265510
     15          6           0        1.177664   -0.275779   -0.108173
     16          8           0        0.883116   -1.347656    0.343788
     17          7           0        2.459490    0.138546   -0.218375
     18          1           0        2.641167    1.074628   -0.496068
     19          6           0        3.551236   -0.631708    0.340415
     20          1           0        3.470767   -1.661377    0.024290
     21          1           0        4.485104   -0.223589   -0.022873
     22          1           0        3.551709   -0.605185    1.424580
 ---------------------------------------------------------------------
 Rotational constants (GHZ):      2.6570096      0.7504618      0.6596606

 **********************************************************************

            Population analysis using the SCF density.

 **********************************************************************

 Orbital symmetries:
       Occupied  (A) (A) (A) (A) (A) (A) (A) (A) (A) (A) (A) (A)
                 (A) (A) (A) (A) (A) (A) (A) (A) (A) (A) (A) (A)
                 (A) (A) (A) (A) (A) (A) (A) (A) (A) (A) (A) (A)
                 (A) (A) (A)
       Virtual   (A) (A) (A) (A) (A) (A) (A) (A) (A) (A) (A) (A)
                 (A) (A) (A) (A) (A) (A) (A) (A) (A) (A) (A) (A)
                 (A) (A) (A) (A) (A) (A) (A) (A) (A) (A) (A) (A)
                 (A) (A) (A) (A) (A) (A) (A) (A) (A) (A) (A) (A)
                 (A) (A) (A) (A) (A) (A) (A) (A) (A) (A) (A) (A)
                 (A) (A) (A) (A) (A) (A) (A) (A) (A) (A) (A) (A)
                 (A) (A) (A) (A) (A) (A) (A) (A) (A) (A) (A) (A)
                 (A) (A) (A) (A) (A) (A) (A) (A) (A) (A) (A) (A)
                 (A) (A) (A) (A) (A) (A) (A) (A) (A) (A) (A) (A)
                 (A) (A) (A) (A) (A) (A) (A) (A) (A) (A) (A) (A)
                 (A) (A) (A) (A) (A) (A) (A) (A) (A) (A) (A) (A)
                 (A) (A) (A)
 The electronic state is 1-A.
 Alpha  occ. eigenvalues --  -20.52786 -20.51714 -15.58936 -15.57909 -11.34544
 Alpha  occ. eigenvalues --  -11.34280 -11.28514 -11.26086 -11.22412 -11.22346
 Alpha  occ. eigenvalues --   -1.39760  -1.38383  -1.23729  -1.23348  -1.05570
 Alpha  occ. eigenvalues --   -0.98698  -0.95784  -0.88695  -0.79989  -0.76534
 Alpha  occ. eigenvalues --   -0.72301  -0.69625  -0.65642  -0.63348  -0.62452
 Alpha  occ. eigenvalues --   -0.61883  -0.59615  -0.58502  -0.56381  -0.56018
 Alpha  occ. eigenvalues --   -0.55529  -0.53704  -0.53418  -0.51040  -0.50228
 Alpha  occ. eigenvalues --   -0.42877  -0.40837  -0.39418  -0.38422
 Alpha virt. eigenvalues --    0.19253   0.20395   0.21505   0.23223   0.26048
 Alpha virt. eigenvalues --    0.27795   0.29717   0.30553   0.31591   0.32027
 Alpha virt. eigenvalues --    0.32611   0.33391   0.33935   0.34857   0.37280
 Alpha virt. eigenvalues --    0.39108   0.41862   0.43679   0.48353   0.51024
 Alpha virt. eigenvalues --    0.54309   0.59402   0.60335   0.70905   0.71805
 Alpha virt. eigenvalues --    0.74035   0.75241   0.75778   0.77632   0.78320
 Alpha virt. eigenvalues --    0.80520   0.83006   0.84367   0.88065   0.89327
 Alpha virt. eigenvalues --    0.93280   0.95566   0.96543   0.97847   0.99752
 Alpha virt. eigenvalues --    1.01023   1.02162   1.03671   1.06041   1.10197
 Alpha virt. eigenvalues --    1.11706   1.13430   1.13715   1.14760   1.15498
 Alpha virt. eigenvalues --    1.16808   1.17249   1.19309   1.20782   1.21494
 Alpha virt. eigenvalues --    1.21944   1.22748   1.23509   1.25938   1.27366
 Alpha virt. eigenvalues --    1.29666   1.31183   1.36354   1.37357   1.39921
 Alpha virt. eigenvalues --    1.46261   1.51427   1.52593   1.58113   1.63255
 Alpha virt. eigenvalues --    1.64628   1.69689   1.70936   1.72661   1.76795
 Alpha virt. eigenvalues --    1.80002   1.82227   1.92021   1.93172   1.97780
 Alpha virt. eigenvalues --    1.99527   2.05618   2.06703   2.09282   2.12031
 Alpha virt. eigenvalues --    2.12428   2.16204   2.18123   2.19321   2.22310
 Alpha virt. eigenvalues --    2.23424   2.29581   2.29868   2.30880   2.35952
 Alpha virt. eigenvalues --    2.37462   2.38656   2.42310   2.46239   2.47508
 Alpha virt. eigenvalues --    2.51480   2.57082   2.57609   2.61381   2.64683
 Alpha virt. eigenvalues --    2.66528   2.69471   2.70919   2.75597   2.77693
 Alpha virt. eigenvalues --    2.78379   2.83736   2.89939   2.93077   2.96728
 Alpha virt. eigenvalues --    3.00328   3.04262   3.07203   3.14255   3.27661
 Alpha virt. eigenvalues --    3.32862   3.38508   3.42556   3.53734   3.57435
 Alpha virt. eigenvalues --    4.34920   4.41083   4.49633   4.52816   4.64919
 Alpha virt. eigenvalues --    4.70052   4.72970   4.85061   4.93496   5.04220
          Condensed to atoms (all electrons):
              1          2          3          4          5          6
     1  H    0.466314   0.383906  -0.020615  -0.016826  -0.032482   0.003744
     2  C    0.383906   5.280563   0.375067   0.374218   0.377033  -0.071167
     3  H   -0.020615   0.375067   0.522395  -0.024551  -0.036384   0.001834
     4  H   -0.016826   0.374218  -0.024551   0.485873  -0.026773   0.000409
     5  C   -0.032482   0.377033  -0.036384  -0.026773   4.131544   0.613388
     6  O    0.003744  -0.071167   0.001834   0.000409   0.613388   8.147176
     7  N    0.004380  -0.124202   0.005328   0.000728   0.254765  -0.097868
     8  H    0.000096  -0.000919  -0.000191   0.000199  -0.019794   0.002636
     9  C   -0.000093   0.003269   0.000244  -0.000369  -0.025393   0.003914
    10  H    0.000003  -0.000075  -0.000007   0.000001   0.002454  -0.000107
    11  C    0.000005   0.000032  -0.000018  -0.000002  -0.002698  -0.004594
    12  H    0.000000   0.000050   0.000000  -0.000003   0.001157   0.001765
    13  H    0.000000   0.000011   0.000000   0.000000   0.000192   0.000706
    14  H    0.000000  -0.000063   0.000000   0.000001  -0.000100  -0.000548
    15  C   -0.000002  -0.000193   0.000004   0.000070  -0.000086  -0.000220
    16  O    0.000001  -0.000377   0.000001   0.000414   0.006474  -0.000419
    17  N    0.000000   0.000000   0.000000   0.000000   0.000175  -0.000001
    18  H    0.000000   0.000000   0.000000   0.000000  -0.000010   0.000000
    19  C    0.000000   0.000000   0.000000   0.000000  -0.000003   0.000000
    20  H    0.000000   0.000000   0.000000   0.000000   0.000000   0.000000
    21  H    0.000000   0.000000   0.000000   0.000000   0.000000   0.000000
    22  H    0.000000   0.000000   0.000000   0.000000   0.000000   0.000000
              7          8          9         10         11         12
     1  H    0.004380   0.000096  -0.000093   0.000003   0.000005   0.000000
     2  C   -0.124202  -0.000919   0.003269  -0.000075   0.000032   0.000050
     3  H    0.005328  -0.000191   0.000244  -0.000007  -0.000018   0.000000
     4  H    0.000728   0.000199  -0.000369   0.000001  -0.000002  -0.000003
     5  C    0.254765  -0.019794  -0.025393   0.002454  -0.002698   0.001157
     6  O   -0.097868   0.002636   0.003914  -0.000107  -0.004594   0.001765
     7  N    7.334426   0.329341   0.230145  -0.050125  -0.039180  -0.001642
     8  H    0.329341   0.335725  -0.034042  -0.003074   0.003468  -0.000134
     9  C    0.230145  -0.034042   5.045150   0.423804   0.331596  -0.032439
    10  H   -0.050125  -0.003074   0.423804   0.527054  -0.036661   0.003701
    11  C   -0.039180   0.003468   0.331596  -0.036661   5.103636   0.394472
    12  H   -0.001642  -0.000134  -0.032439   0.003701   0.394472   0.458148
    13  H    0.003719  -0.000082  -0.037593  -0.004737   0.376025  -0.026811
    14  H   -0.002142  -0.000039  -0.033267  -0.002958   0.395240  -0.019756
    15  C   -0.064993   0.001182   0.367421  -0.059376  -0.046554  -0.003131
    16  O   -0.008077   0.003509  -0.074657   0.001273  -0.000354   0.000554
    17  N    0.003502   0.000104  -0.122710   0.005605   0.004167   0.000449
    18  H    0.000096  -0.000009   0.000373   0.000418   0.000721  -0.000049
    19  C   -0.000111  -0.000004   0.004177  -0.000198  -0.000224  -0.000028
    20  H    0.000000   0.000001  -0.000013  -0.000017  -0.000001   0.000000
    21  H    0.000001   0.000000   0.000010  -0.000008  -0.000003   0.000000
    22  H    0.000000   0.000000   0.000030   0.000002  -0.000014   0.000004
             13         14         15         16         17         18
     1  H    0.000000   0.000000  -0.000002   0.000001   0.000000   0.000000
     2  C    0.000011  -0.000063  -0.000193  -0.000377   0.000000   0.000000
     3  H    0.000000   0.000000   0.000004   0.000001   0.000000   0.000000
     4  H    0.000000   0.000001   0.000070   0.000414   0.000000   0.000000
     5  C    0.000192  -0.000100  -0.000086   0.006474   0.000175  -0.000010
     6  O    0.000706  -0.000548  -0.000220  -0.000419  -0.000001   0.000000
     7  N    0.003719  -0.002142  -0.064993  -0.008077   0.003502   0.000096
     8  H   -0.000082  -0.000039   0.001182   0.003509   0.000104  -0.000009
     9  C   -0.037593  -0.033267   0.367421  -0.074657  -0.122710   0.000373
    10  H   -0.004737  -0.002958  -0.059376   0.001273   0.005605   0.000418
    11  C    0.376025   0.395240  -0.046554  -0.000354   0.004167   0.000721
    12  H   -0.026811  -0.019756  -0.003131   0.000554   0.000449  -0.000049
    13  H    0.578195  -0.026900  -0.004965  -0.000027   0.000960   0.002187
    14  H   -0.026900   0.489478   0.004163  -0.000055  -0.000077  -0.000026
    15  C   -0.004965   0.004163   4.215288   0.625661   0.259771  -0.022760
    16  O   -0.000027  -0.000055   0.625661   8.149283  -0.108815   0.002602
    17  N    0.000960  -0.000077   0.259771  -0.108815   7.352568   0.327693
    18  H    0.002187  -0.000026  -0.022760   0.002602   0.327693   0.326410
    19  C    0.000036   0.000004  -0.027623   0.007723   0.198523  -0.023373
    20  H   -0.000001   0.000000  -0.003847   0.003844  -0.039462   0.002624
    21  H   -0.000003   0.000000   0.004283   0.000364  -0.038058  -0.004424
    22  H    0.000004  -0.000001  -0.002743   0.001159  -0.047559   0.001279
             19         20         21         22
     1  H    0.000000   0.000000   0.000000   0.000000
     2  C    0.000000   0.000000   0.000000   0.000000
     3  H    0.000000   0.000000   0.000000   0.000000
     4  H    0.000000   0.000000   0.000000   0.000000
     5  C   -0.000003   0.000000   0.000000   0.000000
     6  O    0.000000   0.000000   0.000000   0.000000
     7  N   -0.000111   0.000000   0.000001   0.000000
     8  H   -0.000004   0.000001   0.000000   0.000000
     9  C    0.004177  -0.000013   0.000010   0.000030
    10  H   -0.000198  -0.000017  -0.000008   0.000002
    11  C   -0.000224  -0.000001  -0.000003  -0.000014
    12  H   -0.000028   0.000000   0.000000   0.000004
    13  H    0.000036  -0.000001  -0.000003   0.000004
    14  H    0.000004   0.000000   0.000000  -0.000001
    15  C   -0.027623  -0.003847   0.004283  -0.002743
    16  O    0.007723   0.003844   0.000364   0.001159
    17  N    0.198523  -0.039462  -0.038058  -0.047559
    18  H   -0.023373   0.002624  -0.004424   0.001279
    19  C    4.904573   0.404041   0.397462   0.406715
    20  H    0.404041   0.487718  -0.024768  -0.032900
    21  H    0.397462  -0.024768   0.529462  -0.032108
    22  H    0.406715  -0.032900  -0.032108   0.524970
 Mulliken atomic charges:
              1
     1  H    0.211568
     2  C   -0.597154
     3  H    0.176892
     4  H    0.206611
     5  C    0.756539
     6  O   -0.600650
     7  N   -0.778090
     8  H    0.382029
     9  C   -0.049561
    10  H    0.193028
    11  C   -0.479059
    12  H    0.223695
    13  H    0.139083
    14  H    0.197044
    15  C    0.758650
    16  O   -0.610082
    17  N   -0.796837
    18  H    0.386250
    19  C   -0.271689
    20  H    0.202782
    21  H    0.167791
    22  H    0.181161
 Sum of Mulliken atomic charges =   0.00000
 Mulliken charges with hydrogens summed into heavy atoms:
              1
     2  C   -0.002083
     5  C    0.756539
     6  O   -0.600650
     7  N   -0.396061
     9  C    0.143467
    11  C    0.080762
    15  C    0.758650
    16  O   -0.610082
    17  N   -0.410588
    19  C    0.280044
 Sum of Mulliken charges with hydrogens summed into heavy atoms =   0.00000
 Electronic spatial extent (au):  <R**2>=           1815.6158
 Charge=              0.0000 electrons
 Dipole moment (field-independent basis, Debye):
    X=              2.7629    Y=              0.9210    Z=             -3.5846  Tot=              4.6185
 Quadrupole moment (field-independent basis, Debye-Ang):
   XX=            -51.8395   YY=            -61.1969   ZZ=            -62.0693
   XY=              8.7766   XZ=              4.6912   YZ=              0.0149
 Traceless Quadrupole moment (field-independent basis, Debye-Ang):
   XX=              6.5291   YY=             -2.8283   ZZ=             -3.7007
   XY=              8.7766   XZ=              4.6912   YZ=              0.0149
 Octapole moment (field-independent basis, Debye-Ang**2):
  XXX=             30.3767  YYY=              3.6399  ZZZ=             -2.6855  XYY=              0.3894
  XXY=            -11.6240  XXZ=             -8.5081  XZZ=              5.6512  YZZ=             -4.4245
  YYZ=             -4.2442  XYZ=              0.8176
 Hexadecapole moment (field-independent basis, Debye-Ang**3):
 XXXX=          -1563.7405 YYYY=           -454.3056 ZZZZ=           -180.6177 XXXY=             26.8977
 XXXZ=             19.1054 YYYX=              2.4785 YYYZ=              1.3602 ZZZX=              8.1373
 ZZZY=              4.0391 XXYY=           -348.2564 XXZZ=           -334.3371 YYZZ=           -105.9092
 XXYZ=            -16.2581 YYXZ=             -4.0853 ZZXY=              7.7921
 N-N= 5.607854160568D+02 E-N=-2.277157057088D+03  KE= 4.921132450924D+02
 1\1\GINC-RODAN\FOpt\RHF\6-31G(d)\C6H12N2O2\STEBOSS\09-Feb-2017\0\\# HF
 /6-31G* Opt=(ModRedundant) geom=nocrowd\\Phi Psi fixed scan\\0,1\H,1.0
 987147954,2.6282998585,-1.8251475152\C,1.4990041754,3.1376073367,-0.96
 10071414\H,1.4174585304,2.4984427883,-0.0885962134\H,0.9168957888,4.03
 629907,-0.7807746284\C,2.9346177372,3.5292419694,-1.2428243376\O,3.381
 3439089,3.5366065489,-2.3538907231\N,3.6489142973,3.8476927617,-0.1237
 741625\H,3.0952719427,3.9983779639,0.6897509006\C,4.9116386949,4.55302
 57227,-0.0935020827\H,5.3862749745,4.263310983,0.8407521266\C,5.885252
 1351,4.1893008592,-1.2216149571\H,5.5799394504,4.5981667586,-2.1710487
 887\H,6.8763632534,4.5579125317,-0.9763705957\H,5.9449065996,3.1140450
 89,-1.3215809625\C,4.6596307765,6.0659500282,0.0095019645\O,3.57088079
 1,6.5433328359,-0.1538315493\N,5.7327900632,6.8084115765,0.3615901517\
 H,6.6297670433,6.3822773438,0.3761064212\C,5.6628005265,8.2537812836,0
 .4203596349\H,4.8031642887,8.5542626933,1.0011904985\H,6.5590029193,8.
 6251445139,0.8994826446\H,5.5806673074,8.6953094831,-0.5667706851\\Ver
 sion=EM64L-G09RevA.02\State=1-A\HF=-492.8490641\RMSD=4.041e-09\RMSF=8.
 402e-04\Dipole=1.0455843,0.0730165,1.4843114\Quadrupole=5.7587688,-0.6
 72539,-5.0862298,5.9743673,-0.3231077,-2.6419503\PG=C01 [X(C6H12N2O2)]
 \\@


 IT MATTERS NOT HOW DEEP YOU PLOW,
 BUT HOW LONG YOU STAY IN THE FURROW.
 Job cpu time:  0 days  0 hours 42 minutes 33.4 seconds.
 File lengths (MBytes):  RWF=     25 Int=      0 D2E=      0 Chk=      3 Scr=      1
 Normal termination of Gaussian 09 at Thu Feb  9 21:13:32 2017.
