 Entering Gaussian System, Link 0=g09
 Initial command:
 /home/steboss/Software/g09/l1.exe /home/steboss/projects/phi_psi_scan/alanine/MP2/150/5296/Gau-7092.inp -scrdir=/home/steboss/projects/phi_psi_scan/alanine/MP2/150/5296/
 Entering Link 1 = /home/steboss/Software/g09/l1.exe PID=      7094.
  
 Copyright (c) 1988,1990,1992,1993,1995,1998,2003,2009, Gaussian, Inc.
                  All Rights Reserved.
  
 This is part of the Gaussian(R) 09 program.  It is based on
 the Gaussian(R) 03 system (copyright 2003, Gaussian, Inc.),
 the Gaussian(R) 98 system (copyright 1998, Gaussian, Inc.),
 the Gaussian(R) 94 system (copyright 1995, Gaussian, Inc.),
 the Gaussian 92(TM) system (copyright 1992, Gaussian, Inc.),
 the Gaussian 90(TM) system (copyright 1990, Gaussian, Inc.),
 the Gaussian 88(TM) system (copyright 1988, Gaussian, Inc.),
 the Gaussian 86(TM) system (copyright 1986, Carnegie Mellon
 University), and the Gaussian 82(TM) system (copyright 1983,
 Carnegie Mellon University). Gaussian is a federally registered
 trademark of Gaussian, Inc.
  
 This software contains proprietary and confidential information,
 including trade secrets, belonging to Gaussian, Inc.
  
 This software is provided under written license and may be
 used, copied, transmitted, or stored only in accord with that
 written license.
  
 The following legend is applicable only to US Government
 contracts under FAR:
  
                    RESTRICTED RIGHTS LEGEND
  
 Use, reproduction and disclosure by the US Government is
 subject to restrictions as set forth in subparagraphs (a)
 and (c) of the Commercial Computer Software - Restricted
 Rights clause in FAR 52.227-19.
  
 Gaussian, Inc.
 340 Quinnipiac St., Bldg. 40, Wallingford CT 06492
  
  
 ---------------------------------------------------------------
 Warning -- This program may not be used in any manner that
 competes with the business of Gaussian, Inc. or will provide
 assistance to any competitor of Gaussian, Inc.  The licensee
 of this program is prohibited from giving any competitor of
 Gaussian, Inc. access to this program.  By using this program,
 the user acknowledges that Gaussian, Inc. is engaged in the
 business of creating and licensing software in the field of
 computational chemistry and represents and warrants to the
 licensee that it is not a competitor of Gaussian, Inc. and that
 it will not use this program in any manner prohibited above.
 ---------------------------------------------------------------
  

 Cite this work as:
 Gaussian 09, Revision A.02,
 M. J. Frisch, G. W. Trucks, H. B. Schlegel, G. E. Scuseria, 
 M. A. Robb, J. R. Cheeseman, G. Scalmani, V. Barone, B. Mennucci, 
 G. A. Petersson, H. Nakatsuji, M. Caricato, X. Li, H. P. Hratchian, 
 A. F. Izmaylov, J. Bloino, G. Zheng, J. L. Sonnenberg, M. Hada, 
 M. Ehara, K. Toyota, R. Fukuda, J. Hasegawa, M. Ishida, T. Nakajima, 
 Y. Honda, O. Kitao, H. Nakai, T. Vreven, J. A. Montgomery, Jr., 
 J. E. Peralta, F. Ogliaro, M. Bearpark, J. J. Heyd, E. Brothers, 
 K. N. Kudin, V. N. Staroverov, R. Kobayashi, J. Normand, 
 K. Raghavachari, A. Rendell, J. C. Burant, S. S. Iyengar, J. Tomasi, 
 M. Cossi, N. Rega, J. M. Millam, M. Klene, J. E. Knox, J. B. Cross, 
 V. Bakken, C. Adamo, J. Jaramillo, R. Gomperts, R. E. Stratmann, 
 O. Yazyev, A. J. Austin, R. Cammi, C. Pomelli, J. W. Ochterski, 
 R. L. Martin, K. Morokuma, V. G. Zakrzewski, G. A. Voth, 
 P. Salvador, J. J. Dannenberg, S. Dapprich, A. D. Daniels, 
 O. Farkas, J. B. Foresman, J. V. Ortiz, J. Cioslowski, 
 and D. J. Fox, Gaussian, Inc., Wallingford CT, 2009.
 
 ******************************************
 Gaussian 09:  EM64L-G09RevA.02 11-Jun-2009
                12-Feb-2017 
 ******************************************
 %chk=structure_45.chk
 %NProcShared=8
 Will use up to    8 processors via shared memory.
 -------------------
 #SP MP2/aug-cc-pVDZ
 -------------------
 1/38=1/1;
 2/12=2,17=6,18=5,40=1/2;
 3/5=16,7=10,11=9,16=1,25=1,30=1/1,2,3;
 4//1;
 5/5=2,38=5/2;
 8/10=1/1;
 9/16=-3/6;
 6/7=2,8=2,9=2,10=2/1;
 99/5=1,9=1/99;
 -------------------------------
 Single Point calculation at MP2
 -------------------------------
 Symbolic Z-matrix:
 Charge =  0 Multiplicity = 1
 H                    -3.7738   -1.7628    0.2747 
 C                    -2.7413   -1.6255    0.6013 
 H                    -2.1659   -2.5309    0.38 
 H                    -2.7464   -1.48      1.6885 
 C                    -2.1782   -0.3792   -0.0747 
 O                    -2.8932    0.5535   -0.4069 
 N                    -0.8161   -0.4282   -0.3008 
 H                    -0.3507   -1.1859    0.1846 
 C                     0.0542    0.7554   -0.5042 
 H                     0.1403    0.9337   -1.587 
 C                    -0.4352    2.0416    0.1649 
 H                    -0.5326    1.9007    1.2458 
 H                     0.3045    2.8283   -0.0013 
 H                    -1.3999    2.3396   -0.2423 
 C                     1.4659    0.4032    0.0237 
 O                     2.1117    1.1505    0.7408 
 N                     1.9247   -0.8359   -0.3579 
 H                     1.4569   -1.2885   -1.1331 
 C                     3.2809   -1.2651   -0.0456 
 H                     3.5511   -0.8593    0.93 
 H                     3.3209   -2.3574   -0.0107 
 H                     4.0099   -0.9027   -0.7822 
 
                          Input orientation:                          
 ---------------------------------------------------------------------
 Center     Atomic      Atomic             Coordinates (Angstroms)
 Number     Number       Type             X           Y           Z
 ---------------------------------------------------------------------
      1          1           0       -3.773800   -1.762800    0.274700
      2          6           0       -2.741300   -1.625500    0.601300
      3          1           0       -2.165900   -2.530900    0.380000
      4          1           0       -2.746400   -1.480000    1.688500
      5          6           0       -2.178200   -0.379200   -0.074700
      6          8           0       -2.893200    0.553500   -0.406900
      7          7           0       -0.816100   -0.428200   -0.300800
      8          1           0       -0.350700   -1.185900    0.184600
      9          6           0        0.054200    0.755400   -0.504200
     10          1           0        0.140300    0.933700   -1.587000
     11          6           0       -0.435200    2.041600    0.164900
     12          1           0       -0.532600    1.900700    1.245800
     13          1           0        0.304500    2.828300   -0.001300
     14          1           0       -1.399900    2.339600   -0.242300
     15          6           0        1.465900    0.403200    0.023700
     16          8           0        2.111700    1.150500    0.740800
     17          7           0        1.924700   -0.835900   -0.357900
     18          1           0        1.456900   -1.288500   -1.133100
     19          6           0        3.280900   -1.265100   -0.045600
     20          1           0        3.551100   -0.859300    0.930000
     21          1           0        3.320900   -2.357400   -0.010700
     22          1           0        4.009900   -0.902700   -0.782200
 ---------------------------------------------------------------------
                    Distance matrix (angstroms):
                    1          2          3          4          5
     1  H    0.000000
     2  C    1.091593   0.000000
     3  H    1.785051   1.095357   0.000000
     4  H    1.770412   1.096905   1.775822   0.000000
     5  C    2.140647   1.525556   2.199254   2.154875   0.000000
     6  O    2.570074   2.405739   3.265226   2.923589   1.221274
     7  N    3.295504   2.440022   2.589748   2.964735   1.381607
     8  H    3.472542   2.466142   2.267633   2.843869   2.014388
     9  C    4.647752   3.834793   4.063302   4.200989   2.540747
    10  H    5.104627   4.431905   4.603379   4.988776   3.063691
    11  C    5.062782   4.353868   4.893807   4.479360   2.992613
    12  H    4.986947   4.210442   4.801704   4.065222   3.106391
    13  H    6.147106   5.429213   5.913484   5.543001   4.056753
    14  H    4.767848   4.270016   4.969485   4.486691   2.832969
    15  C    5.675299   4.706355   4.682506   4.905249   3.728444
    16  O    6.583591   5.592606   5.655152   5.605248   4.626907
    17  N    5.807945   4.828570   4.488934   5.140213   4.137942
    18  H    5.437562   4.554843   4.117974   5.066145   3.893711
    19  C    7.079484   6.067558   5.608120   6.275478   5.530591
    20  H    7.409446   6.347393   5.981708   6.373311   5.836506
    21  H    7.125291   6.136814   5.503428   6.361544   5.844439
    22  H    7.902075   6.929301   6.491706   7.217009   6.250375
                    6          7          8          9         10
     6  O    0.000000
     7  N    2.299856   0.000000
     8  H    3.136828   1.013074   0.000000
     9  C    2.955909   1.483139   2.099294   0.000000
    10  H    3.277089   2.103279   2.805771   1.100754   0.000000
    11  C    2.929703   2.542022   3.228666   1.530202   2.151231
    12  H    3.181006   2.810003   3.268996   2.172222   3.068002
    13  H    3.945188   3.456911   4.071566   2.147667   2.476069
    14  H    2.333922   2.829304   3.703001   2.166261   2.481328
    15  C    4.382894   2.450316   2.418918   1.547779   2.152440
    16  O    5.169395   3.485576   3.439700   2.437096   3.058116
    17  N    5.014478   2.771545   2.365217   2.460165   2.797544
    18  H    4.779508   2.568924   2.239258   2.557462   2.622524
    19  C    6.446499   4.189384   3.639750   3.834622   4.132070
    20  H    6.731442   4.557757   3.985766   4.110048   4.602575
    21  H    6.873525   4.573920   3.858912   4.539206   4.840690
    22  H    7.064995   4.873107   4.475459   4.298156   4.358196
                   11         12         13         14         15
    11  C    0.000000
    12  H    1.094388   0.000000
    13  H    1.092555   1.765343   0.000000
    14  H    1.088697   1.777438   1.789382   0.000000
    15  C    2.513657   2.780294   2.688975   3.468892   0.000000
    16  O    2.759061   2.794664   2.575208   3.835594   1.220552
    17  N    3.757985   4.012375   4.022260   4.598927   1.375313
    18  H    4.044059   4.448401   4.422334   4.702971   2.049418
    19  C    4.978752   5.121795   5.061308   5.911213   2.466222
    20  H    4.989107   4.939022   5.000612   6.009963   2.600643
    21  H    5.787082   5.878747   5.999187   6.663438   3.326127
    22  H    5.415239   5.710179   5.316028   6.330082   2.970991
                   16         17         18         19         20
    16  O    0.000000
    17  N    2.277695   0.000000
    18  H    3.144676   1.012234   0.000000
    19  C    2.796529   1.456373   2.123718   0.000000
    20  H    2.479307   2.074707   2.970904   1.090631   0.000000
    21  H    3.785800   2.094012   2.424216   1.093589   1.783876
    22  H    3.184073   2.128979   2.605721   1.097886   1.773136
                   21         22
    21  H    0.000000
    22  H    1.784961   0.000000
 Stoichiometry    C6H12N2O2
 Framework group  C1[X(C6H12N2O2)]
 Deg. of freedom    60
 Full point group                 C1      NOp   1
 Largest Abelian subgroup         C1      NOp   1
 Largest concise Abelian subgroup C1      NOp   1
                         Standard orientation:                         
 ---------------------------------------------------------------------
 Center     Atomic      Atomic             Coordinates (Angstroms)
 Number     Number       Type             X           Y           Z
 ---------------------------------------------------------------------
      1          1           0       -3.773805   -1.762804    0.274704
      2          6           0       -2.741305   -1.625505    0.601304
      3          1           0       -2.165905   -2.530905    0.380004
      4          1           0       -2.746405   -1.480005    1.688504
      5          6           0       -2.178204   -0.379205   -0.074696
      6          8           0       -2.893204    0.553495   -0.406896
      7          7           0       -0.816104   -0.428206   -0.300796
      8          1           0       -0.350705   -1.185906    0.184604
      9          6           0        0.054197    0.755394   -0.504196
     10          1           0        0.140297    0.933694   -1.586996
     11          6           0       -0.435203    2.041594    0.164904
     12          1           0       -0.532603    1.900694    1.245804
     13          1           0        0.304498    2.828293   -0.001296
     14          1           0       -1.399902    2.339594   -0.242296
     15          6           0        1.465896    0.403193    0.023704
     16          8           0        2.111697    1.150492    0.740804
     17          7           0        1.924696   -0.835908   -0.357896
     18          1           0        1.456895   -1.288507   -1.133096
     19          6           0        3.280895   -1.265108   -0.045596
     20          1           0        3.551096   -0.859309    0.930004
     21          1           0        3.320895   -2.357408   -0.010696
     22          1           0        4.009896   -0.902709   -0.782196
 ---------------------------------------------------------------------
 Rotational constants (GHZ):      2.2751979      0.7492987      0.6073012
 Standard basis: Aug-CC-pVDZ (5D, 7F)
 There are   338 symmetry adapted basis functions of A   symmetry.
 Integral buffers will be    131072 words long.
 Raffenetti 1 integral format.
 Two-electron integral symmetry is turned on.
   338 basis functions,   562 primitive gaussians,   358 cartesian basis functions
    39 alpha electrons       39 beta electrons
       nuclear repulsion energy       551.1037086374 Hartrees.
 NAtoms=   22 NActive=   22 NUniq=   22 SFac= 7.50D-01 NAtFMM=   80 NAOKFM=F Big=F
 One-electron integrals computed using PRISM.
 NBasis=   338 RedAO= T  NBF=   338
 NBsUse=   338 1.00D-06 NBFU=   338
 Harris functional with IExCor=  205 diagonalized for initial guess.
 ExpMin= 2.97D-02 ExpMax= 1.17D+04 ExpMxC= 4.01D+02 IAcc=3 IRadAn=         0 AccDes= 0.00D+00
 HarFok:  IExCor=  205 AccDes= 0.00D+00 IRadAn=         0 IDoV= 1
 ScaDFX=  1.000000  1.000000  1.000000  1.000000
 FoFCou: FMM=F IPFlag=           0 FMFlag=      100000 FMFlg1=           0
         NFxFlg=           0 DoJE=T BraDBF=F KetDBF=T FulRan=T
         Omega=  0.000000  0.000000  1.000000  0.000000  0.000000 ICntrl=     500 IOpCl=  0
         NMat0=    1 NMatS0=    1 NMatT0=    0 NMatD0=    1 NMtDS0=    0 NMtDT0=    0
         I1Cent=           4 NGrid=           0.
 Petite list used in FoFCou.
 Initial guess orbital symmetries:
       Occupied  (A) (A) (A) (A) (A) (A) (A) (A) (A) (A) (A) (A)
                 (A) (A) (A) (A) (A) (A) (A) (A) (A) (A) (A) (A)
                 (A) (A) (A) (A) (A) (A) (A) (A) (A) (A) (A) (A)
                 (A) (A) (A)
       Virtual   (A) (A) (A) (A) (A) (A) (A) (A) (A) (A) (A) (A)
                 (A) (A) (A) (A) (A) (A) (A) (A) (A) (A) (A) (A)
                 (A) (A) (A) (A) (A) (A) (A) (A) (A) (A) (A) (A)
                 (A) (A) (A) (A) (A) (A) (A) (A) (A) (A) (A) (A)
                 (A) (A) (A) (A) (A) (A) (A) (A) (A) (A) (A) (A)
                 (A) (A) (A) (A) (A) (A) (A) (A) (A) (A) (A) (A)
                 (A) (A) (A) (A) (A) (A) (A) (A) (A) (A) (A) (A)
                 (A) (A) (A) (A) (A) (A) (A) (A) (A) (A) (A) (A)
                 (A) (A) (A) (A) (A) (A) (A) (A) (A) (A) (A) (A)
                 (A) (A) (A) (A) (A) (A) (A) (A) (A) (A) (A) (A)
                 (A) (A) (A) (A) (A) (A) (A) (A) (A) (A) (A) (A)
                 (A) (A) (A) (A) (A) (A) (A) (A) (A) (A) (A) (A)
                 (A) (A) (A) (A) (A) (A) (A) (A) (A) (A) (A) (A)
                 (A) (A) (A) (A) (A) (A) (A) (A) (A) (A) (A) (A)
                 (A) (A) (A) (A) (A) (A) (A) (A) (A) (A) (A) (A)
                 (A) (A) (A) (A) (A) (A) (A) (A) (A) (A) (A) (A)
                 (A) (A) (A) (A) (A) (A) (A) (A) (A) (A) (A) (A)
                 (A) (A) (A) (A) (A) (A) (A) (A) (A) (A) (A) (A)
                 (A) (A) (A) (A) (A) (A) (A) (A) (A) (A) (A) (A)
                 (A) (A) (A) (A) (A) (A) (A) (A) (A) (A) (A) (A)
                 (A) (A) (A) (A) (A) (A) (A) (A) (A) (A) (A) (A)
                 (A) (A) (A) (A) (A) (A) (A) (A) (A) (A) (A) (A)
                 (A) (A) (A) (A) (A) (A) (A) (A) (A) (A) (A) (A)
                 (A) (A) (A) (A) (A) (A) (A) (A) (A) (A) (A) (A)
                 (A) (A) (A) (A) (A) (A) (A) (A) (A) (A) (A)
 The electronic state of the initial guess is 1-A.
 Requested convergence on RMS density matrix=1.00D-08 within 128 cycles.
 Requested convergence on MAX density matrix=1.00D-06.
 Requested convergence on             energy=1.00D-06.
 No special actions if energy rises.
 Initial convergence to 1.0D-05 achieved.  Increase integral accuracy.
 SCF Done:  E(RHF) =  -492.912683923     A.U. after   14 cycles
             Convg  =    0.9420D-08             -V/T =  2.0017
 ExpMin= 2.97D-02 ExpMax= 1.17D+04 ExpMxC= 4.01D+02 IAcc=3 IRadAn=         5 AccDes= 0.00D+00
 HarFok:  IExCor=  205 AccDes= 0.00D+00 IRadAn=         5 IDoV=-2
 ScaDFX=  1.000000  1.000000  1.000000  1.000000
 Range of M.O.s used for correlation:    11   338
 NBasis=   338 NAE=    39 NBE=    39 NFC=    10 NFV=     0
 NROrb=    328 NOA=    29 NOB=    29 NVA=   299 NVB=   299

 **** Warning!!: The largest alpha MO coefficient is  0.75300886D+02

 Disk-based method using OVN memory for 29 occupieds at a time.
 Estimated scratch disk usage=  1378099785 words.
 Actual    scratch disk usage=  1365230773 words.
 JobTyp=1 Pass  1:  I=   1 to  29 NPSUse=  8 ParTrn=T ParDer=T DoDerP=F.
 Spin components of T(2) and E(2):
     alpha-alpha T2 =       0.6803036843D-01 E2=     -0.2058369918D+00
     alpha-beta  T2 =       0.3774880022D+00 E2=     -0.1191090387D+01
     beta-beta   T2 =       0.6803036843D-01 E2=     -0.2058369918D+00
 ANorm=    0.1230263687D+01
 E2 =    -0.1602764370D+01 EUMP2 =    -0.49451544829322D+03

 **********************************************************************

            Population analysis using the SCF density.

 **********************************************************************

 Orbital symmetries:
       Occupied  (A) (A) (A) (A) (A) (A) (A) (A) (A) (A) (A) (A)
                 (A) (A) (A) (A) (A) (A) (A) (A) (A) (A) (A) (A)
                 (A) (A) (A) (A) (A) (A) (A) (A) (A) (A) (A) (A)
                 (A) (A) (A)
       Virtual   (A) (A) (A) (A) (A) (A) (A) (A) (A) (A) (A) (A)
                 (A) (A) (A) (A) (A) (A) (A) (A) (A) (A) (A) (A)
                 (A) (A) (A) (A) (A) (A) (A) (A) (A) (A) (A) (A)
                 (A) (A) (A) (A) (A) (A) (A) (A) (A) (A) (A) (A)
                 (A) (A) (A) (A) (A) (A) (A) (A) (A) (A) (A) (A)
                 (A) (A) (A) (A) (A) (A) (A) (A) (A) (A) (A) (A)
                 (A) (A) (A) (A) (A) (A) (A) (A) (A) (A) (A) (A)
                 (A) (A) (A) (A) (A) (A) (A) (A) (A) (A) (A) (A)
                 (A) (A) (A) (A) (A) (A) (A) (A) (A) (A) (A) (A)
                 (A) (A) (A) (A) (A) (A) (A) (A) (A) (A) (A) (A)
                 (A) (A) (A) (A) (A) (A) (A) (A) (A) (A) (A) (A)
                 (A) (A) (A) (A) (A) (A) (A) (A) (A) (A) (A) (A)
                 (A) (A) (A) (A) (A) (A) (A) (A) (A) (A) (A) (A)
                 (A) (A) (A) (A) (A) (A) (A) (A) (A) (A) (A) (A)
                 (A) (A) (A) (A) (A) (A) (A) (A) (A) (A) (A) (A)
                 (A) (A) (A) (A) (A) (A) (A) (A) (A) (A) (A) (A)
                 (A) (A) (A) (A) (A) (A) (A) (A) (A) (A) (A) (A)
                 (A) (A) (A) (A) (A) (A) (A) (A) (A) (A) (A) (A)
                 (A) (A) (A) (A) (A) (A) (A) (A) (A) (A) (A) (A)
                 (A) (A) (A) (A) (A) (A) (A) (A) (A) (A) (A) (A)
                 (A) (A) (A) (A) (A) (A) (A) (A) (A) (A) (A) (A)
                 (A) (A) (A) (A) (A) (A) (A) (A) (A) (A) (A) (A)
                 (A) (A) (A) (A) (A) (A) (A) (A) (A) (A) (A) (A)
                 (A) (A) (A) (A) (A) (A) (A) (A) (A) (A) (A) (A)
                 (A) (A) (A) (A) (A) (A) (A) (A) (A) (A) (A)
 The electronic state is 1-A.
 Alpha  occ. eigenvalues --  -20.54612 -20.53716 -15.60688 -15.60318 -11.37132
 Alpha  occ. eigenvalues --  -11.36882 -11.29980 -11.27813 -11.25196 -11.21657
 Alpha  occ. eigenvalues --   -1.40017  -1.38928  -1.25479  -1.22943  -1.05469
 Alpha  occ. eigenvalues --   -0.99164  -0.96760  -0.87717  -0.80014  -0.77824
 Alpha  occ. eigenvalues --   -0.73491  -0.67333  -0.67093  -0.65394  -0.62957
 Alpha  occ. eigenvalues --   -0.62323  -0.60563  -0.59211  -0.57106  -0.55964
 Alpha  occ. eigenvalues --   -0.54974  -0.53719  -0.52617  -0.51504  -0.49976
 Alpha  occ. eigenvalues --   -0.44467  -0.42342  -0.40522  -0.40303
 Alpha virt. eigenvalues --    0.02245   0.03737   0.04090   0.04611   0.05499
 Alpha virt. eigenvalues --    0.05970   0.06610   0.06794   0.07138   0.08400
 Alpha virt. eigenvalues --    0.08836   0.08980   0.10752   0.12057   0.13231
 Alpha virt. eigenvalues --    0.13477   0.13931   0.14287   0.14756   0.14883
 Alpha virt. eigenvalues --    0.15490   0.15921   0.16145   0.16265   0.17119
 Alpha virt. eigenvalues --    0.17464   0.17635   0.18001   0.18660   0.19446
 Alpha virt. eigenvalues --    0.20032   0.20747   0.20854   0.21123   0.21205
 Alpha virt. eigenvalues --    0.23659   0.23757   0.24477   0.25260   0.26774
 Alpha virt. eigenvalues --    0.27233   0.28265   0.28459   0.29776   0.30347
 Alpha virt. eigenvalues --    0.30938   0.31789   0.32190   0.32773   0.34025
 Alpha virt. eigenvalues --    0.34212   0.34567   0.34985   0.35572   0.36242
 Alpha virt. eigenvalues --    0.37375   0.37825   0.38233   0.38433   0.38806
 Alpha virt. eigenvalues --    0.40032   0.40380   0.41513   0.41764   0.42801
 Alpha virt. eigenvalues --    0.43330   0.43962   0.44496   0.44929   0.45296
 Alpha virt. eigenvalues --    0.46109   0.46577   0.47686   0.48534   0.49401
 Alpha virt. eigenvalues --    0.50168   0.50326   0.50667   0.51437   0.52212
 Alpha virt. eigenvalues --    0.53386   0.53958   0.54299   0.54949   0.55893
 Alpha virt. eigenvalues --    0.56084   0.56393   0.57983   0.58402   0.58696
 Alpha virt. eigenvalues --    0.59404   0.59641   0.61010   0.61037   0.61839
 Alpha virt. eigenvalues --    0.62771   0.63311   0.63999   0.64414   0.65275
 Alpha virt. eigenvalues --    0.65692   0.66424   0.66805   0.67599   0.68590
 Alpha virt. eigenvalues --    0.68943   0.69368   0.69711   0.70198   0.71190
 Alpha virt. eigenvalues --    0.72230   0.73172   0.73912   0.74328   0.75166
 Alpha virt. eigenvalues --    0.76019   0.76274   0.76433   0.78358   0.79263
 Alpha virt. eigenvalues --    0.80442   0.80483   0.81869   0.82058   0.83028
 Alpha virt. eigenvalues --    0.84164   0.84470   0.85644   0.86641   0.87969
 Alpha virt. eigenvalues --    0.88514   0.90139   0.91351   0.93074   0.93441
 Alpha virt. eigenvalues --    0.93517   0.95126   0.96420   0.97600   0.98142
 Alpha virt. eigenvalues --    0.99308   1.00703   1.01653   1.03217   1.04167
 Alpha virt. eigenvalues --    1.05265   1.07665   1.07983   1.10234   1.10419
 Alpha virt. eigenvalues --    1.10663   1.12912   1.12952   1.14239   1.16172
 Alpha virt. eigenvalues --    1.17781   1.18488   1.20770   1.20967   1.21896
 Alpha virt. eigenvalues --    1.24282   1.24646   1.25469   1.29035   1.30927
 Alpha virt. eigenvalues --    1.31239   1.33219   1.35923   1.37095   1.38457
 Alpha virt. eigenvalues --    1.40028   1.41036   1.42684   1.44358   1.46789
 Alpha virt. eigenvalues --    1.48641   1.49439   1.50693   1.52743   1.55519
 Alpha virt. eigenvalues --    1.55673   1.58443   1.60013   1.61624   1.63406
 Alpha virt. eigenvalues --    1.66168   1.66594   1.68918   1.69933   1.70892
 Alpha virt. eigenvalues --    1.74547   1.75328   1.76450   1.78058   1.79397
 Alpha virt. eigenvalues --    1.80795   1.82595   1.84470   1.86213   1.87768
 Alpha virt. eigenvalues --    1.88162   1.89046   1.90307   1.91033   1.92485
 Alpha virt. eigenvalues --    1.94123   1.95982   1.97818   1.98818   2.01244
 Alpha virt. eigenvalues --    2.02535   2.03390   2.05044   2.05982   2.08216
 Alpha virt. eigenvalues --    2.10330   2.11638   2.14144   2.16168   2.17102
 Alpha virt. eigenvalues --    2.18327   2.19414   2.19896   2.21481   2.21851
 Alpha virt. eigenvalues --    2.22606   2.24229   2.26509   2.28169   2.29457
 Alpha virt. eigenvalues --    2.30509   2.31159   2.33436   2.36178   2.37526
 Alpha virt. eigenvalues --    2.38126   2.39745   2.42561   2.42976   2.43715
 Alpha virt. eigenvalues --    2.46119   2.47265   2.47644   2.50189   2.52305
 Alpha virt. eigenvalues --    2.53506   2.54265   2.55817   2.57683   2.59205
 Alpha virt. eigenvalues --    2.59792   2.63982   2.65393   2.67332   2.68893
 Alpha virt. eigenvalues --    2.70821   2.73201   2.76685   2.78468   2.79700
 Alpha virt. eigenvalues --    2.80980   2.81530   2.85221   2.86685   2.89553
 Alpha virt. eigenvalues --    2.90208   2.91906   2.93727   2.96462   2.97327
 Alpha virt. eigenvalues --    3.00250   3.02612   3.04411   3.07053   3.08604
 Alpha virt. eigenvalues --    3.09677   3.12423   3.15762   3.19610   3.24637
 Alpha virt. eigenvalues --    3.31134   3.32504   3.40484   3.49838   3.52106
 Alpha virt. eigenvalues --    3.59196   3.63995   3.75640   3.82347   3.83793
 Alpha virt. eigenvalues --    3.84735   3.87333   3.88054   3.94350   4.02482
 Alpha virt. eigenvalues --    4.03842   4.14414   4.19646   4.23670
          Condensed to atoms (all electrons):
              1          2          3          4          5          6
     1  H    0.825178   0.401456  -0.120812  -0.061880  -0.077604   0.029054
     2  C    0.401456   4.508638   0.309759   0.352713   0.192152  -0.029627
     3  H   -0.120812   0.309759   1.007464  -0.065604   0.118980  -0.002320
     4  H   -0.061880   0.352713  -0.065604   0.733800  -0.074419   0.009546
     5  C   -0.077604   0.192152   0.118980  -0.074419   5.460267   0.229703
     6  O    0.029054  -0.029627  -0.002320   0.009546   0.229703   8.707862
     7  N    0.047989  -0.005424  -0.151966   0.041665   0.021450  -0.157741
     8  H   -0.007832  -0.064137   0.021710  -0.012031  -0.066892   0.002102
     9  C   -0.003094   0.007439  -0.031382   0.010959  -0.234258   0.081906
    10  H   -0.001693   0.004694   0.001871   0.000311   0.031960   0.015455
    11  C    0.003854   0.002118  -0.006026  -0.000263  -0.077722  -0.009827
    12  H   -0.000475  -0.001345   0.001744  -0.001293   0.016351   0.019418
    13  H   -0.000170  -0.001828  -0.001121   0.000296  -0.060263   0.002132
    14  H    0.000940   0.005327   0.001205  -0.000086   0.081291  -0.050479
    15  C   -0.001550  -0.001884  -0.005895   0.005624  -0.098017  -0.011445
    16  O    0.000063   0.000721   0.000128   0.000154   0.014164  -0.001750
    17  N   -0.000010   0.006856  -0.002398   0.002372  -0.041203  -0.003846
    18  H    0.000512   0.003446   0.000294  -0.000369   0.005391   0.000081
    19  C   -0.000147  -0.001491  -0.001437   0.000865  -0.007060  -0.000413
    20  H   -0.000045  -0.000600  -0.000076  -0.000028   0.000293   0.000069
    21  H    0.000016   0.000223  -0.000638   0.000183  -0.000029   0.000047
    22  H    0.000017   0.000470   0.000272   0.000030  -0.001166  -0.000017
              7          8          9         10         11         12
     1  H    0.047989  -0.007832  -0.003094  -0.001693   0.003854  -0.000475
     2  C   -0.005424  -0.064137   0.007439   0.004694   0.002118  -0.001345
     3  H   -0.151966   0.021710  -0.031382   0.001871  -0.006026   0.001744
     4  H    0.041665  -0.012031   0.010959   0.000311  -0.000263  -0.001293
     5  C    0.021450  -0.066892  -0.234258   0.031960  -0.077722   0.016351
     6  O   -0.157741   0.002102   0.081906   0.015455  -0.009827   0.019418
     7  N    7.485769   0.313192  -0.238311  -0.103543   0.040729  -0.036571
     8  H    0.313192   0.934904  -0.103738   0.007888   0.016752  -0.000189
     9  C   -0.238311  -0.103738   7.377803   0.078435   0.098935  -0.087442
    10  H   -0.103543   0.007888   0.078435   1.161869  -0.003434   0.074166
    11  C    0.040729   0.016752   0.098935  -0.003434   4.377769   0.278903
    12  H   -0.036571  -0.000189  -0.087442   0.074166   0.278903   1.060708
    13  H    0.053331   0.001034  -0.204177  -0.036383   0.316128  -0.121221
    14  H   -0.034038   0.000066   0.165068  -0.035549   0.262274  -0.173729
    15  C    0.126707  -0.069397  -0.614708  -0.038862   0.016825  -0.019108
    16  O   -0.027437   0.006543  -0.017933  -0.002583  -0.012645   0.020260
    17  N   -0.063054  -0.022998   0.048391  -0.027121  -0.012572  -0.005202
    18  H    0.050666   0.006488  -0.083206   0.000072   0.013492  -0.002929
    19  C   -0.004453  -0.001700  -0.080433   0.003154   0.004114   0.000823
    20  H    0.007625   0.002353   0.015169   0.003184  -0.006013   0.000365
    21  H    0.004956   0.002984  -0.023998  -0.002924   0.003724  -0.000269
    22  H   -0.008833  -0.009091   0.017809   0.000965   0.002866   0.000762
             13         14         15         16         17         18
     1  H   -0.000170   0.000940  -0.001550   0.000063  -0.000010   0.000512
     2  C   -0.001828   0.005327  -0.001884   0.000721   0.006856   0.003446
     3  H   -0.001121   0.001205  -0.005895   0.000128  -0.002398   0.000294
     4  H    0.000296  -0.000086   0.005624   0.000154   0.002372  -0.000369
     5  C   -0.060263   0.081291  -0.098017   0.014164  -0.041203   0.005391
     6  O    0.002132  -0.050479  -0.011445  -0.001750  -0.003846   0.000081
     7  N    0.053331  -0.034038   0.126707  -0.027437  -0.063054   0.050666
     8  H    0.001034   0.000066  -0.069397   0.006543  -0.022998   0.006488
     9  C   -0.204177   0.165068  -0.614708  -0.017933   0.048391  -0.083206
    10  H   -0.036383  -0.035549  -0.038862  -0.002583  -0.027121   0.000072
    11  C    0.316128   0.262274   0.016825  -0.012645  -0.012572   0.013492
    12  H   -0.121221  -0.173729  -0.019108   0.020260  -0.005202  -0.002929
    13  H    1.246808  -0.254713   0.151826  -0.033368   0.006932   0.001675
    14  H   -0.254713   1.045072  -0.091578   0.015438   0.003078   0.000210
    15  C    0.151826  -0.091578   5.382595   0.298509   0.158547  -0.040443
    16  O   -0.033368   0.015438   0.298509   8.703221  -0.177664   0.008258
    17  N    0.006932   0.003078   0.158547  -0.177664   7.152861   0.283245
    18  H    0.001675   0.000210  -0.040443   0.008258   0.283245   0.967845
    19  C    0.007198  -0.001591  -0.046273  -0.013964   0.273358  -0.121482
    20  H   -0.000802  -0.000106   0.014197  -0.018880   0.005435   0.005627
    21  H    0.000429   0.000221   0.006187   0.011719  -0.144537   0.015943
    22  H    0.000505  -0.000260  -0.036048   0.001605   0.034629  -0.010343
             19         20         21         22
     1  H   -0.000147  -0.000045   0.000016   0.000017
     2  C   -0.001491  -0.000600   0.000223   0.000470
     3  H   -0.001437  -0.000076  -0.000638   0.000272
     4  H    0.000865  -0.000028   0.000183   0.000030
     5  C   -0.007060   0.000293  -0.000029  -0.001166
     6  O   -0.000413   0.000069   0.000047  -0.000017
     7  N   -0.004453   0.007625   0.004956  -0.008833
     8  H   -0.001700   0.002353   0.002984  -0.009091
     9  C   -0.080433   0.015169  -0.023998   0.017809
    10  H    0.003154   0.003184  -0.002924   0.000965
    11  C    0.004114  -0.006013   0.003724   0.002866
    12  H    0.000823   0.000365  -0.000269   0.000762
    13  H    0.007198  -0.000802   0.000429   0.000505
    14  H   -0.001591  -0.000106   0.000221  -0.000260
    15  C   -0.046273   0.014197   0.006187  -0.036048
    16  O   -0.013964  -0.018880   0.011719   0.001605
    17  N    0.273358   0.005435  -0.144537   0.034629
    18  H   -0.121482   0.005627   0.015943  -0.010343
    19  C    4.081507   0.391558   0.417139   0.326592
    20  H    0.391558   0.956842  -0.171232  -0.091978
    21  H    0.417139  -0.171232   1.211791  -0.167839
    22  H    0.326592  -0.091978  -0.167839   1.015272
 Mulliken atomic charges:
              1
     1  H   -0.033768
     2  C    0.310324
     3  H   -0.073752
     4  H    0.057455
     5  C    0.566631
     6  O   -0.829913
     7  N   -0.362707
     8  H    0.041990
     9  C   -0.179234
    10  H   -0.131933
    11  C    0.690018
    12  H   -0.023727
    13  H   -0.074248
    14  H    0.061939
    15  C    0.914193
    16  O   -0.774560
    17  N   -0.475097
    18  H   -0.104475
    19  C    0.774136
    20  H   -0.112956
    21  H   -0.164096
    22  H   -0.076218
 Sum of Mulliken atomic charges =   0.00000
 Mulliken charges with hydrogens summed into heavy atoms:
              1
     2  C    0.260258
     5  C    0.566631
     6  O   -0.829913
     7  N   -0.320717
     9  C   -0.311167
    11  C    0.653982
    15  C    0.914193
    16  O   -0.774560
    17  N   -0.579572
    19  C    0.420866
 Sum of Mulliken charges with hydrogens summed into heavy atoms =   0.00000
 Electronic spatial extent (au):  <R**2>=           1899.1951
 Charge=              0.0000 electrons
 Dipole moment (field-independent basis, Debye):
    X=              1.6735    Y=             -4.8753    Z=             -0.8803  Tot=              5.2292
 Quadrupole moment (field-independent basis, Debye-Ang):
   XX=            -70.6665   YY=            -59.2323   ZZ=            -60.7215
   XY=             -0.5588   XZ=             -8.4670   YZ=             -1.9355
 Traceless Quadrupole moment (field-independent basis, Debye-Ang):
   XX=             -7.1264   YY=              4.3078   ZZ=              2.8186
   XY=             -0.5588   XZ=             -8.4670   YZ=             -1.9355
 Octapole moment (field-independent basis, Debye-Ang**2):
  XXX=             36.4143  YYY=             -7.7261  ZZZ=             -1.1778  XYY=             -3.8537
  XXY=            -40.8929  XXZ=              2.4511  XZZ=             -0.3115  YZZ=             -2.3624
  YYZ=             -4.3915  XYZ=             -3.5095
 Hexadecapole moment (field-independent basis, Debye-Ang**3):
 XXXX=          -1778.7723 YYYY=           -590.7442 ZZZZ=           -147.0570 XXXY=             16.1283
 XXXZ=            -39.1156 YYYX=            -12.0576 YYYZ=              1.1463 ZZZX=             -4.0772
 ZZZY=              0.8100 XXYY=           -384.4784 XXZZ=           -314.2916 YYZZ=           -128.1228
 XXYZ=             -7.1073 YYXZ=             -8.7626 ZZXY=             -4.0745
 N-N= 5.511037086374D+02 E-N=-2.257204350138D+03  KE= 4.920549499501D+02
 1\1\GINC-NODE001\SP\RMP2-FC\Aug-CC-pVDZ\C6H12N2O2\STEBOSS\12-Feb-2017\
 0\\#SP MP2/aug-cc-pVDZ\\Single Point calculation at MP2\\0,1\H,0,-3.77
 38,-1.7628,0.2747\C,0,-2.7413,-1.6255,0.6013\H,0,-2.1659,-2.5309,0.38\
 H,0,-2.7464,-1.48,1.6885\C,0,-2.1782,-0.3792,-0.0747\O,0,-2.8932,0.553
 5,-0.4069\N,0,-0.8161,-0.4282,-0.3008\H,0,-0.3507,-1.1859,0.1846\C,0,0
 .0542,0.7554,-0.5042\H,0,0.1403,0.9337,-1.587\C,0,-0.4352,2.0416,0.164
 9\H,0,-0.5326,1.9007,1.2458\H,0,0.3045,2.8283,-0.0013\H,0,-1.3999,2.33
 96,-0.2423\C,0,1.4659,0.4032,0.0237\O,0,2.1117,1.1505,0.7408\N,0,1.924
 7,-0.8359,-0.3579\H,0,1.4569,-1.2885,-1.1331\C,0,3.2809,-1.2651,-0.045
 6\H,0,3.5511,-0.8593,0.93\H,0,3.3209,-2.3574,-0.0107\H,0,4.0099,-0.902
 7,-0.7822\\Version=EM64L-G09RevA.02\State=1-A\HF=-492.9126839\MP2=-494
 .5154483\RMSD=9.420e-09\PG=C01 [X(C6H12N2O2)]\\@


 YOU WILL NEVER "FIND" TIME FOR ANYTHING.
 IF YOU WANT TIME, YOU MUST MAKE IT.

                        -- CHARLES BIXTON
 Job cpu time:  0 days 11 hours 20 minutes  0.7 seconds.
 File lengths (MBytes):  RWF=  10532 Int=      0 D2E=      0 Chk=      7 Scr=      2
 Normal termination of Gaussian 09 at Sun Feb 12 22:21:52 2017.
